Generated by trjconv : CNT in water t= 563.00000
33518
    1C        C    1   2.841   2.770   4.749
    1C        C    2   2.899   2.721   4.868
    1C        C    3   2.839   2.776   4.983
    1C        C    4   2.848   2.777   4.263
    1C        C    5   2.898   2.729   4.386
    1C        C    6   2.842   2.770   4.508
    1C        C    7   3.011   2.638   4.629
    1C        C    8   2.896   2.720   4.629
    1C        C    9   3.071   2.599   4.751
    1C        C   10   3.006   2.630   4.873
    1C        C   11   3.181   2.489   4.976
    1C        C   12   3.061   2.561   4.982
    1C        C   13   2.850   2.772   3.775
    1C        C   14   2.901   2.727   3.899
    1C        C   15   2.849   2.776   4.021
    1C        C   16   3.020   2.648   4.140
    1C        C   17   2.903   2.727   4.142
    1C        C   18   3.080   2.614   4.264
    1C        C   19   3.014   2.648   4.385
    1C        C   20   3.210   2.566   4.507
    1C        C   21   3.076   2.611   4.506
    1C        C   22   3.280   2.547   4.628
    1C        C   23   3.205   2.553   4.748
    1C        C   24   3.412   2.492   4.867
    1C        C   25   3.269   2.503   4.864
    1C        C   26   3.492   2.487   4.982
    1C        C   27   2.851   2.768   3.283
    1C        C   28   2.901   2.724   3.407
    1C        C   29   2.852   2.775   3.530
    1C        C   30   3.020   2.647   3.651
    1C        C   31   2.902   2.726   3.652
    1C        C   32   3.079   2.613   3.774
    1C        C   33   3.016   2.646   3.897
    1C        C   34   3.209   2.555   4.019
    1C        C   35   3.079   2.609   4.018
    1C        C   36   3.278   2.537   4.142
    1C        C   37   3.211   2.561   4.264
    1C        C   38   3.419   2.520   4.383
    1C        C   39   3.280   2.545   4.386
    1C        C   40   3.488   2.506   4.505
    1C        C   41   3.417   2.512   4.627
    1C        C   42   3.631   2.491   4.746
    1C        C   43   3.489   2.492   4.747
    1C        C   44   3.708   2.494   4.864
    1C        C   45   3.631   2.481   4.980
    1C        C   46   2.839   2.758   2.794
    1C        C   47   2.894   2.710   2.915
    1C        C   48   2.845   2.762   3.037
    1C        C   49   3.021   2.646   3.163
    1C        C   50   2.902   2.722   3.159
    1C        C   51   3.079   2.606   3.286
    1C        C   52   3.016   2.642   3.407
    1C        C   53   3.212   2.557   3.530
    1C        C   54   3.082   2.612   3.529
    1C        C   55   3.278   2.537   3.654
    1C        C   56   3.210   2.558   3.775
    1C        C   57   3.415   2.506   3.896
    1C        C   58   3.276   2.532   3.897
    1C        C   59   3.487   2.504   4.018
    1C        C   60   3.416   2.510   4.141
    1C        C   61   3.631   2.510   4.260
    1C        C   62   3.490   2.507   4.262
    1C        C   63   3.701   2.513   4.383
    1C        C   64   3.629   2.506   4.504
    1C        C   65   3.839   2.543   4.624
    1C        C   66   3.702   2.510   4.625
    1C        C   67   3.909   2.560   4.746
    1C        C   68   3.846   2.524   4.866
    1C        C   69   4.053   2.590   4.979
    1C        C   70   3.922   2.541   4.983
    1C        C   71   2.825   2.734   2.311
    1C        C   72   2.886   2.697   2.432
    1C        C   73   2.833   2.747   2.553
    1C        C   74   3.010   2.627   2.676
    1C        C   75   2.893   2.706   2.674
    1C        C   76   3.075   2.593   2.797
    1C        C   77   3.016   2.639   2.917
    1C        C   78   3.208   2.552   3.041
    1C        C   79   3.079   2.608   3.040
    1C        C   80   3.276   2.528   3.163
    1C        C   81   3.207   2.547   3.285
    1C        C   82   3.416   2.507   3.404
    1C        C   83   3.277   2.533   3.407
    1C        C   84   3.484   2.501   3.528
    1C        C   85   3.416   2.509   3.651
    1C        C   86   3.627   2.504   3.770
    1C        C   87   3.486   2.500   3.774
    1C        C   88   3.697   2.512   3.892
    1C        C   89   3.628   2.501   4.015
    1C        C   90   3.837   2.549   4.138
    1C        C   91   3.700   2.516   4.136
    1C        C   92   3.907   2.570   4.259
    1C        C   93   3.838   2.548   4.380
    1C        C   94   4.030   2.636   4.500
    1C        C   95   3.906   2.568   4.502
    1C        C   96   4.094   2.670   4.621
    1C        C   97   4.035   2.626   4.742
    1C        C   98   4.191   2.770   4.861
    1C        C   99   4.104   2.656   4.863
    1C        C  100   4.216   2.843   4.978
    1C        C  101   2.822   2.729   2.073
    1C        C  102   2.993   2.594   2.190
    1C        C  103   2.875   2.676   2.191
    1C        C  104   3.066   2.577   2.311
    1C        C  105   3.005   2.621   2.431
    1C        C  106   3.203   2.541   2.552
    1C        C  107   3.071   2.592   2.553
    1C        C  108   3.272   2.517   2.673
    1C        C  109   3.205   2.539   2.795
    1C        C  110   3.412   2.500   2.916
    1C        C  111   3.273   2.524   2.918
    1C        C  112   3.486   2.498   3.037
    1C        C  113   3.414   2.502   3.159
    1C        C  114   3.626   2.498   3.281
    1C        C  115   3.485   2.496   3.281
    1C        C  116   3.697   2.510   3.402
    1C        C  117   3.626   2.501   3.524
    1C        C  118   3.832   2.544   3.646
    1C        C  119   3.696   2.506   3.647
    1C        C  120   3.898   2.575   3.768
    1C        C  121   3.833   2.550   3.890
    1C        C  122   4.025   2.637   4.013
    1C        C  123   3.898   2.574   4.013
    1C        C  124   4.086   2.679   4.134
    1C        C  125   4.030   2.639   4.257
    1C        C  126   4.196   2.769   4.378
    1C        C  127   4.091   2.675   4.379
    1C        C  128   4.244   2.822   4.500
    1C        C  129   4.198   2.765   4.621
    1C        C  130   4.322   2.942   4.741
    1C        C  131   4.248   2.820   4.741
    1C        C  132   4.350   3.011   4.861
    1C        C  133   4.281   2.966   4.974
    1C        C  134   3.176   2.470   2.083
    1C        C  135   3.042   2.510   2.085
    1C        C  136   3.261   2.484   2.194
    1C        C  137   3.197   2.523   2.314
    1C        C  138   3.409   2.477   2.431
    1C        C  139   3.271   2.507   2.433
    1C        C  140   3.483   2.486   2.551
    1C        C  141   3.412   2.498   2.673
    1C        C  142   3.624   2.499   2.794
    1C        C  143   3.483   2.487   2.794
    1C        C  144   3.696   2.512   2.915
    1C        C  145   3.627   2.501   3.037
    1C        C  146   3.834   2.544   3.156
    1C        C  147   3.698   2.505   3.159
    1C        C  148   3.900   2.568   3.278
    1C        C  149   3.834   2.542   3.401
    1C        C  150   4.026   2.628   3.525
    1C        C  151   3.900   2.565   3.524
    1C        C  152   4.087   2.667   3.646
    1C        C  153   4.025   2.636   3.769
    1C        C  154   4.193   2.765   3.889
    1C        C  155   4.084   2.676   3.891
    1C        C  156   4.246   2.814   4.011
    1C        C  157   4.200   2.764   4.134
    1C        C  158   4.340   2.924   4.254
    1C        C  159   4.251   2.814   4.256
    1C        C  160   4.379   2.986   4.375
    1C        C  161   4.333   2.932   4.497
    1C        C  162   4.436   3.119   4.616
    1C        C  163   4.364   2.997   4.618
    1C        C  164   4.464   3.188   4.736
    1C        C  165   4.429   3.128   4.859
    1C        C  166   4.513   3.327   4.975
    1C        C  167   4.475   3.194   4.974
    1C        C  168   3.479   2.439   2.079
    1C        C  169   3.399   2.459   2.193
    1C        C  170   3.621   2.467   2.309
    1C        C  171   3.479   2.462   2.309
    1C        C  172   3.695   2.490   2.427
    1C        C  173   3.624   2.496   2.549
    1C        C  174   3.830   2.539   2.666
    1C        C  175   3.693   2.506   2.671
    1C        C  176   3.898   2.561   2.787
    1C        C  177   3.835   2.538   2.912
    1C        C  178   4.025   2.632   3.034
    1C        C  179   3.902   2.562   3.034
    1C        C  180   4.084   2.670   3.156
    1C        C  181   4.027   2.630   3.279
    1C        C  182   4.196   2.754   3.401
    1C        C  183   4.087   2.664   3.403
    1C        C  184   4.247   2.808   3.521
    1C        C  185   4.195   2.759   3.643
    1C        C  186   4.332   2.921   3.764
    1C        C  187   4.241   2.813   3.765
    1C        C  188   4.372   2.981   3.886
    1C        C  189   4.333   2.925   4.010
    1C        C  190   4.446   3.106   4.129
    1C        C  191   4.378   2.981   4.131
    1C        C  192   4.476   3.173   4.249
    1C        C  193   4.447   3.110   4.372
    1C        C  194   4.507   3.317   4.491
    1C        C  195   4.466   3.182   4.493
    1C        C  196   4.526   3.389   4.611
    1C        C  197   4.510   3.322   4.734
    1C        C  198   4.557   3.536   4.851
    1C        C  199   4.536   3.394   4.854
    1C        C  200   4.582   3.621   4.963
    1C        C  201   3.617   2.414   2.077
    1C        C  202   3.829   2.510   2.183
    1C        C  203   3.695   2.460   2.188
    1C        C  204   3.900   2.541   2.302
    1C        C  205   3.833   2.520   2.425
    1C        C  206   4.029   2.612   2.543
    1C        C  207   3.902   2.551   2.545
    1C        C  208   4.084   2.658   2.665
    1C        C  209   4.025   2.622   2.788
    1C        C  210   4.197   2.749   2.910
    1C        C  211   4.085   2.664   2.910
    1C        C  212   4.252   2.797   3.031
    1C        C  213   4.200   2.751   3.154
    1C        C  214   4.333   2.912   3.272
    1C        C  215   4.248   2.800   3.277
    1C        C  216   4.371   2.972   3.394
    1C        C  217   4.334   2.920   3.520
    1C        C  218   4.437   3.105   3.639
    1C        C  219   4.376   2.978   3.642
    1C        C  220   4.467   3.171   3.761
    1C        C  221   4.442   3.104   3.882
    1C        C  222   4.504   3.306   4.005
    1C        C  223   4.470   3.169   4.005
    1C        C  224   4.519   3.380   4.124
    1C        C  225   4.509   3.310   4.246
    1C        C  226   4.521   3.525   4.367
    1C        C  227   4.517   3.383   4.367
    1C        C  228   4.522   3.600   4.487
    1C        C  229   4.532   3.531   4.609
    1C        C  230   4.509   3.745   4.729
    1C        C  231   4.543   3.606   4.728
    1C        C  232   4.497   3.823   4.846
    1C        C  233   4.541   3.754   4.960
    1C        C  234   4.021   2.608   2.065
    1C        C  235   3.899   2.541   2.065
    1C        C  236   4.090   2.646   2.181
    1C        C  237   4.026   2.608   2.301
    1C        C  238   4.202   2.735   2.421
    1C        C  239   4.091   2.647   2.421
    1C        C  240   4.257   2.784   2.542
    1C        C  241   4.197   2.742   2.663
    1C        C  242   4.330   2.908   2.782
    1C        C  243   4.245   2.795   2.785
    1C        C  244   4.375   2.965   2.903
    1C        C  245   4.339   2.909   3.028
    1C        C  246   4.437   3.097   3.149
    1C        C  247   4.371   2.972   3.150
    1C        C  248   4.459   3.163   3.272
    1C        C  249   4.433   3.098   3.395
    1C        C  250   4.502   3.304   3.515
    1C        C  251   4.461   3.168   3.515
    1C        C  252   4.516   3.372   3.638
    1C        C  253   4.505   3.307   3.762
    1C        C  254   4.530   3.518   3.879
    1C        C  255   4.518   3.378   3.884
    1C        C  256   4.529   3.591   4.000
    1C        C  257   4.522   3.522   4.123
    1C        C  258   4.496   3.734   4.241
    1C        C  259   4.519   3.594   4.244
    1C        C  260   4.476   3.804   4.362
    1C        C  261   4.494   3.738   4.486
    1C        C  262   4.430   3.941   4.605
    1C        C  263   4.484   3.811   4.607
    1C        C  264   4.399   4.012   4.723
    1C        C  265   4.436   3.950   4.845
    1C        C  266   4.323   4.131   4.959
    1C        C  267   4.399   4.014   4.964
    1C        C  268   4.262   2.775   2.061
    1C        C  269   4.201   2.733   2.179
    1C        C  270   4.347   2.892   2.297
    1C        C  271   4.253   2.787   2.299
    1C        C  272   4.383   2.954   2.419
    1C        C  273   4.345   2.894   2.541
    1C        C  274   4.443   3.087   2.659
    1C        C  275   4.378   2.962   2.661
    1C        C  276   4.471   3.154   2.781
    1C        C  277   4.442   3.089   2.903
    1C        C  278   4.505   3.293   3.027
    1C        C  279   4.467   3.157   3.024
    1C        C  280   4.514   3.366   3.147
    1C        C  281   4.499   3.298   3.270
    1C        C  282   4.520   3.512   3.391
    1C        C  283   4.513   3.371   3.391
    1C        C  284   4.517   3.582   3.513
    1C        C  285   4.518   3.513   3.636
    1C        C  286   4.490   3.725   3.753
    1C        C  287   4.520   3.587   3.757
    1C        C  288   4.477   3.795   3.875
    1C        C  289   4.502   3.730   3.998
    1C        C  290   4.431   3.934   4.118
    1C        C  291   4.481   3.802   4.119
    1C        C  292   4.401   4.000   4.239
    1C        C  293   4.429   3.937   4.362
    1C        C  294   4.329   4.128   4.480
    1C        C  295   4.398   4.004   4.483
    1C        C  296   4.283   4.188   4.600
    1C        C  297   4.325   4.133   4.723
    1C        C  298   4.195   4.310   4.841
    1C        C  299   4.286   4.199   4.843
    1C        C  300   4.164   4.399   4.949
    1C        C  301   4.353   2.880   2.060
    1C        C  302   4.465   3.072   2.176
    1C        C  303   4.398   2.946   2.176
    1C        C  304   4.478   3.147   2.297
    1C        C  305   4.447   3.080   2.417
    1C        C  306   4.510   3.287   2.539
    1C        C  307   4.471   3.152   2.537
    1C        C  308   4.521   3.360   2.660
    1C        C  309   4.505   3.291   2.781
    1C        C  310   4.528   3.501   2.899
    1C        C  311   4.521   3.360   2.903
    1C        C  312   4.521   3.573   3.020
    1C        C  313   4.515   3.508   3.145
    1C        C  314   4.491   3.719   3.265
    1C        C  315   4.514   3.580   3.267
    1C        C  316   4.479   3.788   3.388
    1C        C  317   4.498   3.722   3.511
    1C        C  318   4.427   3.927   3.630
    1C        C  319   4.477   3.795   3.631
    1C        C  320   4.391   3.988   3.752
    1C        C  321   4.426   3.927   3.874
    1C        C  322   4.319   4.111   3.993
    1C        C  323   4.400   3.995   3.995
    1C        C  324   4.274   4.168   4.114
    1C        C  325   4.322   4.118   4.236
    1C        C  326   4.187   4.283   4.356
    1C        C  327   4.284   4.180   4.357
    1C        C  328   4.136   4.339   4.475
    1C        C  329   4.189   4.294   4.598
    1C        C  330   4.024   4.435   4.713
    1C        C  331   4.137   4.348   4.717
    1C        C  332   3.972   4.491   4.832
    1C        C  333   4.049   4.478   4.948
    1C        C  334   4.550   3.268   2.064
    1C        C  335   4.535   3.129   2.064
    1C        C  336   4.541   3.353   2.175
    1C        C  337   4.517   3.283   2.296
    1C        C  338   4.519   3.498   2.409
    1C        C  339   4.516   3.357   2.416
    1C        C  340   4.520   3.568   2.532
    1C        C  341   4.526   3.501   2.656
    1C        C  342   4.504   3.713   2.774
    1C        C  343   4.527   3.574   2.778
    1C        C  344   4.481   3.781   2.896
    1C        C  345   4.495   3.712   3.019
    1C        C  346   4.428   3.916   3.139
    1C        C  347   4.473   3.782   3.139
    1C        C  348   4.399   3.983   3.260
    1C        C  349   4.432   3.921   3.383
    1C        C  350   4.319   4.101   3.502
    1C        C  351   4.400   3.986   3.504
    1C        C  352   4.276   4.161   3.623
    1C        C  353   4.313   4.106   3.748
    1C        C  354   4.170   4.261   3.868
    1C        C  355   4.274   4.165   3.870
    1C        C  356   4.117   4.309   3.990
    1C        C  357   4.171   4.266   4.113
    1C        C  358   4.008   4.397   4.231
    1C        C  359   4.129   4.323   4.234
    1C        C  360   3.948   4.442   4.351
    1C        C  361   4.017   4.415   4.472
    1C        C  362   3.828   4.515   4.594
    1C        C  363   3.958   4.461   4.591
    1C        C  364   3.763   4.547   4.716
    1C        C  365   3.842   4.545   4.833
    1C        C  366   3.632   4.588   4.951
    1C        C  367   3.770   4.575   4.950
    1C        C  368   4.509   3.565   2.050
    1C        C  369   4.528   3.493   2.168
    1C        C  370   4.500   3.709   2.286
    1C        C  371   4.517   3.569   2.287
    1C        C  372   4.483   3.779   2.408
    1C        C  373   4.502   3.708   2.529
    1C        C  374   4.432   3.910   2.651
    1C        C  375   4.485   3.778   2.650
    1C        C  376   4.400   3.976   2.772
    1C        C  377   4.436   3.915   2.894
    1C        C  378   4.319   4.094   3.014
    1C        C  379   4.402   3.979   3.015
    1C        C  380   4.273   4.149   3.135
    1C        C  381   4.317   4.098   3.259
    1C        C  382   4.174   4.257   3.379
    1C        C  383   4.270   4.153   3.380
    1C        C  384   4.119   4.305   3.500
    1C        C  385   4.177   4.262   3.622
    1C        C  386   4.003   4.385   3.743
    1C        C  387   4.120   4.305   3.744
    1C        C  388   3.942   4.425   3.864
    1C        C  389   4.004   4.394   3.987
    1C        C  390   3.818   4.493   4.108
    1C        C  391   3.945   4.431   4.109
    1C        C  392   3.752   4.518   4.231
    1C        C  393   3.822   4.506   4.353
    1C        C  394   3.618   4.567   4.475
    1C        C  395   3.756   4.535   4.474
    1C        C  396   3.549   4.573   4.598
    1C        C  397   3.624   4.572   4.717
    1C        C  398   3.412   4.553   4.841
    1C        C  399   3.550   4.580   4.837
    1C        C  400   3.344   4.513   4.957
    1C        C  401   4.510   3.704   2.050
    1C        C  402   4.457   3.918   2.169
    1C        C  403   4.493   3.782   2.166
    1C        C  404   4.415   3.981   2.288
    1C        C  405   4.436   3.912   2.409
    1C        C  406   4.323   4.094   2.527
    1C        C  407   4.400   3.975   2.530
    1C        C  408   4.275   4.149   2.648
    1C        C  409   4.316   4.089   2.769
    1C        C  410   4.169   4.243   2.890
    1C        C  411   4.271   4.145   2.891
    1C        C  412   4.122   4.295   3.012
    1C        C  413   4.175   4.251   3.136
    1C        C  414   4.001   4.376   3.254
    1C        C  415   4.123   4.305   3.256
    1C        C  416   3.937   4.407   3.376
    1C        C  417   4.001   4.381   3.500
    1C        C  418   3.809   4.473   3.621
    1C        C  419   3.939   4.418   3.622
    1C        C  420   3.746   4.504   3.743
    1C        C  421   3.813   4.482   3.866
    1C        C  422   3.609   4.542   3.989
    1C        C  423   3.747   4.510   3.988
    1C        C  424   3.541   4.555   4.112
    1C        C  425   3.614   4.545   4.233
    1C        C  426   3.404   4.559   4.359
    1C        C  427   3.545   4.565   4.354
    1C        C  428   3.333   4.555   4.481
    1C        C  429   3.408   4.564   4.601
    1C        C  430   3.197   4.519   4.725
    1C        C  431   3.336   4.551   4.722
    1C        C  432   3.128   4.499   4.847
    1C        C  433   3.205   4.504   4.964
    1C        C  434   4.382   4.124   2.053
    1C        C  435   4.448   4.001   2.056
    1C        C  436   4.302   4.166   2.164
    1C        C  437   4.337   4.100   2.285
    1C        C  438   4.178   4.246   2.404
    1C        C  439   4.283   4.152   2.405
    1C        C  440   4.122   4.295   2.524
    1C        C  441   4.178   4.252   2.646
    1C        C  442   4.005   4.376   2.768
    1C        C  443   4.119   4.293   2.768
    1C        C  444   3.944   4.410   2.891
    1C        C  445   4.003   4.371   3.013
    1C        C  446   3.810   4.470   3.133
    1C        C  447   3.937   4.409   3.132
    1C        C  448   3.744   4.496   3.255
    1C        C  449   3.811   4.470   3.377
    1C        C  450   3.606   4.531   3.497
    1C        C  451   3.743   4.497   3.499
    1C        C  452   3.539   4.546   3.621
    1C        C  453   3.610   4.542   3.744
    1C        C  454   3.399   4.547   3.867
    1C        C  455   3.540   4.552   3.866
    1C        C  456   3.332   4.543   3.991
    1C        C  457   3.400   4.548   4.115
    1C        C  458   3.194   4.509   4.238
    1C        C  459   3.332   4.540   4.238
    1C        C  460   3.129   4.491   4.362
    1C        C  461   3.196   4.522   4.482
    1C        C  462   2.999   4.441   4.604
    1C        C  463   3.128   4.500   4.604
    1C        C  464   2.932   4.408   4.724
    1C        C  465   2.995   4.445   4.845
    1C        C  466   2.803   4.342   4.958
    1C        C  467   2.911   4.431   4.961
    1C        C  468   4.123   4.291   2.043
    1C        C  469   4.187   4.251   2.162
    1C        C  470   4.005   4.371   2.281
    1C        C  471   4.126   4.296   2.282
    1C        C  472   3.938   4.401   2.402
    1C        C  473   4.001   4.368   2.523
    1C        C  474   3.811   4.460   2.645
    1C        C  475   3.940   4.402   2.646
    1C        C  476   3.747   4.487   2.768
    1C        C  477   3.815   4.468   2.890
    1C        C  478   3.605   4.521   3.008
    1C        C  479   3.743   4.492   3.010
    1C        C  480   3.535   4.528   3.131
    1C        C  481   3.606   4.525   3.252
    1C        C  482   3.395   4.542   3.376
    1C        C  483   3.536   4.538   3.375
    1C        C  484   3.328   4.531   3.500
    1C        C  485   3.398   4.542   3.623
    1C        C  486   3.190   4.507   3.746
    1C        C  487   3.328   4.538   3.745
    1C        C  488   3.128   4.485   3.871
    1C        C  489   3.194   4.510   3.993
    1C        C  490   3.000   4.428   4.116
    1C        C  491   3.126   4.490   4.115
    1C        C  492   2.943   4.388   4.239
    1C        C  493   3.003   4.427   4.360
    1C        C  494   2.832   4.306   4.485
    1C        C  495   2.942   4.395   4.483
    1C        C  496   2.777   4.258   4.605
    1C        C  497   2.820   4.321   4.725
    1C        C  498   2.663   4.172   4.842
    1C        C  499   2.751   4.283   4.842
    1C        C  500   2.595   4.123   4.955
    1C        C  501   4.004   4.361   2.042
    1C        C  502   3.815   4.468   2.158
    1C        C  503   3.941   4.403   2.160
    1C        C  504   3.743   4.485   2.278
    1C        C  505   3.806   4.452   2.400
    1C        C  506   3.605   4.513   2.520
    1C        C  507   3.741   4.478   2.523
    1C        C  508   3.536   4.521   2.643
    1C        C  509   3.608   4.510   2.764
    1C        C  510   3.395   4.529   2.888
    1C        C  511   3.536   4.527   2.885
    1C        C  512   3.321   4.529   3.009
    1C        C  513   3.394   4.535   3.130
    1C        C  514   3.188   4.501   3.254
    1C        C  515   3.325   4.534   3.253
    1C        C  516   3.124   4.469   3.376
    1C        C  517   3.192   4.494   3.498
    1C        C  518   3.001   4.417   3.627
    1C        C  519   3.126   4.484   3.622
    1C        C  520   2.944   4.379   3.750
    1C        C  521   3.005   4.416   3.872
    1C        C  522   2.842   4.282   4.000
    1C        C  523   2.946   4.378   3.995
    1C        C  524   2.793   4.233   4.123
    1C        C  525   2.838   4.293   4.243
    1C        C  526   2.702   4.132   4.366
    1C        C  527   2.786   4.246   4.365
    1C        C  528   2.664   4.073   4.489
    1C        C  529   2.694   4.144   4.607
    1C        C  530   2.589   3.960   4.733
    1C        C  531   2.640   4.093   4.728
    1C        C  532   2.544   3.903   4.855
    1C        C  533   2.531   3.999   4.961
    1C        C  534   3.618   4.559   2.042
    1C        C  535   3.751   4.514   2.043
    1C        C  536   3.532   4.539   2.155
    1C        C  537   3.603   4.513   2.276
    1C        C  538   3.393   4.525   2.401
    1C        C  539   3.534   4.525   2.398
    1C        C  540   3.321   4.515   2.523
    1C        C  541   3.395   4.517   2.643
    1C        C  542   3.186   4.490   2.768
    1C        C  543   3.325   4.517   2.766
    1C        C  544   3.116   4.473   2.890
    1C        C  545   3.183   4.498   3.012
    1C        C  546   2.996   4.403   3.137
    1C        C  547   3.119   4.472   3.135
    1C        C  548   2.938   4.364   3.260
    1C        C  549   2.997   4.408   3.381
    1C        C  550   2.837   4.278   3.507
    1C        C  551   2.942   4.373   3.507
    1C        C  552   2.790   4.232   3.632
    1C        C  553   2.839   4.285   3.754
    1C        C  554   2.709   4.119   3.877
    1C        C  555   2.794   4.232   3.877
    1C        C  556   2.666   4.063   3.999
    1C        C  557   2.703   4.124   4.121
    1C        C  558   2.607   3.941   4.249
    1C        C  559   2.665   4.069   4.245
    1C        C  560   2.577   3.875   4.370
    1C        C  561   2.599   3.948   4.490
    1C        C  562   2.539   3.749   4.616
    1C        C  563   2.578   3.885   4.614
    1C        C  564   2.521   3.684   4.741
    1C        C  565   2.524   3.761   4.860
    1C        C  566   2.531   3.546   4.982
    1C        C  567   2.533   3.685   4.977
    1C        C  568   3.327   4.478   2.040
    1C        C  569   3.392   4.520   2.157
    1C        C  570   3.184   4.477   2.282
    1C        C  571   3.320   4.516   2.280
    1C        C  572   3.115   4.462   2.404
    1C        C  573   3.183   4.483   2.526
    1C        C  574   2.990   4.401   2.649
    1C        C  575   3.115   4.466   2.649
    1C        C  576   2.934   4.360   2.771
    1C        C  577   2.994   4.403   2.892
    1C        C  578   2.824   4.278   3.017
    1C        C  579   2.935   4.366   3.015
    1C        C  580   2.777   4.225   3.139
    1C        C  581   2.833   4.270   3.261
    1C        C  582   2.704   4.110   3.386
    1C        C  583   2.788   4.224   3.387
    1C        C  584   2.673   4.053   3.511
    1C        C  585   2.704   4.120   3.632
    1C        C  586   2.604   3.935   3.758
    1C        C  587   2.666   4.062   3.755
    1C        C  588   2.581   3.870   3.881
    1C        C  589   2.612   3.933   4.004
    1C        C  590   2.538   3.738   4.127
    1C        C  591   2.585   3.871   4.128
    1C        C  592   2.524   3.670   4.251
    1C        C  593   2.538   3.739   4.373
    1C        C  594   2.509   3.534   4.500
    1C        C  595   2.522   3.675   4.497
    1C        C  596   2.514   3.466   4.624
    1C        C  597   2.519   3.542   4.743
    1C        C  598   2.542   3.330   4.864
    1C        C  599   2.531   3.471   4.864
    1C        C  600   2.533   3.252   4.980
    1C        C  601   3.194   4.441   2.042
    1C        C  602   2.985   4.394   2.165
    1C        C  603   3.118   4.446   2.160
    1C        C  604   2.923   4.359   2.289
    1C        C  605   2.986   4.405   2.407
    1C        C  606   2.819   4.271   2.529
    1C        C  607   2.927   4.361   2.528
    1C        C  608   2.773   4.220   2.652
    1C        C  609   2.824   4.271   2.774
    1C        C  610   2.688   4.111   2.897
    1C        C  611   2.773   4.224   2.897
    1C        C  612   2.653   4.052   3.020
    1C        C  613   2.692   4.112   3.142
    1C        C  614   2.602   3.922   3.270
    1C        C  615   2.659   4.051   3.265
    1C        C  616   2.579   3.859   3.395
    1C        C  617   2.611   3.926   3.515
    1C        C  618   2.540   3.728   3.639
    1C        C  619   2.581   3.863   3.638
    1C        C  620   2.522   3.662   3.763
    1C        C  621   2.536   3.736   3.883
    1C        C  622   2.510   3.527   4.012
    1C        C  623   2.523   3.668   4.005
    1C        C  624   2.509   3.457   4.134
    1C        C  625   2.513   3.529   4.255
    1C        C  626   2.534   3.322   4.380
    1C        C  627   2.510   3.461   4.379
    1C        C  628   2.551   3.255   4.503
    1C        C  629   2.533   3.326   4.624
    1C        C  630   2.590   3.118   4.745
    1C        C  631   2.553   3.255   4.745
    1C        C  632   2.612   3.050   4.868
    1C        C  633   2.567   3.116   4.987
    1C        C  634   2.791   4.300   2.054
    1C        C  635   2.895   4.393   2.054
    1C        C  636   2.753   4.228   2.168
    1C        C  637   2.809   4.274   2.289
    1C        C  638   2.679   4.105   2.410
    1C        C  639   2.765   4.217   2.410
    1C        C  640   2.647   4.044   2.534
    1C        C  641   2.691   4.105   2.654
    1C        C  642   2.592   3.919   2.779
    1C        C  643   2.652   4.046   2.777
    1C        C  644   2.568   3.856   2.903
    1C        C  645   2.593   3.924   3.024
    1C        C  646   2.527   3.725   3.150
    1C        C  647   2.570   3.859   3.147
    1C        C  648   2.521   3.655   3.273
    1C        C  649   2.536   3.725   3.395
    1C        C  650   2.507   3.517   3.522
    1C        C  651   2.520   3.658   3.518
    1C        C  652   2.511   3.449   3.646
    1C        C  653   2.508   3.521   3.767
    1C        C  654   2.524   3.314   3.892
    1C        C  655   2.506   3.454   3.891
    1C        C  656   2.545   3.248   4.015
    1C        C  657   2.529   3.317   4.137
    1C        C  658   2.597   3.117   4.259
    1C        C  659   2.547   3.249   4.259
    1C        C  660   2.634   3.057   4.382
    1C        C  661   2.599   3.122   4.502
    1C        C  662   2.707   2.939   4.627
    1C        C  663   2.629   3.057   4.624
    1C        C  664   2.749   2.879   4.747
    1C        C  665   2.691   2.931   4.866
    1C        C  666   2.736   2.870   4.984
    1C        C  667   2.680   4.024   2.054
    1C        C  668   2.681   4.106   2.167
    1C        C  669   2.588   3.912   2.289
    1C        C  670   2.642   4.044   2.288
    1C        C  671   2.559   3.849   2.412
    1C        C  672   2.589   3.915   2.533
    1C        C  673   2.522   3.718   2.658
    1C        C  674   2.563   3.853   2.657
    1C        C  675   2.516   3.651   2.783
    1C        C  676   2.537   3.718   2.906
    1C        C  677   2.504   3.512   3.032
    1C        C  678   2.514   3.653   3.029
    1C        C  679   2.506   3.442   3.154
    1C        C  680   2.505   3.515   3.276
    1C        C  681   2.528   3.308   3.404
    1C        C  682   2.504   3.447   3.399
    1C        C  683   2.548   3.239   3.525
    1C        C  684   2.530   3.309   3.647
    1C        C  685   2.604   3.115   3.771
    1C        C  686   2.545   3.244   3.771
    1C        C  687   2.636   3.054   3.894
    1C        C  688   2.596   3.116   4.015
    1C        C  689   2.711   2.939   4.141
    1C        C  690   2.627   3.052   4.137
    1C        C  691   2.754   2.882   4.263
    1C        C  692   2.713   2.940   4.385
    1C        C  693   2.756   2.883   4.507
    1C        C  694   2.630   3.893   2.055
    1C        C  695   2.527   3.705   2.177
    1C        C  696   2.572   3.839   2.170
    1C        C  697   2.505   3.636   2.298
    1C        C  698   2.518   3.714   2.415
    1C        C  699   2.491   3.505   2.543
    1C        C  700   2.504   3.646   2.538
    1C        C  701   2.501   3.437   2.666
    1C        C  702   2.503   3.511   2.787
    1C        C  703   2.526   3.301   2.911
    1C        C  704   2.505   3.441   2.910
    1C        C  705   2.545   3.236   3.034
    1C        C  706   2.530   3.303   3.158
    1C        C  707   2.592   3.105   3.281
    1C        C  708   2.544   3.238   3.282
    1C        C  709   2.633   3.047   3.404
    1C        C  710   2.604   3.109   3.527
    1C        C  711   2.712   2.930   3.652
    1C        C  712   2.632   3.047   3.651
    1C        C  713   2.758   2.879   3.775
    1C        C  714   2.712   2.935   3.896
    1C        C  715   2.757   2.883   4.020
    1C        C  716   2.446   3.499   2.063
    1C        C  717   2.490   3.632   2.063
    1C        C  718   2.457   3.421   2.183
    1C        C  719   2.480   3.496   2.301
    1C        C  720   2.511   3.290   2.427
    1C        C  721   2.484   3.428   2.425
    1C        C  722   2.537   3.224   2.549
    1C        C  723   2.524   3.298   2.669
    1C        C  724   2.593   3.097   2.793
    1C        C  725   2.538   3.228   2.791
    1C        C  726   2.621   3.036   2.917
    1C        C  727   2.595   3.104   3.038
    1C        C  728   2.708   2.925   3.160
    1C        C  729   2.626   3.040   3.161
    1C        C  730   2.757   2.873   3.282
    1C        C  731   2.713   2.931   3.404
    1C        C  732   2.754   2.877   3.528
    1C        C  733   2.484   3.197   2.078
    1C        C  734   2.488   3.281   2.190
    1C        C  735   2.587   3.085   2.308
    1C        C  736   2.524   3.212   2.309
    1C        C  737   2.612   3.020   2.430
    1C        C  738   2.588   3.092   2.549
    1C        C  739   2.693   2.909   2.673
    1C        C  740   2.621   3.031   2.672
    1C        C  741   2.740   2.859   2.796
    1C        C  742   2.699   2.918   2.917
    1C        C  743   2.747   2.864   3.039
    1C        C  744   2.548   3.074   2.075
    1C        C  745   2.684   2.896   2.189
    1C        C  746   2.610   3.017   2.186
    1C        C  747   2.728   2.838   2.310
    1C        C  748   2.684   2.899   2.430
    1C        C  749   2.738   2.852   2.552
    1C        C  750   2.738   2.840   2.072
    1C        C  751   3.668   2.314   1.981
    1C        O  752   3.617   2.199   1.980
    1C        O  753   3.717   2.356   1.857
    1C        C  754   4.649   3.062   1.998
    1C        O  755   4.632   3.023   1.879
    1C        O  756   4.777   3.069   2.055
    1C        C  757   4.412   4.187   1.922
    1C        O  758   4.525   4.237   1.896
    1C        O  759   4.352   4.145   1.803
    1C        C  760   3.583   4.663   1.943
    1C        O  761   3.616   4.782   1.968
    1C        O  762   3.568   4.630   1.808
    1C        C  763   2.858   4.518   1.983
    1C        O  764   2.868   4.525   1.857
    1C        O  765   2.805   4.628   2.051
    1C        C  766   2.339   3.469   1.966
    1C        O  767   2.378   3.444   1.849
    1C        O  768   2.216   3.533   1.984
    1C        C  769   4.708   3.600   5.039
    1C        O  770   4.716   3.555   5.157
    1C        O  771   4.824   3.672   5.009
    1C        C  772   4.263   4.444   5.050
    1C        O  773   4.240   4.464   5.172
    1C        O  774   4.344   4.554   5.018
    1C        C  775   4.135   2.546   5.095
    1C        O  776   4.164   2.425   5.113
    1C        O  777   4.121   2.611   5.218
    1C        C  778   2.891   4.547   5.050
    1C        O  779   2.856   4.661   5.011
    1C        O  780   2.930   4.535   5.184
    1C        C  781   2.510   3.045   5.104
    1C        O  782   2.389   3.009   5.108
    1C        O  783   2.580   3.032   5.224
    1C        C  784   2.453   3.986   5.085
    1C        O  785   2.330   3.956   5.077
    1C        O  786   2.481   4.033   5.214
    1C        C  787   2.962   2.446   1.979
    1C        O  788   2.971   2.494   1.862
    1C        O  789   2.953   2.308   1.963
    1C        C  790   3.180   2.367   5.060
    1C        O  791   3.174   2.257   4.998
    1C        O  792   3.247   2.346   5.182
    1C        H  793   4.253   3.038   5.048
    1C        H  794   4.134   2.840   5.047
    1C        H  795   4.522   3.132   5.047
    1C        H  796   4.570   3.356   5.061
    1C        H  797   4.580   3.817   5.038
    1C        H  798   4.437   3.978   5.057
    1C        H  799   4.329   4.192   5.047
    1C        H  800   4.011   4.501   5.046
    1C        H  801   3.818   4.566   5.045
    1C        H  802   3.586   4.610   5.045
    1C        H  803   3.396   4.470   5.040
    1C        H  804   3.154   4.533   5.054
    1C        H  805   3.896   2.475   5.062
    1C        H  806   3.668   2.416   5.056
    1C        H  807   3.010   2.555   5.075
    1C        H  808   3.443   2.435   5.062
    1C        H  809   2.884   2.758   5.078
    1C        H  810   2.696   2.892   5.080
    1C        H  811   2.452   3.281   5.043
    1C        H  812   2.573   3.507   5.073
    1C        H  813   2.560   3.736   5.068
    1C        H  814   2.571   4.193   5.033
    1C        H  815   2.742   4.333   5.045
    1C        H  816   2.739   2.903   1.986
    1C        H  817   2.842   2.678   1.981
    1C        H  818   3.217   2.453   1.985
    1C        H  819   3.425   2.439   1.987
    1C        H  820   3.850   2.523   1.972
    1C        H  821   4.073   2.596   1.972
    1C        H  822   4.272   2.706   1.980
    1C        H  823   4.366   2.920   1.962
    1C        H  824   4.612   3.302   1.984
    1C        H  825   4.478   3.511   1.963
    1C        H  826   4.570   3.748   1.973
    1C        H  827   3.811   4.549   1.962
    1C        H  828   3.987   4.412   1.949
    1C        H  829   4.159   4.261   1.947
    1C        H  830   4.465   3.956   1.960
    1C        H  831   2.691   3.822   2.003
    1C        H  832   2.658   4.075   1.963
    1C        H  833   2.711   4.315   1.984
    1C        H  834   3.369   4.509   1.946
    1C        H  835   3.171   4.356   1.982
    1C        H  836   2.525   3.009   1.993
    1C        H  837   2.391   3.196   2.025
    1C        H  838   2.491   3.683   1.969
    2V3OU   H29  839   2.804   3.550   6.205
    2V3OU   C27  840   2.781   3.506   6.306
    2V3OU   H27  841   2.724   3.570   6.378
    2V3OU   H28  842   2.734   3.407   6.287
    2V3OU   O11  843   2.909   3.477   6.364
    2V3OU   C15  844   2.921   3.394   6.474
    2V3OU   C13  845   3.053   3.376   6.520
    2V3OU   C14  846   3.078   3.264   6.600
    2V3OU   C16  847   2.974   3.186   6.649
    2V3OU    H6  848   2.999   3.100   6.713
    2V3OU   C12  849   3.216   3.220   6.630
    2V3OU    O2  850   3.242   3.126   6.708
    2V3OU   C10  851   3.328   3.307   6.589
    2V3OU    C8  852   3.461   3.271   6.607
    2V3OU   O10  853   3.492   3.158   6.676
    2V3OU   H26  854   3.405   3.116   6.685
    2V3OU    C6  855   3.569   3.351   6.560
    2V3OU    C5  856   3.541   3.466   6.486
    2V3OU    C4  857   3.708   3.298   6.563
    2V3OU    H4  858   3.729   3.231   6.651
    2V3OU    H5  859   3.715   3.227   6.475
    2V3OU    C2  860   3.821   3.401   6.552
    2V3OU    O6  861   3.813   3.478   6.673
    2V3OU   H21  862   3.763   3.560   6.659
    2V3OU    C3  863   3.787   3.498   6.439
    2V3OU    H2  864   3.868   3.574   6.425
    2V3OU    H3  865   3.790   3.435   6.346
    2V3OU   C25  866   3.954   3.329   6.532
    2V3OU    O7  867   3.992   3.291   6.421
    2V3OU   C26  868   4.029   3.288   6.657
    2V3OU   H22  869   4.062   3.380   6.713
    2V3OU   H23  870   4.122   3.232   6.630
    2V3OU    O8  871   3.965   3.210   6.756
    2V3OU   H24  872   3.925   3.267   6.824
    2V3OU    C1  873   3.650   3.563   6.451
    2V3OU    H1  874   3.631   3.621   6.356
    2V3OU    O3  875   3.661   3.657   6.558
    2V3OU   C19  876   3.618   3.793   6.553
    2V3OU    H9  877   3.524   3.792   6.491
    2V3OU    O4  878   3.715   3.852   6.469
    2V3OU   C20  879   3.848   3.872   6.516
    2V3OU   H10  880   3.898   3.771   6.531
    2V3OU   C24  881   3.609   3.858   6.691
    2V3OU   H16  882   3.547   3.789   6.753
    2V3OU   H17  883   3.551   3.953   6.678
    2V3OU   C23  884   3.750   3.876   6.747
    2V3OU   H15  885   3.794   3.775   6.778
    2V3OU    N1  886   3.737   3.958   6.866
    2V3OU   H19  887   3.811   3.923   6.924
    2V3OU   H20  888   3.647   3.941   6.905
    2V3OU   C21  889   3.852   3.945   6.651
    2V3OU   H11  890   3.948   3.927   6.708
    2V3OU    O5  891   3.826   4.084   6.642
    2V3OU   H18  892   3.780   4.102   6.726
    2V3OU   C22  893   3.918   3.948   6.405
    2V3OU   H12  894   3.869   4.048   6.387
    2V3OU   H13  895   3.908   3.889   6.310
    2V3OU   H14  896   4.025   3.962   6.436
    2V3OU   C11  897   3.161   3.471   6.491
    2V3OU    O1  898   3.141   3.588   6.452
    2V3OU    C9  899   3.300   3.424   6.514
    2V3OU    C7  900   3.404   3.499   6.461
    2V3OU    O9  901   3.390   3.616   6.389
    2V3OU   H25  902   3.293   3.629   6.389
    2V3OU   C17  903   2.818   3.316   6.529
    2V3OU    H7  904   2.716   3.347   6.507
    2V3OU   C18  905   2.841   3.214   6.622
    2V3OU    H8  906   2.756   3.149   6.648
    3SOL     OW  907   3.006   3.615   4.565
    3SOL    HW1  908   2.991   3.666   4.480
    3SOL    HW2  909   3.086   3.652   4.612
    4SOL     OW  910   0.925   7.004   0.664
    4SOL    HW1  911   1.005   0.036   0.646
    4SOL    HW2  912   0.899   7.013   0.760
    5SOL     OW  913   4.259   2.005   0.822
    5SOL    HW1  914   4.261   2.095   0.865
    5SOL    HW2  915   4.165   1.970   0.824
    6SOL     OW  916   3.625   1.784   2.560
    6SOL    HW1  917   3.647   1.873   2.520
    6SOL    HW2  918   3.561   1.736   2.500
    7SOL     OW  919   2.406   2.703   4.833
    7SOL    HW1  920   2.369   2.614   4.858
    7SOL    HW2  921   2.484   2.690   4.772
    8SOL     OW  922   1.086   2.073   6.078
    8SOL    HW1  923   1.109   2.013   6.002
    8SOL    HW2  924   1.005   2.038   6.125
    9SOL     OW  925   2.160   2.143   5.799
    9SOL    HW1  926   2.204   2.085   5.868
    9SOL    HW2  927   2.065   2.115   5.787
   10SOL     OW  928   5.582   5.087   1.132
   10SOL    HW1  929   5.624   5.160   1.079
   10SOL    HW2  930   5.647   5.052   1.199
   11SOL     OW  931   3.526   1.431   0.395
   11SOL    HW1  932   3.577   1.345   0.402
   11SOL    HW2  933   3.483   1.452   0.483
   12SOL     OW  934   5.274   4.695   1.274
   12SOL    HW1  935   5.348   4.734   1.328
   12SOL    HW2  936   5.189   4.746   1.291
   13SOL     OW  937   4.810   5.519   1.845
   13SOL    HW1  938   4.727   5.468   1.866
   13SOL    HW2  939   4.880   5.456   1.812
   14SOL     OW  940   4.121   5.744   0.966
   14SOL    HW1  941   4.036   5.718   0.921
   14SOL    HW2  942   4.198   5.699   0.920
   15SOL     OW  943   0.994   0.103   6.661
   15SOL    HW1  944   1.028   0.026   6.608
   15SOL    HW2  945   1.071   0.152   6.703
   16SOL     OW  946   2.129   5.328   5.286
   16SOL    HW1  947   2.113   5.357   5.380
   16SOL    HW2  948   2.174   5.239   5.285
   17SOL     OW  949   0.155   2.228   3.980
   17SOL    HW1  950   0.231   2.171   4.010
   17SOL    HW2  951   0.086   2.171   3.936
   18SOL     OW  952   2.861   0.841   5.487
   18SOL    HW1  953   2.870   0.940   5.481
   18SOL    HW2  954   2.951   0.799   5.477
   19SOL     OW  955   3.141   5.647   3.195
   19SOL    HW1  956   3.237   5.642   3.223
   19SOL    HW2  957   3.136   5.652   3.095
   20SOL     OW  958   6.856   1.568   5.000
   20SOL    HW1  959   6.845   1.472   4.971
   20SOL    HW2  960   6.879   1.624   4.920
   21SOL     OW  961   1.123   3.560   1.939
   21SOL    HW1  962   1.025   3.576   1.925
   21SOL    HW2  963   1.137   3.465   1.965
   22SOL     OW  964   0.536   1.158   0.335
   22SOL    HW1  965   0.486   1.080   0.295
   22SOL    HW2  966   0.474   1.210   0.394
   23SOL     OW  967   6.874   4.952   0.037
   23SOL    HW1  968   6.965   4.958   0.078
   23SOL    HW2  969   6.814   5.021   0.077
   24SOL     OW  970   4.976   0.847   0.331
   24SOL    HW1  971   4.976   0.855   0.231
   24SOL    HW2  972   4.961   0.936   0.372
   25SOL     OW  973   0.950   0.676   4.845
   25SOL    HW1  974   0.945   0.743   4.919
   25SOL    HW2  975   0.858   0.652   4.816
   26SOL     OW  976   1.894   6.745   5.911
   26SOL    HW1  977   1.881   6.790   5.999
   26SOL    HW2  978   1.953   6.665   5.922
   27SOL     OW  979   0.178   6.959   2.846
   27SOL    HW1  980   0.208   0.023   2.879
   27SOL    HW2  981   0.087   6.939   2.883
   28SOL     OW  982   1.641   0.654   5.566
   28SOL    HW1  983   1.724   0.620   5.522
   28SOL    HW2  984   1.568   0.586   5.557
   29SOL     OW  985   5.681   1.011   1.161
   29SOL    HW1  986   5.640   1.054   1.242
   29SOL    HW2  987   5.775   0.985   1.181
   30SOL     OW  988   4.434   7.000   4.585
   30SOL    HW1  989   4.355   6.974   4.640
   30SOL    HW2  990   4.417   0.064   4.544
   31SOL     OW  991   6.177   4.534   4.710
   31SOL    HW1  992   6.153   4.549   4.806
   31SOL    HW2  993   6.093   4.517   4.657
   32SOL     OW  994   3.037   1.508   0.861
   32SOL    HW1  995   3.040   1.425   0.806
   32SOL    HW2  996   3.017   1.485   0.956
   33SOL     OW  997   1.704   4.369   5.979
   33SOL    HW1  998   1.766   4.360   5.901
   33SOL    HW2  999   1.757   4.383   6.063
   34SOL     OW 1000   2.618   6.547   5.475
   34SOL    HW1 1001   2.536   6.500   5.507
   34SOL    HW2 1002   2.614   6.643   5.503
   35SOL     OW 1003   1.963   2.614   4.624
   35SOL    HW1 1004   1.896   2.620   4.550
   35SOL    HW2 1005   1.978   2.705   4.663
   36SOL     OW 1006   5.407   1.336   4.463
   36SOL    HW1 1007   5.421   1.268   4.536
   36SOL    HW2 1008   5.309   1.348   4.447
   37SOL     OW 1009   1.755   6.645   4.346
   37SOL    HW1 1010   1.757   6.549   4.316
   37SOL    HW2 1011   1.715   6.650   4.437
   38SOL     OW 1012   0.894   3.483   1.222
   38SOL    HW1 1013   0.973   3.428   1.194
   38SOL    HW2 1014   0.849   3.521   1.140
   39SOL     OW 1015   6.622   5.400   1.417
   39SOL    HW1 1016   6.602   5.341   1.339
   39SOL    HW2 1017   6.613   5.496   1.389
   40SOL     OW 1018   4.036   0.795   6.888
   40SOL    HW1 1019   4.040   0.701   6.854
   40SOL    HW2 1020   4.051   0.794   6.987
   41SOL     OW 1021   6.041   3.541   1.585
   41SOL    HW1 1022   5.963   3.545   1.648
   41SOL    HW2 1023   6.048   3.450   1.546
   42SOL     OW 1024   2.316   3.652   0.456
   42SOL    HW1 1025   2.348   3.740   0.422
   42SOL    HW2 1026   2.361   3.631   0.543
   43SOL     OW 1027   4.989   0.647   3.659
   43SOL    HW1 1028   4.942   0.559   3.662
   43SOL    HW2 1029   5.079   0.639   3.703
   44SOL     OW 1030   6.931   0.584   0.178
   44SOL    HW1 1031   6.846   0.633   0.198
   44SOL    HW2 1032   6.926   0.492   0.216
   45SOL     OW 1033   2.427   3.891   5.872
   45SOL    HW1 1034   2.400   3.920   5.964
   45SOL    HW2 1035   2.515   3.844   5.876
   46SOL     OW 1036   1.422   4.485   4.522
   46SOL    HW1 1037   1.498   4.426   4.550
   46SOL    HW2 1038   1.419   4.491   4.422
   47SOL     OW 1039   6.961   4.081   6.885
   47SOL    HW1 1040   6.899   4.011   6.921
   47SOL    HW2 1041   6.974   4.152   6.954
   48SOL     OW 1042   0.575   4.171   0.070
   48SOL    HW1 1043   0.626   4.086   0.083
   48SOL    HW2 1044   0.621   4.227   0.001
   49SOL     OW 1045   3.075   1.006   6.687
   49SOL    HW1 1046   3.040   1.053   6.768
   49SOL    HW2 1047   3.175   1.001   6.691
   50SOL     OW 1048   5.035   2.328   5.802
   50SOL    HW1 1049   5.029   2.417   5.847
   50SOL    HW2 1050   4.944   2.297   5.778
   51SOL     OW 1051   1.531   6.442   2.123
   51SOL    HW1 1052   1.601   6.392   2.072
   51SOL    HW2 1053   1.460   6.379   2.153
   52SOL     OW 1054   5.598   2.819   3.001
   52SOL    HW1 1055   5.577   2.758   3.077
   52SOL    HW2 1056   5.604   2.913   3.035
   53SOL     OW 1057   4.400   6.984   0.684
   53SOL    HW1 1058   4.353   6.948   0.603
   53SOL    HW2 1059   4.343   0.029   0.726
   54SOL     OW 1060   0.354   1.312   6.060
   54SOL    HW1 1061   0.349   1.318   6.160
   54SOL    HW2 1062   0.450   1.312   6.032
   55SOL     OW 1063   2.009   3.129   6.790
   55SOL    HW1 1064   2.011   3.179   6.877
   55SOL    HW2 1065   2.054   3.040   6.801
   56SOL     OW 1066   0.885   2.377   6.452
   56SOL    HW1 1067   0.892   2.282   6.423
   56SOL    HW2 1068   0.799   2.391   6.500
   57SOL     OW 1069   3.845   5.247   1.389
   57SOL    HW1 1070   3.848   5.347   1.383
   57SOL    HW2 1071   3.938   5.211   1.387
   58SOL     OW 1072   0.275   1.136   0.094
   58SOL    HW1 1073   0.362   1.182   0.079
   58SOL    HW2 1074   0.287   1.037   0.082
   59SOL     OW 1075   3.965   2.964   7.006
   59SOL    HW1 1076   3.966   2.875   0.026
   59SOL    HW2 1077   4.002   3.034   0.042
   60SOL     OW 1078   6.445   2.739   2.700
   60SOL    HW1 1079   6.428   2.652   2.747
   60SOL    HW2 1080   6.432   2.727   2.602
   61SOL     OW 1081   1.878   5.518   2.655
   61SOL    HW1 1082   1.778   5.524   2.659
   61SOL    HW2 1083   1.904   5.426   2.625
   62SOL     OW 1084   4.844   2.938   3.768
   62SOL    HW1 1085   4.856   3.036   3.753
   62SOL    HW2 1086   4.797   2.898   3.689
   63SOL     OW 1087   3.760   6.955   6.290
   63SOL    HW1 1088   3.751   0.011   6.347
   63SOL    HW2 1089   3.672   6.908   6.285
   64SOL     OW 1090   1.948   2.174   6.656
   64SOL    HW1 1091   1.926   2.130   6.569
   64SOL    HW2 1092   2.046   2.191   6.661
   65SOL     OW 1093   0.590   5.299   5.239
   65SOL    HW1 1094   0.496   5.334   5.239
   65SOL    HW2 1095   0.651   5.371   5.206
   66SOL     OW 1096   4.120   0.925   1.122
   66SOL    HW1 1097   4.204   0.961   1.163
   66SOL    HW2 1098   4.110   0.961   1.029
   67SOL     OW 1099   0.053   3.448   1.769
   67SOL    HW1 1100   6.998   3.393   1.748
   67SOL    HW2 1101   0.043   3.488   1.859
   68SOL     OW 1102   1.176   1.129   6.380
   68SOL    HW1 1103   1.163   1.118   6.479
   68SOL    HW2 1104   1.126   1.210   6.349
   69SOL     OW 1105   1.704   0.341   6.293
   69SOL    HW1 1106   1.643   0.418   6.308
   69SOL    HW2 1107   1.736   0.342   6.199
   70SOL     OW 1108   4.612   5.092   3.476
   70SOL    HW1 1109   4.566   5.141   3.402
   70SOL    HW2 1110   4.568   5.003   3.490
   71SOL     OW 1111   5.453   0.938   5.282
   71SOL    HW1 1112   5.379   0.985   5.330
   71SOL    HW2 1113   5.525   1.003   5.259
   72SOL     OW 1114   6.790   1.140   2.442
   72SOL    HW1 1115   6.826   1.160   2.533
   72SOL    HW2 1116   6.690   1.135   2.446
   73SOL     OW 1117   3.109   1.111   0.875
   73SOL    HW1 1118   3.201   1.082   0.848
   73SOL    HW2 1119   3.050   1.030   0.884
   74SOL     OW 1120   2.635   0.600   0.448
   74SOL    HW1 1121   2.678   0.565   0.365
   74SOL    HW2 1122   2.558   0.659   0.424
   75SOL     OW 1123   2.654   2.779   1.580
   75SOL    HW1 1124   2.578   2.737   1.631
   75SOL    HW2 1125   2.623   2.864   1.538
   76SOL     OW 1126   3.375   5.038   6.536
   76SOL    HW1 1127   3.327   5.061   6.621
   76SOL    HW2 1128   3.316   4.981   6.478
   77SOL     OW 1129   6.934   5.097   4.622
   77SOL    HW1 1130   6.937   5.002   4.592
   77SOL    HW2 1131   7.014   5.118   4.677
   78SOL     OW 1132   5.312   1.399   1.392
   78SOL    HW1 1133   5.271   1.428   1.306
   78SOL    HW2 1134   5.391   1.341   1.372
   79SOL     OW 1135   1.752   4.065   4.005
   79SOL    HW1 1136   1.806   4.143   3.975
   79SOL    HW2 1137   1.654   4.088   4.001
   80SOL     OW 1138   3.892   2.343   5.291
   80SOL    HW1 1139   3.814   2.406   5.292
   80SOL    HW2 1140   3.867   2.257   5.335
   81SOL     OW 1141   2.735   4.921   3.489
   81SOL    HW1 1142   2.713   4.999   3.549
   81SOL    HW2 1143   2.658   4.857   3.488
   82SOL     OW 1144   2.937   0.642   1.483
   82SOL    HW1 1145   3.007   0.699   1.525
   82SOL    HW2 1146   2.977   0.587   1.410
   83SOL     OW 1147   5.948   2.187   3.657
   83SOL    HW1 1148   6.014   2.211   3.587
   83SOL    HW2 1149   5.994   2.140   3.733
   84SOL     OW 1150   5.207   2.231   2.763
   84SOL    HW1 1151   5.260   2.156   2.723
   84SOL    HW2 1152   5.233   2.241   2.859
   85SOL     OW 1153   2.594   5.333   3.784
   85SOL    HW1 1154   2.649   5.349   3.701
   85SOL    HW2 1155   2.584   5.418   3.834
   86SOL     OW 1156   4.728   0.989   0.297
   86SOL    HW1 1157   4.784   1.053   0.244
   86SOL    HW2 1158   4.709   1.028   0.387
   87SOL     OW 1159   2.773   2.755   0.122
   87SOL    HW1 1160   2.678   2.763   0.090
   87SOL    HW2 1161   2.834   2.792   0.053
   88SOL     OW 1162   1.701   2.201   1.200
   88SOL    HW1 1163   1.708   2.300   1.211
   88SOL    HW2 1164   1.685   2.159   1.290
   89SOL     OW 1165   4.019   3.558   4.924
   89SOL    HW1 1166   3.927   3.579   4.959
   89SOL    HW2 1167   4.069   3.504   4.993
   90SOL     OW 1168   6.874   3.732   2.617
   90SOL    HW1 1169   6.841   3.639   2.596
   90SOL    HW2 1170   6.799   3.797   2.607
   91SOL     OW 1171   4.844   5.254   0.493
   91SOL    HW1 1172   4.901   5.215   0.565
   91SOL    HW2 1173   4.759   5.289   0.533
   92SOL     OW 1174   5.924   5.876   6.514
   92SOL    HW1 1175   5.982   5.950   6.479
   92SOL    HW2 1176   5.928   5.875   6.614
   93SOL     OW 1177   3.097   3.855   1.602
   93SOL    HW1 1178   3.078   3.758   1.591
   93SOL    HW2 1179   3.103   3.898   1.512
   94SOL     OW 1180   3.263   1.088   4.216
   94SOL    HW1 1181   3.320   1.082   4.134
   94SOL    HW2 1182   3.199   1.164   4.206
   95SOL     OW 1183   1.091   6.273   4.765
   95SOL    HW1 1184   1.180   6.310   4.739
   95SOL    HW2 1185   1.093   6.173   4.756
   96SOL     OW 1186   6.732   6.525   6.965
   96SOL    HW1 1187   6.743   6.624   6.973
   96SOL    HW2 1188   6.817   6.486   6.929
   97SOL     OW 1189   4.011   5.139   4.733
   97SOL    HW1 1190   4.107   5.111   4.736
   97SOL    HW2 1191   4.003   5.226   4.684
   98SOL     OW 1192   0.460   2.397   4.949
   98SOL    HW1 1193   0.392   2.350   5.005
   98SOL    HW2 1194   0.495   2.476   5.000
   99SOL     OW 1195   4.510   4.646   4.654
   99SOL    HW1 1196   4.481   4.669   4.561
   99SOL    HW2 1197   4.446   4.685   4.719
  100SOL     OW 1198   1.224   1.802   5.020
  100SOL    HW1 1199   1.214   1.844   4.930
  100SOL    HW2 1200   1.297   1.848   5.070
  101SOL     OW 1201   5.216   2.867   2.462
  101SOL    HW1 1202   5.180   2.805   2.532
  101SOL    HW2 1203   5.234   2.815   2.379
  102SOL     OW 1204   4.134   6.244   0.717
  102SOL    HW1 1205   4.068   6.317   0.731
  102SOL    HW2 1206   4.194   6.237   0.796
  103SOL     OW 1207   1.848   2.467   1.296
  103SOL    HW1 1208   1.948   2.471   1.299
  103SOL    HW2 1209   1.812   2.479   1.389
  104SOL     OW 1210   0.629   4.503   1.499
  104SOL    HW1 1211   0.680   4.558   1.565
  104SOL    HW2 1212   0.670   4.510   1.409
  105SOL     OW 1213   6.660   2.060   4.901
  105SOL    HW1 1214   6.740   2.001   4.910
  105SOL    HW2 1215   6.629   2.089   4.991
  106SOL     OW 1216   4.760   3.645   1.634
  106SOL    HW1 1217   4.783   3.558   1.679
  106SOL    HW2 1218   4.746   3.715   1.703
  107SOL     OW 1219   4.405   6.948   2.130
  107SOL    HW1 1220   4.431   7.014   2.060
  107SOL    HW2 1221   4.327   6.984   2.182
  108SOL     OW 1222   3.220   1.493   4.688
  108SOL    HW1 1223   3.233   1.459   4.595
  108SOL    HW2 1224   3.122   1.504   4.706
  109SOL     OW 1225   2.338   1.821   5.503
  109SOL    HW1 1226   2.307   1.913   5.525
  109SOL    HW2 1227   2.376   1.778   5.585
  110SOL     OW 1228   4.220   4.706   5.407
  110SOL    HW1 1229   4.254   4.631   5.463
  110SOL    HW2 1230   4.138   4.745   5.449
  111SOL     OW 1231   6.618   3.435   1.231
  111SOL    HW1 1232   6.654   3.348   1.196
  111SOL    HW2 1233   6.538   3.417   1.288
  112SOL     OW 1234   4.101   6.468   4.906
  112SOL    HW1 1235   4.071   6.561   4.882
  112SOL    HW2 1236   4.036   6.428   4.969
  113SOL     OW 1237   1.103   5.282   1.978
  113SOL    HW1 1238   1.122   5.351   2.049
  113SOL    HW2 1239   1.004   5.269   1.971
  114SOL     OW 1240   0.221   2.050   1.473
  114SOL    HW1 1241   0.143   2.000   1.435
  114SOL    HW2 1242   0.228   2.031   1.571
  115SOL     OW 1243   4.493   1.511   3.045
  115SOL    HW1 1244   4.526   1.424   3.081
  115SOL    HW2 1245   4.526   1.586   3.102
  116SOL     OW 1246   5.624   5.910   0.211
  116SOL    HW1 1247   5.615   5.908   0.111
  116SOL    HW2 1248   5.534   5.918   0.252
  117SOL     OW 1249   2.339   1.311   0.871
  117SOL    HW1 1250   2.437   1.311   0.852
  117SOL    HW2 1251   2.318   1.239   0.937
  118SOL     OW 1252   0.894   2.227   2.128
  118SOL    HW1 1253   0.883   2.293   2.054
  118SOL    HW2 1254   0.991   2.220   2.153
  119SOL     OW 1255   5.340   5.302   5.434
  119SOL    HW1 1256   5.365   5.398   5.443
  119SOL    HW2 1257   5.377   5.251   5.512
  120SOL     OW 1258   4.688   1.863   4.919
  120SOL    HW1 1259   4.762   1.806   4.881
  120SOL    HW2 1260   4.680   1.947   4.866
  121SOL     OW 1261   0.049   5.359   5.863
  121SOL    HW1 1262   7.014   5.437   5.878
  121SOL    HW2 1263   0.001   5.288   5.813
  122SOL     OW 1264   0.376   4.800   5.742
  122SOL    HW1 1265   0.421   4.873   5.692
  122SOL    HW2 1266   0.282   4.790   5.710
  123SOL     OW 1267   0.839   2.675   0.882
  123SOL    HW1 1268   0.923   2.670   0.938
  123SOL    HW2 1269   0.776   2.603   0.910
  124SOL     OW 1270   2.172   3.798   6.959
  124SOL    HW1 1271   2.107   3.726   6.936
  124SOL    HW2 1272   2.164   3.873   6.893
  125SOL     OW 1273   4.229   2.511   0.309
  125SOL    HW1 1274   4.286   2.452   0.252
  125SOL    HW2 1275   4.198   2.589   0.256
  126SOL     OW 1276   3.681   3.356   4.783
  126SOL    HW1 1277   3.766   3.409   4.780
  126SOL    HW2 1278   3.696   3.267   4.740
  127SOL     OW 1279   7.022   4.974   5.878
  127SOL    HW1 1280   7.006   5.042   5.806
  127SOL    HW2 1281   6.935   4.934   5.907
  128SOL     OW 1282   4.805   4.333   5.710
  128SOL    HW1 1283   4.805   4.328   5.810
  128SOL    HW2 1284   4.811   4.429   5.682
  129SOL     OW 1285   0.879   5.571   1.961
  129SOL    HW1 1286   0.891   5.478   1.997
  129SOL    HW2 1287   0.959   5.626   1.984
  130SOL     OW 1288   6.536   3.499   4.845
  130SOL    HW1 1289   6.615   3.486   4.787
  130SOL    HW2 1290   6.452   3.489   4.791
  131SOL     OW 1291   0.868   3.479   2.643
  131SOL    HW1 1292   0.810   3.400   2.623
  131SOL    HW2 1293   0.857   3.506   2.738
  132SOL     OW 1294   3.985   3.212   1.788
  132SOL    HW1 1295   3.968   3.220   1.887
  132SOL    HW2 1296   3.914   3.154   1.748
  133SOL     OW 1297   4.306   4.504   5.558
  133SOL    HW1 1298   4.263   4.426   5.604
  133SOL    HW2 1299   4.365   4.552   5.622
  134SOL     OW 1300   6.547   1.740   6.824
  134SOL    HW1 1301   6.484   1.687   6.880
  134SOL    HW2 1302   6.579   1.819   6.876
  135SOL     OW 1303   4.832   5.165   3.711
  135SOL    HW1 1304   4.925   5.199   3.697
  135SOL    HW2 1305   4.772   5.201   3.640
  136SOL     OW 1306   4.075   6.425   5.894
  136SOL    HW1 1307   4.029   6.377   5.968
  136SOL    HW2 1308   4.007   6.461   5.830
  137SOL     OW 1309   2.249   4.553   0.587
  137SOL    HW1 1310   2.305   4.587   0.511
  137SOL    HW2 1311   2.309   4.519   0.659
  138SOL     OW 1312   0.749   5.409   1.038
  138SOL    HW1 1313   0.800   5.326   1.019
  138SOL    HW2 1314   0.654   5.398   1.008
  139SOL     OW 1315   1.048   0.740   1.258
  139SOL    HW1 1316   1.057   0.658   1.200
  139SOL    HW2 1317   1.128   0.746   1.318
  140SOL     OW 1318   2.718   6.985   2.189
  140SOL    HW1 1319   2.620   6.967   2.193
  140SOL    HW2 1320   2.740   0.006   2.103
  141SOL     OW 1321   1.782   2.116   0.041
  141SOL    HW1 1322   1.773   2.104   6.967
  141SOL    HW2 1323   1.871   2.157   0.061
  142SOL     OW 1324   1.957   3.779   6.388
  142SOL    HW1 1325   2.023   3.780   6.464
  142SOL    HW2 1326   1.922   3.687   6.376
  143SOL     OW 1327   5.693   6.048   2.113
  143SOL    HW1 1328   5.767   6.062   2.047
  143SOL    HW2 1329   5.704   5.959   2.156
  144SOL     OW 1330   2.070   5.413   3.130
  144SOL    HW1 1331   2.158   5.448   3.162
  144SOL    HW2 1332   2.034   5.348   3.197
  145SOL     OW 1333   0.023   5.779   3.092
  145SOL    HW1 1334   6.964   5.726   3.098
  145SOL    HW2 1335   0.002   5.869   3.053
  146SOL     OW 1336   0.041   0.448   5.225
  146SOL    HW1 1337   0.128   0.496   5.216
  146SOL    HW2 1338   0.054   0.350   5.210
  147SOL     OW 1339   5.969   0.385   4.669
  147SOL    HW1 1340   5.991   0.287   4.666
  147SOL    HW2 1341   5.943   0.409   4.763
  148SOL     OW 1342   1.468   6.632   2.597
  148SOL    HW1 1343   1.491   6.673   2.509
  148SOL    HW2 1344   1.401   6.689   2.645
  149SOL     OW 1345   1.933   2.228   4.974
  149SOL    HW1 1346   1.983   2.239   4.888
  149SOL    HW2 1347   1.939   2.311   5.028
  150SOL     OW 1348   5.562   3.093   5.394
  150SOL    HW1 1349   5.621   3.124   5.320
  150SOL    HW2 1350   5.482   3.152   5.400
  151SOL     OW 1351   5.988   2.850   2.066
  151SOL    HW1 1352   6.079   2.813   2.044
  151SOL    HW2 1353   5.944   2.883   1.982
  152SOL     OW 1354   6.684   2.677   0.535
  152SOL    HW1 1355   6.606   2.725   0.492
  152SOL    HW2 1356   6.739   2.633   0.465
  153SOL     OW 1357   2.056   1.743   4.059
  153SOL    HW1 1358   2.065   1.719   3.963
  153SOL    HW2 1359   2.047   1.660   4.114
  154SOL     OW 1360   6.962   0.841   4.464
  154SOL    HW1 1361   6.866   0.816   4.462
  154SOL    HW2 1362   7.019   0.760   4.449
  155SOL     OW 1363   5.909   5.036   3.226
  155SOL    HW1 1364   5.920   4.968   3.154
  155SOL    HW2 1365   5.838   5.005   3.290
  156SOL     OW 1366   4.219   0.043   1.521
  156SOL    HW1 1367   4.308   0.079   1.492
  156SOL    HW2 1368   4.200   0.073   1.614
  157SOL     OW 1369   5.378   6.981   0.641
  157SOL    HW1 1370   5.430   6.903   0.607
  157SOL    HW2 1371   5.388   0.033   0.579
  158SOL     OW 1372   1.016   2.783   5.522
  158SOL    HW1 1373   1.096   2.822   5.568
  158SOL    HW2 1374   0.946   2.760   5.591
  159SOL     OW 1375   6.865   4.630   6.471
  159SOL    HW1 1376   6.889   4.630   6.374
  159SOL    HW2 1377   6.903   4.548   6.515
  160SOL     OW 1378   3.912   0.111   1.721
  160SOL    HW1 1379   3.920   0.122   1.622
  160SOL    HW2 1380   3.989   0.056   1.755
  161SOL     OW 1381   6.334   0.092   0.999
  161SOL    HW1 1382   6.273   0.013   1.002
  161SOL    HW2 1383   6.380   0.096   0.910
  162SOL     OW 1384   4.662   0.156   5.167
  162SOL    HW1 1385   4.586   0.118   5.114
  162SOL    HW2 1386   4.637   0.248   5.199
  163SOL     OW 1387   1.158   3.946   2.665
  163SOL    HW1 1388   1.250   3.910   2.685
  163SOL    HW2 1389   1.141   3.943   2.567
  164SOL     OW 1390   2.024   2.442   2.967
  164SOL    HW1 1391   2.077   2.412   3.046
  164SOL    HW2 1392   2.005   2.362   2.909
  165SOL     OW 1393   0.366   6.108   4.710
  165SOL    HW1 1394   0.450   6.156   4.687
  165SOL    HW2 1395   0.352   6.111   4.809
  166SOL     OW 1396   0.883   5.149   4.270
  166SOL    HW1 1397   0.962   5.207   4.289
  166SOL    HW2 1398   0.799   5.200   4.287
  167SOL     OW 1399   0.118   1.230   3.104
  167SOL    HW1 1400   0.080   1.154   3.052
  167SOL    HW2 1401   0.196   1.199   3.158
  168SOL     OW 1402   3.617   3.916   3.903
  168SOL    HW1 1403   3.627   3.826   3.945
  168SOL    HW2 1404   3.700   3.970   3.918
  169SOL     OW 1405   4.720   2.611   6.275
  169SOL    HW1 1406   4.746   2.532   6.331
  169SOL    HW2 1407   4.654   2.581   6.205
  170SOL     OW 1408   0.279   5.194   2.285
  170SOL    HW1 1409   0.326   5.153   2.363
  170SOL    HW2 1410   0.276   5.293   2.297
  171SOL     OW 1411   3.689   2.904   1.023
  171SOL    HW1 1412   3.771   2.916   1.078
  171SOL    HW2 1413   3.617   2.863   1.079
  172SOL     OW 1414   1.531   1.029   0.166
  172SOL    HW1 1415   1.528   1.098   0.238
  172SOL    HW2 1416   1.450   1.037   0.108
  173SOL     OW 1417   5.787   0.724   4.933
  173SOL    HW1 1418   5.751   0.714   5.026
  173SOL    HW2 1419   5.741   0.660   4.872
  174SOL     OW 1420   6.622   3.769   4.755
  174SOL    HW1 1421   6.545   3.778   4.818
  174SOL    HW2 1422   6.683   3.697   4.787
  175SOL     OW 1423   0.848   5.330   2.843
  175SOL    HW1 1424   0.847   5.407   2.907
  175SOL    HW2 1425   0.893   5.357   2.758
  176SOL     OW 1426   5.997   4.392   0.941
  176SOL    HW1 1427   5.979   4.352   1.031
  176SOL    HW2 1428   6.061   4.468   0.950
  177SOL     OW 1429   5.828   2.789   3.629
  177SOL    HW1 1430   5.830   2.840   3.715
  177SOL    HW2 1431   5.916   2.744   3.615
  178SOL     OW 1432   1.557   5.727   4.721
  178SOL    HW1 1433   1.592   5.781   4.644
  178SOL    HW2 1434   1.597   5.635   4.718
  179SOL     OW 1435   3.565   4.143   2.027
  179SOL    HW1 1436   3.534   4.234   2.001
  179SOL    HW2 1437   3.533   4.122   2.119
  180SOL     OW 1438   4.684   1.021   6.355
  180SOL    HW1 1439   4.606   1.036   6.415
  180SOL    HW2 1440   4.726   1.109   6.332
  181SOL     OW 1441   3.364   0.263   5.551
  181SOL    HW1 1442   3.290   0.329   5.549
  181SOL    HW2 1443   3.449   0.308   5.580
  182SOL     OW 1444   2.934   2.842   5.621
  182SOL    HW1 1445   2.935   2.772   5.549
  182SOL    HW2 1446   2.911   2.931   5.580
  183SOL     OW 1447   2.719   0.960   3.309
  183SOL    HW1 1448   2.716   0.908   3.223
  183SOL    HW2 1449   2.667   0.912   3.379
  184SOL     OW 1450   4.935   6.364   3.519
  184SOL    HW1 1451   5.015   6.357   3.579
  184SOL    HW2 1452   4.965   6.377   3.425
  185SOL     OW 1453   0.390   6.215   5.344
  185SOL    HW1 1454   0.408   6.243   5.438
  185SOL    HW2 1455   0.332   6.283   5.299
  186SOL     OW 1456   3.269   5.595   6.543
  186SOL    HW1 1457   3.252   5.558   6.452
  186SOL    HW2 1458   3.325   5.531   6.595
  187SOL     OW 1459   3.471   4.971   0.563
  187SOL    HW1 1460   3.563   4.935   0.551
  187SOL    HW2 1461   3.446   5.026   0.483
  188SOL     OW 1462   1.888   4.131   4.231
  188SOL    HW1 1463   1.854   4.097   4.143
  188SOL    HW2 1464   1.825   4.200   4.267
  189SOL     OW 1465   6.232   4.509   6.082
  189SOL    HW1 1466   6.140   4.548   6.075
  189SOL    HW2 1467   6.226   4.412   6.104
  190SOL     OW 1468   5.986   6.532   0.017
  190SOL    HW1 1469   6.084   6.554   0.011
  190SOL    HW2 1470   5.969   6.483   0.103
  191SOL     OW 1471   2.170   3.250   5.893
  191SOL    HW1 1472   2.220   3.167   5.918
  191SOL    HW2 1473   2.231   3.314   5.847
  192SOL     OW 1474   0.740   0.313   1.287
  192SOL    HW1 1475   0.658   0.366   1.309
  192SOL    HW2 1476   0.759   0.248   1.361
  193SOL     OW 1477   3.090   6.907   1.574
  193SOL    HW1 1478   3.015   6.927   1.512
  193SOL    HW2 1479   3.177   6.911   1.524
  194SOL     OW 1480   4.048   5.954   3.572
  194SOL    HW1 1481   4.048   6.032   3.510
  194SOL    HW2 1482   3.959   5.946   3.616
  195SOL     OW 1483   3.261   0.654   1.294
  195SOL    HW1 1484   3.295   0.647   1.200
  195SOL    HW2 1485   3.239   0.750   1.314
  196SOL     OW 1486   3.912   2.900   1.176
  196SOL    HW1 1487   3.950   2.810   1.157
  196SOL    HW2 1488   3.941   2.930   1.267
  197SOL     OW 1489   1.554   5.864   1.210
  197SOL    HW1 1490   1.517   5.954   1.231
  197SOL    HW2 1491   1.627   5.874   1.141
  198SOL     OW 1492   6.086   6.917   6.118
  198SOL    HW1 1493   6.059   6.826   6.084
  198SOL    HW2 1494   6.154   6.956   6.057
  199SOL     OW 1495   1.965   0.953   3.335
  199SOL    HW1 1496   1.971   0.901   3.250
  199SOL    HW2 1497   1.992   1.048   3.319
  200SOL     OW 1498   1.719   3.769   4.073
  200SOL    HW1 1499   1.709   3.862   4.039
  200SOL    HW2 1500   1.672   3.705   4.011
  201SOL     OW 1501   4.996   1.073   6.925
  201SOL    HW1 1502   4.907   1.117   6.935
  201SOL    HW2 1503   5.033   1.092   6.834
  202SOL     OW 1504   4.432   0.540   2.537
  202SOL    HW1 1505   4.497   0.527   2.611
  202SOL    HW2 1506   4.421   0.455   2.486
  203SOL     OW 1507   5.978   3.120   0.453
  203SOL    HW1 1508   5.937   3.033   0.479
  203SOL    HW2 1509   6.054   3.141   0.515
  204SOL     OW 1510   2.413   5.736   0.321
  204SOL    HW1 1511   2.329   5.756   0.371
  204SOL    HW2 1512   2.459   5.658   0.364
  205SOL     OW 1513   5.457   0.573   1.411
  205SOL    HW1 1514   5.500   0.618   1.333
  205SOL    HW2 1515   5.377   0.522   1.379
  206SOL     OW 1516   6.948   6.102   0.747
  206SOL    HW1 1517   6.913   6.116   0.840
  206SOL    HW2 1518   6.887   6.041   0.698
  207SOL     OW 1519   6.349   2.516   5.835
  207SOL    HW1 1520   6.326   2.567   5.917
  207SOL    HW2 1521   6.427   2.456   5.853
  208SOL     OW 1522   4.384   3.684   0.422
  208SOL    HW1 1523   4.353   3.705   0.329
  208SOL    HW2 1524   4.323   3.617   0.464
  209SOL     OW 1525   6.926   6.895   4.103
  209SOL    HW1 1526   6.998   6.897   4.172
  209SOL    HW2 1527   6.858   6.826   4.128
  210SOL     OW 1528   4.141   1.687   0.731
  210SOL    HW1 1529   4.132   1.732   0.820
  210SOL    HW2 1530   4.238   1.673   0.711
  211SOL     OW 1531   0.470   3.578   2.863
  211SOL    HW1 1532   0.538   3.544   2.928
  211SOL    HW2 1533   0.512   3.647   2.804
  212SOL     OW 1534   1.457   5.178   5.425
  212SOL    HW1 1535   1.495   5.089   5.451
  212SOL    HW2 1536   1.492   5.248   5.488
  213SOL     OW 1537   4.176   2.801   1.341
  213SOL    HW1 1538   4.080   2.809   1.368
  213SOL    HW2 1539   4.233   2.855   1.403
  214SOL     OW 1540   0.617   5.910   4.003
  214SOL    HW1 1541   0.539   5.883   3.946
  214SOL    HW2 1542   0.681   5.834   4.011
  215SOL     OW 1543   3.813   4.033   3.648
  215SOL    HW1 1544   3.880   4.001   3.582
  215SOL    HW2 1545   3.839   4.003   3.740
  216SOL     OW 1546   3.024   0.063   5.784
  216SOL    HW1 1547   3.030   0.019   5.695
  216SOL    HW2 1548   3.106   0.119   5.798
  217SOL     OW 1549   6.525   2.139   5.150
  217SOL    HW1 1550   6.443   2.177   5.107
  217SOL    HW2 1551   6.547   2.192   5.232
  218SOL     OW 1552   3.108   4.311   5.829
  218SOL    HW1 1553   3.073   4.376   5.898
  218SOL    HW2 1554   3.116   4.220   5.870
  219SOL     OW 1555   3.062   5.768   6.592
  219SOL    HW1 1556   3.137   5.702   6.583
  219SOL    HW2 1557   3.081   5.829   6.669
  220SOL     OW 1558   1.370   4.853   0.138
  220SOL    HW1 1559   1.389   4.783   0.207
  220SOL    HW2 1560   1.401   4.821   0.049
  221SOL     OW 1561   6.156   3.324   4.310
  221SOL    HW1 1562   6.091   3.348   4.382
  221SOL    HW2 1563   6.212   3.247   4.340
  222SOL     OW 1564   1.919   6.908   4.366
  222SOL    HW1 1565   2.003   6.870   4.405
  222SOL    HW2 1566   1.859   6.833   4.337
  223SOL     OW 1567   5.672   4.960   2.390
  223SOL    HW1 1568   5.626   4.871   2.387
  223SOL    HW2 1569   5.610   5.028   2.428
  224SOL     OW 1570   5.052   3.251   2.911
  224SOL    HW1 1571   4.962   3.237   2.951
  224SOL    HW2 1572   5.095   3.162   2.893
  225SOL     OW 1573   4.836   6.010   1.830
  225SOL    HW1 1574   4.848   6.088   1.892
  225SOL    HW2 1575   4.755   6.025   1.773
  226SOL     OW 1576   1.346   5.756   2.496
  226SOL    HW1 1577   1.440   5.760   2.529
  226SOL    HW2 1578   1.327   5.834   2.437
  227SOL     OW 1579   1.110   3.893   3.474
  227SOL    HW1 1580   1.151   3.869   3.386
  227SOL    HW2 1581   1.168   3.959   3.521
  228SOL     OW 1582   4.008   5.819   2.850
  228SOL    HW1 1583   3.938   5.863   2.793
  228SOL    HW2 1584   3.996   5.849   2.945
  229SOL     OW 1585   6.190   6.019   2.863
  229SOL    HW1 1586   6.184   5.962   2.781
  229SOL    HW2 1587   6.241   5.970   2.934
  230SOL     OW 1588   0.725   4.902   5.781
  230SOL    HW1 1589   0.757   4.810   5.802
  230SOL    HW2 1590   0.680   4.941   5.862
  231SOL     OW 1591   0.165   1.630   6.421
  231SOL    HW1 1592   0.097   1.559   6.442
  231SOL    HW2 1593   0.253   1.605   6.462
  232SOL     OW 1594   1.711   3.777   5.907
  232SOL    HW1 1595   1.635   3.840   5.925
  232SOL    HW2 1596   1.674   3.689   5.878
  233SOL     OW 1597   3.336   0.190   6.857
  233SOL    HW1 1598   3.249   0.193   6.906
  233SOL    HW2 1599   3.404   0.145   6.915
  234SOL     OW 1600   1.384   4.834   6.679
  234SOL    HW1 1601   1.321   4.800   6.609
  234SOL    HW2 1602   1.354   4.804   6.769
  235SOL     OW 1603   3.913   3.270   6.162
  235SOL    HW1 1604   3.951   3.343   6.106
  235SOL    HW2 1605   3.953   3.274   6.254
  236SOL     OW 1606   6.873   1.196   6.056
  236SOL    HW1 1607   6.951   1.140   6.082
  236SOL    HW2 1608   6.895   1.292   6.067
  237SOL     OW 1609   6.848   6.680   2.182
  237SOL    HW1 1610   6.912   6.737   2.233
  237SOL    HW2 1611   6.819   6.603   2.239
  238SOL     OW 1612   0.629   2.460   2.933
  238SOL    HW1 1613   0.613   2.526   2.859
  238SOL    HW2 1614   0.723   2.426   2.927
  239SOL     OW 1615   6.281   4.772   0.306
  239SOL    HW1 1616   6.251   4.735   0.217
  239SOL    HW2 1617   6.376   4.746   0.322
  240SOL     OW 1618   0.275   1.776   4.394
  240SOL    HW1 1619   0.249   1.863   4.350
  240SOL    HW2 1620   0.359   1.789   4.447
  241SOL     OW 1621   6.117   2.218   4.859
  241SOL    HW1 1622   6.167   2.135   4.835
  241SOL    HW2 1623   6.109   2.278   4.779
  242SOL     OW 1624   2.992   2.102   3.895
  242SOL    HW1 1625   2.947   2.059   3.974
  242SOL    HW2 1626   3.089   2.113   3.914
  243SOL     OW 1627   4.695   1.426   6.553
  243SOL    HW1 1628   4.659   1.364   6.483
  243SOL    HW2 1629   4.736   1.506   6.508
  244SOL     OW 1630   0.555   1.600   6.439
  244SOL    HW1 1631   0.636   1.550   6.468
  244SOL    HW2 1632   0.477   1.571   6.494
  245SOL     OW 1633   5.347   1.743   3.822
  245SOL    HW1 1634   5.302   1.828   3.849
  245SOL    HW2 1635   5.280   1.679   3.786
  246SOL     OW 1636   5.300   3.572   4.307
  246SOL    HW1 1637   5.242   3.631   4.365
  246SOL    HW2 1638   5.385   3.551   4.355
  247SOL     OW 1639   2.762   0.610   2.884
  247SOL    HW1 1640   2.793   0.518   2.906
  247SOL    HW2 1641   2.841   0.668   2.864
  248SOL     OW 1642   0.323   2.647   3.326
  248SOL    HW1 1643   0.318   2.713   3.400
  248SOL    HW2 1644   0.231   2.621   3.297
  249SOL     OW 1645   2.659   5.754   5.415
  249SOL    HW1 1646   2.658   5.774   5.317
  249SOL    HW2 1647   2.629   5.660   5.430
  250SOL     OW 1648   5.252   2.367   6.862
  250SOL    HW1 1649   5.276   2.459   6.831
  250SOL    HW2 1650   5.253   2.365   6.962
  251SOL     OW 1651   1.859   0.560   1.203
  251SOL    HW1 1652   1.823   0.575   1.112
  251SOL    HW2 1653   1.946   0.609   1.214
  252SOL     OW 1654   6.761   2.476   0.351
  252SOL    HW1 1655   6.802   2.555   0.307
  252SOL    HW2 1656   6.666   2.466   0.321
  253SOL     OW 1657   2.213   4.432   5.767
  253SOL    HW1 1658   2.146   4.360   5.788
  253SOL    HW2 1659   2.258   4.411   5.680
  254SOL     OW 1660   5.026   3.552   6.428
  254SOL    HW1 1661   4.939   3.531   6.474
  254SOL    HW2 1662   5.023   3.645   6.393
  255SOL     OW 1663   4.443   2.196   2.596
  255SOL    HW1 1664   4.388   2.173   2.516
  255SOL    HW2 1665   4.385   2.200   2.677
  256SOL     OW 1666   0.140   6.284   1.100
  256SOL    HW1 1667   0.240   6.280   1.102
  256SOL    HW2 1668   0.104   6.276   1.193
  257SOL     OW 1669   3.040   5.945   6.383
  257SOL    HW1 1670   3.028   5.877   6.454
  257SOL    HW2 1671   3.089   5.905   6.306
  258SOL     OW 1672   4.429   5.310   4.319
  258SOL    HW1 1673   4.528   5.320   4.313
  258SOL    HW2 1674   4.403   5.217   4.292
  259SOL     OW 1675   0.725   1.573   1.971
  259SOL    HW1 1676   0.730   1.624   2.057
  259SOL    HW2 1677   0.724   1.475   1.989
  260SOL     OW 1678   6.714   6.809   5.615
  260SOL    HW1 1679   6.804   6.768   5.634
  260SOL    HW2 1680   6.666   6.754   5.548
  261SOL     OW 1681   0.609   0.900   4.098
  261SOL    HW1 1682   0.574   0.885   4.190
  261SOL    HW2 1683   0.596   0.817   4.043
  262SOL     OW 1684   1.940   5.476   1.266
  262SOL    HW1 1685   1.900   5.549   1.210
  262SOL    HW2 1686   1.929   5.388   1.220
  263SOL     OW 1687   0.598   4.369   4.675
  263SOL    HW1 1688   0.558   4.443   4.620
  263SOL    HW2 1689   0.577   4.385   4.772
  264SOL     OW 1690   3.523   3.420   0.712
  264SOL    HW1 1691   3.527   3.512   0.752
  264SOL    HW2 1692   3.536   3.352   0.784
  265SOL     OW 1693   4.388   5.659   3.896
  265SOL    HW1 1694   4.332   5.631   3.818
  265SOL    HW2 1695   4.484   5.632   3.880
  266SOL     OW 1696   4.257   3.522   6.839
  266SOL    HW1 1697   4.336   3.520   6.899
  266SOL    HW2 1698   4.195   3.447   6.864
  267SOL     OW 1699   2.538   2.404   6.423
  267SOL    HW1 1700   2.489   2.380   6.340
  267SOL    HW2 1701   2.630   2.366   6.420
  268SOL     OW 1702   1.501   3.909   3.701
  268SOL    HW1 1703   1.591   3.865   3.700
  268SOL    HW2 1704   1.458   3.897   3.612
  269SOL     OW 1705   3.443   1.579   5.804
  269SOL    HW1 1706   3.525   1.574   5.746
  269SOL    HW2 1707   3.427   1.674   5.830
  270SOL     OW 1708   5.451   5.510   4.791
  270SOL    HW1 1709   5.384   5.438   4.807
  270SOL    HW2 1710   5.540   5.481   4.824
  271SOL     OW 1711   2.632   1.627   0.445
  271SOL    HW1 1712   2.682   1.693   0.388
  271SOL    HW2 1713   2.534   1.644   0.438
  272SOL     OW 1714   5.427   4.894   6.746
  272SOL    HW1 1715   5.383   4.965   6.800
  272SOL    HW2 1716   5.477   4.935   6.670
  273SOL     OW 1717   0.905   6.173   4.183
  273SOL    HW1 1718   0.855   6.242   4.235
  273SOL    HW2 1719   0.871   6.170   4.089
  274SOL     OW 1720   5.494   2.844   2.755
  274SOL    HW1 1721   5.408   2.793   2.746
  274SOL    HW2 1722   5.542   2.814   2.837
  275SOL     OW 1723   5.677   5.390   5.513
  275SOL    HW1 1724   5.716   5.299   5.528
  275SOL    HW2 1725   5.646   5.399   5.418
  276SOL     OW 1726   0.782   0.367   4.850
  276SOL    HW1 1727   0.868   0.362   4.800
  276SOL    HW2 1728   0.735   0.453   4.827
  277SOL     OW 1729   3.974   3.304   5.820
  277SOL    HW1 1730   4.016   3.351   5.898
  277SOL    HW2 1731   3.875   3.300   5.832
  278SOL     OW 1732   5.987   4.419   2.106
  278SOL    HW1 1733   5.942   4.350   2.163
  278SOL    HW2 1734   6.080   4.390   2.084
  279SOL     OW 1735   0.478   3.815   4.267
  279SOL    HW1 1736   0.429   3.901   4.280
  279SOL    HW2 1737   0.571   3.824   4.305
  280SOL     OW 1738   4.798   1.733   3.044
  280SOL    HW1 1739   4.784   1.738   2.945
  280SOL    HW2 1740   4.709   1.736   3.091
  281SOL     OW 1741   4.783   5.007   5.359
  281SOL    HW1 1742   4.852   5.011   5.287
  281SOL    HW2 1743   4.828   5.004   5.449
  282SOL     OW 1744   0.330   2.365   0.128
  282SOL    HW1 1745   0.271   2.345   0.049
  282SOL    HW2 1746   0.285   2.333   0.211
  283SOL     OW 1747   6.019   3.819   2.321
  283SOL    HW1 1748   6.028   3.887   2.249
  283SOL    HW2 1749   6.021   3.865   2.410
  284SOL     OW 1750   5.686   6.826   3.401
  284SOL    HW1 1751   5.671   6.734   3.365
  284SOL    HW2 1752   5.611   6.851   3.461
  285SOL     OW 1753   4.293   6.006   6.591
  285SOL    HW1 1754   4.376   6.038   6.547
  285SOL    HW2 1755   4.295   5.906   6.599
  286SOL     OW 1756   3.349   4.965   5.093
  286SOL    HW1 1757   3.380   5.043   5.146
  286SOL    HW2 1758   3.359   4.881   5.147
  287SOL     OW 1759   3.806   6.159   0.553
  287SOL    HW1 1760   3.783   6.158   0.650
  287SOL    HW2 1761   3.903   6.140   0.541
  288SOL     OW 1762   4.505   0.991   0.148
  288SOL    HW1 1763   4.501   0.905   0.097
  288SOL    HW2 1764   4.582   0.989   0.211
  289SOL     OW 1765   5.233   4.953   4.769
  289SOL    HW1 1766   5.290   5.030   4.741
  289SOL    HW2 1767   5.139   4.969   4.737
  290SOL     OW 1768   3.071   0.422   5.092
  290SOL    HW1 1769   3.059   0.500   5.155
  290SOL    HW2 1770   3.121   0.349   5.139
  291SOL     OW 1771   5.905   0.943   4.830
  291SOL    HW1 1772   5.909   0.944   4.730
  291SOL    HW2 1773   5.871   0.854   4.861
  292SOL     OW 1774   3.063   0.645   3.662
  292SOL    HW1 1775   3.001   0.647   3.584
  292SOL    HW2 1776   3.151   0.684   3.636
  293SOL     OW 1777   5.105   1.092   2.945
  293SOL    HW1 1778   5.156   1.176   2.964
  293SOL    HW2 1779   5.111   1.031   3.024
  294SOL     OW 1780   6.511   1.370   6.921
  294SOL    HW1 1781   6.440   1.439   6.937
  294SOL    HW2 1782   6.518   1.349   6.824
  295SOL     OW 1783   6.937   0.099   5.029
  295SOL    HW1 1784   6.907   0.018   4.979
  295SOL    HW2 1785   6.862   0.165   5.031
  296SOL     OW 1786   0.358   2.040   0.886
  296SOL    HW1 1787   0.267   2.001   0.898
  296SOL    HW2 1788   0.417   1.974   0.841
  297SOL     OW 1789   5.108   3.305   3.438
  297SOL    HW1 1790   5.073   3.257   3.519
  297SOL    HW2 1791   5.178   3.371   3.466
  298SOL     OW 1792   4.258   0.161   5.279
  298SOL    HW1 1793   4.349   0.126   5.256
  298SOL    HW2 1794   4.236   0.136   5.373
  299SOL     OW 1795   0.684   1.181   6.269
  299SOL    HW1 1796   0.620   1.126   6.323
  299SOL    HW2 1797   0.636   1.220   6.191
  300SOL     OW 1798   4.384   6.168   4.115
  300SOL    HW1 1799   4.378   6.161   4.016
  300SOL    HW2 1800   4.304   6.125   4.157
  301SOL     OW 1801   6.689   6.302   5.052
  301SOL    HW1 1802   6.748   6.233   5.011
  301SOL    HW2 1803   6.644   6.354   4.980
  302SOL     OW 1804   0.316   6.613   1.761
  302SOL    HW1 1805   0.328   6.666   1.845
  302SOL    HW2 1806   0.222   6.624   1.728
  303SOL     OW 1807   5.509   5.157   2.469
  303SOL    HW1 1808   5.506   5.197   2.560
  303SOL    HW2 1809   5.417   5.125   2.444
  304SOL     OW 1810   1.335   0.820   3.896
  304SOL    HW1 1811   1.281   0.903   3.882
  304SOL    HW2 1812   1.403   0.811   3.823
  305SOL     OW 1813   2.606   2.075   1.442
  305SOL    HW1 1814   2.634   2.021   1.522
  305SOL    HW2 1815   2.671   2.060   1.368
  306SOL     OW 1816   0.269   6.828   2.624
  306SOL    HW1 1817   0.185   6.836   2.571
  306SOL    HW2 1818   0.254   6.863   2.716
  307SOL     OW 1819   4.086   3.669   4.208
  307SOL    HW1 1820   4.118   3.625   4.292
  307SOL    HW2 1821   4.009   3.618   4.171
  308SOL     OW 1822   6.547   2.285   1.747
  308SOL    HW1 1823   6.639   2.298   1.784
  308SOL    HW2 1824   6.483   2.343   1.797
  309SOL     OW 1825   1.780   4.778   0.245
  309SOL    HW1 1826   1.831   4.825   0.318
  309SOL    HW2 1827   1.842   4.719   0.194
  310SOL     OW 1828   4.847   6.535   4.831
  310SOL    HW1 1829   4.898   6.620   4.849
  310SOL    HW2 1830   4.865   6.469   4.904
  311SOL     OW 1831   1.946   6.487   2.155
  311SOL    HW1 1832   1.884   6.552   2.198
  311SOL    HW2 1833   1.945   6.500   2.055
  312SOL     OW 1834   3.302   0.714   4.651
  312SOL    HW1 1835   3.363   0.681   4.580
  312SOL    HW2 1836   3.319   0.811   4.668
  313SOL     OW 1837   3.540   3.410   3.110
  313SOL    HW1 1838   3.462   3.397   3.172
  313SOL    HW2 1839   3.558   3.507   3.099
  314SOL     OW 1840   2.377   4.736   6.044
  314SOL    HW1 1841   2.364   4.642   6.015
  314SOL    HW2 1842   2.366   4.742   6.143
  315SOL     OW 1843   6.024   0.057   4.921
  315SOL    HW1 1844   6.048   6.987   4.939
  315SOL    HW2 1845   6.054   0.081   4.829
  316SOL     OW 1846   3.997   0.755   4.857
  316SOL    HW1 1847   3.937   0.759   4.937
  316SOL    HW2 1848   3.997   0.663   4.820
  317SOL     OW 1849   1.021   1.929   1.470
  317SOL    HW1 1850   1.065   1.904   1.384
  317SOL    HW2 1851   1.080   1.989   1.522
  318SOL     OW 1852   0.800   1.099   3.532
  318SOL    HW1 1853   0.878   1.046   3.500
  318SOL    HW2 1854   0.824   1.196   3.532
  319SOL     OW 1855   1.004   1.188   2.403
  319SOL    HW1 1856   1.103   1.170   2.403
  319SOL    HW2 1857   0.968   1.172   2.494
  320SOL     OW 1858   5.243   1.143   0.019
  320SOL    HW1 1859   5.218   1.234   7.012
  320SOL    HW2 1860   5.169   1.079   7.025
  321SOL     OW 1861   4.318   3.104   1.306
  321SOL    HW1 1862   4.283   3.191   1.340
  321SOL    HW2 1863   4.406   3.085   1.350
  322SOL     OW 1864   2.851   1.941   6.887
  322SOL    HW1 1865   2.860   2.015   6.954
  322SOL    HW2 1866   2.915   1.867   6.910
  323SOL     OW 1867   1.175   4.217   2.352
  323SOL    HW1 1868   1.154   4.196   2.448
  323SOL    HW2 1869   1.265   4.181   2.329
  324SOL     OW 1870   6.327   0.330   4.019
  324SOL    HW1 1871   6.292   0.309   3.928
  324SOL    HW2 1872   6.251   0.357   4.078
  325SOL     OW 1873   6.324   3.824   1.023
  325SOL    HW1 1874   6.378   3.907   1.040
  325SOL    HW2 1875   6.372   3.765   0.958
  326SOL     OW 1876   6.639   5.714   6.859
  326SOL    HW1 1877   6.566   5.691   6.924
  326SOL    HW2 1878   6.692   5.791   6.895
  327SOL     OW 1879   4.376   6.612   6.266
  327SOL    HW1 1880   4.392   6.518   6.295
  327SOL    HW2 1881   4.297   6.649   6.314
  328SOL     OW 1882   2.029   4.436   3.584
  328SOL    HW1 1883   1.963   4.429   3.659
  328SOL    HW2 1884   2.118   4.401   3.614
  329SOL     OW 1885   3.073   3.242   2.643
  329SOL    HW1 1886   3.082   3.168   2.710
  329SOL    HW2 1887   3.164   3.267   2.609
  330SOL     OW 1888   2.494   3.694   6.512
  330SOL    HW1 1889   2.439   3.690   6.428
  330SOL    HW2 1890   2.568   3.761   6.500
  331SOL     OW 1891   5.258   5.659   3.661
  331SOL    HW1 1892   5.264   5.565   3.627
  331SOL    HW2 1893   5.343   5.683   3.708
  332SOL     OW 1894   5.985   1.799   2.856
  332SOL    HW1 1895   6.042   1.866   2.809
  332SOL    HW2 1896   6.042   1.743   2.916
  333SOL     OW 1897   3.715   6.622   3.438
  333SOL    HW1 1898   3.700   6.691   3.367
  333SOL    HW2 1899   3.812   6.620   3.462
  334SOL     OW 1900   3.736   3.180   4.284
  334SOL    HW1 1901   3.756   3.089   4.320
  334SOL    HW2 1902   3.641   3.204   4.305
  335SOL     OW 1903   4.742   1.398   0.941
  335SOL    HW1 1904   4.819   1.338   0.966
  335SOL    HW2 1905   4.696   1.361   0.861
  336SOL     OW 1906   4.081   1.972   4.996
  336SOL    HW1 1907   4.105   1.884   5.036
  336SOL    HW2 1908   3.990   2.000   5.027
  337SOL     OW 1909   0.033   1.562   5.197
  337SOL    HW1 1910   6.975   1.529   5.153
  337SOL    HW2 1911   0.105   1.574   5.129
  338SOL     OW 1912   4.578   1.160   1.595
  338SOL    HW1 1913   4.600   1.257   1.585
  338SOL    HW2 1914   4.542   1.144   1.687
  339SOL     OW 1915   3.551   5.163   5.761
  339SOL    HW1 1916   3.542   5.122   5.852
  339SOL    HW2 1917   3.544   5.092   5.691
  340SOL     OW 1918   4.873   3.357   4.822
  340SOL    HW1 1919   4.857   3.297   4.744
  340SOL    HW2 1920   4.886   3.451   4.791
  341SOL     OW 1921   6.722   0.294   1.879
  341SOL    HW1 1922   6.723   0.391   1.900
  341SOL    HW2 1923   6.676   0.279   1.792
  342SOL     OW 1924   4.476   0.921   2.036
  342SOL    HW1 1925   4.570   0.893   2.057
  342SOL    HW2 1926   4.415   0.842   2.045
  343SOL     OW 1927   6.217   0.235   1.771
  343SOL    HW1 1928   6.255   0.180   1.845
  343SOL    HW2 1929   6.117   0.235   1.777
  344SOL     OW 1930   6.895   2.356   1.533
  344SOL    HW1 1931   6.990   2.352   1.562
  344SOL    HW2 1932   6.888   2.413   1.450
  345SOL     OW 1933   6.969   2.862   4.431
  345SOL    HW1 1934   6.887   2.880   4.485
  345SOL    HW2 1935   7.010   2.776   4.460
  346SOL     OW 1936   1.710   6.047   2.407
  346SOL    HW1 1937   1.618   6.083   2.391
  346SOL    HW2 1938   1.763   6.113   2.460
  347SOL     OW 1939   1.613   4.259   1.489
  347SOL    HW1 1940   1.615   4.353   1.522
  347SOL    HW2 1941   1.521   4.236   1.459
  348SOL     OW 1942   5.506   4.357   1.387
  348SOL    HW1 1943   5.461   4.387   1.303
  348SOL    HW2 1944   5.502   4.258   1.393
  349SOL     OW 1945   5.964   5.115   0.688
  349SOL    HW1 1946   5.876   5.067   0.688
  349SOL    HW2 1947   6.038   5.048   0.697
  350SOL     OW 1948   2.726   1.048   0.793
  350SOL    HW1 1949   2.811   0.999   0.813
  350SOL    HW2 1950   2.731   1.086   0.701
  351SOL     OW 1951   3.651   4.322   1.287
  351SOL    HW1 1952   3.708   4.257   1.338
  351SOL    HW2 1953   3.668   4.310   1.189
  352SOL     OW 1954   4.194   0.012   2.287
  352SOL    HW1 1955   4.105   0.024   2.243
  352SOL    HW2 1956   4.216   0.094   2.340
  353SOL     OW 1957   2.631   5.859   0.247
  353SOL    HW1 1958   2.558   5.798   0.277
  353SOL    HW2 1959   2.608   5.953   0.273
  354SOL     OW 1960   1.403   2.304   0.661
  354SOL    HW1 1961   1.479   2.291   0.724
  354SOL    HW2 1962   1.388   2.220   0.608
  355SOL     OW 1963   0.288   2.952   3.246
  355SOL    HW1 1964   0.361   2.903   3.294
  355SOL    HW2 1965   0.271   2.908   3.158
  356SOL     OW 1966   2.503   0.226   5.833
  356SOL    HW1 1967   2.521   0.324   5.841
  356SOL    HW2 1968   2.577   0.175   5.875
  357SOL     OW 1969   5.419   5.605   4.525
  357SOL    HW1 1970   5.434   5.587   4.622
  357SOL    HW2 1971   5.356   5.682   4.514
  358SOL     OW 1972   3.491   6.217   6.983
  358SOL    HW1 1973   3.450   6.273   6.911
  358SOL    HW2 1974   3.451   6.125   6.982
  359SOL     OW 1975   1.984   2.905   1.619
  359SOL    HW1 1976   1.892   2.866   1.611
  359SOL    HW2 1977   2.037   2.854   1.687
  360SOL     OW 1978   2.247   4.031   3.230
  360SOL    HW1 1979   2.237   4.094   3.307
  360SOL    HW2 1980   2.338   4.042   3.189
  361SOL     OW 1981   6.854   2.553   3.015
  361SOL    HW1 1982   6.776   2.508   2.971
  361SOL    HW2 1983   6.828   2.647   3.038
  362SOL     OW 1984   3.921   3.027   2.479
  362SOL    HW1 1985   3.891   2.965   2.407
  362SOL    HW2 1986   3.946   3.115   2.439
  363SOL     OW 1987   4.585   4.590   0.513
  363SOL    HW1 1988   4.589   4.506   0.566
  363SOL    HW2 1989   4.655   4.589   0.442
  364SOL     OW 1990   1.269   0.566   0.133
  364SOL    HW1 1991   1.256   0.622   0.051
  364SOL    HW2 1992   1.245   0.471   0.112
  365SOL     OW 1993   4.911   0.370   3.642
  365SOL    HW1 1994   4.947   0.291   3.593
  365SOL    HW2 1995   4.880   0.341   3.733
  366SOL     OW 1996   5.155   1.949   0.342
  366SOL    HW1 1997   5.216   2.027   0.358
  366SOL    HW2 1998   5.182   1.873   0.400
  367SOL     OW 1999   5.283   0.819   0.205
  367SOL    HW1 2000   5.348   0.884   0.165
  367SOL    HW2 2001   5.195   0.865   0.219
  368SOL     OW 2002   3.111   1.425   5.536
  368SOL    HW1 2003   3.180   1.382   5.594
  368SOL    HW2 2004   3.026   1.435   5.589
  369SOL     OW 2005   4.841   3.925   0.345
  369SOL    HW1 2006   4.813   3.882   0.259
  369SOL    HW2 2007   4.912   3.869   0.388
  370SOL     OW 2008   1.768   2.449   3.451
  370SOL    HW1 2009   1.866   2.466   3.466
  370SOL    HW2 2010   1.754   2.423   3.355
  371SOL     OW 2011   2.805   5.369   0.075
  371SOL    HW1 2012   2.843   5.460   0.093
  371SOL    HW2 2013   2.736   5.375   0.003
  372SOL     OW 2014   2.664   5.787   6.300
  372SOL    HW1 2015   2.725   5.711   6.280
  372SOL    HW2 2016   2.569   5.756   6.296
  373SOL     OW 2017   5.907   4.937   2.508
  373SOL    HW1 2018   5.989   4.950   2.453
  373SOL    HW2 2019   5.827   4.966   2.457
  374SOL     OW 2020   2.730   2.193   2.105
  374SOL    HW1 2021   2.651   2.186   2.045
  374SOL    HW2 2022   2.808   2.230   2.055
  375SOL     OW 2023   6.921   5.977   4.129
  375SOL    HW1 2024   6.855   6.036   4.175
  375SOL    HW2 2025   7.005   6.028   4.110
  376SOL     OW 2026   4.079   0.310   3.630
  376SOL    HW1 2027   4.155   0.310   3.564
  376SOL    HW2 2028   4.088   0.390   3.690
  377SOL     OW 2029   2.976   3.068   6.342
  377SOL    HW1 2030   3.002   2.977   6.310
  377SOL    HW2 2031   2.960   3.066   6.440
  378SOL     OW 2032   4.192   1.267   1.908
  378SOL    HW1 2033   4.144   1.337   1.855
  378SOL    HW2 2034   4.179   1.283   2.005
  379SOL     OW 2035   3.936   2.896   6.737
  379SOL    HW1 2036   3.934   2.996   6.745
  379SOL    HW2 2037   3.939   2.855   6.828
  380SOL     OW 2038   4.617   2.022   0.512
  380SOL    HW1 2039   4.669   2.064   0.438
  380SOL    HW2 2040   4.678   2.003   0.589
  381SOL     OW 2041   1.740   3.733   2.773
  381SOL    HW1 2042   1.669   3.739   2.703
  381SOL    HW2 2043   1.772   3.639   2.779
  382SOL     OW 2044   5.933   6.958   0.372
  382SOL    HW1 2045   6.014   7.016   0.363
  382SOL    HW2 2046   5.959   6.871   0.413
  383SOL     OW 2047   5.016   3.238   0.566
  383SOL    HW1 2048   4.963   3.179   0.506
  383SOL    HW2 2049   5.034   3.191   0.652
  384SOL     OW 2050   1.129   2.988   5.352
  384SOL    HW1 2051   1.108   2.995   5.255
  384SOL    HW2 2052   1.085   2.906   5.389
  385SOL     OW 2053   4.646   2.307   6.458
  385SOL    HW1 2054   4.738   2.347   6.465
  385SOL    HW2 2055   4.612   2.287   6.550
  386SOL     OW 2056   3.811   6.239   5.189
  386SOL    HW1 2057   3.810   6.268   5.285
  386SOL    HW2 2058   3.721   6.252   5.149
  387SOL     OW 2059   2.366   6.727   3.830
  387SOL    HW1 2060   2.414   6.670   3.897
  387SOL    HW2 2061   2.270   6.700   3.825
  388SOL     OW 2062   1.555   5.048   5.956
  388SOL    HW1 2063   1.521   4.955   5.941
  388SOL    HW2 2064   1.477   5.111   5.957
  389SOL     OW 2065   2.739   2.783   0.523
  389SOL    HW1 2066   2.650   2.825   0.510
  389SOL    HW2 2067   2.788   2.830   0.597
  390SOL     OW 2068   2.621   1.846   4.202
  390SOL    HW1 2069   2.676   1.768   4.232
  390SOL    HW2 2070   2.530   1.841   4.244
  391SOL     OW 2071   0.570   2.130   0.534
  391SOL    HW1 2072   0.493   2.078   0.495
  391SOL    HW2 2073   0.652   2.114   0.478
  392SOL     OW 2074   3.456   5.252   4.648
  392SOL    HW1 2075   3.527   5.260   4.579
  392SOL    HW2 2076   3.427   5.156   4.654
  393SOL     OW 2077   6.233   3.489   5.188
  393SOL    HW1 2078   6.170   3.540   5.247
  393SOL    HW2 2079   6.281   3.552   5.127
  394SOL     OW 2080   2.159   1.368   6.476
  394SOL    HW1 2081   2.116   1.295   6.423
  394SOL    HW2 2082   2.114   1.455   6.456
  395SOL     OW 2083   0.123   3.174   1.174
  395SOL    HW1 2084   0.154   3.179   1.269
  395SOL    HW2 2085   0.174   3.102   1.126
  396SOL     OW 2086   3.431   2.474   5.738
  396SOL    HW1 2087   3.445   2.387   5.786
  396SOL    HW2 2088   3.513   2.498   5.686
  397SOL     OW 2089   4.392   0.535   6.630
  397SOL    HW1 2090   4.437   0.455   6.670
  397SOL    HW2 2091   4.460   0.595   6.589
  398SOL     OW 2092   0.160   4.489   2.785
  398SOL    HW1 2093   0.120   4.476   2.694
  398SOL    HW2 2094   0.089   4.518   2.849
  399SOL     OW 2095   4.526   5.447   1.941
  399SOL    HW1 2096   4.437   5.401   1.929
  399SOL    HW2 2097   4.523   5.536   1.896
  400SOL     OW 2098   2.134   4.775   5.012
  400SOL    HW1 2099   2.211   4.790   5.074
  400SOL    HW2 2100   2.058   4.833   5.040
  401SOL     OW 2101   6.018   1.434   1.339
  401SOL    HW1 2102   6.069   1.348   1.340
  401SOL    HW2 2103   6.055   1.496   1.408
  402SOL     OW 2104   0.262   4.999   0.771
  402SOL    HW1 2105   0.358   4.979   0.750
  402SOL    HW2 2106   0.223   5.057   0.700
  403SOL     OW 2107   5.067   4.758   0.963
  403SOL    HW1 2108   5.149   4.792   1.008
  403SOL    HW2 2109   5.009   4.710   1.029
  404SOL     OW 2110   6.972   5.702   4.946
  404SOL    HW1 2111   7.000   5.736   4.857
  404SOL    HW2 2112   6.954   5.603   4.940
  405SOL     OW 2113   1.406   2.173   1.521
  405SOL    HW1 2114   1.451   2.131   1.443
  405SOL    HW2 2115   1.336   2.237   1.488
  406SOL     OW 2116   0.562   2.702   3.580
  406SOL    HW1 2117   0.555   2.642   3.500
  406SOL    HW2 2118   0.624   2.662   3.646
  407SOL     OW 2119   3.543   2.018   4.012
  407SOL    HW1 2120   3.578   1.979   3.926
  407SOL    HW2 2121   3.620   2.055   4.065
  408SOL     OW 2122   2.659   0.371   3.652
  408SOL    HW1 2123   2.689   0.278   3.630
  408SOL    HW2 2124   2.713   0.406   3.728
  409SOL     OW 2125   6.992   3.971   4.217
  409SOL    HW1 2126   6.916   3.984   4.154
  409SOL    HW2 2127   6.957   3.954   4.309
  410SOL     OW 2128   3.001   6.601   6.341
  410SOL    HW1 2129   2.972   6.506   6.353
  410SOL    HW2 2130   3.101   6.607   6.345
  411SOL     OW 2131   0.114   4.371   5.210
  411SOL    HW1 2132   0.157   4.282   5.224
  411SOL    HW2 2133   0.028   4.359   5.161
  412SOL     OW 2134   3.568   6.613   2.455
  412SOL    HW1 2135   3.505   6.667   2.399
  412SOL    HW2 2136   3.634   6.568   2.395
  413SOL     OW 2137   2.513   0.968   2.379
  413SOL    HW1 2138   2.435   1.031   2.383
  413SOL    HW2 2139   2.598   1.020   2.389
  414SOL     OW 2140   5.016   5.106   0.700
  414SOL    HW1 2141   5.066   5.036   0.650
  414SOL    HW2 2142   4.978   5.067   0.784
  415SOL     OW 2143   3.905   0.183   2.358
  415SOL    HW1 2144   3.984   0.244   2.354
  415SOL    HW2 2145   3.878   0.157   2.265
  416SOL     OW 2146   4.148   5.688   7.002
  416SOL    HW1 2147   4.133   5.596   6.968
  416SOL    HW2 2148   4.149   5.687   0.076
  417SOL     OW 2149   5.434   4.970   0.903
  417SOL    HW1 2150   5.344   4.959   0.944
  417SOL    HW2 2151   5.500   4.995   0.974
  418SOL     OW 2152   6.715   4.862   6.500
  418SOL    HW1 2153   6.764   4.775   6.503
  418SOL    HW2 2154   6.738   4.916   6.581
  419SOL     OW 2155   5.271   5.346   6.773
  419SOL    HW1 2156   5.255   5.441   6.800
  419SOL    HW2 2157   5.226   5.327   6.686
  420SOL     OW 2158   4.729   4.069   6.506
  420SOL    HW1 2159   4.640   4.096   6.541
  420SOL    HW2 2160   4.736   4.091   6.409
  421SOL     OW 2161   1.742   6.513   6.621
  421SOL    HW1 2162   1.714   6.461   6.539
  421SOL    HW2 2163   1.661   6.547   6.667
  422SOL     OW 2164   6.550   3.883   6.978
  422SOL    HW1 2165   6.559   3.963   0.012
  422SOL    HW2 2166   6.485   3.819   7.018
  423SOL     OW 2167   1.005   3.592   6.240
  423SOL    HW1 2168   1.071   3.645   6.293
  423SOL    HW2 2169   0.914   3.635   6.249
  424SOL     OW 2170   1.404   4.146   6.293
  424SOL    HW1 2171   1.469   4.090   6.242
  424SOL    HW2 2172   1.409   4.124   6.391
  425SOL     OW 2173   3.559   6.995   0.128
  425SOL    HW1 2174   3.574   0.012   0.039
  425SOL    HW2 2175   3.553   0.041   0.198
  426SOL     OW 2176   0.023   3.909   6.481
  426SOL    HW1 2177   6.951   3.890   6.491
  426SOL    HW2 2178   0.072   3.877   6.561
  427SOL     OW 2179   3.920   3.647   0.052
  427SOL    HW1 2180   4.010   3.658   0.093
  427SOL    HW2 2181   3.927   3.585   6.999
  428SOL     OW 2182   4.100   1.380   5.135
  428SOL    HW1 2183   4.133   1.400   5.227
  428SOL    HW2 2184   4.168   1.409   5.068
  429SOL     OW 2185   3.045   6.506   0.208
  429SOL    HW1 2186   2.982   6.531   0.281
  429SOL    HW2 2187   3.125   6.461   0.247
  430SOL     OW 2188   3.105   0.404   4.461
  430SOL    HW1 2189   3.079   0.314   4.497
  430SOL    HW2 2190   3.180   0.394   4.396
  431SOL     OW 2191   3.773   1.024   0.013
  431SOL    HW1 2192   3.779   1.086   0.091
  431SOL    HW2 2193   3.846   1.045   6.973
  432SOL     OW 2194   6.972   1.058   0.931
  432SOL    HW1 2195   0.020   1.052   0.999
  432SOL    HW2 2196   7.008   1.033   0.841
  433SOL     OW 2197   3.303   6.030   5.061
  433SOL    HW1 2198   3.314   5.966   4.985
  433SOL    HW2 2199   3.345   5.991   5.143
  434SOL     OW 2200   6.158   3.736   1.253
  434SOL    HW1 2201   6.152   3.637   1.248
  434SOL    HW2 2202   6.243   3.767   1.210
  435SOL     OW 2203   3.758   3.514   0.942
  435SOL    HW1 2204   3.850   3.549   0.961
  435SOL    HW2 2205   3.707   3.581   0.888
  436SOL     OW 2206   3.322   0.995   0.770
  436SOL    HW1 2207   3.245   0.946   0.728
  436SOL    HW2 2208   3.406   0.942   0.757
  437SOL     OW 2209   6.901   6.709   6.144
  437SOL    HW1 2210   6.841   6.633   6.171
  437SOL    HW2 2211   6.993   6.692   6.178
  438SOL     OW 2212   1.154   3.110   1.108
  438SOL    HW1 2213   1.148   3.144   1.014
  438SOL    HW2 2214   1.242   3.136   1.146
  439SOL     OW 2215   6.225   5.466   1.803
  439SOL    HW1 2216   6.233   5.429   1.895
  439SOL    HW2 2217   6.311   5.453   1.754
  440SOL     OW 2218   1.621   3.021   3.004
  440SOL    HW1 2219   1.719   3.006   3.015
  440SOL    HW2 2220   1.600   3.118   3.020
  441SOL     OW 2221   0.527   1.175   2.905
  441SOL    HW1 2222   0.537   1.153   2.808
  441SOL    HW2 2223   0.514   1.274   2.916
  442SOL     OW 2224   0.267   5.103   6.162
  442SOL    HW1 2225   0.272   5.129   6.066
  442SOL    HW2 2226   0.209   5.022   6.172
  443SOL     OW 2227   0.448   4.639   5.498
  443SOL    HW1 2228   0.426   4.682   5.586
  443SOL    HW2 2229   0.547   4.633   5.487
  444SOL     OW 2230   5.103   2.759   6.605
  444SOL    HW1 2231   5.157   2.789   6.683
  444SOL    HW2 2232   5.117   2.823   6.529
  445SOL     OW 2233   1.168   3.768   3.727
  445SOL    HW1 2234   1.127   3.813   3.647
  445SOL    HW2 2235   1.196   3.837   3.793
  446SOL     OW 2236   2.626   5.234   4.139
  446SOL    HW1 2237   2.657   5.184   4.220
  446SOL    HW2 2238   2.705   5.259   4.083
  447SOL     OW 2239   6.729   6.357   0.852
  447SOL    HW1 2240   6.810   6.333   0.905
  447SOL    HW2 2241   6.656   6.291   0.869
  448SOL     OW 2242   4.503   0.418   5.756
  448SOL    HW1 2243   4.481   0.515   5.748
  448SOL    HW2 2244   4.490   0.374   5.667
  449SOL     OW 2245   5.095   0.214   4.167
  449SOL    HW1 2246   5.082   0.237   4.071
  449SOL    HW2 2247   5.020   0.156   4.198
  450SOL     OW 2248   6.632   6.877   2.871
  450SOL    HW1 2249   6.710   6.885   2.809
  450SOL    HW2 2250   6.564   6.816   2.830
  451SOL     OW 2251   6.703   3.319   4.096
  451SOL    HW1 2252   6.764   3.398   4.102
  451SOL    HW2 2253   6.609   3.351   4.087
  452SOL     OW 2254   6.641   5.159   6.057
  452SOL    HW1 2255   6.553   5.205   6.071
  452SOL    HW2 2256   6.696   5.168   6.140
  453SOL     OW 2257   3.527   1.782   6.107
  453SOL    HW1 2258   3.520   1.880   6.089
  453SOL    HW2 2259   3.454   1.755   6.170
  454SOL     OW 2260   0.714   6.466   0.310
  454SOL    HW1 2261   0.794   6.414   0.279
  454SOL    HW2 2262   0.740   6.563   0.319
  455SOL     OW 2263   5.336   1.182   5.135
  455SOL    HW1 2264   5.311   1.115   5.065
  455SOL    HW2 2265   5.268   1.255   5.139
  456SOL     OW 2266   4.141   4.791   0.038
  456SOL    HW1 2267   4.208   4.750   0.099
  456SOL    HW2 2268   4.151   4.752   6.972
  457SOL     OW 2269   0.805   4.757   1.554
  457SOL    HW1 2270   0.865   4.837   1.563
  457SOL    HW2 2271   0.806   4.705   1.640
  458SOL     OW 2272   0.890   5.666   5.225
  458SOL    HW1 2273   0.984   5.691   5.248
  458SOL    HW2 2274   0.828   5.707   5.291
  459SOL     OW 2275   1.700   0.697   3.220
  459SOL    HW1 2276   1.746   0.753   3.289
  459SOL    HW2 2277   1.650   0.623   3.265
  460SOL     OW 2278   6.262   2.102   3.730
  460SOL    HW1 2279   6.339   2.039   3.717
  460SOL    HW2 2280   6.230   2.134   3.641
  461SOL     OW 2281   5.594   4.871   5.421
  461SOL    HW1 2282   5.508   4.920   5.409
  461SOL    HW2 2283   5.644   4.868   5.335
  462SOL     OW 2284   2.563   1.839   0.254
  462SOL    HW1 2285   2.474   1.795   0.239
  462SOL    HW2 2286   2.588   1.891   0.172
  463SOL     OW 2287   0.022   5.774   2.302
  463SOL    HW1 2288   6.949   5.789   2.305
  463SOL    HW2 2289   0.044   5.708   2.230
  464SOL     OW 2290   2.016   1.345   5.770
  464SOL    HW1 2291   2.036   1.441   5.755
  464SOL    HW2 2292   2.001   1.300   5.681
  465SOL     OW 2293   0.237   3.444   6.217
  465SOL    HW1 2294   0.193   3.406   6.135
  465SOL    HW2 2295   0.182   3.421   6.298
  466SOL     OW 2296   2.440   0.896   3.150
  466SOL    HW1 2297   2.449   0.992   3.174
  466SOL    HW2 2298   2.529   0.861   3.118
  467SOL     OW 2299   1.731   1.787   5.389
  467SOL    HW1 2300   1.739   1.812   5.486
  467SOL    HW2 2301   1.819   1.752   5.356
  468SOL     OW 2302   3.217   3.569   2.586
  468SOL    HW1 2303   3.259   3.657   2.565
  468SOL    HW2 2304   3.146   3.549   2.519
  469SOL     OW 2305   3.490   6.299   0.225
  469SOL    HW1 2306   3.476   6.268   0.131
  469SOL    HW2 2307   3.554   6.238   0.271
  470SOL     OW 2308   4.704   0.025   3.235
  470SOL    HW1 2309   4.679   6.963   3.276
  470SOL    HW2 2310   4.651   0.039   3.151
  471SOL     OW 2311   2.877   2.288   4.504
  471SOL    HW1 2312   2.977   2.292   4.500
  471SOL    HW2 2313   2.846   2.200   4.467
  472SOL     OW 2314   4.037   4.406   5.341
  472SOL    HW1 2315   3.963   4.382   5.277
  472SOL    HW2 2316   4.125   4.399   5.294
  473SOL     OW 2317   0.676   4.457   4.126
  473SOL    HW1 2318   0.677   4.361   4.153
  473SOL    HW2 2319   0.764   4.499   4.149
  474SOL     OW 2320   4.921   4.390   5.369
  474SOL    HW1 2321   5.020   4.404   5.374
  474SOL    HW2 2322   4.902   4.305   5.320
  475SOL     OW 2323   1.999   6.502   6.645
  475SOL    HW1 2324   2.028   6.407   6.651
  475SOL    HW2 2325   1.904   6.506   6.613
  476SOL     OW 2326   0.385   5.705   2.557
  476SOL    HW1 2327   0.451   5.732   2.486
  476SOL    HW2 2328   0.434   5.691   2.643
  477SOL     OW 2329   2.180   5.232   3.902
  477SOL    HW1 2330   2.151   5.185   3.819
  477SOL    HW2 2331   2.104   5.235   3.968
  478SOL     OW 2332   1.401   5.264   3.103
  478SOL    HW1 2333   1.421   5.357   3.134
  478SOL    HW2 2334   1.311   5.263   3.059
  479SOL     OW 2335   3.647   1.560   1.058
  479SOL    HW1 2336   3.636   1.546   1.156
  479SOL    HW2 2337   3.744   1.579   1.039
  480SOL     OW 2338   1.524   6.660   3.463
  480SOL    HW1 2339   1.551   6.708   3.547
  480SOL    HW2 2340   1.606   6.628   3.415
  481SOL     OW 2341   2.402   6.695   0.959
  481SOL    HW1 2342   2.305   6.669   0.966
  481SOL    HW2 2343   2.457   6.613   0.944
  482SOL     OW 2344   5.844   5.338   0.866
  482SOL    HW1 2345   5.909   5.278   0.820
  482SOL    HW2 2346   5.887   5.378   0.946
  483SOL     OW 2347   6.287   1.754   2.295
  483SOL    HW1 2348   6.334   1.752   2.384
  483SOL    HW2 2349   6.195   1.716   2.305
  484SOL     OW 2350   6.867   2.203   4.539
  484SOL    HW1 2351   6.897   2.288   4.495
  484SOL    HW2 2352   6.780   2.219   4.586
  485SOL     OW 2353   3.683   6.219   1.601
  485SOL    HW1 2354   3.720   6.312   1.601
  485SOL    HW2 2355   3.696   6.178   1.510
  486SOL     OW 2356   0.151   1.048   5.781
  486SOL    HW1 2357   0.182   1.129   5.731
  486SOL    HW2 2358   0.210   0.970   5.759
  487SOL     OW 2359   6.182   2.656   6.495
  487SOL    HW1 2360   6.135   2.591   6.554
  487SOL    HW2 2361   6.232   2.722   6.551
  488SOL     OW 2362   1.000   4.711   2.206
  488SOL    HW1 2363   1.048   4.796   2.230
  488SOL    HW2 2364   1.048   4.667   2.130
  489SOL     OW 2365   3.500   5.742   6.512
  489SOL    HW1 2366   3.401   5.730   6.509
  489SOL    HW2 2367   3.543   5.657   6.543
  490SOL     OW 2368   5.266   6.949   3.997
  490SOL    HW1 2369   5.357   6.975   3.963
  490SOL    HW2 2370   5.257   6.977   4.092
  491SOL     OW 2371   0.125   2.380   3.583
  491SOL    HW1 2372   0.099   2.448   3.515
  491SOL    HW2 2373   0.117   2.288   3.544
  492SOL     OW 2374   1.510   1.054   4.758
  492SOL    HW1 2375   1.478   1.117   4.829
  492SOL    HW2 2376   1.585   1.095   4.707
  493SOL     OW 2377   6.483   3.936   4.318
  493SOL    HW1 2378   6.524   3.852   4.285
  493SOL    HW2 2379   6.449   3.922   4.411
  494SOL     OW 2380   6.163   1.515   6.439
  494SOL    HW1 2381   6.216   1.593   6.406
  494SOL    HW2 2382   6.212   1.430   6.419
  495SOL     OW 2383   4.935   4.145   0.647
  495SOL    HW1 2384   4.967   4.233   0.682
  495SOL    HW2 2385   4.893   4.159   0.557
  496SOL     OW 2386   5.585   3.263   3.005
  496SOL    HW1 2387   5.488   3.244   2.994
  496SOL    HW2 2388   5.633   3.245   2.919
  497SOL     OW 2389   4.007   6.695   4.006
  497SOL    HW1 2390   4.060   6.715   3.923
  497SOL    HW2 2391   3.955   6.775   4.032
  498SOL     OW 2392   1.515   2.857   2.223
  498SOL    HW1 2393   1.569   2.777   2.250
  498SOL    HW2 2394   1.455   2.883   2.299
  499SOL     OW 2395   3.039   0.966   5.074
  499SOL    HW1 2396   3.088   1.015   5.146
  499SOL    HW2 2397   2.951   0.934   5.108
  500SOL     OW 2398   1.757   4.286   2.148
  500SOL    HW1 2399   1.847   4.280   2.105
  500SOL    HW2 2400   1.712   4.196   2.143
  501SOL     OW 2401   1.078   5.077   0.066
  501SOL    HW1 2402   1.160   5.021   0.063
  501SOL    HW2 2403   0.997   5.019   0.062
  502SOL     OW 2404   3.255   5.017   6.144
  502SOL    HW1 2405   3.244   5.003   6.046
  502SOL    HW2 2406   3.268   4.928   6.189
  503SOL     OW 2407   6.072   5.398   4.887
  503SOL    HW1 2408   6.164   5.362   4.900
  503SOL    HW2 2409   6.062   5.431   4.792
  504SOL     OW 2410   1.639   5.856   4.498
  504SOL    HW1 2411   1.665   5.952   4.492
  504SOL    HW2 2412   1.722   5.799   4.495
  505SOL     OW 2413   3.610   6.497   5.026
  505SOL    HW1 2414   3.637   6.533   4.937
  505SOL    HW2 2415   3.627   6.567   5.096
  506SOL     OW 2416   1.701   3.132   0.396
  506SOL    HW1 2417   1.748   3.044   0.384
  506SOL    HW2 2418   1.622   3.136   0.335
  507SOL     OW 2419   3.783   2.083   4.166
  507SOL    HW1 2420   3.824   2.017   4.228
  507SOL    HW2 2421   3.855   2.129   4.114
  508SOL     OW 2422   6.114   4.732   4.084
  508SOL    HW1 2423   6.205   4.716   4.048
  508SOL    HW2 2424   6.051   4.750   4.008
  509SOL     OW 2425   4.223   2.951   1.069
  509SOL    HW1 2426   4.296   3.006   1.029
  509SOL    HW2 2427   4.227   2.957   1.169
  510SOL     OW 2428   1.074   4.317   4.821
  510SOL    HW1 2429   1.160   4.321   4.872
  510SOL    HW2 2430   1.091   4.338   4.725
  511SOL     OW 2431   0.317   6.462   1.307
  511SOL    HW1 2432   0.377   6.386   1.280
  511SOL    HW2 2433   0.224   6.428   1.322
  512SOL     OW 2434   1.065   3.797   6.013
  512SOL    HW1 2435   1.015   3.734   6.071
  512SOL    HW2 2436   1.163   3.791   6.033
  513SOL     OW 2437   1.520   5.035   4.439
  513SOL    HW1 2438   1.574   5.117   4.420
  513SOL    HW2 2439   1.511   5.022   4.537
  514SOL     OW 2440   6.097   1.638   3.027
  514SOL    HW1 2441   6.192   1.646   3.055
  514SOL    HW2 2442   6.055   1.559   3.073
  515SOL     OW 2443   2.520   5.341   0.196
  515SOL    HW1 2444   2.520   5.344   0.096
  515SOL    HW2 2445   2.607   5.375   0.230
  516SOL     OW 2446   1.392   5.081   3.511
  516SOL    HW1 2447   1.463   5.081   3.582
  516SOL    HW2 2448   1.433   5.057   3.423
  517SOL     OW 2449   4.557   0.750   6.594
  517SOL    HW1 2450   4.599   0.731   6.683
  517SOL    HW2 2451   4.612   0.707   6.522
  518SOL     OW 2452   2.195   1.768   0.959
  518SOL    HW1 2453   2.133   1.770   1.037
  518SOL    HW2 2454   2.194   1.857   0.913
  519SOL     OW 2455   0.811   6.911   0.211
  519SOL    HW1 2456   0.786   6.867   0.297
  519SOL    HW2 2457   0.729   6.946   0.166
  520SOL     OW 2458   5.932   4.262   4.360
  520SOL    HW1 2459   5.847   4.214   4.340
  520SOL    HW2 2460   5.986   4.272   4.277
  521SOL     OW 2461   6.303   0.556   0.600
  521SOL    HW1 2462   6.215   0.567   0.554
  521SOL    HW2 2463   6.319   0.635   0.660
  522SOL     OW 2464   3.449   4.184   5.899
  522SOL    HW1 2465   3.420   4.097   5.860
  522SOL    HW2 2466   3.384   4.212   5.970
  523SOL     OW 2467   6.526   6.706   3.996
  523SOL    HW1 2468   6.574   6.714   3.908
  523SOL    HW2 2469   6.480   6.792   4.017
  524SOL     OW 2470   4.188   0.732   5.459
  524SOL    HW1 2471   4.142   0.665   5.402
  524SOL    HW2 2472   4.164   0.717   5.555
  525SOL     OW 2473   2.400   2.320   0.002
  525SOL    HW1 2474   2.485   2.279   6.995
  525SOL    HW2 2475   2.413   2.353   0.096
  526SOL     OW 2476   4.715   5.294   4.275
  526SOL    HW1 2477   4.806   5.293   4.317
  526SOL    HW2 2478   4.722   5.332   4.183
  527SOL     OW 2479   0.143   1.982   0.263
  527SOL    HW1 2480   0.223   1.988   0.322
  527SOL    HW2 2481   0.066   1.944   0.314
  528SOL     OW 2482   2.190   1.218   5.528
  528SOL    HW1 2483   2.201   1.173   5.440
  528SOL    HW2 2484   2.105   1.188   5.570
  529SOL     OW 2485   6.625   5.015   4.344
  529SOL    HW1 2486   6.715   4.973   4.360
  529SOL    HW2 2487   6.583   4.975   4.262
  530SOL     OW 2488   0.332   2.818   5.669
  530SOL    HW1 2489   0.320   2.740   5.607
  530SOL    HW2 2490   0.266   2.810   5.744
  531SOL     OW 2491   6.932   1.099   0.086
  531SOL    HW1 2492   6.847   1.088   0.035
  531SOL    HW2 2493   6.992   1.164   0.038
  532SOL     OW 2494   2.265   0.880   5.657
  532SOL    HW1 2495   2.287   0.975   5.680
  532SOL    HW2 2496   2.196   0.878   5.585
  533SOL     OW 2497   4.924   0.380   4.614
  533SOL    HW1 2498   4.989   0.347   4.545
  533SOL    HW2 2499   4.949   0.473   4.642
  534SOL     OW 2500   3.169   5.599   2.891
  534SOL    HW1 2501   3.113   5.516   2.886
  534SOL    HW2 2502   3.251   5.587   2.835
  535SOL     OW 2503   6.282   4.163   2.334
  535SOL    HW1 2504   6.232   4.080   2.312
  535SOL    HW2 2505   6.345   4.185   2.260
  536SOL     OW 2506   1.031   0.067   1.036
  536SOL    HW1 2507   1.099   0.077   0.965
  536SOL    HW2 2508   0.940   0.060   0.995
  537SOL     OW 2509   2.097   0.190   3.468
  537SOL    HW1 2510   2.158   0.190   3.547
  537SOL    HW2 2511   2.027   0.120   3.479
  538SOL     OW 2512   1.788   4.803   4.293
  538SOL    HW1 2513   1.804   4.833   4.387
  538SOL    HW2 2514   1.837   4.865   4.230
  539SOL     OW 2515   0.979   6.084   0.934
  539SOL    HW1 2516   1.013   6.169   0.976
  539SOL    HW2 2517   0.920   6.037   0.999
  540SOL     OW 2518   1.643   3.194   1.100
  540SOL    HW1 2519   1.660   3.292   1.095
  540SOL    HW2 2520   1.688   3.148   1.024
  541SOL     OW 2521   4.202   5.261   5.033
  541SOL    HW1 2522   4.289   5.237   4.988
  541SOL    HW2 2523   4.165   5.181   5.080
  542SOL     OW 2524   5.700   6.290   6.426
  542SOL    HW1 2525   5.712   6.255   6.333
  542SOL    HW2 2526   5.720   6.388   6.427
  543SOL     OW 2527   5.888   6.778   0.946
  543SOL    HW1 2528   5.940   6.832   0.880
  543SOL    HW2 2529   5.838   6.840   1.007
  544SOL     OW 2530   0.742   5.653   0.325
  544SOL    HW1 2531   0.785   5.741   0.346
  544SOL    HW2 2532   0.801   5.579   0.356
  545SOL     OW 2533   3.960   1.502   3.961
  545SOL    HW1 2534   3.981   1.406   3.978
  545SOL    HW2 2535   4.046   1.553   3.949
  546SOL     OW 2536   1.706   2.152   0.315
  546SOL    HW1 2537   1.788   2.119   0.360
  546SOL    HW2 2538   1.704   2.120   0.220
  547SOL     OW 2539   3.013   1.488   0.103
  547SOL    HW1 2540   3.081   1.509   0.173
  547SOL    HW2 2541   2.972   1.399   0.122
  548SOL     OW 2542   3.077   3.159   5.016
  548SOL    HW1 2543   3.072   3.249   4.972
  548SOL    HW2 2544   2.986   3.134   5.051
  549SOL     OW 2545   0.210   4.132   0.855
  549SOL    HW1 2546   0.146   4.069   0.811
  549SOL    HW2 2547   0.159   4.197   0.911
  550SOL     OW 2548   6.581   3.741   0.645
  550SOL    HW1 2549   6.600   3.839   0.639
  550SOL    HW2 2550   6.631   3.702   0.722
  551SOL     OW 2551   0.109   1.444   0.402
  551SOL    HW1 2552   0.177   1.509   0.436
  551SOL    HW2 2553   0.117   1.435   0.303
  552SOL     OW 2554   4.789   4.759   0.762
  552SOL    HW1 2555   4.873   4.727   0.805
  552SOL    HW2 2556   4.710   4.721   0.809
  553SOL     OW 2557   1.193   2.066   1.677
  553SOL    HW1 2558   1.155   2.134   1.740
  553SOL    HW2 2559   1.252   2.112   1.610
  554SOL     OW 2560   4.488   5.007   4.853
  554SOL    HW1 2561   4.584   4.987   4.834
  554SOL    HW2 2562   4.433   4.924   4.839
  555SOL     OW 2563   1.406   4.700   5.436
  555SOL    HW1 2564   1.323   4.652   5.408
  555SOL    HW2 2565   1.482   4.672   5.378
  556SOL     OW 2566   6.023   3.807   2.905
  556SOL    HW1 2567   6.094   3.841   2.844
  556SOL    HW2 2568   5.934   3.837   2.872
  557SOL     OW 2569   6.703   5.541   5.865
  557SOL    HW1 2570   6.763   5.507   5.938
  557SOL    HW2 2571   6.622   5.482   5.859
  558SOL     OW 2572   4.094   3.283   5.571
  558SOL    HW1 2573   4.042   3.267   5.655
  558SOL    HW2 2574   4.117   3.195   5.530
  559SOL     OW 2575   5.748   5.316   6.132
  559SOL    HW1 2576   5.848   5.322   6.139
  559SOL    HW2 2577   5.708   5.405   6.157
  560SOL     OW 2578   4.194   6.532   0.043
  560SOL    HW1 2579   4.262   6.589   7.022
  560SOL    HW2 2580   4.178   6.568   0.135
  561SOL     OW 2581   5.642   6.828   2.108
  561SOL    HW1 2582   5.542   6.825   2.104
  561SOL    HW2 2583   5.672   6.823   2.204
  562SOL     OW 2584   6.425   1.061   0.240
  562SOL    HW1 2585   6.524   1.069   0.229
  562SOL    HW2 2586   6.404   0.986   0.302
  563SOL     OW 2587   2.845   0.666   5.133
  563SOL    HW1 2588   2.923   0.636   5.187
  563SOL    HW2 2589   2.862   0.647   5.037
  564SOL     OW 2590   0.836   1.793   5.779
  564SOL    HW1 2591   0.855   1.891   5.772
  564SOL    HW2 2592   0.737   1.779   5.788
  565SOL     OW 2593   4.474   3.818   6.181
  565SOL    HW1 2594   4.465   3.750   6.253
  565SOL    HW2 2595   4.547   3.791   6.118
  566SOL     OW 2596   6.746   5.023   2.342
  566SOL    HW1 2597   6.711   4.977   2.260
  566SOL    HW2 2598   6.844   5.035   2.334
  567SOL     OW 2599   3.712   4.038   5.279
  567SOL    HW1 2600   3.759   3.950   5.275
  567SOL    HW2 2601   3.688   4.059   5.373
  568SOL     OW 2602   1.851   0.970   6.355
  568SOL    HW1 2603   1.850   0.900   6.283
  568SOL    HW2 2604   1.758   0.985   6.388
  569SOL     OW 2605   1.899   3.982   6.764
  569SOL    HW1 2606   1.911   4.061   6.824
  569SOL    HW2 2607   1.989   3.947   6.737
  570SOL     OW 2608   0.097   6.510   0.170
  570SOL    HW1 2609   0.019   6.557   0.211
  570SOL    HW2 2610   0.160   6.481   0.242
  571SOL     OW 2611   3.907   6.273   1.967
  571SOL    HW1 2612   3.850   6.276   1.885
  571SOL    HW2 2613   3.859   6.224   2.039
  572SOL     OW 2614   1.821   4.549   4.203
  572SOL    HW1 2615   1.771   4.631   4.233
  572SOL    HW2 2616   1.771   4.467   4.233
  573SOL     OW 2617   3.036   2.543   0.072
  573SOL    HW1 2618   3.121   2.589   0.095
  573SOL    HW2 2619   2.972   2.609   0.031
  574SOL     OW 2620   2.703   2.173   3.819
  574SOL    HW1 2621   2.658   2.111   3.754
  574SOL    HW2 2622   2.799   2.147   3.828
  575SOL     OW 2623   5.268   2.276   6.469
  575SOL    HW1 2624   5.358   2.303   6.505
  575SOL    HW2 2625   5.208   2.356   6.465
  576SOL     OW 2626   1.313   3.085   2.723
  576SOL    HW1 2627   1.390   3.074   2.661
  576SOL    HW2 2628   1.277   3.178   2.716
  577SOL     OW 2629   3.948   1.891   4.358
  577SOL    HW1 2630   3.887   1.812   4.366
  577SOL    HW2 2631   4.011   1.892   4.436
  578SOL     OW 2632   0.038   3.774   4.041
  578SOL    HW1 2633   7.007   3.691   4.045
  578SOL    HW2 2634   0.021   3.829   4.123
  579SOL     OW 2635   3.685   3.645   0.212
  579SOL    HW1 2636   3.770   3.665   0.164
  579SOL    HW2 2637   3.703   3.637   0.310
  580SOL     OW 2638   0.261   7.016   0.264
  580SOL    HW1 2639   0.177   7.002   0.212
  580SOL    HW2 2640   0.309   6.929   0.274
  581SOL     OW 2641   4.163   3.330   2.607
  581SOL    HW1 2642   4.091   3.324   2.538
  581SOL    HW2 2643   4.243   3.278   2.576
  582SOL     OW 2644   6.617   4.374   0.642
  582SOL    HW1 2645   6.523   4.400   0.662
  582SOL    HW2 2646   6.620   4.324   0.555
  583SOL     OW 2647   2.352   6.748   6.567
  583SOL    HW1 2648   2.390   6.744   6.659
  583SOL    HW2 2649   2.362   6.840   6.529
  584SOL     OW 2650   1.485   4.878   4.704
  584SOL    HW1 2651   1.568   4.824   4.691
  584SOL    HW2 2652   1.453   4.870   4.798
  585SOL     OW 2653   5.559   0.592   5.579
  585SOL    HW1 2654   5.518   0.683   5.582
  585SOL    HW2 2655   5.637   0.592   5.516
  586SOL     OW 2656   3.020   6.040   1.534
  586SOL    HW1 2657   2.924   6.031   1.559
  586SOL    HW2 2658   3.055   5.951   1.504
  587SOL     OW 2659   1.950   3.176   6.392
  587SOL    HW1 2660   1.916   3.086   6.417
  587SOL    HW2 2661   1.876   3.230   6.351
  588SOL     OW 2662   1.981   0.028   1.574
  588SOL    HW1 2663   1.995   0.109   1.517
  588SOL    HW2 2664   2.051   6.985   1.553
  589SOL     OW 2665   4.420   4.865   1.423
  589SOL    HW1 2666   4.425   4.884   1.325
  589SOL    HW2 2667   4.327   4.882   1.456
  590SOL     OW 2668   6.640   3.433   1.632
  590SOL    HW1 2669   6.543   3.427   1.656
  590SOL    HW2 2670   6.650   3.432   1.533
  591SOL     OW 2671   2.933   0.214   2.898
  591SOL    HW1 2672   2.884   0.142   2.948
  591SOL    HW2 2673   2.892   0.224   2.807
  592SOL     OW 2674   5.494   0.210   5.764
  592SOL    HW1 2675   5.460   0.290   5.813
  592SOL    HW2 2676   5.560   0.161   5.821
  593SOL     OW 2677   7.015   0.962   4.706
  593SOL    HW1 2678   6.931   0.936   4.755
  593SOL    HW2 2679   7.005   0.940   4.609
  594SOL     OW 2680   5.907   2.040   1.539
  594SOL    HW1 2681   5.840   2.067   1.470
  594SOL    HW2 2682   5.875   2.068   1.630
  595SOL     OW 2683   3.986   6.947   3.263
  595SOL    HW1 2684   3.895   6.909   3.250
  595SOL    HW2 2685   4.051   6.873   3.280
  596SOL     OW 2686   0.763   4.523   1.238
  596SOL    HW1 2687   0.804   4.614   1.232
  596SOL    HW2 2688   0.701   4.510   1.161
  597SOL     OW 2689   4.356   2.328   5.966
  597SOL    HW1 2690   4.413   2.325   6.048
  597SOL    HW2 2691   4.263   2.299   5.989
  598SOL     OW 2692   3.027   3.939   1.334
  598SOL    HW1 2693   2.941   3.922   1.287
  598SOL    HW2 2694   3.103   3.934   1.269
  599SOL     OW 2695   6.157   5.780   3.853
  599SOL    HW1 2696   6.170   5.879   3.862
  599SOL    HW2 2697   6.086   5.762   3.785
  600SOL     OW 2698   2.901   1.208   1.428
  600SOL    HW1 2699   2.889   1.258   1.342
  600SOL    HW2 2700   2.948   1.265   1.494
  601SOL     OW 2701   1.919   5.049   3.301
  601SOL    HW1 2702   1.864   5.030   3.382
  601SOL    HW2 2703   1.879   5.003   3.222
  602SOL     OW 2704   6.886   0.207   2.414
  602SOL    HW1 2705   6.985   0.202   2.401
  602SOL    HW2 2706   6.865   0.277   2.483
  603SOL     OW 2707   4.327   1.888   3.194
  603SOL    HW1 2708   4.284   1.816   3.249
  603SOL    HW2 2709   4.278   1.897   3.107
  604SOL     OW 2710   1.554   3.530   5.863
  604SOL    HW1 2711   1.562   3.431   5.853
  604SOL    HW2 2712   1.558   3.573   5.773
  605SOL     OW 2713   5.558   0.102   4.144
  605SOL    HW1 2714   5.516   0.073   4.058
  605SOL    HW2 2715   5.495   0.086   4.219
  606SOL     OW 2716   2.775   6.395   1.951
  606SOL    HW1 2717   2.752   6.492   1.947
  606SOL    HW2 2718   2.867   6.384   1.989
  607SOL     OW 2719   3.568   0.489   4.276
  607SOL    HW1 2720   3.542   0.567   4.333
  607SOL    HW2 2721   3.647   0.513   4.221
  608SOL     OW 2722   5.601   3.181   1.241
  608SOL    HW1 2723   5.628   3.180   1.144
  608SOL    HW2 2724   5.599   3.087   1.275
  609SOL     OW 2725   3.432   4.032   4.896
  609SOL    HW1 2726   3.521   4.059   4.860
  609SOL    HW2 2727   3.442   3.958   4.961
  610SOL     OW 2728   6.191   2.105   4.494
  610SOL    HW1 2729   6.199   2.065   4.585
  610SOL    HW2 2730   6.196   2.033   4.425
  611SOL     OW 2731   5.536   6.996   0.199
  611SOL    HW1 2732   5.602   6.921   0.193
  611SOL    HW2 2733   5.561   0.041   0.133
  612SOL     OW 2734   1.918   4.759   6.529
  612SOL    HW1 2735   1.964   4.711   6.454
  612SOL    HW2 2736   1.829   4.717   6.545
  613SOL     OW 2737   4.180   1.085   6.595
  613SOL    HW1 2738   4.222   1.176   6.595
  613SOL    HW2 2739   4.101   1.084   6.656
  614SOL     OW 2740   5.062   3.034   0.829
  614SOL    HW1 2741   4.996   3.054   0.902
  614SOL    HW2 2742   5.152   3.018   0.869
  615SOL     OW 2743   5.584   6.148   0.502
  615SOL    HW1 2744   5.558   6.237   0.465
  615SOL    HW2 2745   5.647   6.103   0.439
  616SOL     OW 2746   4.673   1.274   4.476
  616SOL    HW1 2747   4.580   1.239   4.472
  616SOL    HW2 2748   4.693   1.306   4.568
  617SOL     OW 2749   6.590   6.376   4.746
  617SOL    HW1 2750   6.523   6.448   4.765
  617SOL    HW2 2751   6.649   6.404   4.671
  618SOL     OW 2752   5.928   5.007   0.181
  618SOL    HW1 2753   5.941   5.094   0.230
  618SOL    HW2 2754   6.000   4.943   0.209
  619SOL     OW 2755   1.956   6.982   6.776
  619SOL    HW1 2756   1.988   6.887   6.781
  619SOL    HW2 2757   1.875   6.993   6.833
  620SOL     OW 2758   4.699   2.289   2.015
  620SOL    HW1 2759   4.643   2.207   2.001
  620SOL    HW2 2760   4.647   2.356   2.068
  621SOL     OW 2761   2.868   0.605   6.402
  621SOL    HW1 2762   2.824   0.562   6.323
  621SOL    HW2 2763   2.812   0.588   6.484
  622SOL     OW 2764   0.331   3.730   6.092
  622SOL    HW1 2765   0.248   3.776   6.123
  622SOL    HW2 2766   0.338   3.640   6.134
  623SOL     OW 2767   6.547   1.200   2.699
  623SOL    HW1 2768   6.647   1.205   2.692
  623SOL    HW2 2769   6.523   1.153   2.784
  624SOL     OW 2770   6.729   1.097   6.493
  624SOL    HW1 2771   6.688   1.033   6.429
  624SOL    HW2 2772   6.714   1.191   6.462
  625SOL     OW 2773   3.324   1.273   1.342
  625SOL    HW1 2774   3.400   1.337   1.344
  625SOL    HW2 2775   3.268   1.285   1.424
  626SOL     OW 2776   0.608   5.987   3.656
  626SOL    HW1 2777   0.557   5.952   3.577
  626SOL    HW2 2778   0.653   5.911   3.703
  627SOL     OW 2779   6.749   5.305   6.638
  627SOL    HW1 2780   6.840   5.280   6.607
  627SOL    HW2 2781   6.755   5.384   6.700
  628SOL     OW 2782   3.798   4.537   6.489
  628SOL    HW1 2783   3.844   4.559   6.575
  628SOL    HW2 2784   3.839   4.455   6.449
  629SOL     OW 2785   1.398   0.074   6.847
  629SOL    HW1 2786   1.422   0.016   6.770
  629SOL    HW2 2787   1.419   0.027   6.933
  630SOL     OW 2788   6.489   2.364   0.986
  630SOL    HW1 2789   6.534   2.323   0.906
  630SOL    HW2 2790   6.395   2.389   0.962
  631SOL     OW 2791   1.850   3.613   3.052
  631SOL    HW1 2792   1.804   3.702   3.060
  631SOL    HW2 2793   1.834   3.559   3.134
  632SOL     OW 2794   3.287   4.555   1.452
  632SOL    HW1 2795   3.315   4.620   1.522
  632SOL    HW2 2796   3.196   4.519   1.474
  633SOL     OW 2797   0.645   6.021   0.433
  633SOL    HW1 2798   0.550   5.999   0.453
  633SOL    HW2 2799   0.705   5.962   0.487
  634SOL     OW 2800   3.366   3.304   5.579
  634SOL    HW1 2801   3.337   3.215   5.543
  634SOL    HW2 2802   3.394   3.293   5.674
  635SOL     OW 2803   6.133   6.606   6.443
  635SOL    HW1 2804   6.149   6.704   6.429
  635SOL    HW2 2805   6.202   6.554   6.394
  636SOL     OW 2806   2.086   1.558   4.488
  636SOL    HW1 2807   2.182   1.554   4.517
  636SOL    HW2 2808   2.044   1.469   4.501
  637SOL     OW 2809   6.890   1.787   2.104
  637SOL    HW1 2810   6.855   1.868   2.151
  637SOL    HW2 2811   6.938   1.815   2.021
  638SOL     OW 2812   0.048   3.326   5.331
  638SOL    HW1 2813   0.122   3.363   5.274
  638SOL    HW2 2814   7.016   3.266   5.276
  639SOL     OW 2815   6.143   3.245   2.145
  639SOL    HW1 2816   6.157   3.303   2.225
  639SOL    HW2 2817   6.046   3.228   2.132
  640SOL     OW 2818   6.440   3.399   2.858
  640SOL    HW1 2819   6.365   3.373   2.918
  640SOL    HW2 2820   6.419   3.374   2.764
  641SOL     OW 2821   2.286   5.550   4.354
  641SOL    HW1 2822   2.200   5.574   4.308
  641SOL    HW2 2823   2.320   5.464   4.316
  642SOL     OW 2824   0.682   5.334   4.768
  642SOL    HW1 2825   0.765   5.375   4.806
  642SOL    HW2 2826   0.653   5.386   4.688
  643SOL     OW 2827   4.312   5.043   0.512
  643SOL    HW1 2828   4.362   5.015   0.595
  643SOL    HW2 2829   4.367   5.024   0.432
  644SOL     OW 2830   6.026   0.632   4.834
  644SOL    HW1 2831   5.940   0.644   4.884
  644SOL    HW2 2832   6.009   0.576   4.752
  645SOL     OW 2833   4.290   6.526   1.819
  645SOL    HW1 2834   4.197   6.496   1.797
  645SOL    HW2 2835   4.323   6.476   1.899
  646SOL     OW 2836   3.617   1.797   5.114
  646SOL    HW1 2837   3.616   1.872   5.048
  646SOL    HW2 2838   3.629   1.710   5.066
  647SOL     OW 2839   2.618   1.640   0.747
  647SOL    HW1 2840   2.624   1.652   0.647
  647SOL    HW2 2841   2.543   1.694   0.783
  648SOL     OW 2842   5.693   1.344   4.349
  648SOL    HW1 2843   5.727   1.439   4.353
  648SOL    HW2 2844   5.616   1.334   4.412
  649SOL     OW 2845   3.253   5.728   0.601
  649SOL    HW1 2846   3.343   5.739   0.559
  649SOL    HW2 2847   3.256   5.652   0.666
  650SOL     OW 2848   2.371   3.377   1.263
  650SOL    HW1 2849   2.471   3.371   1.260
  650SOL    HW2 2850   2.344   3.458   1.314
  651SOL     OW 2851   0.370   1.575   3.296
  651SOL    HW1 2852   0.369   1.558   3.198
  651SOL    HW2 2853   0.460   1.553   3.333
  652SOL     OW 2854   3.883   5.901   0.728
  652SOL    HW1 2855   3.936   5.928   0.648
  652SOL    HW2 2856   3.788   5.885   0.702
  653SOL     OW 2857   1.376   0.090   2.607
  653SOL    HW1 2858   1.434   0.029   2.552
  653SOL    HW2 2859   1.294   0.114   2.555
  654SOL     OW 2860   1.161   6.828   5.991
  654SOL    HW1 2861   1.181   6.756   5.924
  654SOL    HW2 2862   1.065   6.821   6.019
  655SOL     OW 2863   1.508   3.905   0.899
  655SOL    HW1 2864   1.594   3.865   0.930
  655SOL    HW2 2865   1.504   3.902   0.799
  656SOL     OW 2866   2.398   0.568   6.951
  656SOL    HW1 2867   2.324   0.630   6.925
  656SOL    HW2 2868   2.428   0.517   6.870
  657SOL     OW 2869   3.836   3.523   4.177
  657SOL    HW1 2870   3.802   3.496   4.267
  657SOL    HW2 2871   3.848   3.441   4.120
  658SOL     OW 2872   1.886   0.799   4.361
  658SOL    HW1 2873   1.873   0.837   4.453
  658SOL    HW2 2874   1.963   0.735   4.363
  659SOL     OW 2875   1.965   5.808   0.006
  659SOL    HW1 2876   1.903   5.781   6.958
  659SOL    HW2 2877   2.032   5.736   0.023
  660SOL     OW 2878   5.625   3.790   2.356
  660SOL    HW1 2879   5.713   3.743   2.364
  660SOL    HW2 2880   5.552   3.726   2.377
  661SOL     OW 2881   4.675   5.627   3.842
  661SOL    HW1 2882   4.684   5.598   3.747
  661SOL    HW2 2883   4.724   5.563   3.901
  662SOL     OW 2884   6.393   3.709   0.112
  662SOL    HW1 2885   6.397   3.612   0.087
  662SOL    HW2 2886   6.298   3.737   0.122
  663SOL     OW 2887   0.751   4.648   5.894
  663SOL    HW1 2888   0.744   4.627   5.992
  663SOL    HW2 2889   0.679   4.599   5.845
  664SOL     OW 2890   1.708   0.290   5.767
  664SOL    HW1 2891   1.699   0.215   5.701
  664SOL    HW2 2892   1.620   0.310   5.808
  665SOL     OW 2893   2.449   4.492   3.349
  665SOL    HW1 2894   2.416   4.533   3.434
  665SOL    HW2 2895   2.528   4.543   3.315
  666SOL     OW 2896   3.493   0.479   6.926
  666SOL    HW1 2897   3.438   0.481   6.843
  666SOL    HW2 2898   3.575   0.424   6.911
  667SOL     OW 2899   1.345   2.969   2.402
  667SOL    HW1 2900   1.245   2.958   2.401
  667SOL    HW2 2901   1.376   2.971   2.497
  668SOL     OW 2902   5.270   6.983   0.248
  668SOL    HW1 2903   5.326   0.024   0.199
  668SOL    HW2 2904   5.311   6.892   0.239
  669SOL     OW 2905   0.403   5.384   2.618
  669SOL    HW1 2906   0.381   5.372   2.522
  669SOL    HW2 2907   0.320   5.409   2.669
  670SOL     OW 2908   3.910   4.006   2.811
  670SOL    HW1 2909   3.827   4.035   2.859
  670SOL    HW2 2910   3.973   3.964   2.875
  671SOL     OW 2911   1.832   0.251   6.519
  671SOL    HW1 2912   1.785   0.294   6.441
  671SOL    HW2 2913   1.866   0.161   6.491
  672SOL     OW 2914   1.054   2.680   3.247
  672SOL    HW1 2915   1.069   2.752   3.179
  672SOL    HW2 2916   1.083   2.712   3.337
  673SOL     OW 2917   5.374   0.135   6.570
  673SOL    HW1 2918   5.302   0.171   6.510
  673SOL    HW2 2919   5.444   0.205   6.583
  674SOL     OW 2920   0.187   2.196   4.611
  674SOL    HW1 2921   0.206   2.294   4.611
  674SOL    HW2 2922   0.226   2.154   4.694
  675SOL     OW 2923   5.616   6.322   3.555
  675SOL    HW1 2924   5.662   6.244   3.512
  675SOL    HW2 2925   5.666   6.350   3.637
  676SOL     OW 2926   3.008   4.834   4.287
  676SOL    HW1 2927   3.034   4.854   4.381
  676SOL    HW2 2928   2.909   4.819   4.281
  677SOL     OW 2929   4.552   6.288   0.315
  677SOL    HW1 2930   4.471   6.302   0.372
  677SOL    HW2 2931   4.580   6.192   0.321
  678SOL     OW 2932   2.429   1.406   6.162
  678SOL    HW1 2933   2.383   1.317   6.168
  678SOL    HW2 2934   2.454   1.425   6.067
  679SOL     OW 2935   6.300   0.476   2.527
  679SOL    HW1 2936   6.399   0.462   2.515
  679SOL    HW2 2937   6.256   0.387   2.543
  680SOL     OW 2938   6.171   3.929   4.320
  680SOL    HW1 2939   6.235   3.863   4.279
  680SOL    HW2 2940   6.078   3.909   4.289
  681SOL     OW 2941   1.315   5.971   2.319
  681SOL    HW1 2942   1.388   5.947   2.256
  681SOL    HW2 2943   1.335   6.061   2.359
  682SOL     OW 2944   0.147   0.692   5.971
  682SOL    HW1 2945   0.225   0.685   5.908
  682SOL    HW2 2946   0.179   0.677   6.064
  683SOL     OW 2947   5.243   1.361   1.675
  683SOL    HW1 2948   5.251   1.406   1.586
  683SOL    HW2 2949   5.264   1.427   1.747
  684SOL     OW 2950   0.081   5.911   6.773
  684SOL    HW1 2951   0.076   5.994   6.718
  684SOL    HW2 2952   0.020   5.919   6.852
  685SOL     OW 2953   6.202   0.259   6.031
  685SOL    HW1 2954   6.182   0.191   5.960
  685SOL    HW2 2955   6.213   0.349   5.989
  686SOL     OW 2956   5.634   5.038   1.862
  686SOL    HW1 2957   5.699   4.972   1.899
  686SOL    HW2 2958   5.679   5.091   1.789
  687SOL     OW 2959   5.977   1.967   6.525
  687SOL    HW1 2960   5.946   1.920   6.607
  687SOL    HW2 2961   5.900   2.016   6.483
  688SOL     OW 2962   6.366   3.280   5.288
  688SOL    HW1 2963   6.391   3.301   5.382
  688SOL    HW2 2964   6.296   3.344   5.256
  689SOL     OW 2965   5.286   4.414   4.524
  689SOL    HW1 2966   5.386   4.410   4.526
  689SOL    HW2 2967   5.257   4.506   4.499
  690SOL     OW 2968   0.181   3.186   4.733
  690SOL    HW1 2969   0.186   3.155   4.638
  690SOL    HW2 2970   0.215   3.114   4.793
  691SOL     OW 2971   0.119   2.893   6.954
  691SOL    HW1 2972   0.134   2.796   6.934
  691SOL    HW2 2973   0.203   2.932   6.994
  692SOL     OW 2974   3.052   0.149   3.417
  692SOL    HW1 2975   3.145   0.187   3.423
  692SOL    HW2 2976   3.004   0.165   3.503
  693SOL     OW 2977   6.500   1.562   3.862
  693SOL    HW1 2978   6.597   1.543   3.878
  693SOL    HW2 2979   6.482   1.561   3.764
  694SOL     OW 2980   1.571   0.316   2.476
  694SOL    HW1 2981   1.510   0.254   2.526
  694SOL    HW2 2982   1.581   0.284   2.382
  695SOL     OW 2983   4.448   5.158   6.694
  695SOL    HW1 2984   4.488   5.089   6.634
  695SOL    HW2 2985   4.520   5.201   6.748
  696SOL     OW 2986   5.510   5.928   2.368
  696SOL    HW1 2987   5.424   5.900   2.325
  696SOL    HW2 2988   5.502   5.920   2.468
  697SOL     OW 2989   1.334   3.598   3.363
  697SOL    HW1 2990   1.296   3.676   3.313
  697SOL    HW2 2991   1.267   3.566   3.430
  698SOL     OW 2992   4.939   6.029   3.726
  698SOL    HW1 2993   4.944   6.055   3.630
  698SOL    HW2 2994   4.962   5.932   3.735
  699SOL     OW 2995   1.084   4.684   6.257
  699SOL    HW1 2996   1.109   4.756   6.192
  699SOL    HW2 2997   1.119   4.596   6.224
  700SOL     OW 2998   1.518   1.918   5.001
  700SOL    HW1 2999   1.567   2.003   4.980
  700SOL    HW2 3000   1.570   1.840   4.964
  701SOL     OW 3001   1.211   4.640   4.786
  701SOL    HW1 3002   1.207   4.714   4.720
  701SOL    HW2 3003   1.263   4.564   4.747
  702SOL     OW 3004   6.009   6.226   5.303
  702SOL    HW1 3005   5.961   6.170   5.236
  702SOL    HW2 3006   5.974   6.207   5.394
  703SOL     OW 3007   5.439   4.103   6.117
  703SOL    HW1 3008   5.458   4.012   6.153
  703SOL    HW2 3009   5.394   4.095   6.028
  704SOL     OW 3010   2.199   6.807   1.542
  704SOL    HW1 3011   2.158   6.761   1.620
  704SOL    HW2 3012   2.292   6.836   1.565
  705SOL     OW 3013   0.767   1.944   3.917
  705SOL    HW1 3014   0.714   1.878   3.863
  705SOL    HW2 3015   0.864   1.925   3.906
  706SOL     OW 3016   5.312   3.586   4.046
  706SOL    HW1 3017   5.396   3.538   4.020
  706SOL    HW2 3018   5.306   3.591   4.146
  707SOL     OW 3019   5.260   2.712   2.707
  707SOL    HW1 3020   5.269   2.628   2.652
  707SOL    HW2 3021   5.163   2.730   2.725
  708SOL     OW 3022   4.829   1.511   2.241
  708SOL    HW1 3023   4.818   1.554   2.151
  708SOL    HW2 3024   4.757   1.443   2.254
  709SOL     OW 3025   1.110   5.159   6.670
  709SOL    HW1 3026   1.069   5.217   6.599
  709SOL    HW2 3027   1.203   5.191   6.690
  710SOL     OW 3028   3.129   3.919   3.162
  710SOL    HW1 3029   3.184   3.982   3.107
  710SOL    HW2 3030   3.168   3.912   3.254
  711SOL     OW 3031   0.287   0.780   4.664
  711SOL    HW1 3032   0.192   0.778   4.693
  711SOL    HW2 3033   0.336   0.702   4.705
  712SOL     OW 3034   0.298   4.033   3.305
  712SOL    HW1 3035   0.296   3.966   3.379
  712SOL    HW2 3036   0.211   4.033   3.257
  713SOL     OW 3037   3.068   3.642   5.037
  713SOL    HW1 3038   2.999   3.689   4.981
  713SOL    HW2 3039   3.093   3.701   5.114
  714SOL     OW 3040   4.358   4.983   5.256
  714SOL    HW1 3041   4.421   5.051   5.220
  714SOL    HW2 3042   4.387   4.954   5.347
  715SOL     OW 3043   6.369   0.077   6.539
  715SOL    HW1 3044   6.356   0.063   6.441
  715SOL    HW2 3045   6.341   7.020   6.588
  716SOL     OW 3046   5.966   5.286   0.262
  716SOL    HW1 3047   5.893   5.352   0.244
  716SOL    HW2 3048   6.049   5.314   0.214
  717SOL     OW 3049   6.366   3.272   6.153
  717SOL    HW1 3050   6.334   3.270   6.247
  717SOL    HW2 3051   6.428   3.350   6.140
  718SOL     OW 3052   3.255   2.674   0.066
  718SOL    HW1 3053   3.303   2.648   0.150
  718SOL    HW2 3054   3.277   2.769   0.043
  719SOL     OW 3055   5.503   4.678   6.913
  719SOL    HW1 3056   5.476   4.588   6.878
  719SOL    HW2 3057   5.465   4.750   6.854
  720SOL     OW 3058   4.031   1.233   5.389
  720SOL    HW1 3059   4.064   1.185   5.307
  720SOL    HW2 3060   4.027   1.168   5.465
  721SOL     OW 3061   1.064   6.933   5.573
  721SOL    HW1 3062   0.989   6.884   5.619
  721SOL    HW2 3063   1.113   6.988   5.641
  722SOL     OW 3064   4.908   0.082   5.070
  722SOL    HW1 3065   4.927   0.083   4.972
  722SOL    HW2 3066   4.823   0.132   5.089
  723SOL     OW 3067   1.124   3.300   2.076
  723SOL    HW1 3068   1.163   3.218   2.033
  723SOL    HW2 3069   1.117   3.285   2.175
  724SOL     OW 3070   0.166   1.517   4.709
  724SOL    HW1 3071   0.195   1.495   4.616
  724SOL    HW2 3072   0.075   1.559   4.706
  725SOL     OW 3073   2.564   5.039   2.921
  725SOL    HW1 3074   2.514   5.070   3.002
  725SOL    HW2 3075   2.508   4.976   2.869
  726SOL     OW 3076   5.331   6.028   5.314
  726SOL    HW1 3077   5.363   5.979   5.232
  726SOL    HW2 3078   5.307   5.961   5.384
  727SOL     OW 3079   2.405   4.818   4.587
  727SOL    HW1 3080   2.331   4.810   4.520
  727SOL    HW2 3081   2.389   4.897   4.646
  728SOL     OW 3082   6.470   2.739   5.643
  728SOL    HW1 3083   6.433   2.752   5.735
  728SOL    HW2 3084   6.412   2.787   5.577
  729SOL     OW 3085   4.625   1.523   0.589
  729SOL    HW1 3086   4.705   1.562   0.634
  729SOL    HW2 3087   4.594   1.584   0.516
  730SOL     OW 3088   6.030   1.413   4.604
  730SOL    HW1 3089   6.015   1.328   4.655
  730SOL    HW2 3090   6.109   1.403   4.544
  731SOL     OW 3091   6.832   2.093   4.048
  731SOL    HW1 3092   6.855   2.182   4.088
  731SOL    HW2 3093   6.917   2.044   4.027
  732SOL     OW 3094   0.776   3.482   3.428
  732SOL    HW1 3095   0.678   3.477   3.407
  732SOL    HW2 3096   0.792   3.451   3.522
  733SOL     OW 3097   4.717   4.976   4.165
  733SOL    HW1 3098   4.688   5.061   4.123
  733SOL    HW2 3099   4.803   4.990   4.213
  734SOL     OW 3100   0.908   6.053   0.244
  734SOL    HW1 3101   0.977   6.076   0.312
  734SOL    HW2 3102   0.877   6.135   0.197
  735SOL     OW 3103   2.835   4.645   6.653
  735SOL    HW1 3104   2.914   4.585   6.636
  735SOL    HW2 3105   2.858   4.738   6.624
  736SOL     OW 3106   5.749   1.164   2.729
  736SOL    HW1 3107   5.738   1.175   2.630
  736SOL    HW2 3108   5.818   1.093   2.746
  737SOL     OW 3109   5.467   3.887   0.029
  737SOL    HW1 3110   5.508   3.976   0.051
  737SOL    HW2 3111   5.371   3.900   0.004
  738SOL     OW 3112   0.870   3.860   3.602
  738SOL    HW1 3113   0.960   3.864   3.559
  738SOL    HW2 3114   0.804   3.911   3.546
  739SOL     OW 3115   4.658   6.517   6.131
  739SOL    HW1 3116   4.643   6.421   6.109
  739SOL    HW2 3117   4.754   6.541   6.114
  740SOL     OW 3118   5.352   6.741   0.231
  740SOL    HW1 3119   5.377   6.692   0.314
  740SOL    HW2 3120   5.417   6.719   0.158
  741SOL     OW 3121   2.430   0.295   3.773
  741SOL    HW1 3122   2.501   0.342   3.720
  741SOL    HW2 3123   2.467   0.269   3.862
  742SOL     OW 3124   1.691   6.426   2.698
  742SOL    HW1 3125   1.722   6.460   2.787
  742SOL    HW2 3126   1.634   6.495   2.653
  743SOL     OW 3127   1.556   3.413   3.876
  743SOL    HW1 3128   1.649   3.405   3.840
  743SOL    HW2 3129   1.495   3.444   3.803
  744SOL     OW 3130   6.419   5.046   0.731
  744SOL    HW1 3131   6.396   5.077   0.639
  744SOL    HW2 3132   6.469   4.959   0.726
  745SOL     OW 3133   2.312   5.814   2.418
  745SOL    HW1 3134   2.341   5.858   2.333
  745SOL    HW2 3135   2.297   5.884   2.488
  746SOL     OW 3136   3.156   0.036   3.091
  746SOL    HW1 3137   3.218   6.985   3.109
  746SOL    HW2 3138   3.062   0.008   3.106
  747SOL     OW 3139   6.535   3.629   1.054
  747SOL    HW1 3140   6.554   3.574   1.135
  747SOL    HW2 3141   6.562   3.724   1.071
  748SOL     OW 3142   3.269   2.979   2.759
  748SOL    HW1 3143   3.360   2.947   2.733
  748SOL    HW2 3144   3.205   2.964   2.683
  749SOL     OW 3145   5.494   2.367   4.903
  749SOL    HW1 3146   5.554   2.295   4.869
  749SOL    HW2 3147   5.403   2.356   4.862
  750SOL     OW 3148   3.179   3.638   1.813
  750SOL    HW1 3149   3.156   3.605   1.722
  750SOL    HW2 3150   3.098   3.632   1.872
  751SOL     OW 3151   5.472   1.800   0.125
  751SOL    HW1 3152   5.518   1.883   0.093
  751SOL    HW2 3153   5.377   1.800   0.092
  752SOL     OW 3154   4.531   0.697   1.768
  752SOL    HW1 3155   4.579   0.785   1.771
  752SOL    HW2 3156   4.541   0.656   1.678
  753SOL     OW 3157   4.033   1.899   2.580
  753SOL    HW1 3158   3.979   1.877   2.499
  753SOL    HW2 3159   4.000   1.985   2.620
  754SOL     OW 3160   5.577   5.616   0.050
  754SOL    HW1 3161   5.513   5.685   0.085
  754SOL    HW2 3162   5.526   5.536   0.017
  755SOL     OW 3163   6.378   6.168   2.502
  755SOL    HW1 3164   6.455   6.229   2.482
  755SOL    HW2 3165   6.404   6.074   2.479
  756SOL     OW 3166   2.571   6.896   3.711
  756SOL    HW1 3167   2.669   6.896   3.729
  756SOL    HW2 3168   2.526   6.828   3.768
  757SOL     OW 3169   6.911   0.825   3.950
  757SOL    HW1 3170   6.958   0.879   3.881
  757SOL    HW2 3171   6.977   0.769   4.001
  758SOL     OW 3172   4.376   1.816   1.059
  758SOL    HW1 3173   4.293   1.763   1.078
  758SOL    HW2 3174   4.361   1.873   0.979
  759SOL     OW 3175   2.198   0.725   1.568
  759SOL    HW1 3176   2.295   0.747   1.566
  759SOL    HW2 3177   2.167   0.717   1.663
  760SOL     OW 3178   4.654   1.903   5.901
  760SOL    HW1 3179   4.726   1.946   5.847
  760SOL    HW2 3180   4.564   1.928   5.864
  761SOL     OW 3181   5.291   0.863   6.754
  761SOL    HW1 3182   5.256   0.810   6.832
  761SOL    HW2 3183   5.224   0.931   6.727
  762SOL     OW 3184   2.597   4.980   4.829
  762SOL    HW1 3185   2.652   5.003   4.909
  762SOL    HW2 3186   2.603   4.882   4.812
  763SOL     OW 3187   6.131   4.999   6.915
  763SOL    HW1 3188   6.055   4.995   6.980
  763SOL    HW2 3189   6.164   4.906   6.896
  764SOL     OW 3190   5.984   1.443   2.832
  764SOL    HW1 3191   6.065   1.489   2.867
  764SOL    HW2 3192   5.918   1.431   2.906
  765SOL     OW 3193   0.768   6.590   3.346
  765SOL    HW1 3194   0.819   6.593   3.260
  765SOL    HW2 3195   0.718   6.676   3.358
  766SOL     OW 3196   6.376   6.169   0.363
  766SOL    HW1 3197   6.411   6.130   0.447
  766SOL    HW2 3198   6.398   6.267   0.360
  767SOL     OW 3199   6.207   6.205   1.652
  767SOL    HW1 3200   6.201   6.287   1.595
  767SOL    HW2 3201   6.290   6.208   1.707
  768SOL     OW 3202   3.103   6.552   3.966
  768SOL    HW1 3203   3.145   6.537   3.877
  768SOL    HW2 3204   3.006   6.574   3.954
  769SOL     OW 3205   4.330   0.702   0.259
  769SOL    HW1 3206   4.406   0.758   0.290
  769SOL    HW2 3207   4.321   0.621   0.317
  770SOL     OW 3208   3.098   4.903   4.538
  770SOL    HW1 3209   3.190   4.909   4.498
  770SOL    HW2 3210   3.100   4.842   4.617
  771SOL     OW 3211   0.729   6.313   4.420
  771SOL    HW1 3212   0.673   6.281   4.497
  771SOL    HW2 3213   0.795   6.380   4.452
  772SOL     OW 3214   0.355   4.349   5.861
  772SOL    HW1 3215   0.339   4.371   5.765
  772SOL    HW2 3216   0.272   4.309   5.901
  773SOL     OW 3217   0.057   3.327   2.342
  773SOL    HW1 3218   0.069   3.291   2.434
  773SOL    HW2 3219   0.105   3.414   2.334
  774SOL     OW 3220   1.446   0.875   1.886
  774SOL    HW1 3221   1.540   0.907   1.898
  774SOL    HW2 3222   1.440   0.817   1.805
  775SOL     OW 3223   1.699   2.593   4.053
  775SOL    HW1 3224   1.660   2.567   4.141
  775SOL    HW2 3225   1.759   2.520   4.019
  776SOL     OW 3226   1.817   0.577   5.026
  776SOL    HW1 3227   1.916   0.577   5.038
  776SOL    HW2 3228   1.795   0.599   4.931
  777SOL     OW 3229   4.347   6.823   6.600
  777SOL    HW1 3230   4.276   6.812   6.670
  777SOL    HW2 3231   4.394   6.910   6.613
  778SOL     OW 3232   4.429   5.387   4.712
  778SOL    HW1 3233   4.465   5.392   4.805
  778SOL    HW2 3234   4.502   5.361   4.649
  779SOL     OW 3235   0.407   0.029   2.063
  779SOL    HW1 3236   0.414   7.001   2.146
  779SOL    HW2 3237   0.324   0.085   2.065
  780SOL     OW 3238   5.829   2.395   4.746
  780SOL    HW1 3239   5.897   2.348   4.690
  780SOL    HW2 3240   5.768   2.328   4.788
  781SOL     OW 3241   0.321   2.649   6.297
  781SOL    HW1 3242   0.258   2.727   6.301
  781SOL    HW2 3243   0.323   2.603   6.385
  782SOL     OW 3244   6.837   5.082   0.599
  782SOL    HW1 3245   6.872   5.023   0.671
  782SOL    HW2 3246   6.899   5.159   0.585
  783SOL     OW 3247   1.553   5.334   0.295
  783SOL    HW1 3248   1.632   5.273   0.285
  783SOL    HW2 3249   1.585   5.427   0.312
  784SOL     OW 3250   5.407   5.241   3.294
  784SOL    HW1 3251   5.311   5.263   3.313
  784SOL    HW2 3252   5.454   5.222   3.380
  785SOL     OW 3253   6.315   2.403   3.782
  785SOL    HW1 3254   6.382   2.345   3.827
  785SOL    HW2 3255   6.350   2.433   3.694
  786SOL     OW 3256   5.904   6.627   0.464
  786SOL    HW1 3257   5.875   6.592   0.553
  786SOL    HW2 3258   5.976   6.568   0.427
  787SOL     OW 3259   4.692   1.474   6.834
  787SOL    HW1 3260   4.693   1.437   6.741
  787SOL    HW2 3261   4.603   1.456   6.876
  788SOL     OW 3262   0.524   4.159   3.218
  788SOL    HW1 3263   0.453   4.092   3.238
  788SOL    HW2 3264   0.491   4.251   3.241
  789SOL     OW 3265   5.451   2.973   0.753
  789SOL    HW1 3266   5.384   2.946   0.684
  789SOL    HW2 3267   5.478   2.893   0.807
  790SOL     OW 3268   3.235   0.390   3.973
  790SOL    HW1 3269   3.317   0.441   3.950
  790SOL    HW2 3270   3.220   0.318   3.905
  791SOL     OW 3271   4.283   1.445   4.959
  791SOL    HW1 3272   4.278   1.410   4.865
  791SOL    HW2 3273   4.377   1.474   4.979
  792SOL     OW 3274   5.460   0.695   3.541
  792SOL    HW1 3275   5.549   0.741   3.535
  792SOL    HW2 3276   5.470   0.600   3.513
  793SOL     OW 3277   6.964   0.329   6.598
  793SOL    HW1 3278   6.938   0.425   6.598
  793SOL    HW2 3279   6.940   0.288   6.509
  794SOL     OW 3280   3.677   4.673   5.376
  794SOL    HW1 3281   3.761   4.722   5.400
  794SOL    HW2 3282   3.697   4.576   5.364
  795SOL     OW 3283   5.011   5.398   0.146
  795SOL    HW1 3284   4.939   5.421   0.081
  795SOL    HW2 3285   5.007   5.459   0.224
  796SOL     OW 3286   0.185   1.695   5.392
  796SOL    HW1 3287   0.130   1.642   5.327
  796SOL    HW2 3288   0.262   1.738   5.344
  797SOL     OW 3289   6.026   3.214   5.295
  797SOL    HW1 3290   6.043   3.307   5.327
  797SOL    HW2 3291   6.094   3.152   5.334
  798SOL     OW 3292   6.805   0.724   4.984
  798SOL    HW1 3293   6.790   0.733   5.082
  798SOL    HW2 3294   6.903   0.714   4.966
  799SOL     OW 3295   6.554   3.844   3.305
  799SOL    HW1 3296   6.573   3.833   3.208
  799SOL    HW2 3297   6.476   3.906   3.317
  800SOL     OW 3298   0.319   1.521   2.354
  800SOL    HW1 3299   0.352   1.442   2.301
  800SOL    HW2 3300   0.344   1.510   2.450
  801SOL     OW 3301   0.393   2.677   4.098
  801SOL    HW1 3302   0.482   2.646   4.130
  801SOL    HW2 3303   0.393   2.678   3.998
  802SOL     OW 3304   6.487   1.231   1.514
  802SOL    HW1 3305   6.507   1.133   1.505
  802SOL    HW2 3306   6.430   1.246   1.595
  803SOL     OW 3307   1.521   0.249   4.620
  803SOL    HW1 3308   1.524   0.286   4.527
  803SOL    HW2 3309   1.468   0.310   4.679
  804SOL     OW 3310   6.042   6.992   0.847
  804SOL    HW1 3311   6.120   7.015   0.789
  804SOL    HW2 3312   5.978   0.043   0.848
  805SOL     OW 3313   2.223   2.858   6.000
  805SOL    HW1 3314   2.266   2.946   6.015
  805SOL    HW2 3315   2.208   2.845   5.902
  806SOL     OW 3316   4.392   6.729   0.365
  806SOL    HW1 3317   4.319   6.684   0.315
  806SOL    HW2 3318   4.480   6.692   0.338
  807SOL     OW 3319   0.716   6.897   3.144
  807SOL    HW1 3320   0.618   6.910   3.129
  807SOL    HW2 3321   0.747   6.816   3.094
  808SOL     OW 3322   5.843   3.920   4.644
  808SOL    HW1 3323   5.824   3.940   4.740
  808SOL    HW2 3324   5.913   3.984   4.611
  809SOL     OW 3325   0.912   5.929   6.166
  809SOL    HW1 3326   0.995   5.895   6.121
  809SOL    HW2 3327   0.927   5.931   6.265
  810SOL     OW 3328   6.429   5.752   6.210
  810SOL    HW1 3329   6.406   5.662   6.246
  810SOL    HW2 3330   6.479   5.741   6.124
  811SOL     OW 3331   3.462   4.933   3.241
  811SOL    HW1 3332   3.555   4.969   3.245
  811SOL    HW2 3333   3.448   4.887   3.153
  812SOL     OW 3334   0.044   0.437   3.012
  812SOL    HW1 3335   6.999   0.395   3.069
  812SOL    HW2 3336   0.005   0.464   2.924
  813SOL     OW 3337   5.661   5.636   1.924
  813SOL    HW1 3338   5.756   5.659   1.943
  813SOL    HW2 3339   5.617   5.711   1.875
  814SOL     OW 3340   4.874   5.453   1.144
  814SOL    HW1 3341   4.862   5.359   1.109
  814SOL    HW2 3342   4.799   5.474   1.207
  815SOL     OW 3343   1.139   1.416   0.524
  815SOL    HW1 3344   1.169   1.507   0.496
  815SOL    HW2 3345   1.178   1.393   0.613
  816SOL     OW 3346   5.683   0.730   1.646
  816SOL    HW1 3347   5.621   0.651   1.642
  816SOL    HW2 3348   5.776   0.698   1.666
  817SOL     OW 3349   0.795   1.952   2.294
  817SOL    HW1 3350   0.849   1.925   2.374
  817SOL    HW2 3351   0.845   2.022   2.243
  818SOL     OW 3352   5.452   1.416   2.603
  818SOL    HW1 3353   5.448   1.320   2.631
  818SOL    HW2 3354   5.387   1.469   2.658
  819SOL     OW 3355   0.408   5.510   2.044
  819SOL    HW1 3356   0.489   5.510   2.104
  819SOL    HW2 3357   0.368   5.418   2.042
  820SOL     OW 3358   2.021   2.844   5.417
  820SOL    HW1 3359   1.937   2.899   5.422
  820SOL    HW2 3360   2.099   2.904   5.401
  821SOL     OW 3361   1.048   4.479   0.480
  821SOL    HW1 3362   1.146   4.473   0.464
  821SOL    HW2 3363   1.030   4.500   0.576
  822SOL     OW 3364   1.298   3.063   4.984
  822SOL    HW1 3365   1.310   3.145   5.041
  822SOL    HW2 3366   1.360   3.067   4.906
  823SOL     OW 3367   3.721   3.918   1.745
  823SOL    HW1 3368   3.779   3.860   1.687
  823SOL    HW2 3369   3.766   3.933   1.833
  824SOL     OW 3370   6.216   2.605   6.234
  824SOL    HW1 3371   6.192   2.636   6.325
  824SOL    HW2 3372   6.313   2.623   6.217
  825SOL     OW 3373   1.306   3.492   1.764
  825SOL    HW1 3374   1.313   3.394   1.746
  825SOL    HW2 3375   1.231   3.509   1.828
  826SOL     OW 3376   1.384   3.302   6.166
  826SOL    HW1 3377   1.467   3.319   6.113
  826SOL    HW2 3378   1.401   3.323   6.263
  827SOL     OW 3379   3.289   4.680   1.121
  827SOL    HW1 3380   3.292   4.581   1.134
  827SOL    HW2 3381   3.259   4.700   1.028
  828SOL     OW 3382   6.238   0.370   5.519
  828SOL    HW1 3383   6.284   0.285   5.546
  828SOL    HW2 3384   6.230   0.430   5.599
  829SOL     OW 3385   3.604   3.851   5.787
  829SOL    HW1 3386   3.615   3.752   5.780
  829SOL    HW2 3387   3.691   3.896   5.770
  830SOL     OW 3388   4.435   3.472   5.995
  830SOL    HW1 3389   4.488   3.557   5.987
  830SOL    HW2 3390   4.473   3.404   5.932
  831SOL     OW 3391   5.508   0.393   4.714
  831SOL    HW1 3392   5.594   0.345   4.730
  831SOL    HW2 3393   5.432   0.331   4.735
  832SOL     OW 3394   2.701   1.700   5.675
  832SOL    HW1 3395   2.704   1.673   5.578
  832SOL    HW2 3396   2.728   1.623   5.732
  833SOL     OW 3397   1.184   0.551   5.531
  833SOL    HW1 3398   1.125   0.510   5.462
  833SOL    HW2 3399   1.220   0.638   5.496
  834SOL     OW 3400   3.356   4.472   5.733
  834SOL    HW1 3401   3.258   4.469   5.750
  834SOL    HW2 3402   3.398   4.387   5.766
  835SOL     OW 3403   4.172   1.456   2.653
  835SOL    HW1 3404   4.148   1.377   2.597
  835SOL    HW2 3405   4.137   1.539   2.610
  836SOL     OW 3406   2.544   1.064   6.634
  836SOL    HW1 3407   2.475   1.134   6.619
  836SOL    HW2 3408   2.500   0.979   6.662
  837SOL     OW 3409   3.949   1.520   4.791
  837SOL    HW1 3410   3.933   1.517   4.890
  837SOL    HW2 3411   3.904   1.601   4.753
  838SOL     OW 3412   1.468   6.214   2.348
  838SOL    HW1 3413   1.424   6.273   2.417
  838SOL    HW2 3414   1.422   6.226   2.261
  839SOL     OW 3415   2.812   1.414   1.817
  839SOL    HW1 3416   2.904   1.405   1.854
  839SOL    HW2 3417   2.752   1.348   1.861
  840SOL     OW 3418   1.118   0.882   5.740
  840SOL    HW1 3419   1.207   0.880   5.694
  840SOL    HW2 3420   1.132   0.878   5.839
  841SOL     OW 3421   0.344   3.700   1.349
  841SOL    HW1 3422   0.245   3.716   1.357
  841SOL    HW2 3423   0.365   3.606   1.376
  842SOL     OW 3424   3.623   5.299   3.956
  842SOL    HW1 3425   3.716   5.334   3.961
  842SOL    HW2 3426   3.624   5.199   3.964
  843SOL     OW 3427   0.259   3.959   1.694
  843SOL    HW1 3428   0.163   3.939   1.678
  843SOL    HW2 3429   0.315   3.913   1.624
  844SOL     OW 3430   5.932   4.999   6.413
  844SOL    HW1 3431   5.989   4.918   6.423
  844SOL    HW2 3432   5.958   5.068   6.479
  845SOL     OW 3433   2.235   4.799   5.716
  845SOL    HW1 3434   2.259   4.734   5.644
  845SOL    HW2 3435   2.233   4.751   5.804
  846SOL     OW 3436   4.343   2.361   0.079
  846SOL    HW1 3437   4.417   2.303   0.044
  846SOL    HW2 3438   4.277   2.304   0.128
  847SOL     OW 3439   5.272   4.313   2.044
  847SOL    HW1 3440   5.370   4.330   2.054
  847SOL    HW2 3441   5.230   4.388   1.993
  848SOL     OW 3442   5.948   0.023   5.467
  848SOL    HW1 3443   5.979   0.102   5.414
  848SOL    HW2 3444   5.849   0.028   5.479
  849SOL     OW 3445   0.772   5.718   4.164
  849SOL    HW1 3446   0.788   5.810   4.197
  849SOL    HW2 3447   0.806   5.652   4.231
  850SOL     OW 3448   3.289   0.641   3.286
  850SOL    HW1 3449   3.200   0.595   3.289
  850SOL    HW2 3450   3.348   0.604   3.357
  851SOL     OW 3451   6.933   0.983   5.456
  851SOL    HW1 3452   6.941   1.027   5.545
  851SOL    HW2 3453   7.024   0.973   5.416
  852SOL     OW 3454   2.775   4.934   5.351
  852SOL    HW1 3455   2.860   4.894   5.317
  852SOL    HW2 3456   2.702   4.866   5.345
  853SOL     OW 3457   0.811   4.606   0.511
  853SOL    HW1 3458   0.894   4.557   0.484
  853SOL    HW2 3459   0.786   4.581   0.605
  854SOL     OW 3460   5.845   5.266   1.292
  854SOL    HW1 3461   5.932   5.232   1.255
  854SOL    HW2 3462   5.864   5.336   1.361
  855SOL     OW 3463   5.166   0.418   0.803
  855SOL    HW1 3464   5.102   0.463   0.740
  855SOL    HW2 3465   5.161   0.319   0.791
  856SOL     OW 3466   1.321   0.467   5.192
  856SOL    HW1 3467   1.267   0.508   5.118
  856SOL    HW2 3468   1.280   0.379   5.217
  857SOL     OW 3469   5.221   3.657   1.710
  857SOL    HW1 3470   5.186   3.691   1.624
  857SOL    HW2 3471   5.221   3.557   1.709
  858SOL     OW 3472   3.756   3.819   2.370
  858SOL    HW1 3473   3.673   3.863   2.335
  858SOL    HW2 3474   3.813   3.887   2.416
  859SOL     OW 3475   0.511   4.370   0.461
  859SOL    HW1 3476   0.608   4.392   0.468
  859SOL    HW2 3477   0.473   4.354   0.553
  860SOL     OW 3478   1.876   3.509   6.492
  860SOL    HW1 3479   1.849   3.517   6.588
  860SOL    HW2 3480   1.971   3.539   6.480
  861SOL     OW 3481   3.703   4.177   6.223
  861SOL    HW1 3482   3.639   4.107   6.194
  861SOL    HW2 3483   3.668   4.222   6.305
  862SOL     OW 3484   4.408   4.587   3.256
  862SOL    HW1 3485   4.358   4.664   3.296
  862SOL    HW2 3486   4.507   4.603   3.265
  863SOL     OW 3487   5.783   2.475   1.339
  863SOL    HW1 3488   5.692   2.480   1.380
  863SOL    HW2 3489   5.845   2.424   1.399
  864SOL     OW 3490   0.523   5.365   2.908
  864SOL    HW1 3491   0.497   5.399   2.818
  864SOL    HW2 3492   0.596   5.298   2.900
  865SOL     OW 3493   1.906   0.971   3.927
  865SOL    HW1 3494   1.992   0.973   3.876
  865SOL    HW2 3495   1.864   1.061   3.926
  866SOL     OW 3496   4.409   1.043   1.173
  866SOL    HW1 3497   4.375   1.084   1.257
  866SOL    HW2 3498   4.473   1.106   1.129
  867SOL     OW 3499   2.488   1.657   6.699
  867SOL    HW1 3500   2.534   1.646   6.788
  867SOL    HW2 3501   2.544   1.715   6.640
  868SOL     OW 3502   5.246   2.097   3.296
  868SOL    HW1 3503   5.151   2.108   3.324
  868SOL    HW2 3504   5.296   2.048   3.368
  869SOL     OW 3505   6.605   3.916   1.107
  869SOL    HW1 3506   6.646   3.894   1.196
  869SOL    HW2 3507   6.575   4.011   1.107
  870SOL     OW 3508   5.915   1.812   0.335
  870SOL    HW1 3509   5.920   1.726   0.284
  870SOL    HW2 3510   5.983   1.811   0.408
  871SOL     OW 3511   6.799   4.573   0.670
  871SOL    HW1 3512   6.861   4.579   0.591
  871SOL    HW2 3513   6.731   4.501   0.654
  872SOL     OW 3514   7.004   2.088   1.718
  872SOL    HW1 3515   6.913   2.086   1.676
  872SOL    HW2 3516   0.019   2.178   1.705
  873SOL     OW 3517   3.940   6.877   4.604
  873SOL    HW1 3518   3.947   6.780   4.581
  873SOL    HW2 3519   4.028   6.910   4.639
  874SOL     OW 3520   0.778   4.310   6.631
  874SOL    HW1 3521   0.873   4.337   6.645
  874SOL    HW2 3522   0.739   4.365   6.556
  875SOL     OW 3523   6.359   5.999   6.287
  875SOL    HW1 3524   6.378   5.914   6.238
  875SOL    HW2 3525   6.358   5.981   6.385
  876SOL     OW 3526   2.393   2.173   1.629
  876SOL    HW1 3527   2.394   2.075   1.612
  876SOL    HW2 3528   2.465   2.217   1.576
  877SOL     OW 3529   5.334   5.642   6.284
  877SOL    HW1 3530   5.373   5.727   6.248
  877SOL    HW2 3531   5.320   5.652   6.383
  878SOL     OW 3532   3.669   3.010   0.775
  878SOL    HW1 3533   3.569   3.009   0.768
  878SOL    HW2 3534   3.695   2.984   0.868
  879SOL     OW 3535   4.850   2.955   4.091
  879SOL    HW1 3536   4.798   2.894   4.150
  879SOL    HW2 3537   4.823   2.941   3.996
  880SOL     OW 3538   4.287   5.681   1.383
  880SOL    HW1 3539   4.300   5.780   1.371
  880SOL    HW2 3540   4.287   5.637   1.294
  881SOL     OW 3541   5.202   4.851   3.259
  881SOL    HW1 3542   5.282   4.878   3.205
  881SOL    HW2 3543   5.119   4.882   3.213
  882SOL     OW 3544   0.832   2.361   5.040
  882SOL    HW1 3545   0.886   2.284   5.007
  882SOL    HW2 3546   0.770   2.392   4.969
  883SOL     OW 3547   3.165   4.753   6.920
  883SOL    HW1 3548   3.093   4.683   6.919
  883SOL    HW2 3549   3.245   4.717   6.968
  884SOL     OW 3550   4.014   3.952   1.504
  884SOL    HW1 3551   3.971   4.034   1.468
  884SOL    HW2 3552   4.064   3.975   1.588
  885SOL     OW 3553   4.609   6.288   5.634
  885SOL    HW1 3554   4.642   6.381   5.650
  885SOL    HW2 3555   4.672   6.241   5.572
  886SOL     OW 3556   3.545   2.647   6.232
  886SOL    HW1 3557   3.533   2.618   6.137
  886SOL    HW2 3558   3.562   2.745   6.235
  887SOL     OW 3559   6.006   5.986   4.758
  887SOL    HW1 3560   5.999   6.041   4.842
  887SOL    HW2 3561   5.932   6.010   4.696
  888SOL     OW 3562   6.365   0.700   3.295
  888SOL    HW1 3563   6.461   0.715   3.316
  888SOL    HW2 3564   6.309   0.723   3.375
  889SOL     OW 3565   0.732   0.125   4.725
  889SOL    HW1 3566   0.748   0.221   4.750
  889SOL    HW2 3567   0.797   0.067   4.773
  890SOL     OW 3568   1.256   3.612   1.534
  890SOL    HW1 3569   1.271   3.569   1.623
  890SOL    HW2 3570   1.243   3.540   1.465
  891SOL     OW 3571   6.133   3.722   6.370
  891SOL    HW1 3572   6.042   3.748   6.403
  891SOL    HW2 3573   6.124   3.644   6.308
  892SOL     OW 3574   2.341   4.999   1.955
  892SOL    HW1 3575   2.382   4.927   2.011
  892SOL    HW2 3576   2.317   5.076   2.014
  893SOL     OW 3577   2.019   0.012   2.119
  893SOL    HW1 3578   1.994   6.942   2.104
  893SOL    HW2 3579   1.992   0.066   2.039
  894SOL     OW 3580   1.689   5.491   4.666
  894SOL    HW1 3581   1.617   5.461   4.605
  894SOL    HW2 3582   1.761   5.421   4.670
  895SOL     OW 3583   2.506   0.672   4.739
  895SOL    HW1 3584   2.416   0.715   4.747
  895SOL    HW2 3585   2.572   0.722   4.796
  896SOL     OW 3586   5.317   6.610   3.344
  896SOL    HW1 3587   5.299   6.584   3.439
  896SOL    HW2 3588   5.304   6.709   3.333
  897SOL     OW 3589   5.935   1.135   6.316
  897SOL    HW1 3590   5.936   1.049   6.367
  897SOL    HW2 3591   6.024   1.150   6.274
  898SOL     OW 3592   5.302   6.615   3.843
  898SOL    HW1 3593   5.250   6.613   3.757
  898SOL    HW2 3594   5.244   6.652   3.916
  899SOL     OW 3595   1.651   5.027   0.178
  899SOL    HW1 3596   1.705   4.955   0.222
  899SOL    HW2 3597   1.554   5.012   0.198
  900SOL     OW 3598   0.695   5.046   3.506
  900SOL    HW1 3599   0.788   5.014   3.525
  900SOL    HW2 3600   0.631   4.969   3.514
  901SOL     OW 3601   6.460   1.910   3.691
  901SOL    HW1 3602   6.538   1.885   3.749
  901SOL    HW2 3603   6.433   1.831   3.637
  902SOL     OW 3604   1.478   6.179   0.016
  902SOL    HW1 3605   1.450   6.084   0.031
  902SOL    HW2 3606   1.509   6.190   6.947
  903SOL     OW 3607   0.470   4.994   6.337
  903SOL    HW1 3608   0.558   5.038   6.353
  903SOL    HW2 3609   0.424   5.039   6.261
  904SOL     OW 3610   2.478   1.443   4.178
  904SOL    HW1 3611   2.482   1.420   4.275
  904SOL    HW2 3612   2.510   1.537   4.164
  905SOL     OW 3613   5.790   3.313   3.744
  905SOL    HW1 3614   5.881   3.340   3.775
  905SOL    HW2 3615   5.751   3.385   3.686
  906SOL     OW 3616   6.560   3.404   5.103
  906SOL    HW1 3617   6.467   3.377   5.128
  906SOL    HW2 3618   6.561   3.442   5.010
  907SOL     OW 3619   0.079   3.805   2.744
  907SOL    HW1 3620   7.021   3.772   2.700
  907SOL    HW2 3621   0.135   3.854   2.677
  908SOL     OW 3622   2.382   1.046   3.639
  908SOL    HW1 3623   2.329   1.087   3.565
  908SOL    HW2 3624   2.439   0.972   3.601
  909SOL     OW 3625   3.859   6.689   1.710
  909SOL    HW1 3626   3.765   6.723   1.718
  909SOL    HW2 3627   3.907   6.741   1.638
  910SOL     OW 3628   1.430   0.572   2.064
  910SOL    HW1 3629   1.441   0.664   2.103
  910SOL    HW2 3630   1.489   0.563   1.984
  911SOL     OW 3631   1.155   3.295   0.918
  911SOL    HW1 3632   1.061   3.310   0.948
  911SOL    HW2 3633   1.183   3.370   0.858
  912SOL     OW 3634   1.802   1.281   6.981
  912SOL    HW1 3635   1.738   1.243   6.914
  912SOL    HW2 3636   1.754   1.346   0.014
  913SOL     OW 3637   2.197   1.480   2.492
  913SOL    HW1 3638   2.239   1.516   2.408
  913SOL    HW2 3639   2.112   1.433   2.469
  914SOL     OW 3640   2.506   4.827   2.274
  914SOL    HW1 3641   2.442   4.777   2.215
  914SOL    HW2 3642   2.571   4.762   2.314
  915SOL     OW 3643   2.246   2.002   0.817
  915SOL    HW1 3644   2.289   1.977   0.730
  915SOL    HW2 3645   2.274   2.094   0.844
  916SOL     OW 3646   1.174   3.454   2.347
  916SOL    HW1 3647   1.219   3.506   2.274
  916SOL    HW2 3648   1.139   3.517   2.417
  917SOL     OW 3649   3.607   0.619   6.094
  917SOL    HW1 3650   3.594   0.659   6.184
  917SOL    HW2 3651   3.519   0.589   6.058
  918SOL     OW 3652   0.188   2.327   5.044
  918SOL    HW1 3653   0.151   2.374   4.964
  918SOL    HW2 3654   0.145   2.237   5.053
  919SOL     OW 3655   1.020   1.023   0.824
  919SOL    HW1 3656   1.064   1.022   0.914
  919SOL    HW2 3657   1.074   0.968   0.760
  920SOL     OW 3658   1.656   1.575   2.998
  920SOL    HW1 3659   1.668   1.665   3.041
  920SOL    HW2 3660   1.742   1.549   2.954
  921SOL     OW 3661   4.102   4.351   0.238
  921SOL    HW1 3662   4.101   4.279   0.308
  921SOL    HW2 3663   4.133   4.313   0.151
  922SOL     OW 3664   2.246   6.164   0.087
  922SOL    HW1 3665   2.277   6.187   0.179
  922SOL    HW2 3666   2.157   6.206   0.070
  923SOL     OW 3667   4.399   1.247   0.077
  923SOL    HW1 3668   4.314   1.211   0.040
  923SOL    HW2 3669   4.471   1.178   0.069
  924SOL     OW 3670   6.163   4.762   1.942
  924SOL    HW1 3671   6.138   4.839   1.883
  924SOL    HW2 3672   6.081   4.713   1.969
  925SOL     OW 3673   6.332   2.370   1.931
  925SOL    HW1 3674   6.235   2.390   1.947
  925SOL    HW2 3675   6.387   2.450   1.955
  926SOL     OW 3676   3.982   5.737   1.208
  926SOL    HW1 3677   4.068   5.732   1.158
  926SOL    HW2 3678   3.998   5.776   1.299
  927SOL     OW 3679   4.748   5.459   5.098
  927SOL    HW1 3680   4.713   5.418   5.183
  927SOL    HW2 3681   4.846   5.446   5.092
  928SOL     OW 3682   0.394   1.897   1.632
  928SOL    HW1 3683   0.431   1.816   1.586
  928SOL    HW2 3684   0.364   1.872   1.724
  929SOL     OW 3685   0.361   2.200   2.394
  929SOL    HW1 3686   0.363   2.283   2.339
  929SOL    HW2 3687   0.301   2.133   2.350
  930SOL     OW 3688   6.270   5.334   2.026
  930SOL    HW1 3689   6.271   5.240   2.058
  930SOL    HW2 3690   6.345   5.385   2.069
  931SOL     OW 3691   1.483   2.428   1.912
  931SOL    HW1 3692   1.437   2.359   1.968
  931SOL    HW2 3693   1.522   2.498   1.971
  932SOL     OW 3694   4.571   5.995   1.281
  932SOL    HW1 3695   4.616   6.064   1.225
  932SOL    HW2 3696   4.486   6.032   1.319
  933SOL     OW 3697   1.281   6.591   3.783
  933SOL    HW1 3698   1.299   6.531   3.705
  933SOL    HW2 3699   1.231   6.540   3.853
  934SOL     OW 3700   3.280   1.367   5.319
  934SOL    HW1 3701   3.212   1.387   5.390
  934SOL    HW2 3702   3.370   1.357   5.361
  935SOL     OW 3703   1.230   3.614   4.347
  935SOL    HW1 3704   1.308   3.676   4.341
  935SOL    HW2 3705   1.178   3.618   4.262
  936SOL     OW 3706   1.316   1.489   1.879
  936SOL    HW1 3707   1.216   1.487   1.875
  936SOL    HW2 3708   1.351   1.396   1.888
  937SOL     OW 3709   4.900   2.088   3.383
  937SOL    HW1 3710   4.866   1.997   3.403
  937SOL    HW2 3711   4.903   2.102   3.284
  938SOL     OW 3712   0.481   1.016   6.700
  938SOL    HW1 3713   0.578   0.999   6.682
  938SOL    HW2 3714   0.441   0.936   6.746
  939SOL     OW 3715   6.135   0.884   4.571
  939SOL    HW1 3716   6.130   0.801   4.515
  939SOL    HW2 3717   6.190   0.866   4.652
  940SOL     OW 3718   6.428   0.437   3.721
  940SOL    HW1 3719   6.330   0.418   3.711
  940SOL    HW2 3720   6.440   0.533   3.747
  941SOL     OW 3721   5.936   2.728   5.314
  941SOL    HW1 3722   5.876   2.799   5.352
  941SOL    HW2 3723   5.915   2.716   5.217
  942SOL     OW 3724   4.415   6.891   5.177
  942SOL    HW1 3725   4.320   6.865   5.159
  942SOL    HW2 3726   4.463   6.815   5.221
  943SOL     OW 3727   5.365   2.811   0.139
  943SOL    HW1 3728   5.342   2.745   0.211
  943SOL    HW2 3729   5.339   2.903   0.168
  944SOL     OW 3730   5.144   4.387   3.751
  944SOL    HW1 3731   5.122   4.463   3.689
  944SOL    HW2 3732   5.060   4.355   3.794
  945SOL     OW 3733   5.465   3.076   6.816
  945SOL    HW1 3734   5.552   3.031   6.836
  945SOL    HW2 3735   5.397   3.008   6.788
  946SOL     OW 3736   6.302   3.685   6.587
  946SOL    HW1 3737   6.266   3.625   6.658
  946SOL    HW2 3738   6.234   3.695   6.514
  947SOL     OW 3739   1.078   3.013   5.859
  947SOL    HW1 3740   1.140   3.039   5.932
  947SOL    HW2 3741   1.081   2.914   5.845
  948SOL     OW 3742   3.471   2.212   0.173
  948SOL    HW1 3743   3.525   2.150   0.230
  948SOL    HW2 3744   3.402   2.257   0.229
  949SOL     OW 3745   4.799   6.136   6.343
  949SOL    HW1 3746   4.785   6.108   6.437
  949SOL    HW2 3747   4.894   6.117   6.316
  950SOL     OW 3748   3.342   5.190   0.780
  950SOL    HW1 3749   3.411   5.118   0.772
  950SOL    HW2 3750   3.253   5.154   0.751
  951SOL     OW 3751   1.327   2.633   4.036
  951SOL    HW1 3752   1.397   2.562   4.030
  951SOL    HW2 3753   1.364   2.719   4.002
  952SOL     OW 3754   4.881   0.944   1.219
  952SOL    HW1 3755   4.927   1.006   1.155
  952SOL    HW2 3756   4.845   0.996   1.297
  953SOL     OW 3757   4.497   6.950   5.847
  953SOL    HW1 3758   4.416   6.953   5.789
  953SOL    HW2 3759   4.494   6.869   5.905
  954SOL     OW 3760   6.463   6.781   1.653
  954SOL    HW1 3761   6.549   6.792   1.603
  954SOL    HW2 3762   6.411   6.706   1.614
  955SOL     OW 3763   1.182   5.803   2.996
  955SOL    HW1 3764   1.093   5.806   3.041
  955SOL    HW2 3765   1.219   5.896   2.989
  956SOL     OW 3766   1.942   2.664   0.757
  956SOL    HW1 3767   1.894   2.701   0.837
  956SOL    HW2 3768   1.878   2.609   0.703
  957SOL     OW 3769   2.149   6.006   4.813
  957SOL    HW1 3770   2.243   5.984   4.839
  957SOL    HW2 3771   2.138   6.105   4.806
  958SOL     OW 3772   4.839   2.627   6.904
  958SOL    HW1 3773   4.935   2.605   6.920
  958SOL    HW2 3774   4.821   2.628   6.805
  959SOL     OW 3775   1.460   3.881   0.611
  959SOL    HW1 3776   1.369   3.907   0.580
  959SOL    HW2 3777   1.456   3.791   0.656
  960SOL     OW 3778   1.533   3.982   5.987
  960SOL    HW1 3779   1.570   4.037   6.061
  960SOL    HW2 3780   1.525   4.038   5.904
  961SOL     OW 3781   3.405   6.690   6.799
  961SOL    HW1 3782   3.369   6.597   6.794
  961SOL    HW2 3783   3.333   6.752   6.832
  962SOL     OW 3784   0.781   0.148   3.587
  962SOL    HW1 3785   0.714   0.220   3.605
  962SOL    HW2 3786   0.797   0.142   3.489
  963SOL     OW 3787   5.837   0.156   2.186
  963SOL    HW1 3788   5.815   0.176   2.091
  963SOL    HW2 3789   5.780   0.212   2.246
  964SOL     OW 3790   5.791   4.080   1.531
  964SOL    HW1 3791   5.716   4.014   1.527
  964SOL    HW2 3792   5.874   4.037   1.496
  965SOL     OW 3793   1.976   1.544   0.340
  965SOL    HW1 3794   1.889   1.569   0.298
  965SOL    HW2 3795   2.051   1.572   0.280
  966SOL     OW 3796   5.851   2.438   1.839
  966SOL    HW1 3797   5.808   2.514   1.791
  966SOL    HW2 3798   5.801   2.418   1.923
  967SOL     OW 3799   1.108   5.279   3.092
  967SOL    HW1 3800   1.036   5.338   3.054
  967SOL    HW2 3801   1.098   5.274   3.191
  968SOL     OW 3802   0.165   4.356   0.280
  968SOL    HW1 3803   0.240   4.382   0.220
  968SOL    HW2 3804   0.163   4.257   0.290
  969SOL     OW 3805   3.999   6.435   6.583
  969SOL    HW1 3806   4.074   6.491   6.618
  969SOL    HW2 3807   3.947   6.397   6.660
  970SOL     OW 3808   5.078   3.362   6.257
  970SOL    HW1 3809   5.136   3.407   6.190
  970SOL    HW2 3810   5.028   3.431   6.309
  971SOL     OW 3811   0.161   2.626   6.875
  971SOL    HW1 3812   0.260   2.621   6.887
  971SOL    HW2 3813   0.120   2.539   6.902
  972SOL     OW 3814   5.097   6.712   0.122
  972SOL    HW1 3815   5.053   6.679   0.206
  972SOL    HW2 3816   5.196   6.714   0.134
  973SOL     OW 3817   6.516   3.350   5.750
  973SOL    HW1 3818   6.487   3.444   5.732
  973SOL    HW2 3819   6.616   3.346   5.755
  974SOL     OW 3820   1.961   0.503   4.627
  974SOL    HW1 3821   1.892   0.570   4.656
  974SOL    HW2 3822   1.921   0.412   4.628
  975SOL     OW 3823   2.728   6.820   5.371
  975SOL    HW1 3824   2.807   6.758   5.364
  975SOL    HW2 3825   2.727   6.862   5.462
  976SOL     OW 3826   0.197   4.839   4.183
  976SOL    HW1 3827   0.277   4.865   4.238
  976SOL    HW2 3828   0.114   4.855   4.236
  977SOL     OW 3829   1.126   1.993   2.353
  977SOL    HW1 3830   1.072   2.048   2.418
  977SOL    HW2 3831   1.180   1.926   2.404
  978SOL     OW 3832   5.607   2.873   4.366
  978SOL    HW1 3833   5.656   2.802   4.316
  978SOL    HW2 3834   5.538   2.914   4.307
  979SOL     OW 3835   6.383   2.031   2.907
  979SOL    HW1 3836   6.433   1.950   2.876
  979SOL    HW2 3837   6.401   2.046   3.004
  980SOL     OW 3838   6.592   6.738   6.055
  980SOL    HW1 3839   6.679   6.735   6.105
  980SOL    HW2 3840   6.559   6.832   6.053
  981SOL     OW 3841   6.384   2.938   6.225
  981SOL    HW1 3842   6.293   2.944   6.266
  981SOL    HW2 3843   6.408   3.026   6.185
  982SOL     OW 3844   1.416   4.488   0.904
  982SOL    HW1 3845   1.480   4.515   0.833
  982SOL    HW2 3846   1.408   4.388   0.907
  983SOL     OW 3847   5.554   1.155   3.640
  983SOL    HW1 3848   5.548   1.141   3.541
  983SOL    HW2 3849   5.528   1.071   3.687
  984SOL     OW 3850   4.895   3.182   5.345
  984SOL    HW1 3851   4.862   3.231   5.264
  984SOL    HW2 3852   4.995   3.179   5.344
  985SOL     OW 3853   1.766   4.385   0.365
  985SOL    HW1 3854   1.716   4.391   0.279
  985SOL    HW2 3855   1.842   4.321   0.356
  986SOL     OW 3856   5.076   4.224   5.642
  986SOL    HW1 3857   5.112   4.310   5.605
  986SOL    HW2 3858   4.976   4.228   5.646
  987SOL     OW 3859   3.374   0.381   2.425
  987SOL    HW1 3860   3.468   0.356   2.450
  987SOL    HW2 3861   3.312   0.308   2.455
  988SOL     OW 3862   3.568   2.700   1.506
  988SOL    HW1 3863   3.472   2.698   1.478
  988SOL    HW2 3864   3.583   2.635   1.579
  989SOL     OW 3865   0.753   1.274   4.320
  989SOL    HW1 3866   0.807   1.242   4.243
  989SOL    HW2 3867   0.663   1.304   4.288
  990SOL     OW 3868   5.397   6.482   2.035
  990SOL    HW1 3869   5.424   6.461   1.941
  990SOL    HW2 3870   5.377   6.580   2.042
  991SOL     OW 3871   5.879   1.742   5.755
  991SOL    HW1 3872   5.860   1.655   5.801
  991SOL    HW2 3873   5.793   1.788   5.736
  992SOL     OW 3874   0.135   2.745   1.205
  992SOL    HW1 3875   0.079   2.673   1.164
  992SOL    HW2 3876   0.155   2.815   1.136
  993SOL     OW 3877   4.194   6.937   4.731
  993SOL    HW1 3878   4.193   7.013   4.796
  993SOL    HW2 3879   4.253   6.864   4.766
  994SOL     OW 3880   2.936   3.547   3.272
  994SOL    HW1 3881   2.926   3.448   3.283
  994SOL    HW2 3882   2.993   3.583   3.345
  995SOL     OW 3883   0.582   2.086   5.039
  995SOL    HW1 3884   0.557   2.172   5.083
  995SOL    HW2 3885   0.535   2.010   5.085
  996SOL     OW 3886   0.938   3.465   0.069
  996SOL    HW1 3887   0.880   3.396   0.113
  996SOL    HW2 3888   1.029   3.426   0.051
  997SOL     OW 3889   6.957   1.671   0.888
  997SOL    HW1 3890   6.943   1.574   0.869
  997SOL    HW2 3891   6.945   1.724   0.804
  998SOL     OW 3892   5.073   6.820   3.116
  998SOL    HW1 3893   5.023   6.887   3.170
  998SOL    HW2 3894   5.121   6.866   3.042
  999SOL     OW 3895   6.782   5.693   1.230
  999SOL    HW1 3896   6.701   5.638   1.211
  999SOL    HW2 3897   6.853   5.671   1.164
 1000SOL     OW 3898   4.332   2.011   4.806
 1000SOL    HW1 3899   4.243   1.983   4.843
 1000SOL    HW2 3900   4.371   1.936   4.753
 1001SOL     OW 3901   4.661   1.203   5.368
 1001SOL    HW1 3902   4.575   1.154   5.376
 1001SOL    HW2 3903   4.734   1.138   5.345
 1002SOL     OW 3904   0.572   1.541   0.420
 1002SOL    HW1 3905   0.574   1.508   0.325
 1002SOL    HW2 3906   0.635   1.488   0.476
 1003SOL     OW 3907   4.021   5.097   2.678
 1003SOL    HW1 3908   3.972   5.148   2.748
 1003SOL    HW2 3909   4.011   4.999   2.695
 1004SOL     OW 3910   5.801   6.071   0.372
 1004SOL    HW1 3911   5.898   6.091   0.359
 1004SOL    HW2 3912   5.762   6.040   0.286
 1005SOL     OW 3913   6.469   6.243   3.507
 1005SOL    HW1 3914   6.518   6.330   3.495
 1005SOL    HW2 3915   6.379   6.261   3.546
 1006SOL     OW 3916   1.672   5.169   6.906
 1006SOL    HW1 3917   1.640   5.140   6.997
 1006SOL    HW2 3918   1.720   5.093   6.863
 1007SOL     OW 3919   6.738   1.376   2.883
 1007SOL    HW1 3920   6.823   1.369   2.935
 1007SOL    HW2 3921   6.661   1.361   2.945
 1008SOL     OW 3922   3.065   2.026   5.074
 1008SOL    HW1 3923   3.151   1.989   5.109
 1008SOL    HW2 3924   3.084   2.103   5.013
 1009SOL     OW 3925   3.131   6.253   6.172
 1009SOL    HW1 3926   3.151   6.166   6.125
 1009SOL    HW2 3927   3.083   6.233   6.257
 1010SOL     OW 3928   5.470   0.135   5.364
 1010SOL    HW1 3929   5.399   0.081   5.410
 1010SOL    HW2 3930   5.479   0.104   5.270
 1011SOL     OW 3931   2.634   5.566   3.914
 1011SOL    HW1 3932   2.593   5.571   4.005
 1011SOL    HW2 3933   2.725   5.609   3.915
 1012SOL     OW 3934   3.767   6.190   0.817
 1012SOL    HW1 3935   3.835   6.144   0.875
 1012SOL    HW2 3936   3.706   6.244   0.874
 1013SOL     OW 3937   0.739   0.386   0.147
 1013SOL    HW1 3938   0.788   0.392   0.234
 1013SOL    HW2 3939   0.752   0.294   0.108
 1014SOL     OW 3940   6.160   6.439   5.858
 1014SOL    HW1 3941   6.252   6.439   5.897
 1014SOL    HW2 3942   6.093   6.442   5.932
 1015SOL     OW 3943   2.638   0.426   4.963
 1015SOL    HW1 3944   2.716   0.475   4.923
 1015SOL    HW2 3945   2.579   0.392   4.890
 1016SOL     OW 3946   4.239   2.950   1.583
 1016SOL    HW1 3947   4.309   2.980   1.648
 1016SOL    HW2 3948   4.184   3.029   1.555
 1017SOL     OW 3949   5.199   0.463   6.195
 1017SOL    HW1 3950   5.147   0.513   6.126
 1017SOL    HW2 3951   5.220   0.524   6.272
 1018SOL     OW 3952   1.656   2.734   1.524
 1018SOL    HW1 3953   1.712   2.651   1.531
 1018SOL    HW2 3954   1.594   2.738   1.603
 1019SOL     OW 3955   6.080   1.509   0.906
 1019SOL    HW1 3956   6.018   1.436   0.935
 1019SOL    HW2 3957   6.060   1.533   0.811
 1020SOL     OW 3958   3.707   2.086   1.705
 1020SOL    HW1 3959   3.666   2.143   1.776
 1020SOL    HW2 3960   3.805   2.073   1.725
 1021SOL     OW 3961   6.876   1.314   0.961
 1021SOL    HW1 3962   6.954   1.253   0.974
 1021SOL    HW2 3963   6.878   1.386   1.031
 1022SOL     OW 3964   3.339   3.069   0.256
 1022SOL    HW1 3965   3.389   3.028   0.333
 1022SOL    HW2 3966   3.335   3.003   0.181
 1023SOL     OW 3967   0.028   0.638   4.726
 1023SOL    HW1 3968   0.074   0.553   4.751
 1023SOL    HW2 3969   0.022   0.697   4.807
 1024SOL     OW 3970   6.145   2.543   3.999
 1024SOL    HW1 3971   6.186   2.463   3.956
 1024SOL    HW2 3972   6.153   2.536   4.098
 1025SOL     OW 3973   2.828   4.887   1.184
 1025SOL    HW1 3974   2.815   4.984   1.208
 1025SOL    HW2 3975   2.746   4.854   1.137
 1026SOL     OW 3976   0.461   2.240   6.281
 1026SOL    HW1 3977   0.485   2.331   6.246
 1026SOL    HW2 3978   0.472   2.173   6.208
 1027SOL     OW 3979   2.247   4.813   1.211
 1027SOL    HW1 3980   2.254   4.776   1.118
 1027SOL    HW2 3981   2.315   4.769   1.270
 1028SOL     OW 3982   0.341   5.580   7.004
 1028SOL    HW1 3983   0.409   5.572   0.051
 1028SOL    HW2 3984   0.363   5.659   6.946
 1029SOL     OW 3985   3.513   0.319   4.882
 1029SOL    HW1 3986   3.508   0.397   4.820
 1029SOL    HW2 3987   3.596   0.267   4.862
 1030SOL     OW 3988   4.017   4.907   4.866
 1030SOL    HW1 3989   4.000   4.982   4.803
 1030SOL    HW2 3990   3.931   4.878   4.908
 1031SOL     OW 3991   2.689   6.223   1.072
 1031SOL    HW1 3992   2.599   6.181   1.055
 1031SOL    HW2 3993   2.731   6.180   1.152
 1032SOL     OW 3994   1.199   1.430   5.374
 1032SOL    HW1 3995   1.291   1.390   5.367
 1032SOL    HW2 3996   1.195   1.514   5.319
 1033SOL     OW 3997   2.713   6.885   1.617
 1033SOL    HW1 3998   2.789   6.946   1.640
 1033SOL    HW2 3999   2.626   6.932   1.632
 1034SOL     OW 4000   0.816   6.438   2.062
 1034SOL    HW1 4001   0.820   6.341   2.040
 1034SOL    HW2 4002   0.904   6.467   2.102
 1035SOL     OW 4003   3.101   1.843   2.930
 1035SOL    HW1 4004   3.109   1.797   2.842
 1035SOL    HW2 4005   3.008   1.875   2.943
 1036SOL     OW 4006   4.724   6.746   6.711
 1036SOL    HW1 4007   4.809   6.795   6.692
 1036SOL    HW2 4008   4.744   6.666   6.768
 1037SOL     OW 4009   3.653   1.462   6.436
 1037SOL    HW1 4010   3.737   1.410   6.424
 1037SOL    HW2 4011   3.654   1.541   6.374
 1038SOL     OW 4012   2.550   2.064   5.395
 1038SOL    HW1 4013   2.537   2.154   5.438
 1038SOL    HW2 4014   2.474   2.004   5.420
 1039SOL     OW 4015   5.218   1.733   3.245
 1039SOL    HW1 4016   5.182   1.803   3.184
 1039SOL    HW2 4017   5.282   1.674   3.195
 1040SOL     OW 4018   6.226   4.426   4.007
 1040SOL    HW1 4019   6.170   4.455   4.085
 1040SOL    HW2 4020   6.199   4.333   3.980
 1041SOL     OW 4021   1.698   6.699   4.617
 1041SOL    HW1 4022   1.724   6.795   4.626
 1041SOL    HW2 4023   1.599   6.693   4.602
 1042SOL     OW 4024   4.418   3.943   0.523
 1042SOL    HW1 4025   4.452   3.941   0.617
 1042SOL    HW2 4026   4.409   3.850   0.489
 1043SOL     OW 4027   4.288   0.239   6.613
 1043SOL    HW1 4028   4.380   0.257   6.648
 1043SOL    HW2 4029   4.245   0.167   6.667
 1044SOL     OW 4030   3.957   3.865   3.073
 1044SOL    HW1 4031   4.041   3.816   3.095
 1044SOL    HW2 4032   3.897   3.806   3.019
 1045SOL     OW 4033   3.450   0.876   3.247
 1045SOL    HW1 4034   3.445   0.944   3.320
 1045SOL    HW2 4035   3.368   0.820   3.248
 1046SOL     OW 4036   3.216   0.845   2.415
 1046SOL    HW1 4037   3.184   0.912   2.349
 1046SOL    HW2 4038   3.237   0.759   2.368
 1047SOL     OW 4039   0.550   6.319   1.862
 1047SOL    HW1 4040   0.562   6.397   1.922
 1047SOL    HW2 4041   0.548   6.350   1.767
 1048SOL     OW 4042   6.237   4.039   4.925
 1048SOL    HW1 4043   6.249   3.957   4.870
 1048SOL    HW2 4044   6.266   4.119   4.873
 1049SOL     OW 4045   0.622   3.711   5.289
 1049SOL    HW1 4046   0.622   3.711   5.389
 1049SOL    HW2 4047   0.588   3.623   5.255
 1050SOL     OW 4048   2.746   0.561   1.273
 1050SOL    HW1 4049   2.833   0.513   1.264
 1050SOL    HW2 4050   2.722   0.569   1.370
 1051SOL     OW 4051   4.697   4.787   1.953
 1051SOL    HW1 4052   4.617   4.829   1.995
 1051SOL    HW2 4053   4.756   4.859   1.916
 1052SOL     OW 4054   3.499   0.281   3.703
 1052SOL    HW1 4055   3.467   0.375   3.707
 1052SOL    HW2 4056   3.522   0.249   3.795
 1053SOL     OW 4057   3.930   5.095   3.896
 1053SOL    HW1 4058   3.888   5.093   3.805
 1053SOL    HW2 4059   3.861   5.074   3.965
 1054SOL     OW 4060   4.015   5.961   4.638
 1054SOL    HW1 4061   3.931   5.978   4.587
 1054SOL    HW2 4062   4.094   5.981   4.580
 1055SOL     OW 4063   4.114   4.804   4.437
 1055SOL    HW1 4064   4.096   4.709   4.462
 1055SOL    HW2 4065   4.207   4.828   4.465
 1056SOL     OW 4066   2.809   5.837   6.787
 1056SOL    HW1 4067   2.759   5.883   6.860
 1056SOL    HW2 4068   2.904   5.826   6.813
 1057SOL     OW 4069   3.833   4.174   1.439
 1057SOL    HW1 4070   3.788   4.087   1.417
 1057SOL    HW2 4071   3.795   4.210   1.524
 1058SOL     OW 4072   3.055   6.353   2.013
 1058SOL    HW1 4073   3.097   6.316   1.930
 1058SOL    HW2 4074   3.103   6.436   2.040
 1059SOL     OW 4075   4.121   0.371   0.932
 1059SOL    HW1 4076   4.130   0.465   0.965
 1059SOL    HW2 4077   4.049   0.367   0.863
 1060SOL     OW 4078   3.531   1.438   4.192
 1060SOL    HW1 4079   3.592   1.514   4.213
 1060SOL    HW2 4080   3.436   1.469   4.198
 1061SOL     OW 4081   2.591   5.757   1.273
 1061SOL    HW1 4082   2.498   5.767   1.237
 1061SOL    HW2 4083   2.611   5.660   1.289
 1062SOL     OW 4084   4.951   4.716   4.426
 1062SOL    HW1 4085   5.042   4.686   4.454
 1062SOL    HW2 4086   4.883   4.651   4.460
 1063SOL     OW 4087   3.661   1.847   6.578
 1063SOL    HW1 4088   3.645   1.922   6.642
 1063SOL    HW2 4089   3.648   1.881   6.484
 1064SOL     OW 4090   0.592   3.393   2.673
 1064SOL    HW1 4091   0.533   3.440   2.738
 1064SOL    HW2 4092   0.629   3.310   2.715
 1065SOL     OW 4093   4.712   4.981   5.695
 1065SOL    HW1 4094   4.728   4.904   5.757
 1065SOL    HW2 4095   4.675   5.059   5.746
 1066SOL     OW 4096   4.637   0.413   3.550
 1066SOL    HW1 4097   4.733   0.386   3.559
 1066SOL    HW2 4098   4.585   0.337   3.511
 1067SOL     OW 4099   3.252   3.631   0.063
 1067SOL    HW1 4100   3.269   3.581   0.148
 1067SOL    HW2 4101   3.197   3.574   0.002
 1068SOL     OW 4102   0.530   5.080   1.521
 1068SOL    HW1 4103   0.583   5.063   1.437
 1068SOL    HW2 4104   0.453   5.016   1.525
 1069SOL     OW 4105   2.942   3.133   2.388
 1069SOL    HW1 4106   2.931   3.206   2.456
 1069SOL    HW2 4107   2.890   3.052   2.417
 1070SOL     OW 4108   1.949   6.260   0.513
 1070SOL    HW1 4109   1.995   6.192   0.457
 1070SOL    HW2 4110   1.966   6.351   0.475
 1071SOL     OW 4111   5.122   5.700   3.210
 1071SOL    HW1 4112   5.122   5.785   3.156
 1071SOL    HW2 4113   5.136   5.722   3.306
 1072SOL     OW 4114   3.914   5.866   3.103
 1072SOL    HW1 4115   3.893   5.951   3.151
 1072SOL    HW2 4116   3.983   5.815   3.155
 1073SOL     OW 4117   2.845   5.432   3.302
 1073SOL    HW1 4118   2.823   5.335   3.295
 1073SOL    HW2 4119   2.943   5.444   3.315
 1074SOL     OW 4120   2.031   4.996   3.718
 1074SOL    HW1 4121   2.044   5.081   3.666
 1074SOL    HW2 4122   1.957   4.944   3.677
 1075SOL     OW 4123   0.727   4.034   2.601
 1075SOL    HW1 4124   0.731   4.071   2.508
 1075SOL    HW2 4125   0.649   4.073   2.649
 1076SOL     OW 4126   5.901   3.701   3.159
 1076SOL    HW1 4127   5.904   3.604   3.182
 1076SOL    HW2 4128   5.951   3.717   3.074
 1077SOL     OW 4129   4.777   0.198   1.990
 1077SOL    HW1 4130   4.784   0.251   1.905
 1077SOL    HW2 4131   4.735   0.110   1.971
 1078SOL     OW 4132   7.024   2.930   2.463
 1078SOL    HW1 4133   0.082   2.878   2.444
 1078SOL    HW2 4134   6.950   2.866   2.483
 1079SOL     OW 4135   1.644   4.816   3.368
 1079SOL    HW1 4136   1.605   4.908   3.379
 1079SOL    HW2 4137   1.640   4.789   3.272
 1080SOL     OW 4138   1.798   5.698   3.794
 1080SOL    HW1 4139   1.779   5.702   3.696
 1080SOL    HW2 4140   1.785   5.788   3.834
 1081SOL     OW 4141   1.586   0.617   6.967
 1081SOL    HW1 4142   1.573   0.519   6.952
 1081SOL    HW2 4143   1.562   0.639   0.036
 1082SOL     OW 4144   2.084   0.296   1.202
 1082SOL    HW1 4145   2.136   0.366   1.152
 1082SOL    HW2 4146   1.993   0.288   1.163
 1083SOL     OW 4147   3.835   2.813   1.707
 1083SOL    HW1 4148   3.886   2.861   1.635
 1083SOL    HW2 4149   3.777   2.878   1.756
 1084SOL     OW 4150   6.574   3.976   1.527
 1084SOL    HW1 4151   6.563   3.877   1.521
 1084SOL    HW2 4152   6.510   4.021   1.465
 1085SOL     OW 4153   1.539   5.522   4.283
 1085SOL    HW1 4154   1.473   5.568   4.224
 1085SOL    HW2 4155   1.519   5.544   4.378
 1086SOL     OW 4156   3.011   5.936   2.723
 1086SOL    HW1 4157   2.911   5.935   2.721
 1086SOL    HW2 4158   3.047   5.922   2.631
 1087SOL     OW 4159   3.747   2.917   5.122
 1087SOL    HW1 4160   3.654   2.892   5.150
 1087SOL    HW2 4161   3.812   2.871   5.182
 1088SOL     OW 4162   0.444   4.476   2.840
 1088SOL    HW1 4163   0.353   4.515   2.853
 1088SOL    HW2 4164   0.513   4.538   2.878
 1089SOL     OW 4165   6.518   0.234   3.236
 1089SOL    HW1 4166   6.606   0.275   3.260
 1089SOL    HW2 4167   6.472   0.290   3.167
 1090SOL     OW 4168   1.900   2.355   6.269
 1090SOL    HW1 4169   1.909   2.438   6.324
 1090SOL    HW2 4170   1.990   2.319   6.247
 1091SOL     OW 4171   0.747   2.177   5.933
 1091SOL    HW1 4172   0.717   2.119   6.009
 1091SOL    HW2 4173   0.777   2.119   5.858
 1092SOL     OW 4174   2.744   5.021   1.599
 1092SOL    HW1 4175   2.664   5.001   1.542
 1092SOL    HW2 4176   2.804   4.941   1.602
 1093SOL     OW 4177   0.374   2.650   1.487
 1093SOL    HW1 4178   0.278   2.661   1.511
 1093SOL    HW2 4179   0.404   2.557   1.507
 1094SOL     OW 4180   1.027   6.047   2.621
 1094SOL    HW1 4181   1.045   5.953   2.650
 1094SOL    HW2 4182   1.010   6.050   2.523
 1095SOL     OW 4183   0.780   3.397   6.364
 1095SOL    HW1 4184   0.805   3.432   6.454
 1095SOL    HW2 4185   0.685   3.367   6.364
 1096SOL     OW 4186   3.307   2.896   2.220
 1096SOL    HW1 4187   3.364   2.824   2.181
 1096SOL    HW2 4188   3.261   2.946   2.147
 1097SOL     OW 4189   2.811   4.953   5.645
 1097SOL    HW1 4190   2.781   4.940   5.550
 1097SOL    HW2 4191   2.839   5.048   5.658
 1098SOL     OW 4192   3.264   0.601   2.288
 1098SOL    HW1 4193   3.306   0.527   2.341
 1098SOL    HW2 4194   3.225   0.563   2.204
 1099SOL     OW 4195   2.948   0.087   2.073
 1099SOL    HW1 4196   2.984   0.141   2.149
 1099SOL    HW2 4197   3.001   0.002   2.064
 1100SOL     OW 4198   6.723   1.126   0.265
 1100SOL    HW1 4199   6.688   1.219   0.253
 1100SOL    HW2 4200   6.804   1.113   0.208
 1101SOL     OW 4201   5.422   3.234   0.878
 1101SOL    HW1 4202   5.425   3.152   0.822
 1101SOL    HW2 4203   5.471   3.308   0.831
 1102SOL     OW 4204   0.104   3.412   4.092
 1102SOL    HW1 4205   0.081   3.368   4.004
 1102SOL    HW2 4206   0.171   3.484   4.076
 1103SOL     OW 4207   0.546   3.195   0.060
 1103SOL    HW1 4208   0.600   3.165   0.138
 1103SOL    HW2 4209   0.449   3.177   0.077
 1104SOL     OW 4210   2.312   5.515   5.754
 1104SOL    HW1 4211   2.309   5.417   5.734
 1104SOL    HW2 4212   2.407   5.546   5.752
 1105SOL     OW 4213   3.864   5.396   1.002
 1105SOL    HW1 4214   3.812   5.395   1.087
 1105SOL    HW2 4215   3.828   5.467   0.942
 1106SOL     OW 4216   0.665   1.672   0.125
 1106SOL    HW1 4217   0.700   1.705   0.213
 1106SOL    HW2 4218   0.742   1.643   0.068
 1107SOL     OW 4219   6.732   0.023   1.806
 1107SOL    HW1 4220   6.746   0.076   1.889
 1107SOL    HW2 4221   6.642   7.003   1.810
 1108SOL     OW 4222   1.469   1.282   0.319
 1108SOL    HW1 4223   1.526   1.308   0.398
 1108SOL    HW2 4224   1.412   1.204   0.344
 1109SOL     OW 4225   4.011   0.874   3.287
 1109SOL    HW1 4226   4.056   0.793   3.323
 1109SOL    HW2 4227   3.992   0.861   3.190
 1110SOL     OW 4228   3.353   3.182   2.970
 1110SOL    HW1 4229   3.279   3.242   3.001
 1110SOL    HW2 4230   3.318   3.118   2.901
 1111SOL     OW 4231   4.519   6.499   6.842
 1111SOL    HW1 4232   4.551   6.590   6.870
 1111SOL    HW2 4233   4.495   6.446   6.923
 1112SOL     OW 4234   1.184   1.461   2.435
 1112SOL    HW1 4235   1.205   1.521   2.357
 1112SOL    HW2 4236   1.245   1.382   2.433
 1113SOL     OW 4237   6.433   3.739   1.450
 1113SOL    HW1 4238   6.351   3.773   1.496
 1113SOL    HW2 4239   6.422   3.641   1.431
 1114SOL     OW 4240   5.732   1.215   5.781
 1114SOL    HW1 4241   5.788   1.146   5.826
 1114SOL    HW2 4242   5.635   1.195   5.796
 1115SOL     OW 4243   2.308   5.049   0.646
 1115SOL    HW1 4244   2.226   5.020   0.695
 1115SOL    HW2 4245   2.295   5.141   0.610
 1116SOL     OW 4246   3.859   6.382   6.340
 1116SOL    HW1 4247   3.803   6.313   6.385
 1116SOL    HW2 4248   3.914   6.430   6.409
 1117SOL     OW 4249   2.619   3.306   1.150
 1117SOL    HW1 4250   2.603   3.347   1.060
 1117SOL    HW2 4251   2.645   3.210   1.138
 1118SOL     OW 4252   1.232   2.531   1.718
 1118SOL    HW1 4253   1.318   2.530   1.768
 1118SOL    HW2 4254   1.162   2.484   1.771
 1119SOL     OW 4255   3.197   3.867   3.420
 1119SOL    HW1 4256   3.205   3.915   3.507
 1119SOL    HW2 4257   3.173   3.772   3.436
 1120SOL     OW 4258   3.447   1.073   4.018
 1120SOL    HW1 4259   3.420   1.127   3.939
 1120SOL    HW2 4260   3.542   1.043   4.007
 1121SOL     OW 4261   4.808   3.838   3.290
 1121SOL    HW1 4262   4.740   3.840   3.217
 1121SOL    HW2 4263   4.898   3.819   3.252
 1122SOL     OW 4264   4.393   5.228   6.146
 1122SOL    HW1 4265   4.481   5.185   6.163
 1122SOL    HW2 4266   4.332   5.163   6.100
 1123SOL     OW 4267   3.780   0.863   2.056
 1123SOL    HW1 4268   3.755   0.790   2.120
 1123SOL    HW2 4269   3.784   0.950   2.104
 1124SOL     OW 4270   2.076   5.397   4.122
 1124SOL    HW1 4271   2.165   5.436   4.098
 1124SOL    HW2 4272   2.004   5.457   4.090
 1125SOL     OW 4273   3.126   3.816   5.259
 1125SOL    HW1 4274   3.127   3.916   5.257
 1125SOL    HW2 4275   3.184   3.783   5.333
 1126SOL     OW 4276   6.306   0.680   2.312
 1126SOL    HW1 4277   6.217   0.724   2.300
 1126SOL    HW2 4278   6.293   0.582   2.329
 1127SOL     OW 4279   2.040   5.331   6.182
 1127SOL    HW1 4280   2.033   5.422   6.141
 1127SOL    HW2 4281   2.130   5.292   6.160
 1128SOL     OW 4282   2.583   2.445   4.852
 1128SOL    HW1 4283   2.613   2.446   4.756
 1128SOL    HW2 4284   2.661   2.421   4.910
 1129SOL     OW 4285   4.150   6.020   6.178
 1129SOL    HW1 4286   4.186   5.927   6.172
 1129SOL    HW2 4287   4.222   6.085   6.154
 1130SOL     OW 4288   0.387   5.231   5.663
 1130SOL    HW1 4289   0.319   5.251   5.592
 1130SOL    HW2 4290   0.427   5.141   5.647
 1131SOL     OW 4291   6.936   4.608   6.218
 1131SOL    HW1 4292   6.873   4.678   6.187
 1131SOL    HW2 4293   6.973   4.558   6.140
 1132SOL     OW 4294   5.548   6.505   4.533
 1132SOL    HW1 4295   5.626   6.460   4.490
 1132SOL    HW2 4296   5.540   6.474   4.628
 1133SOL     OW 4297   6.589   2.344   6.981
 1133SOL    HW1 4298   6.564   2.313   6.889
 1133SOL    HW2 4299   6.666   2.408   6.974
 1134SOL     OW 4300   0.057   2.908   6.016
 1134SOL    HW1 4301   0.080   2.848   5.940
 1134SOL    HW2 4302   0.137   2.918   6.076
 1135SOL     OW 4303   6.543   1.416   4.385
 1135SOL    HW1 4304   6.637   1.451   4.390
 1135SOL    HW2 4305   6.520   1.397   4.290
 1136SOL     OW 4306   3.569   5.624   4.165
 1136SOL    HW1 4307   3.630   5.655   4.238
 1136SOL    HW2 4308   3.530   5.535   4.189
 1137SOL     OW 4309   0.757   0.801   0.033
 1137SOL    HW1 4310   0.831   0.758   0.085
 1137SOL    HW2 4311   0.688   0.835   0.096
 1138SOL     OW 4312   1.084   3.400   5.806
 1138SOL    HW1 4313   1.168   3.436   5.765
 1138SOL    HW2 4314   1.094   3.396   5.905
 1139SOL     OW 4315   0.604   0.245   2.310
 1139SOL    HW1 4316   0.620   0.155   2.352
 1139SOL    HW2 4317   0.687   0.274   2.262
 1140SOL     OW 4318   3.756   1.882   3.169
 1140SOL    HW1 4319   3.811   1.822   3.227
 1140SOL    HW2 4320   3.744   1.970   3.214
 1141SOL     OW 4321   0.047   6.228   6.219
 1141SOL    HW1 4322   6.977   6.207   6.200
 1141SOL    HW2 4323   0.106   6.166   6.167
 1142SOL     OW 4324   6.452   0.056   4.981
 1142SOL    HW1 4325   6.400   0.106   5.051
 1142SOL    HW2 4326   6.515   0.118   4.935
 1143SOL     OW 4327   4.808   2.606   1.109
 1143SOL    HW1 4328   4.847   2.686   1.154
 1143SOL    HW2 4329   4.877   2.534   1.100
 1144SOL     OW 4330   1.150   6.088   5.328
 1144SOL    HW1 4331   1.218   6.121   5.394
 1144SOL    HW2 4332   1.065   6.139   5.339
 1145SOL     OW 4333   2.050   4.913   4.785
 1145SOL    HW1 4334   2.127   4.957   4.738
 1145SOL    HW2 4335   2.082   4.871   4.870
 1146SOL     OW 4336   6.056   1.716   1.853
 1146SOL    HW1 4337   6.144   1.673   1.872
 1146SOL    HW2 4338   5.998   1.709   1.934
 1147SOL     OW 4339   6.459   3.705   2.147
 1147SOL    HW1 4340   6.409   3.624   2.116
 1147SOL    HW2 4341   6.418   3.737   2.233
 1148SOL     OW 4342   5.895   0.458   6.249
 1148SOL    HW1 4343   5.938   0.490   6.164
 1148SOL    HW2 4344   5.825   0.390   6.226
 1149SOL     OW 4345   5.190   2.964   3.216
 1149SOL    HW1 4346   5.155   2.963   3.122
 1149SOL    HW2 4347   5.274   3.017   3.219
 1150SOL     OW 4348   1.806   5.617   5.430
 1150SOL    HW1 4349   1.735   5.650   5.368
 1150SOL    HW2 4350   1.884   5.585   5.377
 1151SOL     OW 4351   2.544   5.374   6.967
 1151SOL    HW1 4352   2.486   5.455   6.965
 1151SOL    HW2 4353   2.594   5.366   6.881
 1152SOL     OW 4354   0.103   0.691   3.536
 1152SOL    HW1 4355   0.062   0.630   3.605
 1152SOL    HW2 4356   0.183   0.646   3.496
 1153SOL     OW 4357   2.374   4.881   2.825
 1153SOL    HW1 4358   2.381   4.831   2.739
 1153SOL    HW2 4359   2.356   4.817   2.900
 1154SOL     OW 4360   1.493   4.472   2.205
 1154SOL    HW1 4361   1.580   4.426   2.224
 1154SOL    HW2 4362   1.426   4.448   2.275
 1155SOL     OW 4363   4.651   0.595   1.980
 1155SOL    HW1 4364   4.745   0.582   1.949
 1155SOL    HW2 4365   4.592   0.616   1.902
 1156SOL     OW 4366   2.281   0.807   4.402
 1156SOL    HW1 4367   2.272   0.904   4.380
 1156SOL    HW2 4368   2.362   0.770   4.355
 1157SOL     OW 4369   1.467   3.184   4.000
 1157SOL    HW1 4370   1.488   3.262   3.941
 1157SOL    HW2 4371   1.368   3.165   3.996
 1158SOL     OW 4372   4.652   6.217   6.135
 1158SOL    HW1 4373   4.689   6.173   6.217
 1158SOL    HW2 4374   4.574   6.164   6.102
 1159SOL     OW 4375   6.075   4.293   2.721
 1159SOL    HW1 4376   6.136   4.301   2.643
 1159SOL    HW2 4377   6.129   4.269   2.803
 1160SOL     OW 4378   2.586   2.618   0.984
 1160SOL    HW1 4379   2.620   2.585   1.072
 1160SOL    HW2 4380   2.619   2.559   0.911
 1161SOL     OW 4381   4.117   0.579   3.703
 1161SOL    HW1 4382   4.062   0.635   3.765
 1161SOL    HW2 4383   4.207   0.622   3.689
 1162SOL     OW 4384   3.312   5.168   1.554
 1162SOL    HW1 4385   3.311   5.085   1.498
 1162SOL    HW2 4386   3.400   5.214   1.543
 1163SOL     OW 4387   4.918   7.008   2.409
 1163SOL    HW1 4388   4.835   0.039   2.407
 1163SOL    HW2 4389   4.895   6.915   2.379
 1164SOL     OW 4390   6.578   4.022   4.601
 1164SOL    HW1 4391   6.559   3.951   4.670
 1164SOL    HW2 4392   6.492   4.067   4.576
 1165SOL     OW 4393   0.638   4.656   2.140
 1165SOL    HW1 4394   0.735   4.637   2.131
 1165SOL    HW2 4395   0.603   4.695   2.055
 1166SOL     OW 4396   3.406   0.830   6.773
 1166SOL    HW1 4397   3.421   0.920   6.730
 1166SOL    HW2 4398   3.491   0.799   6.816
 1167SOL     OW 4399   4.447   1.694   5.662
 1167SOL    HW1 4400   4.533   1.661   5.622
 1167SOL    HW2 4401   4.409   1.765   5.603
 1168SOL     OW 4402   5.724   0.717   3.481
 1168SOL    HW1 4403   5.795   0.682   3.543
 1168SOL    HW2 4404   5.767   0.765   3.405
 1169SOL     OW 4405   1.367   2.931   1.357
 1169SOL    HW1 4406   1.384   2.897   1.449
 1169SOL    HW2 4407   1.355   2.854   1.294
 1170SOL     OW 4408   2.522   0.819   1.566
 1170SOL    HW1 4409   2.580   0.738   1.569
 1170SOL    HW2 4410   2.536   0.874   1.649
 1171SOL     OW 4411   4.363   0.504   0.460
 1171SOL    HW1 4412   4.284   0.445   0.443
 1171SOL    HW2 4413   4.350   0.552   0.546
 1172SOL     OW 4414   3.129   2.994   5.769
 1172SOL    HW1 4415   3.183   3.030   5.693
 1172SOL    HW2 4416   3.081   2.911   5.740
 1173SOL     OW 4417   5.309   6.586   5.496
 1173SOL    HW1 4418   5.406   6.567   5.510
 1173SOL    HW2 4419   5.287   6.675   5.535
 1174SOL     OW 4420   3.832   5.918   6.737
 1174SOL    HW1 4421   3.819   5.883   6.830
 1174SOL    HW2 4422   3.894   5.857   6.687
 1175SOL     OW 4423   0.082   5.156   4.389
 1175SOL    HW1 4424   0.026   5.239   4.379
 1175SOL    HW2 4425   0.138   5.164   4.472
 1176SOL     OW 4426   6.008   2.730   1.378
 1176SOL    HW1 4427   6.066   2.787   1.320
 1176SOL    HW2 4428   5.916   2.725   1.340
 1177SOL     OW 4429   6.732   3.195   6.200
 1177SOL    HW1 4430   6.807   3.172   6.263
 1177SOL    HW2 4431   6.717   3.118   6.138
 1178SOL     OW 4432   4.859   4.986   2.519
 1178SOL    HW1 4433   4.880   4.901   2.567
 1178SOL    HW2 4434   4.914   5.060   2.558
 1179SOL     OW 4435   1.394   5.613   6.142
 1179SOL    HW1 4436   1.409   5.515   6.159
 1179SOL    HW2 4437   1.316   5.644   6.196
 1180SOL     OW 4438   2.321   0.407   4.312
 1180SOL    HW1 4439   2.280   0.422   4.402
 1180SOL    HW2 4440   2.373   0.322   4.312
 1181SOL     OW 4441   1.558   5.013   2.253
 1181SOL    HW1 4442   1.630   4.965   2.304
 1181SOL    HW2 4443   1.488   5.045   2.318
 1182SOL     OW 4444   1.422   3.696   3.957
 1182SOL    HW1 4445   1.413   3.685   3.858
 1182SOL    HW2 4446   1.459   3.613   3.997
 1183SOL     OW 4447   4.082   5.298   1.153
 1183SOL    HW1 4448   4.004   5.348   1.114
 1183SOL    HW2 4449   4.098   5.215   1.101
 1184SOL     OW 4450   3.363   2.959   6.273
 1184SOL    HW1 4451   3.328   2.964   6.180
 1184SOL    HW2 4452   3.462   2.945   6.271
 1185SOL     OW 4453   3.268   1.203   6.350
 1185SOL    HW1 4454   3.270   1.144   6.269
 1185SOL    HW2 4455   3.178   1.197   6.393
 1186SOL     OW 4456   3.763   0.346   5.131
 1186SOL    HW1 4457   3.760   0.292   5.215
 1186SOL    HW2 4458   3.682   0.326   5.076
 1187SOL     OW 4459   1.236   1.891   4.722
 1187SOL    HW1 4460   1.192   1.907   4.633
 1187SOL    HW2 4461   1.322   1.843   4.708
 1188SOL     OW 4462   1.542   0.625   5.057
 1188SOL    HW1 4463   1.500   0.548   5.106
 1188SOL    HW2 4464   1.641   0.619   5.065
 1189SOL     OW 4465   1.036   0.980   1.111
 1189SOL    HW1 4466   1.051   0.894   1.159
 1189SOL    HW2 4467   0.943   0.983   1.075
 1190SOL     OW 4468   3.949   5.696   1.918
 1190SOL    HW1 4469   3.925   5.792   1.900
 1190SOL    HW2 4470   3.996   5.689   2.006
 1191SOL     OW 4471   2.066   4.417   1.790
 1191SOL    HW1 4472   2.028   4.433   1.699
 1191SOL    HW2 4473   2.055   4.499   1.846
 1192SOL     OW 4474   3.842   5.475   2.722
 1192SOL    HW1 4475   3.930   5.429   2.708
 1192SOL    HW2 4476   3.829   5.545   2.652
 1193SOL     OW 4477   2.962   0.510   4.079
 1193SOL    HW1 4478   3.000   0.600   4.057
 1193SOL    HW2 4479   3.037   0.444   4.090
 1194SOL     OW 4480   6.764   1.999   2.739
 1194SOL    HW1 4481   6.676   1.956   2.719
 1194SOL    HW2 4482   6.812   1.946   2.808
 1195SOL     OW 4483   3.186   7.024   0.051
 1195SOL    HW1 4484   3.205   6.940   0.102
 1195SOL    HW2 4485   3.118   0.053   0.101
 1196SOL     OW 4486   1.713   5.631   3.506
 1196SOL    HW1 4487   1.809   5.602   3.500
 1196SOL    HW2 4488   1.673   5.632   3.414
 1197SOL     OW 4489   3.733   4.696   7.012
 1197SOL    HW1 4490   3.794   4.751   0.044
 1197SOL    HW2 4491   3.715   4.746   6.927
 1198SOL     OW 4492   3.722   0.617   2.891
 1198SOL    HW1 4493   3.650   0.664   2.943
 1198SOL    HW2 4494   3.716   0.642   2.795
 1199SOL     OW 4495   3.658   3.633   3.984
 1199SOL    HW1 4496   3.675   3.590   3.895
 1199SOL    HW2 4497   3.740   3.625   4.041
 1200SOL     OW 4498   4.667   3.435   1.334
 1200SOL    HW1 4499   4.722   3.434   1.251
 1200SOL    HW2 4500   4.723   3.463   1.412
 1201SOL     OW 4501   1.686   2.274   5.249
 1201SOL    HW1 4502   1.635   2.249   5.166
 1201SOL    HW2 4503   1.647   2.227   5.328
 1202SOL     OW 4504   6.367   6.652   4.376
 1202SOL    HW1 4505   6.386   6.605   4.290
 1202SOL    HW2 4506   6.322   6.588   4.439
 1203SOL     OW 4507   6.354   0.014   2.441
 1203SOL    HW1 4508   6.311   0.075   2.508
 1203SOL    HW2 4509   6.447   0.046   2.422
 1204SOL     OW 4510   2.152   0.323   0.314
 1204SOL    HW1 4511   2.094   0.331   0.395
 1204SOL    HW2 4512   2.095   0.323   0.232
 1205SOL     OW 4513   0.675   2.999   6.080
 1205SOL    HW1 4514   0.721   3.088   6.084
 1205SOL    HW2 4515   0.582   3.011   6.045
 1206SOL     OW 4516   6.780   0.854   4.744
 1206SOL    HW1 4517   6.786   0.814   4.835
 1206SOL    HW2 4518   6.734   0.791   4.682
 1207SOL     OW 4519   6.582   6.180   6.385
 1207SOL    HW1 4520   6.581   6.269   6.429
 1207SOL    HW2 4521   6.488   6.151   6.364
 1208SOL     OW 4522   3.758   3.388   2.336
 1208SOL    HW1 4523   3.776   3.469   2.391
 1208SOL    HW2 4524   3.669   3.397   2.291
 1209SOL     OW 4525   6.957   4.011   4.758
 1209SOL    HW1 4526   6.883   4.012   4.826
 1209SOL    HW2 4527   6.939   3.938   4.691
 1210SOL     OW 4528   2.344   0.280   2.929
 1210SOL    HW1 4529   2.266   0.342   2.931
 1210SOL    HW2 4530   2.341   0.221   3.009
 1211SOL     OW 4531   0.520   3.463   3.344
 1211SOL    HW1 4532   0.500   3.554   3.307
 1211SOL    HW2 4533   0.515   3.395   3.271
 1212SOL     OW 4534   1.002   4.613   3.805
 1212SOL    HW1 4535   1.089   4.644   3.765
 1212SOL    HW2 4536   1.020   4.574   3.896
 1213SOL     OW 4537   6.029   3.663   5.271
 1213SOL    HW1 4538   5.930   3.656   5.257
 1213SOL    HW2 4539   6.047   3.714   5.355
 1214SOL     OW 4540   1.393   1.727   1.290
 1214SOL    HW1 4541   1.410   1.629   1.283
 1214SOL    HW2 4542   1.374   1.751   1.385
 1215SOL     OW 4543   0.836   5.629   2.346
 1215SOL    HW1 4544   0.862   5.676   2.261
 1215SOL    HW2 4545   0.794   5.694   2.409
 1216SOL     OW 4546   1.995   0.260   1.451
 1216SOL    HW1 4547   2.003   0.274   1.352
 1216SOL    HW2 4548   2.072   0.304   1.497
 1217SOL     OW 4549   1.832   2.722   3.207
 1217SOL    HW1 4550   1.829   2.668   3.123
 1217SOL    HW2 4551   1.905   2.687   3.267
 1218SOL     OW 4552   0.909   3.851   3.161
 1218SOL    HW1 4553   0.944   3.931   3.113
 1218SOL    HW2 4554   0.815   3.834   3.131
 1219SOL     OW 4555   2.738   5.862   2.669
 1219SOL    HW1 4556   2.703   5.863   2.763
 1219SOL    HW2 4557   2.683   5.924   2.613
 1220SOL     OW 4558   6.312   5.314   2.639
 1220SOL    HW1 4559   6.353   5.274   2.557
 1220SOL    HW2 4560   6.237   5.256   2.671
 1221SOL     OW 4561   4.623   4.677   5.617
 1221SOL    HW1 4562   4.590   4.765   5.584
 1221SOL    HW2 4563   4.553   4.633   5.673
 1222SOL     OW 4564   6.886   4.241   1.820
 1222SOL    HW1 4565   6.790   4.253   1.794
 1222SOL    HW2 4566   6.905   4.144   1.832
 1223SOL     OW 4567   0.075   4.763   4.719
 1223SOL    HW1 4568   0.037   4.803   4.636
 1223SOL    HW2 4569   0.124   4.680   4.697
 1224SOL     OW 4570   4.547   4.129   1.315
 1224SOL    HW1 4571   4.451   4.135   1.340
 1224SOL    HW2 4572   4.604   4.156   1.393
 1225SOL     OW 4573   4.861   1.968   6.335
 1225SOL    HW1 4574   4.787   1.938   6.395
 1225SOL    HW2 4575   4.934   1.900   6.336
 1226SOL     OW 4576   6.118   5.637   0.913
 1226SOL    HW1 4577   6.032   5.626   0.963
 1226SOL    HW2 4578   6.145   5.733   0.914
 1227SOL     OW 4579   4.892   4.131   6.900
 1227SOL    HW1 4580   4.967   4.177   6.947
 1227SOL    HW2 4581   4.928   4.078   6.823
 1228SOL     OW 4582   4.099   3.524   4.458
 1228SOL    HW1 4583   4.070   3.429   4.452
 1228SOL    HW2 4584   4.136   3.542   4.549
 1229SOL     OW 4585   2.105   5.419   2.399
 1229SOL    HW1 4586   2.114   5.319   2.400
 1229SOL    HW2 4587   2.181   5.459   2.451
 1230SOL     OW 4588   4.842   4.187   0.395
 1230SOL    HW1 4589   4.846   4.093   0.360
 1230SOL    HW2 4590   4.755   4.229   0.370
 1231SOL     OW 4591   2.095   1.104   0.394
 1231SOL    HW1 4592   2.168   1.051   0.351
 1231SOL    HW2 4593   2.123   1.200   0.398
 1232SOL     OW 4594   2.626   2.108   6.264
 1232SOL    HW1 4595   2.687   2.188   6.264
 1232SOL    HW2 4596   2.673   2.030   6.224
 1233SOL     OW 4597   0.321   5.418   4.473
 1233SOL    HW1 4598   0.418   5.437   4.491
 1233SOL    HW2 4599   0.294   5.461   4.387
 1234SOL     OW 4600   6.474   4.182   6.033
 1234SOL    HW1 4601   6.512   4.128   6.108
 1234SOL    HW2 4602   6.531   4.262   6.016
 1235SOL     OW 4603   6.272   5.249   0.957
 1235SOL    HW1 4604   6.317   5.178   0.904
 1235SOL    HW2 4605   6.237   5.320   0.896
 1236SOL     OW 4606   0.490   1.456   2.929
 1236SOL    HW1 4607   0.585   1.461   2.961
 1236SOL    HW2 4608   0.468   1.537   2.877
 1237SOL     OW 4609   0.789   0.415   4.267
 1237SOL    HW1 4610   0.718   0.430   4.197
 1237SOL    HW2 4611   0.866   0.476   4.249
 1238SOL     OW 4612   0.394   0.753   4.377
 1238SOL    HW1 4613   0.482   0.783   4.412
 1238SOL    HW2 4614   0.347   0.698   4.446
 1239SOL     OW 4615   5.371   4.370   3.475
 1239SOL    HW1 4616   5.457   4.417   3.497
 1239SOL    HW2 4617   5.319   4.424   3.409
 1240SOL     OW 4618   0.582   4.527   1.056
 1240SOL    HW1 4619   0.507   4.469   1.086
 1240SOL    HW2 4620   0.545   4.609   1.013
 1241SOL     OW 4621   3.395   5.333   5.936
 1241SOL    HW1 4622   3.474   5.388   5.908
 1241SOL    HW2 4623   3.386   5.254   5.876
 1242SOL     OW 4624   2.057   5.907   0.856
 1242SOL    HW1 4625   2.011   5.985   0.813
 1242SOL    HW2 4626   2.054   5.829   0.795
 1243SOL     OW 4627   6.995   3.728   3.496
 1243SOL    HW1 4628   6.945   3.751   3.579
 1243SOL    HW2 4629   6.936   3.744   3.416
 1244SOL     OW 4630   0.136   6.678   4.977
 1244SOL    HW1 4631   0.169   6.632   4.894
 1244SOL    HW2 4632   0.090   6.611   5.036
 1245SOL     OW 4633   4.800   6.972   1.024
 1245SOL    HW1 4634   4.833   6.959   1.118
 1245SOL    HW2 4635   4.774   0.042   1.010
 1246SOL     OW 4636   5.419   2.632   1.720
 1246SOL    HW1 4637   5.416   2.718   1.772
 1246SOL    HW2 4638   5.329   2.612   1.683
 1247SOL     OW 4639   5.000   6.436   1.933
 1247SOL    HW1 4640   5.031   6.372   1.863
 1247SOL    HW2 4641   4.920   6.485   1.899
 1248SOL     OW 4642   0.707   6.944   5.076
 1248SOL    HW1 4643   0.764   6.904   5.148
 1248SOL    HW2 4644   0.627   6.987   5.118
 1249SOL     OW 4645   6.457   6.509   6.620
 1249SOL    HW1 4646   6.461   6.580   6.549
 1249SOL    HW2 4647   6.362   6.484   6.637
 1250SOL     OW 4648   0.297   4.532   5.104
 1250SOL    HW1 4649   0.231   4.481   5.159
 1250SOL    HW2 4650   0.298   4.628   5.133
 1251SOL     OW 4651   2.654   0.344   3.016
 1251SOL    HW1 4652   2.626   0.328   2.921
 1251SOL    HW2 4653   2.576   0.375   3.070
 1252SOL     OW 4654   2.408   5.193   6.424
 1252SOL    HW1 4655   2.438   5.135   6.348
 1252SOL    HW2 4656   2.333   5.148   6.472
 1253SOL     OW 4657   3.004   5.645   0.242
 1253SOL    HW1 4658   2.975   5.738   0.264
 1253SOL    HW2 4659   3.057   5.607   0.318
 1254SOL     OW 4660   6.368   1.232   3.700
 1254SOL    HW1 4661   6.461   1.251   3.731
 1254SOL    HW2 4662   6.370   1.154   3.637
 1255SOL     OW 4663   6.042   2.301   6.005
 1255SOL    HW1 4664   6.030   2.202   6.009
 1255SOL    HW2 4665   6.037   2.331   5.910
 1256SOL     OW 4666   6.868   5.605   5.643
 1256SOL    HW1 4667   6.820   5.681   5.599
 1256SOL    HW2 4668   6.806   5.561   5.709
 1257SOL     OW 4669   0.393   6.275   3.445
 1257SOL    HW1 4670   0.471   6.250   3.388
 1257SOL    HW2 4671   0.321   6.314   3.388
 1258SOL     OW 4672   4.685   5.153   6.895
 1258SOL    HW1 4673   4.724   5.065   6.922
 1258SOL    HW2 4674   4.751   5.202   6.838
 1259SOL     OW 4675   5.613   6.856   5.021
 1259SOL    HW1 4676   5.683   6.797   4.983
 1259SOL    HW2 4677   5.626   6.950   4.989
 1260SOL     OW 4678   3.379   0.947   0.237
 1260SOL    HW1 4679   3.339   0.959   0.328
 1260SOL    HW2 4680   3.393   1.036   0.195
 1261SOL     OW 4681   0.222   4.519   4.715
 1261SOL    HW1 4682   0.226   4.420   4.728
 1261SOL    HW2 4683   0.312   4.552   4.685
 1262SOL     OW 4684   4.014   5.935   1.475
 1262SOL    HW1 4685   3.942   5.888   1.526
 1262SOL    HW2 4686   4.104   5.903   1.507
 1263SOL     OW 4687   0.068   1.439   1.222
 1263SOL    HW1 4688   7.001   1.441   1.185
 1263SOL    HW2 4689   0.069   1.387   1.307
 1264SOL     OW 4690   6.273   2.577   4.761
 1264SOL    HW1 4691   6.348   2.537   4.813
 1264SOL    HW2 4692   6.296   2.578   4.664
 1265SOL     OW 4693   6.073   5.452   5.143
 1265SOL    HW1 4694   6.002   5.518   5.166
 1265SOL    HW2 4695   6.063   5.423   5.048
 1266SOL     OW 4696   2.828   0.944   3.692
 1266SOL    HW1 4697   2.911   0.985   3.653
 1266SOL    HW2 4698   2.854   0.865   3.748
 1267SOL     OW 4699   0.631   4.193   2.048
 1267SOL    HW1 4700   0.554   4.142   2.087
 1267SOL    HW2 4701   0.624   4.289   2.074
 1268SOL     OW 4702   6.090   4.616   6.686
 1268SOL    HW1 4703   6.116   4.523   6.662
 1268SOL    HW2 4704   6.014   4.614   6.751
 1269SOL     OW 4705   0.180   4.605   6.330
 1269SOL    HW1 4706   0.090   4.644   6.314
 1269SOL    HW2 4707   0.237   4.671   6.380
 1270SOL     OW 4708   1.720   1.623   4.218
 1270SOL    HW1 4709   1.706   1.647   4.314
 1270SOL    HW2 4710   1.690   1.699   4.160
 1271SOL     OW 4711   5.561   3.060   3.195
 1271SOL    HW1 4712   5.499   3.083   3.270
 1271SOL    HW2 4713   5.580   3.142   3.141
 1272SOL     OW 4714   6.233   6.680   6.964
 1272SOL    HW1 4715   6.195   6.710   6.877
 1272SOL    HW2 4716   6.229   6.756   0.004
 1273SOL     OW 4717   2.552   0.133   5.081
 1273SOL    HW1 4718   2.629   0.111   5.021
 1273SOL    HW2 4719   2.570   0.219   5.128
 1274SOL     OW 4720   5.485   2.463   1.942
 1274SOL    HW1 4721   5.489   2.500   1.850
 1274SOL    HW2 4722   5.389   2.451   1.969
 1275SOL     OW 4723   3.757   1.449   3.687
 1275SOL    HW1 4724   3.679   1.477   3.743
 1275SOL    HW2 4725   3.741   1.472   3.592
 1276SOL     OW 4726   5.479   6.864   2.656
 1276SOL    HW1 4727   5.550   6.884   2.723
 1276SOL    HW2 4728   5.467   6.765   2.648
 1277SOL     OW 4729   1.101   1.906   4.479
 1277SOL    HW1 4730   1.025   1.961   4.445
 1277SOL    HW2 4731   1.074   1.810   4.481
 1278SOL     OW 4732   3.299   1.838   5.090
 1278SOL    HW1 4733   3.297   1.806   4.995
 1278SOL    HW2 4734   3.363   1.782   5.143
 1279SOL     OW 4735   1.942   4.911   0.394
 1279SOL    HW1 4736   1.963   4.829   0.447
 1279SOL    HW2 4737   2.022   4.937   0.339
 1280SOL     OW 4738   1.610   5.765   2.625
 1280SOL    HW1 4739   1.628   5.832   2.697
 1280SOL    HW2 4740   1.678   5.776   2.552
 1281SOL     OW 4741   0.913   6.402   3.802
 1281SOL    HW1 4742   0.881   6.396   3.707
 1281SOL    HW2 4743   0.834   6.400   3.864
 1282SOL     OW 4744   1.850   6.229   2.539
 1282SOL    HW1 4745   1.794   6.289   2.595
 1282SOL    HW2 4746   1.893   6.160   2.596
 1283SOL     OW 4747   5.035   4.107   5.245
 1283SOL    HW1 4748   5.008   4.014   5.219
 1283SOL    HW2 4749   5.082   4.104   5.333
 1284SOL     OW 4750   2.898   1.512   3.029
 1284SOL    HW1 4751   2.830   1.565   3.078
 1284SOL    HW2 4752   2.988   1.553   3.042
 1285SOL     OW 4753   5.658   2.796   5.956
 1285SOL    HW1 4754   5.754   2.819   5.946
 1285SOL    HW2 4755   5.649   2.700   5.983
 1286SOL     OW 4756   5.641   5.881   0.900
 1286SOL    HW1 4757   5.698   5.798   0.903
 1286SOL    HW2 4758   5.656   5.934   0.983
 1287SOL     OW 4759   6.490   3.617   5.708
 1287SOL    HW1 4760   6.491   3.661   5.619
 1287SOL    HW2 4761   6.506   3.686   5.779
 1288SOL     OW 4762   6.426   3.543   3.540
 1288SOL    HW1 4763   6.346   3.523   3.597
 1288SOL    HW2 4764   6.482   3.461   3.531
 1289SOL     OW 4765   0.061   4.999   2.847
 1289SOL    HW1 4766   0.158   5.016   2.829
 1289SOL    HW2 4767   0.008   5.080   2.824
 1290SOL     OW 4768   0.145   0.044   1.878
 1290SOL    HW1 4769   0.104   7.015   1.805
 1290SOL    HW2 4770   0.119   0.140   1.868
 1291SOL     OW 4771   1.438   6.541   1.214
 1291SOL    HW1 4772   1.459   6.632   1.251
 1291SOL    HW2 4773   1.367   6.499   1.270
 1292SOL     OW 4774   1.623   5.917   6.939
 1292SOL    HW1 4775   1.564   5.896   7.017
 1292SOL    HW2 4776   1.627   6.016   6.925
 1293SOL     OW 4777   6.346   2.244   6.322
 1293SOL    HW1 4778   6.286   2.310   6.277
 1293SOL    HW2 4779   6.394   2.289   6.398
 1294SOL     OW 4780   0.367   1.844   3.709
 1294SOL    HW1 4781   0.336   1.932   3.744
 1294SOL    HW2 4782   0.352   1.842   3.610
 1295SOL     OW 4783   5.139   3.789   1.498
 1295SOL    HW1 4784   5.139   3.749   1.406
 1295SOL    HW2 4785   5.184   3.878   1.495
 1296SOL     OW 4786   3.620   1.626   0.236
 1296SOL    HW1 4787   3.633   1.600   0.140
 1296SOL    HW2 4788   3.570   1.553   0.283
 1297SOL     OW 4789   6.659   0.935   5.736
 1297SOL    HW1 4790   6.642   0.901   5.644
 1297SOL    HW2 4791   6.755   0.961   5.745
 1298SOL     OW 4792   6.370   3.051   3.631
 1298SOL    HW1 4793   6.465   3.028   3.656
 1298SOL    HW2 4794   6.362   3.055   3.532
 1299SOL     OW 4795   1.837   3.206   4.730
 1299SOL    HW1 4796   1.928   3.245   4.717
 1299SOL    HW2 4797   1.803   3.232   4.820
 1300SOL     OW 4798   3.509   2.868   2.687
 1300SOL    HW1 4799   3.509   2.790   2.625
 1300SOL    HW2 4800   3.566   2.941   2.648
 1301SOL     OW 4801   1.310   1.565   2.221
 1301SOL    HW1 4802   1.396   1.595   2.180
 1301SOL    HW2 4803   1.234   1.612   2.175
 1302SOL     OW 4804   2.640   5.875   5.894
 1302SOL    HW1 4805   2.736   5.882   5.921
 1302SOL    HW2 4806   2.599   5.966   5.890
 1303SOL     OW 4807   3.078   0.110   1.182
 1303SOL    HW1 4808   3.037   0.130   1.093
 1303SOL    HW2 4809   3.176   0.096   1.170
 1304SOL     OW 4810   3.767   0.836   6.014
 1304SOL    HW1 4811   3.832   0.763   6.034
 1304SOL    HW2 4812   3.678   0.797   5.991
 1305SOL     OW 4813   6.162   6.575   3.651
 1305SOL    HW1 4814   6.114   6.586   3.738
 1305SOL    HW2 4815   6.098   6.540   3.582
 1306SOL     OW 4816   1.912   5.253   4.291
 1306SOL    HW1 4817   1.958   5.216   4.371
 1306SOL    HW2 4818   1.980   5.286   4.226
 1307SOL     OW 4819   0.920   1.191   4.138
 1307SOL    HW1 4820   0.997   1.255   4.142
 1307SOL    HW2 4821   0.931   1.131   4.058
 1308SOL     OW 4822   4.925   5.881   3.033
 1308SOL    HW1 4823   4.920   5.876   2.934
 1308SOL    HW2 4824   4.833   5.882   3.071
 1309SOL     OW 4825   5.276   2.836   4.402
 1309SOL    HW1 4826   5.313   2.925   4.427
 1309SOL    HW2 4827   5.340   2.764   4.429
 1310SOL     OW 4828   5.016   3.602   5.598
 1310SOL    HW1 4829   4.934   3.655   5.620
 1310SOL    HW2 4830   5.096   3.662   5.596
 1311SOL     OW 4831   4.830   4.926   5.994
 1311SOL    HW1 4832   4.918   4.901   5.953
 1311SOL    HW2 4833   4.802   4.855   6.059
 1312SOL     OW 4834   6.686   0.600   1.464
 1312SOL    HW1 4835   6.629   0.598   1.546
 1312SOL    HW2 4836   6.630   0.621   1.384
 1313SOL     OW 4837   3.244   4.925   4.855
 1313SOL    HW1 4838   3.154   4.897   4.888
 1313SOL    HW2 4839   3.308   4.927   4.932
 1314SOL     OW 4840   6.812   1.352   5.773
 1314SOL    HW1 4841   6.769   1.402   5.698
 1314SOL    HW2 4842   6.748   1.342   5.849
 1315SOL     OW 4843   1.859   0.038   3.459
 1315SOL    HW1 4844   1.851   0.099   3.380
 1315SOL    HW2 4845   1.859   6.969   3.428
 1316SOL     OW 4846   3.064   6.357   3.287
 1316SOL    HW1 4847   3.001   6.290   3.325
 1316SOL    HW2 4848   3.042   6.371   3.190
 1317SOL     OW 4849   0.627   3.456   4.441
 1317SOL    HW1 4850   0.606   3.381   4.504
 1317SOL    HW2 4851   0.677   3.527   4.490
 1318SOL     OW 4852   0.975   6.477   1.455
 1318SOL    HW1 4853   0.884   6.487   1.415
 1318SOL    HW2 4854   0.966   6.450   1.551
 1319SOL     OW 4855   6.499   0.158   0.745
 1319SOL    HW1 4856   6.486   0.240   0.689
 1319SOL    HW2 4857   6.435   0.087   0.717
 1320SOL     OW 4858   5.096   5.639   4.866
 1320SOL    HW1 4859   5.077   5.543   4.883
 1320SOL    HW2 4860   5.122   5.684   4.952
 1321SOL     OW 4861   3.844   0.773   0.717
 1321SOL    HW1 4862   3.802   0.842   0.658
 1321SOL    HW2 4863   3.773   0.716   0.758
 1322SOL     OW 4864   5.062   1.055   6.337
 1322SOL    HW1 4865   5.022   1.145   6.319
 1322SOL    HW2 4866   5.139   1.065   6.399
 1323SOL     OW 4867   6.695   0.501   3.983
 1323SOL    HW1 4868   6.643   0.584   4.002
 1323SOL    HW2 4869   6.722   0.500   3.886
 1324SOL     OW 4870   1.000   2.489   0.657
 1324SOL    HW1 4871   1.009   2.581   0.619
 1324SOL    HW2 4872   1.045   2.423   0.595
 1325SOL     OW 4873   4.421   5.854   4.096
 1325SOL    HW1 4874   4.366   5.937   4.087
 1325SOL    HW2 4875   4.394   5.789   4.025
 1326SOL     OW 4876   5.333   4.002   4.668
 1326SOL    HW1 4877   5.419   4.052   4.657
 1326SOL    HW2 4878   5.257   4.067   4.670
 1327SOL     OW 4879   2.850   6.410   4.124
 1327SOL    HW1 4880   2.855   6.485   4.057
 1327SOL    HW2 4881   2.835   6.448   4.215
 1328SOL     OW 4882   2.511   1.095   1.241
 1328SOL    HW1 4883   2.547   1.046   1.321
 1328SOL    HW2 4884   2.448   1.035   1.191
 1329SOL     OW 4885   1.673   6.250   1.931
 1329SOL    HW1 4886   1.688   6.153   1.953
 1329SOL    HW2 4887   1.613   6.256   1.851
 1330SOL     OW 4888   5.021   6.727   1.087
 1330SOL    HW1 4889   5.053   6.648   1.035
 1330SOL    HW2 4890   4.938   6.763   1.045
 1331SOL     OW 4891   0.876   1.838   1.995
 1331SOL    HW1 4892   0.808   1.888   2.049
 1331SOL    HW2 4893   0.832   1.796   1.916
 1332SOL     OW 4894   4.587   2.005   1.218
 1332SOL    HW1 4895   4.686   1.998   1.212
 1332SOL    HW2 4896   4.545   1.928   1.169
 1333SOL     OW 4897   4.081   3.319   5.298
 1333SOL    HW1 4898   4.107   3.386   5.229
 1333SOL    HW2 4899   4.106   3.353   5.389
 1334SOL     OW 4900   1.180   3.320   3.878
 1334SOL    HW1 4901   1.130   3.401   3.848
 1334SOL    HW2 4902   1.220   3.274   3.798
 1335SOL     OW 4903   1.964   5.625   3.354
 1335SOL    HW1 4904   1.915   5.707   3.326
 1335SOL    HW2 4905   1.963   5.558   3.280
 1336SOL     OW 4906   0.046   6.795   5.612
 1336SOL    HW1 4907   0.073   6.723   5.549
 1336SOL    HW2 4908   7.022   6.867   5.563
 1337SOL     OW 4909   3.807   6.485   6.806
 1337SOL    HW1 4910   3.875   6.449   6.869
 1337SOL    HW2 4911   3.762   6.565   6.848
 1338SOL     OW 4912   3.258   5.132   1.213
 1338SOL    HW1 4913   3.212   5.070   1.149
 1338SOL    HW2 4914   3.298   5.080   1.288
 1339SOL     OW 4915   0.226   3.902   0.062
 1339SOL    HW1 4916   0.310   3.932   0.017
 1339SOL    HW2 4917   0.171   3.850   7.022
 1340SOL     OW 4918   3.139   1.360   6.091
 1340SOL    HW1 4919   3.183   1.270   6.085
 1340SOL    HW2 4920   3.206   1.432   6.074
 1341SOL     OW 4921   5.365   2.288   4.261
 1341SOL    HW1 4922   5.307   2.366   4.236
 1341SOL    HW2 4923   5.324   2.239   4.337
 1342SOL     OW 4924   0.471   0.107   1.481
 1342SOL    HW1 4925   0.462   0.009   1.498
 1342SOL    HW2 4926   0.384   0.144   1.452
 1343SOL     OW 4927   2.668   6.193   3.866
 1343SOL    HW1 4928   2.623   6.268   3.817
 1343SOL    HW2 4929   2.691   6.223   3.959
 1344SOL     OW 4930   5.624   1.981   2.607
 1344SOL    HW1 4931   5.650   2.014   2.516
 1344SOL    HW2 4932   5.656   1.888   2.620
 1345SOL     OW 4933   0.150   5.829   2.607
 1345SOL    HW1 4934   0.242   5.791   2.591
 1345SOL    HW2 4935   0.105   5.845   2.519
 1346SOL     OW 4936   0.014   1.659   3.043
 1346SOL    HW1 4937   6.979   1.582   3.063
 1346SOL    HW2 4938   0.109   1.628   3.041
 1347SOL     OW 4939   4.512   1.094   3.375
 1347SOL    HW1 4940   4.491   1.064   3.468
 1347SOL    HW2 4941   4.550   1.186   3.379
 1348SOL     OW 4942   4.789   5.576   4.433
 1348SOL    HW1 4943   4.862   5.597   4.499
 1348SOL    HW2 4944   4.746   5.661   4.404
 1349SOL     OW 4945   4.815   2.208   0.402
 1349SOL    HW1 4946   4.757   2.284   0.373
 1349SOL    HW2 4947   4.864   2.234   0.485
 1350SOL     OW 4948   2.583   0.857   4.933
 1350SOL    HW1 4949   2.665   0.877   4.986
 1350SOL    HW2 4950   2.564   0.933   4.870
 1351SOL     OW 4951   2.013   1.533   3.150
 1351SOL    HW1 4952   2.058   1.569   3.232
 1351SOL    HW2 4953   1.935   1.477   3.178
 1352SOL     OW 4954   1.330   6.407   4.744
 1352SOL    HW1 4955   1.351   6.431   4.649
 1352SOL    HW2 4956   1.405   6.353   4.782
 1353SOL     OW 4957   2.465   3.182   5.597
 1353SOL    HW1 4958   2.524   3.200   5.518
 1353SOL    HW2 4959   2.374   3.221   5.580
 1354SOL     OW 4960   0.550   6.908   0.065
 1354SOL    HW1 4961   0.471   6.901   0.126
 1354SOL    HW2 4962   0.580   6.816   0.039
 1355SOL     OW 4963   4.124   3.347   6.971
 1355SOL    HW1 4964   4.199   3.290   6.936
 1355SOL    HW2 4965   4.063   3.291   0.002
 1356SOL     OW 4966   3.208   2.625   1.776
 1356SOL    HW1 4967   3.127   2.573   1.802
 1356SOL    HW2 4968   3.185   2.691   1.705
 1357SOL     OW 4969   3.653   2.460   5.573
 1357SOL    HW1 4970   3.586   2.395   5.536
 1357SOL    HW2 4971   3.712   2.493   5.499
 1358SOL     OW 4972   1.933   3.349   5.823
 1358SOL    HW1 4973   2.030   3.326   5.816
 1358SOL    HW2 4974   1.899   3.377   5.734
 1359SOL     OW 4975   7.018   1.839   6.442
 1359SOL    HW1 4976   0.046   1.757   6.422
 1359SOL    HW2 4977   0.041   1.896   6.508
 1360SOL     OW 4978   3.402   3.716   4.068
 1360SOL    HW1 4979   3.420   3.683   4.161
 1360SOL    HW2 4980   3.483   3.702   4.012
 1361SOL     OW 4981   1.123   6.831   1.134
 1361SOL    HW1 4982   1.077   6.914   1.101
 1361SOL    HW2 4983   1.212   6.823   1.088
 1362SOL     OW 4984   2.991   1.679   6.948
 1362SOL    HW1 4985   3.067   1.659   6.886
 1362SOL    HW2 4986   2.991   1.612   7.022
 1363SOL     OW 4987   6.795   6.709   0.938
 1363SOL    HW1 4988   6.716   6.650   0.920
 1363SOL    HW2 4989   6.763   6.799   0.967
 1364SOL     OW 4990   1.281   3.766   0.989
 1364SOL    HW1 4991   1.357   3.825   0.962
 1364SOL    HW2 4992   1.317   3.681   1.029
 1365SOL     OW 4993   0.818   3.254   6.105
 1365SOL    HW1 4994   0.915   3.257   6.079
 1365SOL    HW2 4995   0.810   3.260   6.204
 1366SOL     OW 4996   3.817   0.317   1.084
 1366SOL    HW1 4997   3.860   0.396   1.128
 1366SOL    HW2 4998   3.760   0.268   1.150
 1367SOL     OW 4999   1.117   0.074   4.637
 1367SOL    HW1 5000   1.090   7.004   4.647
 1367SOL    HW2 5001   1.060   0.131   4.696
 1368SOL     OW 5002   1.546   6.383   4.447
 1368SOL    HW1 5003   1.521   6.305   4.504
 1368SOL    HW2 5004   1.644   6.402   4.455
 1369SOL     OW 5005   2.305   6.177   3.764
 1369SOL    HW1 5006   2.226   6.133   3.808
 1369SOL    HW2 5007   2.385   6.117   3.771
 1370SOL     OW 5008   0.049   2.654   2.922
 1370SOL    HW1 5009   0.111   2.606   2.859
 1370SOL    HW2 5010   7.012   2.589   2.964
 1371SOL     OW 5011   6.070   2.034   5.941
 1371SOL    HW1 5012   6.069   1.954   6.001
 1371SOL    HW2 5013   5.979   2.047   5.901
 1372SOL     OW 5014   5.436   2.285   1.614
 1372SOL    HW1 5015   5.372   2.331   1.675
 1372SOL    HW2 5016   5.514   2.250   1.666
 1373SOL     OW 5017   5.683   2.604   1.666
 1373SOL    HW1 5018   5.711   2.687   1.713
 1373SOL    HW2 5019   5.587   2.612   1.638
 1374SOL     OW 5020   4.001   3.272   2.395
 1374SOL    HW1 5021   3.917   3.317   2.363
 1374SOL    HW2 5022   4.067   3.269   2.320
 1375SOL     OW 5023   5.220   4.655   4.763
 1375SOL    HW1 5024   5.138   4.656   4.821
 1375SOL    HW2 5025   5.238   4.747   4.729
 1376SOL     OW 5026   3.033   4.213   5.584
 1376SOL    HW1 5027   3.093   4.229   5.506
 1376SOL    HW2 5028   3.065   4.267   5.662
 1377SOL     OW 5029   1.133   1.769   3.477
 1377SOL    HW1 5030   1.188   1.706   3.532
 1377SOL    HW2 5031   1.158   1.863   3.501
 1378SOL     OW 5032   4.579   2.165   4.538
 1378SOL    HW1 5033   4.531   2.095   4.484
 1378SOL    HW2 5034   4.520   2.198   4.611
 1379SOL     OW 5035   4.364   5.402   0.090
 1379SOL    HW1 5036   4.382   5.304   0.086
 1379SOL    HW2 5037   4.417   5.449   0.018
 1380SOL     OW 5038   0.258   5.859   4.145
 1380SOL    HW1 5039   0.209   5.944   4.161
 1380SOL    HW2 5040   0.287   5.853   4.050
 1381SOL     OW 5041   6.392   2.861   5.918
 1381SOL    HW1 5042   6.440   2.837   6.002
 1381SOL    HW2 5043   6.412   2.956   5.894
 1382SOL     OW 5044   4.063   2.007   6.024
 1382SOL    HW1 5045   3.994   2.002   6.096
 1382SOL    HW2 5046   4.154   2.006   6.065
 1383SOL     OW 5047   6.156   0.622   1.103
 1383SOL    HW1 5048   6.245   0.661   1.127
 1383SOL    HW2 5049   6.169   0.535   1.056
 1384SOL     OW 5050   6.084   2.428   2.015
 1384SOL    HW1 5051   6.012   2.459   1.953
 1384SOL    HW2 5052   6.060   2.451   2.109
 1385SOL     OW 5053   7.000   6.251   1.768
 1385SOL    HW1 5054   0.051   6.312   1.787
 1385SOL    HW2 5055   7.006   6.171   1.827
 1386SOL     OW 5056   1.984   6.942   3.772
 1386SOL    HW1 5057   1.936   6.854   3.771
 1386SOL    HW2 5058   2.048   6.946   3.695
 1387SOL     OW 5059   1.563   5.844   1.545
 1387SOL    HW1 5060   1.561   5.820   1.448
 1387SOL    HW2 5061   1.656   5.868   1.571
 1388SOL     OW 5062   6.518   0.296   1.656
 1388SOL    HW1 5063   6.546   0.389   1.679
 1388SOL    HW2 5064   6.424   0.281   1.689
 1389SOL     OW 5065   6.235   1.040   2.078
 1389SOL    HW1 5066   6.282   1.126   2.060
 1389SOL    HW2 5067   6.174   1.051   2.156
 1390SOL     OW 5068   1.502   1.863   4.423
 1390SOL    HW1 5069   1.499   1.826   4.330
 1390SOL    HW2 5070   1.497   1.963   4.420
 1391SOL     OW 5071   0.667   2.892   3.859
 1391SOL    HW1 5072   0.704   2.800   3.844
 1391SOL    HW2 5073   0.619   2.922   3.776
 1392SOL     OW 5074   5.389   4.475   4.172
 1392SOL    HW1 5075   5.441   4.437   4.096
 1392SOL    HW2 5076   5.318   4.410   4.199
 1393SOL     OW 5077   3.738   4.876   6.806
 1393SOL    HW1 5078   3.665   4.857   6.741
 1393SOL    HW2 5079   3.720   4.962   6.853
 1394SOL     OW 5080   1.225   6.514   7.024
 1394SOL    HW1 5081   1.147   6.570   0.025
 1394SOL    HW2 5082   1.192   6.429   6.982
 1395SOL     OW 5083   3.764   4.616   5.976
 1395SOL    HW1 5084   3.745   4.518   5.969
 1395SOL    HW2 5085   3.769   4.656   5.885
 1396SOL     OW 5086   5.838   6.092   3.501
 1396SOL    HW1 5087   5.903   6.152   3.547
 1396SOL    HW2 5088   5.872   6.071   3.409
 1397SOL     OW 5089   4.930   6.266   5.009
 1397SOL    HW1 5090   4.886   6.302   5.091
 1397SOL    HW2 5091   4.994   6.194   5.033
 1398SOL     OW 5092   1.770   0.688   4.738
 1398SOL    HW1 5093   1.803   0.782   4.730
 1398SOL    HW2 5094   1.671   0.686   4.724
 1399SOL     OW 5095   3.177   5.515   2.357
 1399SOL    HW1 5096   3.162   5.526   2.259
 1399SOL    HW2 5097   3.088   5.504   2.403
 1400SOL     OW 5098   0.926   0.152   2.744
 1400SOL    HW1 5099   0.979   0.073   2.714
 1400SOL    HW2 5100   0.933   0.225   2.676
 1401SOL     OW 5101   6.541   1.804   4.236
 1401SOL    HW1 5102   6.469   1.738   4.257
 1401SOL    HW2 5103   6.500   1.888   4.201
 1402SOL     OW 5104   6.195   3.135   6.829
 1402SOL    HW1 5105   6.140   3.111   6.909
 1402SOL    HW2 5106   6.158   3.090   6.748
 1403SOL     OW 5107   3.588   0.339   1.822
 1403SOL    HW1 5108   3.618   0.375   1.910
 1403SOL    HW2 5109   3.563   0.415   1.762
 1404SOL     OW 5110   5.294   2.103   0.756
 1404SOL    HW1 5111   5.232   2.025   0.751
 1404SOL    HW2 5112   5.248   2.185   0.721
 1405SOL     OW 5113   3.310   2.727   1.398
 1405SOL    HW1 5114   3.264   2.640   1.380
 1405SOL    HW2 5115   3.250   2.786   1.451
 1406SOL     OW 5116   1.364   3.842   1.849
 1406SOL    HW1 5117   1.316   3.760   1.878
 1406SOL    HW2 5118   1.453   3.847   1.894
 1407SOL     OW 5119   0.104   2.457   2.493
 1407SOL    HW1 5120   0.049   2.515   2.553
 1407SOL    HW2 5121   0.124   2.371   2.540
 1408SOL     OW 5122   6.082   6.043   6.320
 1408SOL    HW1 5123   6.032   6.001   6.244
 1408SOL    HW2 5124   6.180   6.034   6.304
 1409SOL     OW 5125   0.149   1.447   3.876
 1409SOL    HW1 5126   0.098   1.395   3.809
 1409SOL    HW2 5127   0.226   1.392   3.910
 1410SOL     OW 5128   6.275   1.841   7.009
 1410SOL    HW1 5129   6.330   1.912   6.964
 1410SOL    HW2 5130   6.180   1.872   7.014
 1411SOL     OW 5131   1.912   0.880   2.015
 1411SOL    HW1 5132   1.931   0.783   2.001
 1411SOL    HW2 5133   1.921   0.902   2.113
 1412SOL     OW 5134   0.994   2.712   6.889
 1412SOL    HW1 5135   0.954   2.771   6.959
 1412SOL    HW2 5136   1.093   2.705   6.905
 1413SOL     OW 5137   2.381   6.920   3.007
 1413SOL    HW1 5138   2.304   6.972   3.045
 1413SOL    HW2 5139   2.406   6.847   3.070
 1414SOL     OW 5140   2.413   0.584   1.879
 1414SOL    HW1 5141   2.421   0.494   1.837
 1414SOL    HW2 5142   2.378   0.575   1.972
 1415SOL     OW 5143   5.225   6.017   4.853
 1415SOL    HW1 5144   5.275   5.961   4.787
 1415SOL    HW2 5145   5.131   6.029   4.822
 1416SOL     OW 5146   4.530   5.318   3.665
 1416SOL    HW1 5147   4.618   5.365   3.665
 1416SOL    HW2 5148   4.524   5.258   3.586
 1417SOL     OW 5149   3.212   2.896   6.031
 1417SOL    HW1 5150   3.137   2.866   6.090
 1417SOL    HW2 5151   3.176   2.922   5.942
 1418SOL     OW 5152   3.478   3.866   3.336
 1418SOL    HW1 5153   3.565   3.905   3.367
 1418SOL    HW2 5154   3.405   3.898   3.396
 1419SOL     OW 5155   3.966   6.303   3.907
 1419SOL    HW1 5156   4.000   6.209   3.911
 1419SOL    HW2 5157   4.017   6.360   3.972
 1420SOL     OW 5158   0.250   6.273   2.110
 1420SOL    HW1 5159   0.299   6.198   2.153
 1420SOL    HW2 5160   0.235   6.346   2.177
 1421SOL     OW 5161   3.999   0.605   2.310
 1421SOL    HW1 5162   4.019   0.600   2.408
 1421SOL    HW2 5163   3.900   0.601   2.296
 1422SOL     OW 5164   2.571   6.949   0.569
 1422SOL    HW1 5165   2.487   6.964   0.621
 1422SOL    HW2 5166   2.564   6.991   0.479
 1423SOL     OW 5167   5.112   0.728   1.817
 1423SOL    HW1 5168   5.194   0.785   1.825
 1423SOL    HW2 5169   5.135   0.645   1.766
 1424SOL     OW 5170   6.833   5.301   2.587
 1424SOL    HW1 5171   6.745   5.323   2.629
 1424SOL    HW2 5172   6.897   5.271   2.658
 1425SOL     OW 5173   1.772   0.544   4.284
 1425SOL    HW1 5174   1.791   0.637   4.317
 1425SOL    HW2 5175   1.857   0.501   4.255
 1426SOL     OW 5176   1.759   1.343   5.292
 1426SOL    HW1 5177   1.673   1.347   5.243
 1426SOL    HW2 5178   1.741   1.331   5.390
 1427SOL     OW 5179   5.491   0.860   5.552
 1427SOL    HW1 5180   5.400   0.894   5.577
 1427SOL    HW2 5181   5.525   0.911   5.473
 1428SOL     OW 5182   5.436   1.037   0.137
 1428SOL    HW1 5183   5.357   1.084   0.098
 1428SOL    HW2 5184   5.487   1.100   0.196
 1429SOL     OW 5185   5.782   6.649   6.908
 1429SOL    HW1 5186   5.843   6.592   6.962
 1429SOL    HW2 5187   5.830   6.681   6.826
 1430SOL     OW 5188   2.177   4.376   3.214
 1430SOL    HW1 5189   2.175   4.337   3.306
 1430SOL    HW2 5190   2.268   4.362   3.174
 1431SOL     OW 5191   1.597   0.385   0.688
 1431SOL    HW1 5192   1.681   0.395   0.634
 1431SOL    HW2 5193   1.542   0.468   0.679
 1432SOL     OW 5194   3.090   0.252   0.920
 1432SOL    HW1 5195   3.170   0.267   0.862
 1432SOL    HW2 5196   3.063   0.338   0.963
 1433SOL     OW 5197   4.295   0.276   4.056
 1433SOL    HW1 5198   4.252   0.193   4.021
 1433SOL    HW2 5199   4.374   0.251   4.112
 1434SOL     OW 5200   1.152   0.719   5.090
 1434SOL    HW1 5201   1.115   0.730   5.183
 1434SOL    HW2 5202   1.100   0.649   5.041
 1435SOL     OW 5203   6.897   2.393   3.736
 1435SOL    HW1 5204   6.982   2.398   3.684
 1435SOL    HW2 5205   6.835   2.466   3.708
 1436SOL     OW 5206   4.585   3.845   0.738
 1436SOL    HW1 5207   4.499   3.800   0.758
 1436SOL    HW2 5208   4.650   3.779   0.700
 1437SOL     OW 5209   4.713   1.601   1.998
 1437SOL    HW1 5210   4.756   1.560   1.917
 1437SOL    HW2 5211   4.626   1.554   2.017
 1438SOL     OW 5212   2.228   0.368   1.541
 1438SOL    HW1 5213   2.186   0.437   1.600
 1438SOL    HW2 5214   2.311   0.406   1.499
 1439SOL     OW 5215   0.504   5.878   2.161
 1439SOL    HW1 5216   0.513   5.898   2.064
 1439SOL    HW2 5217   0.408   5.863   2.184
 1440SOL     OW 5218   2.071   2.820   1.890
 1440SOL    HW1 5219   2.143   2.876   1.849
 1440SOL    HW2 5220   2.038   2.862   1.974
 1441SOL     OW 5221   5.160   5.572   6.912
 1441SOL    HW1 5222   5.191   5.522   6.993
 1441SOL    HW2 5223   5.071   5.614   6.930
 1442SOL     OW 5224   5.570   5.443   0.687
 1442SOL    HW1 5225   5.667   5.466   0.695
 1442SOL    HW2 5226   5.518   5.494   0.755
 1443SOL     OW 5227   0.560   2.503   1.962
 1443SOL    HW1 5228   0.461   2.520   1.970
 1443SOL    HW2 5229   0.581   2.412   1.996
 1444SOL     OW 5230   0.857   5.487   6.330
 1444SOL    HW1 5231   0.871   5.580   6.364
 1444SOL    HW2 5232   0.768   5.454   6.359
 1445SOL     OW 5233   0.457   2.823   1.085
 1445SOL    HW1 5234   0.522   2.751   1.058
 1445SOL    HW2 5235   0.486   2.864   1.171
 1446SOL     OW 5236   6.769   5.462   0.700
 1446SOL    HW1 5237   6.834   5.523   0.654
 1446SOL    HW2 5238   6.678   5.503   0.697
 1447SOL     OW 5239   6.429   5.824   3.964
 1447SOL    HW1 5240   6.332   5.847   3.957
 1447SOL    HW2 5241   6.438   5.736   4.010
 1448SOL     OW 5242   0.790   1.439   6.347
 1448SOL    HW1 5243   0.759   1.508   6.281
 1448SOL    HW2 5244   0.730   1.360   6.343
 1449SOL     OW 5245   2.100   3.304   3.209
 1449SOL    HW1 5246   2.097   3.296   3.110
 1449SOL    HW2 5247   2.103   3.213   3.250
 1450SOL     OW 5248   3.250   1.997   3.681
 1450SOL    HW1 5249   3.326   2.038   3.630
 1450SOL    HW2 5250   3.174   1.979   3.618
 1451SOL     OW 5251   3.313   1.311   2.472
 1451SOL    HW1 5252   3.331   1.407   2.495
 1451SOL    HW2 5253   3.217   1.290   2.488
 1452SOL     OW 5254   4.100   2.760   6.560
 1452SOL    HW1 5255   4.062   2.830   6.621
 1452SOL    HW2 5256   4.033   2.687   6.548
 1453SOL     OW 5257   1.053   3.727   5.234
 1453SOL    HW1 5258   1.062   3.801   5.167
 1453SOL    HW2 5259   1.020   3.645   5.188
 1454SOL     OW 5260   3.307   2.090   2.903
 1454SOL    HW1 5261   3.397   2.054   2.878
 1454SOL    HW2 5262   3.284   2.064   2.996
 1455SOL     OW 5263   0.404   5.125   2.542
 1455SOL    HW1 5264   0.378   5.042   2.591
 1455SOL    HW2 5265   0.459   5.184   2.601
 1456SOL     OW 5266   6.267   5.978   4.218
 1456SOL    HW1 5267   6.189   6.005   4.274
 1456SOL    HW2 5268   6.317   5.905   4.263
 1457SOL     OW 5269   0.933   5.151   6.196
 1457SOL    HW1 5270   1.022   5.154   6.241
 1457SOL    HW2 5271   0.930   5.219   6.123
 1458SOL     OW 5272   5.848   5.148   5.243
 1458SOL    HW1 5273   5.945   5.170   5.249
 1458SOL    HW2 5274   5.836   5.049   5.258
 1459SOL     OW 5275   6.357   6.554   4.857
 1459SOL    HW1 5276   6.329   6.642   4.893
 1459SOL    HW2 5277   6.398   6.499   4.930
 1460SOL     OW 5278   1.936   5.916   5.197
 1460SOL    HW1 5279   1.992   5.937   5.278
 1460SOL    HW2 5280   1.982   5.847   5.142
 1461SOL     OW 5281   5.978   3.331   4.103
 1461SOL    HW1 5282   5.972   3.233   4.088
 1461SOL    HW2 5283   6.062   3.353   4.153
 1462SOL     OW 5284   0.411   1.547   1.918
 1462SOL    HW1 5285   0.358   1.621   1.962
 1462SOL    HW2 5286   0.505   1.577   1.904
 1463SOL     OW 5287   1.389   5.245   6.667
 1463SOL    HW1 5288   1.420   5.281   6.755
 1463SOL    HW2 5289   1.422   5.152   6.655
 1464SOL     OW 5290   1.159   4.432   4.586
 1464SOL    HW1 5291   1.089   4.471   4.526
 1464SOL    HW2 5292   1.249   4.464   4.557
 1465SOL     OW 5293   1.473   2.945   5.495
 1465SOL    HW1 5294   1.395   2.884   5.508
 1465SOL    HW2 5295   1.556   2.891   5.481
 1466SOL     OW 5296   5.189   1.142   2.645
 1466SOL    HW1 5297   5.278   1.147   2.690
 1466SOL    HW2 5298   5.153   1.049   2.655
 1467SOL     OW 5299   0.477   6.907   3.617
 1467SOL    HW1 5300   0.563   6.911   3.567
 1467SOL    HW2 5301   0.484   6.837   3.689
 1468SOL     OW 5302   3.886   6.378   3.048
 1468SOL    HW1 5303   3.877   6.478   3.052
 1468SOL    HW2 5304   3.823   6.337   3.114
 1469SOL     OW 5305   5.759   4.123   2.930
 1469SOL    HW1 5306   5.821   4.192   2.968
 1469SOL    HW2 5307   5.722   4.067   3.004
 1470SOL     OW 5308   6.542   2.272   2.303
 1470SOL    HW1 5309   6.474   2.281   2.375
 1470SOL    HW2 5310   6.624   2.228   2.341
 1471SOL     OW 5311   5.051   0.095   0.066
 1471SOL    HW1 5312   5.101   0.026   0.118
 1471SOL    HW2 5313   4.955   0.071   0.061
 1472SOL     OW 5314   1.836   1.165   6.642
 1472SOL    HW1 5315   1.917   1.132   6.690
 1472SOL    HW2 5316   1.842   1.140   6.545
 1473SOL     OW 5317   1.461   5.911   3.275
 1473SOL    HW1 5318   1.541   5.970   3.287
 1473SOL    HW2 5319   1.380   5.968   3.260
 1474SOL     OW 5320   1.970   4.894   2.347
 1474SOL    HW1 5321   2.016   4.845   2.274
 1474SOL    HW2 5322   2.037   4.946   2.401
 1475SOL     OW 5323   6.179   0.281   6.646
 1475SOL    HW1 5324   6.116   0.268   6.569
 1475SOL    HW2 5325   6.249   0.210   6.644
 1476SOL     OW 5326   5.557   6.950   6.135
 1476SOL    HW1 5327   5.492   6.885   6.174
 1476SOL    HW2 5328   5.613   6.989   6.208
 1477SOL     OW 5329   3.247   4.237   1.712
 1477SOL    HW1 5330   3.163   4.291   1.716
 1477SOL    HW2 5331   3.243   4.162   1.777
 1478SOL     OW 5332   4.841   4.642   6.216
 1478SOL    HW1 5333   4.820   4.549   6.244
 1478SOL    HW2 5334   4.898   4.686   6.285
 1479SOL     OW 5335   4.826   4.337   0.951
 1479SOL    HW1 5336   4.871   4.317   0.864
 1479SOL    HW2 5337   4.849   4.430   0.980
 1480SOL     OW 5338   2.650   0.955   4.571
 1480SOL    HW1 5339   2.748   0.968   4.565
 1480SOL    HW2 5340   2.610   0.955   4.479
 1481SOL     OW 5341   4.501   2.225   5.751
 1481SOL    HW1 5342   4.449   2.278   5.819
 1481SOL    HW2 5343   4.472   2.130   5.755
 1482SOL     OW 5344   6.334   1.227   1.745
 1482SOL    HW1 5345   6.250   1.268   1.709
 1482SOL    HW2 5346   6.347   1.256   1.840
 1483SOL     OW 5347   6.286   0.270   6.910
 1483SOL    HW1 5348   6.372   0.219   6.909
 1483SOL    HW2 5349   6.238   0.257   6.823
 1484SOL     OW 5350   3.357   5.906   5.306
 1484SOL    HW1 5351   3.446   5.919   5.350
 1484SOL    HW2 5352   3.341   5.808   5.293
 1485SOL     OW 5353   4.871   3.807   3.829
 1485SOL    HW1 5354   4.863   3.878   3.898
 1485SOL    HW2 5355   4.835   3.840   3.742
 1486SOL     OW 5356   4.960   6.149   4.016
 1486SOL    HW1 5357   5.059   6.154   4.032
 1486SOL    HW2 5358   4.942   6.097   3.932
 1487SOL     OW 5359   5.934   1.093   0.340
 1487SOL    HW1 5360   5.873   1.169   0.316
 1487SOL    HW2 5361   5.988   1.067   0.260
 1488SOL     OW 5362   6.454   2.510   2.862
 1488SOL    HW1 5363   6.541   2.490   2.818
 1488SOL    HW2 5364   6.402   2.425   2.875
 1489SOL     OW 5365   3.037   4.910   0.083
 1489SOL    HW1 5366   3.035   4.841   0.010
 1489SOL    HW2 5367   3.041   5.001   0.042
 1490SOL     OW 5368   6.811   3.176   2.279
 1490SOL    HW1 5369   6.897   3.181   2.329
 1490SOL    HW2 5370   6.830   3.156   2.183
 1491SOL     OW 5371   5.123   2.979   3.829
 1491SOL    HW1 5372   5.028   2.967   3.800
 1491SOL    HW2 5373   5.170   3.039   3.764
 1492SOL     OW 5374   0.799   2.375   2.351
 1492SOL    HW1 5375   0.819   2.342   2.259
 1492SOL    HW2 5376   0.738   2.310   2.397
 1493SOL     OW 5377   6.055   2.303   6.514
 1493SOL    HW1 5378   5.984   2.233   6.522
 1493SOL    HW2 5379   6.089   2.304   6.420
 1494SOL     OW 5380   0.587   4.347   6.239
 1494SOL    HW1 5381   0.536   4.422   6.282
 1494SOL    HW2 5382   0.548   4.259   6.267
 1495SOL     OW 5383   6.813   4.088   4.031
 1495SOL    HW1 5384   6.744   4.154   4.062
 1495SOL    HW2 5385   6.887   4.138   3.985
 1496SOL     OW 5386   6.907   6.323   5.932
 1496SOL    HW1 5387   6.931   6.389   5.861
 1496SOL    HW2 5388   6.945   6.233   5.907
 1497SOL     OW 5389   5.486   2.478   2.272
 1497SOL    HW1 5390   5.509   2.550   2.206
 1497SOL    HW2 5391   5.538   2.492   2.356
 1498SOL     OW 5392   3.981   4.556   0.745
 1498SOL    HW1 5393   3.892   4.595   0.769
 1498SOL    HW2 5394   4.038   4.627   0.704
 1499SOL     OW 5395   0.234   4.586   4.090
 1499SOL    HW1 5396   0.213   4.521   4.162
 1499SOL    HW2 5397   0.247   4.678   4.129
 1500SOL     OW 5398   1.959   5.547   2.106
 1500SOL    HW1 5399   2.031   5.501   2.055
 1500SOL    HW2 5400   1.907   5.480   2.159
 1501SOL     OW 5401   6.560   1.712   0.743
 1501SOL    HW1 5402   6.526   1.677   0.830
 1501SOL    HW2 5403   6.494   1.692   0.670
 1502SOL     OW 5404   0.302   6.445   6.521
 1502SOL    HW1 5405   0.266   6.495   6.599
 1502SOL    HW2 5406   0.236   6.448   6.446
 1503SOL     OW 5407   0.085   5.037   1.568
 1503SOL    HW1 5408   0.119   5.089   1.647
 1503SOL    HW2 5409   7.013   5.021   1.577
 1504SOL     OW 5410   1.541   0.055   3.230
 1504SOL    HW1 5411   1.551   0.000   3.147
 1504SOL    HW2 5412   1.444   0.074   3.247
 1505SOL     OW 5413   6.441   4.986   5.024
 1505SOL    HW1 5414   6.342   4.980   5.015
 1505SOL    HW2 5415   6.478   5.038   4.947
 1506SOL     OW 5416   1.351   0.947   0.941
 1506SOL    HW1 5417   1.362   0.864   0.995
 1506SOL    HW2 5418   1.294   0.928   0.861
 1507SOL     OW 5419   2.700   2.253   3.251
 1507SOL    HW1 5420   2.770   2.258   3.179
 1507SOL    HW2 5421   2.732   2.302   3.332
 1508SOL     OW 5422   1.872   0.372   1.852
 1508SOL    HW1 5423   1.951   0.359   1.912
 1508SOL    HW2 5424   1.868   0.467   1.822
 1509SOL     OW 5425   4.824   1.403   4.273
 1509SOL    HW1 5426   4.786   1.341   4.341
 1509SOL    HW2 5427   4.899   1.456   4.314
 1510SOL     OW 5428   3.556   6.220   5.066
 1510SOL    HW1 5429   3.580   6.308   5.024
 1510SOL    HW2 5430   3.481   6.178   5.015
 1511SOL     OW 5431   3.471   4.199   5.292
 1511SOL    HW1 5432   3.403   4.146   5.243
 1511SOL    HW2 5433   3.556   4.147   5.298
 1512SOL     OW 5434   5.112   6.381   0.740
 1512SOL    HW1 5435   5.142   6.316   0.810
 1512SOL    HW2 5436   5.104   6.333   0.652
 1513SOL     OW 5437   2.962   0.814   5.892
 1513SOL    HW1 5438   2.893   0.750   5.858
 1513SOL    HW2 5439   2.935   0.907   5.869
 1514SOL     OW 5440   2.976   2.285   0.037
 1514SOL    HW1 5441   3.007   2.377   0.060
 1514SOL    HW2 5442   2.885   2.271   0.075
 1515SOL     OW 5443   3.518   0.683   2.071
 1515SOL    HW1 5444   3.506   0.769   2.120
 1515SOL    HW2 5445   3.478   0.691   1.979
 1516SOL     OW 5446   6.420   6.666   6.319
 1516SOL    HW1 5447   6.453   6.685   6.226
 1516SOL    HW2 5448   6.399   6.569   6.327
 1517SOL     OW 5449   2.641   6.202   2.902
 1517SOL    HW1 5450   2.561   6.250   2.937
 1517SOL    HW2 5451   2.722   6.234   2.952
 1518SOL     OW 5452   0.860   3.132   0.028
 1518SOL    HW1 5453   0.881   3.156   6.959
 1518SOL    HW2 5454   0.799   3.053   0.030
 1519SOL     OW 5455   0.217   4.223   6.810
 1519SOL    HW1 5456   0.152   4.207   6.736
 1519SOL    HW2 5457   0.172   4.204   6.898
 1520SOL     OW 5458   0.179   6.722   3.687
 1520SOL    HW1 5459   0.218   6.757   3.602
 1520SOL    HW2 5460   0.250   6.721   3.758
 1521SOL     OW 5461   1.664   4.853   6.271
 1521SOL    HW1 5462   1.742   4.853   6.208
 1521SOL    HW2 5463   1.614   4.939   6.263
 1522SOL     OW 5464   5.400   6.735   4.486
 1522SOL    HW1 5465   5.449   6.650   4.505
 1522SOL    HW2 5466   5.395   6.749   4.387
 1523SOL     OW 5467   2.512   6.484   0.594
 1523SOL    HW1 5468   2.425   6.448   0.627
 1523SOL    HW2 5469   2.565   6.519   0.672
 1524SOL     OW 5470   1.989   2.473   3.974
 1524SOL    HW1 5471   2.028   2.533   4.044
 1524SOL    HW2 5472   1.990   2.519   3.886
 1525SOL     OW 5473   5.185   4.187   6.207
 1525SOL    HW1 5474   5.282   4.175   6.183
 1525SOL    HW2 5475   5.178   4.210   6.304
 1526SOL     OW 5476   1.133   1.507   1.220
 1526SOL    HW1 5477   1.073   1.428   1.207
 1526SOL    HW2 5478   1.136   1.530   1.317
 1527SOL     OW 5479   4.784   1.219   5.046
 1527SOL    HW1 5480   4.775   1.304   5.099
 1527SOL    HW2 5481   4.879   1.208   5.017
 1528SOL     OW 5482   3.497   3.120   2.351
 1528SOL    HW1 5483   3.481   3.103   2.254
 1528SOL    HW2 5484   3.441   3.058   2.405
 1529SOL     OW 5485   4.315   1.408   5.700
 1529SOL    HW1 5486   4.271   1.411   5.790
 1529SOL    HW2 5487   4.366   1.493   5.686
 1530SOL     OW 5488   2.214   0.007   1.169
 1530SOL    HW1 5489   2.190   0.104   1.174
 1530SOL    HW2 5490   2.255   7.013   1.080
 1531SOL     OW 5491   5.080   6.011   4.387
 1531SOL    HW1 5492   5.129   5.996   4.301
 1531SOL    HW2 5493   5.006   6.077   4.372
 1532SOL     OW 5494   2.435   5.956   1.595
 1532SOL    HW1 5495   2.378   5.957   1.513
 1532SOL    HW2 5496   2.501   6.031   1.590
 1533SOL     OW 5497   5.979   6.211   1.087
 1533SOL    HW1 5498   6.054   6.146   1.102
 1533SOL    HW2 5499   5.955   6.213   0.990
 1534SOL     OW 5500   2.086   4.604   6.714
 1534SOL    HW1 5501   2.148   4.531   6.686
 1534SOL    HW2 5502   2.044   4.645   6.633
 1535SOL     OW 5503   5.139   4.080   3.780
 1535SOL    HW1 5504   5.046   4.110   3.761
 1535SOL    HW2 5505   5.137   4.011   3.852
 1536SOL     OW 5506   4.105   4.435   6.529
 1536SOL    HW1 5507   4.086   4.438   6.628
 1536SOL    HW2 5508   4.187   4.380   6.512
 1537SOL     OW 5509   2.889   5.194   2.720
 1537SOL    HW1 5510   2.824   5.243   2.662
 1537SOL    HW2 5511   2.906   5.103   2.682
 1538SOL     OW 5512   2.942   1.019   0.485
 1538SOL    HW1 5513   2.882   1.098   0.492
 1538SOL    HW2 5514   2.909   0.957   0.414
 1539SOL     OW 5515   6.925   3.479   0.860
 1539SOL    HW1 5516   6.951   3.407   0.796
 1539SOL    HW2 5517   6.973   3.466   0.947
 1540SOL     OW 5518   3.509   6.453   3.436
 1540SOL    HW1 5519   3.594   6.501   3.456
 1540SOL    HW2 5520   3.457   6.504   3.368
 1541SOL     OW 5521   4.525   2.782   5.456
 1541SOL    HW1 5522   4.455   2.783   5.384
 1541SOL    HW2 5523   4.520   2.695   5.506
 1542SOL     OW 5524   6.899   5.513   2.898
 1542SOL    HW1 5525   6.996   5.501   2.876
 1542SOL    HW2 5526   6.870   5.604   2.869
 1543SOL     OW 5527   2.972   5.421   0.616
 1543SOL    HW1 5528   2.988   5.486   0.691
 1543SOL    HW2 5529   3.003   5.330   0.643
 1544SOL     OW 5530   4.077   3.258   4.176
 1544SOL    HW1 5531   4.142   3.304   4.115
 1544SOL    HW2 5532   3.987   3.255   4.132
 1545SOL     OW 5533   5.955   5.489   1.425
 1545SOL    HW1 5534   5.985   5.578   1.389
 1545SOL    HW2 5535   5.964   5.489   1.525
 1546SOL     OW 5536   6.244   6.389   5.323
 1546SOL    HW1 5537   6.217   6.482   5.349
 1546SOL    HW2 5538   6.163   6.330   5.322
 1547SOL     OW 5539   1.932   3.372   6.086
 1547SOL    HW1 5540   2.019   3.335   6.117
 1547SOL    HW2 5541   1.919   3.350   5.989
 1548SOL     OW 5542   6.446   2.236   0.541
 1548SOL    HW1 5543   6.366   2.258   0.485
 1548SOL    HW2 5544   6.489   2.152   0.507
 1549SOL     OW 5545   4.797   0.953   4.830
 1549SOL    HW1 5546   4.801   0.889   4.753
 1549SOL    HW2 5547   4.831   0.908   4.913
 1550SOL     OW 5548   3.146   3.086   4.117
 1550SOL    HW1 5549   3.104   3.027   4.048
 1550SOL    HW2 5550   3.079   3.151   4.152
 1551SOL     OW 5551   6.674   4.964   5.789
 1551SOL    HW1 5552   6.579   4.948   5.764
 1551SOL    HW2 5553   6.679   5.035   5.859
 1552SOL     OW 5554   1.949   4.440   1.542
 1552SOL    HW1 5555   1.854   4.409   1.537
 1552SOL    HW2 5556   1.957   4.529   1.497
 1553SOL     OW 5557   1.877   2.184   5.656
 1553SOL    HW1 5558   1.948   2.152   5.594
 1553SOL    HW2 5559   1.863   2.282   5.642
 1554SOL     OW 5560   4.568   1.746   3.208
 1554SOL    HW1 5561   4.499   1.813   3.183
 1554SOL    HW2 5562   4.549   1.710   3.299
 1555SOL     OW 5563   5.774   5.076   5.565
 1555SOL    HW1 5564   5.702   5.014   5.534
 1555SOL    HW2 5565   5.802   5.052   5.658
 1556SOL     OW 5566   1.769   1.033   6.000
 1556SOL    HW1 5567   1.705   1.081   5.941
 1556SOL    HW2 5568   1.845   1.094   6.024
 1557SOL     OW 5569   0.914   1.953   5.297
 1557SOL    HW1 5570   0.996   1.931   5.349
 1557SOL    HW2 5571   0.842   1.887   5.320
 1558SOL     OW 5572   0.140   6.717   4.627
 1558SOL    HW1 5573   0.159   6.640   4.567
 1558SOL    HW2 5574   0.041   6.729   4.635
 1559SOL     OW 5575   1.187   1.243   5.759
 1559SOL    HW1 5576   1.096   1.209   5.781
 1559SOL    HW2 5577   1.181   1.340   5.736
 1560SOL     OW 5578   6.934   0.338   0.338
 1560SOL    HW1 5579   6.957   0.353   0.434
 1560SOL    HW2 5580   7.018   0.336   0.284
 1561SOL     OW 5581   6.201   6.558   1.835
 1561SOL    HW1 5582   6.145   6.610   1.900
 1561SOL    HW2 5583   6.228   6.471   1.876
 1562SOL     OW 5584   5.348   0.517   4.070
 1562SOL    HW1 5585   5.436   0.521   4.022
 1562SOL    HW2 5586   5.293   0.443   4.032
 1563SOL     OW 5587   3.065   6.908   6.026
 1563SOL    HW1 5588   2.965   6.898   6.028
 1563SOL    HW2 5589   3.091   6.953   5.940
 1564SOL     OW 5590   1.660   2.038   3.372
 1564SOL    HW1 5591   1.660   2.135   3.395
 1564SOL    HW2 5592   1.649   2.028   3.273
 1565SOL     OW 5593   6.323   4.610   1.158
 1565SOL    HW1 5594   6.246   4.621   1.096
 1565SOL    HW2 5595   6.306   4.661   1.242
 1566SOL     OW 5596   6.372   4.695   2.114
 1566SOL    HW1 5597   6.308   4.694   2.037
 1566SOL    HW2 5598   6.321   4.696   2.200
 1567SOL     OW 5599   6.602   5.788   5.501
 1567SOL    HW1 5600   6.548   5.779   5.584
 1567SOL    HW2 5601   6.637   5.882   5.494
 1568SOL     OW 5602   6.869   6.884   0.526
 1568SOL    HW1 5603   6.799   6.910   0.460
 1568SOL    HW2 5604   6.880   6.785   0.526
 1569SOL     OW 5605   3.162   6.387   5.619
 1569SOL    HW1 5606   3.169   6.439   5.533
 1569SOL    HW2 5607   3.076   6.410   5.664
 1570SOL     OW 5608   3.030   2.246   1.699
 1570SOL    HW1 5609   3.022   2.298   1.784
 1570SOL    HW2 5610   3.118   2.197   1.699
 1571SOL     OW 5611   0.313   3.574   1.022
 1571SOL    HW1 5612   0.331   3.539   0.930
 1571SOL    HW2 5613   0.399   3.589   1.070
 1572SOL     OW 5614   0.233   5.598   3.312
 1572SOL    HW1 5615   0.226   5.594   3.212
 1572SOL    HW2 5616   0.152   5.557   3.353
 1573SOL     OW 5617   4.579   6.573   0.257
 1573SOL    HW1 5618   4.629   6.607   0.177
 1573SOL    HW2 5619   4.576   6.473   0.255
 1574SOL     OW 5620   5.337   3.308   2.273
 1574SOL    HW1 5621   5.284   3.355   2.344
 1574SOL    HW2 5622   5.284   3.307   2.188
 1575SOL     OW 5623   3.585   2.023   0.581
 1575SOL    HW1 5624   3.497   2.071   0.587
 1575SOL    HW2 5625   3.569   1.925   0.575
 1576SOL     OW 5626   6.241   5.276   3.082
 1576SOL    HW1 5627   6.290   5.344   3.136
 1576SOL    HW2 5628   6.306   5.224   3.026
 1577SOL     OW 5629   1.598   0.480   0.199
 1577SOL    HW1 5630   1.634   0.571   0.221
 1577SOL    HW2 5631   1.498   0.485   0.191
 1578SOL     OW 5632   5.694   5.734   4.705
 1578SOL    HW1 5633   5.732   5.793   4.634
 1578SOL    HW2 5634   5.724   5.640   4.689
 1579SOL     OW 5635   0.406   0.229   3.126
 1579SOL    HW1 5636   0.378   0.169   3.201
 1579SOL    HW2 5637   0.399   0.180   3.039
 1580SOL     OW 5638   3.054   3.873   5.835
 1580SOL    HW1 5639   3.002   3.801   5.880
 1580SOL    HW2 5640   3.141   3.836   5.804
 1581SOL     OW 5641   6.134   2.977   4.568
 1581SOL    HW1 5642   6.051   3.032   4.574
 1581SOL    HW2 5643   6.150   2.930   4.655
 1582SOL     OW 5644   6.044   6.286   4.547
 1582SOL    HW1 5645   6.129   6.253   4.588
 1582SOL    HW2 5646   6.042   6.386   4.549
 1583SOL     OW 5647   1.985   2.389   1.958
 1583SOL    HW1 5648   1.988   2.466   2.022
 1583SOL    HW2 5649   1.906   2.331   1.977
 1584SOL     OW 5650   2.401   0.285   6.393
 1584SOL    HW1 5651   2.495   0.312   6.412
 1584SOL    HW2 5652   2.338   0.355   6.429
 1585SOL     OW 5653   5.911   1.060   5.965
 1585SOL    HW1 5654   5.912   1.019   6.056
 1585SOL    HW2 5655   5.980   1.016   5.908
 1586SOL     OW 5656   3.814   3.263   2.866
 1586SOL    HW1 5657   3.819   3.321   2.947
 1586SOL    HW2 5658   3.854   3.312   2.788
 1587SOL     OW 5659   2.451   6.691   6.267
 1587SOL    HW1 5660   2.462   6.716   6.363
 1587SOL    HW2 5661   2.382   6.618   6.259
 1588SOL     OW 5662   6.025   3.638   0.771
 1588SOL    HW1 5663   5.937   3.685   0.783
 1588SOL    HW2 5664   6.099   3.702   0.792
 1589SOL     OW 5665   4.861   5.022   2.926
 1589SOL    HW1 5666   4.914   4.974   2.996
 1589SOL    HW2 5667   4.875   4.977   2.837
 1590SOL     OW 5668   2.225   6.567   4.905
 1590SOL    HW1 5669   2.151   6.547   4.969
 1590SOL    HW2 5670   2.310   6.581   4.955
 1591SOL     OW 5671   1.769   3.590   0.305
 1591SOL    HW1 5672   1.769   3.535   0.389
 1591SOL    HW2 5673   1.681   3.580   0.259
 1592SOL     OW 5674   4.039   3.868   4.029
 1592SOL    HW1 5675   4.061   3.801   4.100
 1592SOL    HW2 5676   4.011   3.821   3.946
 1593SOL     OW 5677   1.396   4.549   4.255
 1593SOL    HW1 5678   1.462   4.620   4.281
 1593SOL    HW2 5679   1.307   4.590   4.240
 1594SOL     OW 5680   0.724   5.152   2.977
 1594SOL    HW1 5681   0.737   5.132   3.075
 1594SOL    HW2 5682   0.776   5.233   2.952
 1595SOL     OW 5683   0.162   3.755   5.015
 1595SOL    HW1 5684   0.224   3.709   4.952
 1595SOL    HW2 5685   0.077   3.702   5.022
 1596SOL     OW 5686   2.963   5.152   7.006
 1596SOL    HW1 5687   3.023   5.212   6.953
 1596SOL    HW2 5688   2.892   5.208   0.026
 1597SOL     OW 5689   2.398   0.679   0.635
 1597SOL    HW1 5690   2.431   0.732   0.557
 1597SOL    HW2 5691   2.298   0.669   0.629
 1598SOL     OW 5692   0.156   5.546   1.247
 1598SOL    HW1 5693   0.076   5.485   1.250
 1598SOL    HW2 5694   0.235   5.500   1.288
 1599SOL     OW 5695   3.182   5.285   0.359
 1599SOL    HW1 5696   3.162   5.383   0.361
 1599SOL    HW2 5697   3.096   5.234   0.361
 1600SOL     OW 5698   3.358   1.211   5.092
 1600SOL    HW1 5699   3.302   1.256   5.162
 1600SOL    HW2 5700   3.354   1.112   5.104
 1601SOL     OW 5701   1.533   5.342   5.009
 1601SOL    HW1 5702   1.545   5.246   4.984
 1601SOL    HW2 5703   1.479   5.348   5.093
 1602SOL     OW 5704   0.595   3.660   2.215
 1602SOL    HW1 5705   0.579   3.579   2.271
 1602SOL    HW2 5706   0.516   3.720   2.219
 1603SOL     OW 5707   5.640   6.626   0.359
 1603SOL    HW1 5708   5.584   6.543   0.360
 1603SOL    HW2 5709   5.735   6.601   0.375
 1604SOL     OW 5710   0.982   5.735   4.974
 1604SOL    HW1 5711   1.054   5.680   4.931
 1604SOL    HW2 5712   0.951   5.691   5.058
 1605SOL     OW 5713   5.630   5.372   2.328
 1605SOL    HW1 5714   5.614   5.449   2.390
 1605SOL    HW2 5715   5.579   5.292   2.360
 1606SOL     OW 5716   5.737   5.932   4.502
 1606SOL    HW1 5717   5.808   5.923   4.432
 1606SOL    HW2 5718   5.657   5.978   4.462
 1607SOL     OW 5719   4.942   3.236   1.621
 1607SOL    HW1 5720   5.025   3.257   1.569
 1607SOL    HW2 5721   4.951   3.147   1.665
 1608SOL     OW 5722   2.786   0.691   0.643
 1608SOL    HW1 5723   2.736   0.679   0.557
 1608SOL    HW2 5724   2.738   0.641   0.716
 1609SOL     OW 5725   5.264   0.997   5.649
 1609SOL    HW1 5726   5.200   1.064   5.612
 1609SOL    HW2 5727   5.219   0.942   5.719
 1610SOL     OW 5728   4.796   6.538   2.596
 1610SOL    HW1 5729   4.716   6.477   2.591
 1610SOL    HW2 5730   4.828   6.544   2.690
 1611SOL     OW 5731   4.423   3.557   1.387
 1611SOL    HW1 5732   4.377   3.626   1.333
 1611SOL    HW2 5733   4.491   3.509   1.330
 1612SOL     OW 5734   3.253   0.488   4.888
 1612SOL    HW1 5735   3.287   0.438   4.808
 1612SOL    HW2 5736   3.166   0.449   4.917
 1613SOL     OW 5737   1.770   0.644   0.952
 1613SOL    HW1 5738   1.783   0.554   0.912
 1613SOL    HW2 5739   1.851   0.700   0.935
 1614SOL     OW 5740   0.082   2.671   5.315
 1614SOL    HW1 5741   0.173   2.635   5.338
 1614SOL    HW2 5742   0.086   2.771   5.310
 1615SOL     OW 5743   6.546   4.858   5.411
 1615SOL    HW1 5744   6.600   4.818   5.485
 1615SOL    HW2 5745   6.569   4.811   5.325
 1616SOL     OW 5746   2.378   2.190   6.467
 1616SOL    HW1 5747   2.445   2.260   6.445
 1616SOL    HW2 5748   2.338   2.154   6.383
 1617SOL     OW 5749   3.776   0.693   3.887
 1617SOL    HW1 5750   3.791   0.600   3.922
 1617SOL    HW2 5751   3.720   0.744   3.952
 1618SOL     OW 5752   5.527   2.690   2.114
 1618SOL    HW1 5753   5.519   2.623   2.040
 1618SOL    HW2 5754   5.462   2.764   2.098
 1619SOL     OW 5755   1.594   2.883   4.887
 1619SOL    HW1 5756   1.523   2.946   4.856
 1619SOL    HW2 5757   1.574   2.852   4.980
 1620SOL     OW 5758   3.615   6.254   1.885
 1620SOL    HW1 5759   3.622   6.168   1.935
 1620SOL    HW2 5760   3.623   6.237   1.787
 1621SOL     OW 5761   2.088   1.662   1.924
 1621SOL    HW1 5762   2.045   1.750   1.905
 1621SOL    HW2 5763   2.188   1.673   1.923
 1622SOL     OW 5764   2.285   2.290   5.077
 1622SOL    HW1 5765   2.323   2.357   5.141
 1622SOL    HW2 5766   2.254   2.338   4.994
 1623SOL     OW 5767   2.055   2.243   4.714
 1623SOL    HW1 5768   2.079   2.296   4.633
 1623SOL    HW2 5769   2.138   2.221   4.765
 1624SOL     OW 5770   2.261   0.965   0.741
 1624SOL    HW1 5771   2.337   0.902   0.756
 1624SOL    HW2 5772   2.204   0.932   0.666
 1625SOL     OW 5773   0.913   6.597   1.131
 1625SOL    HW1 5774   0.964   6.679   1.158
 1625SOL    HW2 5775   0.849   6.573   1.205
 1626SOL     OW 5776   2.361   3.048   6.341
 1626SOL    HW1 5777   2.292   3.007   6.401
 1626SOL    HW2 5778   2.376   2.989   6.262
 1627SOL     OW 5779   4.819   3.885   3.553
 1627SOL    HW1 5780   4.804   3.890   3.454
 1627SOL    HW2 5781   4.831   3.977   3.589
 1628SOL     OW 5782   2.836   3.324   7.023
 1628SOL    HW1 5783   2.821   3.234   6.982
 1628SOL    HW2 5784   2.763   3.342   0.064
 1629SOL     OW 5785   3.059   2.206   2.807
 1629SOL    HW1 5786   3.082   2.214   2.711
 1629SOL    HW2 5787   3.139   2.173   2.858
 1630SOL     OW 5788   5.967   5.023   4.340
 1630SOL    HW1 5789   6.050   4.988   4.297
 1630SOL    HW2 5790   5.991   5.079   4.419
 1631SOL     OW 5791   0.950   7.015   6.363
 1631SOL    HW1 5792   0.977   0.071   6.312
 1631SOL    HW2 5793   0.867   6.977   6.323
 1632SOL     OW 5794   4.700   6.744   0.072
 1632SOL    HW1 5795   4.759   6.692   0.009
 1632SOL    HW2 5796   4.757   6.799   0.133
 1633SOL     OW 5797   6.128   3.832   3.301
 1633SOL    HW1 5798   6.091   3.767   3.235
 1633SOL    HW2 5799   6.129   3.790   3.392
 1634SOL     OW 5800   3.820   1.097   0.950
 1634SOL    HW1 5801   3.919   1.107   0.950
 1634SOL    HW2 5802   3.782   1.136   0.866
 1635SOL     OW 5803   1.295   4.726   3.734
 1635SOL    HW1 5804   1.371   4.704   3.673
 1635SOL    HW2 5805   1.324   4.712   3.829
 1636SOL     OW 5806   2.583   6.443   0.164
 1636SOL    HW1 5807   2.590   6.389   0.248
 1636SOL    HW2 5808   2.672   6.442   0.116
 1637SOL     OW 5809   1.038   2.556   2.600
 1637SOL    HW1 5810   1.118   2.616   2.608
 1637SOL    HW2 5811   1.028   2.502   2.683
 1638SOL     OW 5812   1.416   2.348   5.865
 1638SOL    HW1 5813   1.356   2.368   5.943
 1638SOL    HW2 5814   1.507   2.386   5.883
 1639SOL     OW 5815   4.046   4.759   2.325
 1639SOL    HW1 5816   3.975   4.791   2.388
 1639SOL    HW2 5817   4.132   4.748   2.373
 1640SOL     OW 5818   5.399   6.802   1.313
 1640SOL    HW1 5819   5.433   6.799   1.406
 1640SOL    HW2 5820   5.440   6.879   1.264
 1641SOL     OW 5821   7.017   2.604   5.058
 1641SOL    HW1 5822   0.032   2.627   5.147
 1641SOL    HW2 5823   0.016   2.674   4.991
 1642SOL     OW 5824   0.843   2.358   1.911
 1642SOL    HW1 5825   0.834   2.451   1.948
 1642SOL    HW2 5826   0.841   2.362   1.811
 1643SOL     OW 5827   3.581   0.651   5.761
 1643SOL    HW1 5828   3.555   0.713   5.835
 1643SOL    HW2 5829   3.665   0.683   5.718
 1644SOL     OW 5830   4.119   0.754   0.501
 1644SOL    HW1 5831   4.094   0.793   0.589
 1644SOL    HW2 5832   4.217   0.737   0.498
 1645SOL     OW 5833   2.241   6.035   6.618
 1645SOL    HW1 5834   2.182   6.038   6.537
 1645SOL    HW2 5835   2.198   6.088   6.692
 1646SOL     OW 5836   2.141   3.925   0.139
 1646SOL    HW1 5837   2.149   3.857   0.066
 1646SOL    HW2 5838   2.097   3.883   0.219
 1647SOL     OW 5839   5.707   3.190   2.769
 1647SOL    HW1 5840   5.645   3.134   2.714
 1647SOL    HW2 5841   5.706   3.284   2.735
 1648SOL     OW 5842   3.405   0.215   2.736
 1648SOL    HW1 5843   3.308   0.202   2.718
 1648SOL    HW2 5844   3.449   0.125   2.743
 1649SOL     OW 5845   2.562   0.446   3.411
 1649SOL    HW1 5846   2.585   0.422   3.505
 1649SOL    HW2 5847   2.629   0.404   3.349
 1650SOL     OW 5848   3.141   6.892   3.999
 1650SOL    HW1 5849   3.175   6.863   3.910
 1650SOL    HW2 5850   3.052   6.851   4.015
 1651SOL     OW 5851   1.172   6.831   2.065
 1651SOL    HW1 5852   1.186   6.779   2.149
 1651SOL    HW2 5853   1.077   6.862   2.060
 1652SOL     OW 5854   3.290   3.358   1.739
 1652SOL    HW1 5855   3.386   3.346   1.763
 1652SOL    HW2 5856   3.252   3.435   1.791
 1653SOL     OW 5857   1.291   4.886   1.250
 1653SOL    HW1 5858   1.336   4.975   1.239
 1653SOL    HW2 5859   1.337   4.819   1.191
 1654SOL     OW 5860   0.379   2.049   4.011
 1654SOL    HW1 5861   0.450   2.029   3.944
 1654SOL    HW2 5862   0.419   2.047   4.103
 1655SOL     OW 5863   4.427   4.147   5.524
 1655SOL    HW1 5864   4.406   4.162   5.621
 1655SOL    HW2 5865   4.411   4.232   5.474
 1656SOL     OW 5866   0.349   4.089   2.010
 1656SOL    HW1 5867   0.258   4.095   2.052
 1656SOL    HW2 5868   0.348   4.139   1.923
 1657SOL     OW 5869   1.009   0.521   5.338
 1657SOL    HW1 5870   1.017   0.618   5.316
 1657SOL    HW2 5871   0.939   0.509   5.409
 1658SOL     OW 5872   5.884   6.707   2.702
 1658SOL    HW1 5873   5.939   6.646   2.758
 1658SOL    HW2 5874   5.944   6.758   2.639
 1659SOL     OW 5875   5.357   2.264   6.199
 1659SOL    HW1 5876   5.448   2.304   6.190
 1659SOL    HW2 5877   5.327   2.270   6.294
 1660SOL     OW 5878   2.237   6.533   3.383
 1660SOL    HW1 5879   2.280   6.598   3.445
 1660SOL    HW2 5880   2.279   6.442   3.394
 1661SOL     OW 5881   2.999   0.419   3.097
 1661SOL    HW1 5882   2.963   0.341   3.045
 1661SOL    HW2 5883   3.049   0.480   3.035
 1662SOL     OW 5884   6.333   0.802   2.989
 1662SOL    HW1 5885   6.422   0.790   2.944
 1662SOL    HW2 5886   6.347   0.808   3.088
 1663SOL     OW 5887   1.706   0.600   3.565
 1663SOL    HW1 5888   1.744   0.531   3.628
 1663SOL    HW2 5889   1.713   0.690   3.606
 1664SOL     OW 5890   2.242   5.526   4.622
 1664SOL    HW1 5891   2.259   5.554   4.528
 1664SOL    HW2 5892   2.174   5.587   4.663
 1665SOL     OW 5893   0.317   1.109   3.528
 1665SOL    HW1 5894   0.334   1.119   3.626
 1665SOL    HW2 5895   0.395   1.064   3.485
 1666SOL     OW 5896   5.425   2.928   5.864
 1666SOL    HW1 5897   5.517   2.901   5.890
 1666SOL    HW2 5898   5.361   2.854   5.885
 1667SOL     OW 5899   6.816   0.829   0.618
 1667SOL    HW1 5900   6.764   0.838   0.533
 1667SOL    HW2 5901   6.868   0.744   0.616
 1668SOL     OW 5902   1.396   0.478   4.799
 1668SOL    HW1 5903   1.324   0.427   4.847
 1668SOL    HW2 5904   1.463   0.512   4.865
 1669SOL     OW 5905   5.438   6.140   6.057
 1669SOL    HW1 5906   5.438   6.171   5.961
 1669SOL    HW2 5907   5.532   6.141   6.092
 1670SOL     OW 5908   6.773   3.212   6.569
 1670SOL    HW1 5909   6.794   3.151   6.492
 1670SOL    HW2 5910   6.711   3.284   6.538
 1671SOL     OW 5911   5.456   5.393   6.969
 1671SOL    HW1 5912   5.409   5.404   0.032
 1671SOL    HW2 5913   5.391   5.364   6.900
 1672SOL     OW 5914   1.715   5.103   2.567
 1672SOL    HW1 5915   1.622   5.135   2.544
 1672SOL    HW2 5916   1.782   5.170   2.535
 1673SOL     OW 5917   6.071   3.079   3.626
 1673SOL    HW1 5918   6.146   3.014   3.624
 1673SOL    HW2 5919   6.083   3.140   3.705
 1674SOL     OW 5920   2.340   5.899   0.042
 1674SOL    HW1 5921   2.395   5.913   0.125
 1674SOL    HW2 5922   2.261   5.960   0.045
 1675SOL     OW 5923   4.505   2.062   0.127
 1675SOL    HW1 5924   4.537   1.976   0.165
 1675SOL    HW2 5925   4.430   2.043   0.063
 1676SOL     OW 5926   3.084   1.282   4.130
 1676SOL    HW1 5927   3.143   1.332   4.067
 1676SOL    HW2 5928   3.028   1.217   4.079
 1677SOL     OW 5929   6.034   0.183   5.740
 1677SOL    HW1 5930   5.946   0.214   5.704
 1677SOL    HW2 5931   6.093   0.153   5.665
 1678SOL     OW 5932   5.335   6.730   1.764
 1678SOL    HW1 5933   5.313   6.779   1.680
 1678SOL    HW2 5934   5.353   6.634   1.743
 1679SOL     OW 5935   5.522   4.377   0.178
 1679SOL    HW1 5936   5.598   4.442   0.175
 1679SOL    HW2 5937   5.495   4.361   0.273
 1680SOL     OW 5938   0.647   2.452   5.600
 1680SOL    HW1 5939   0.662   2.551   5.593
 1680SOL    HW2 5940   0.731   2.404   5.575
 1681SOL     OW 5941   4.449   5.005   0.305
 1681SOL    HW1 5942   4.440   5.057   0.220
 1681SOL    HW2 5943   4.543   4.974   0.315
 1682SOL     OW 5944   6.987   2.528   5.674
 1682SOL    HW1 5945   0.002   2.469   5.744
 1682SOL    HW2 5946   6.892   2.503   5.660
 1683SOL     OW 5947   5.218   5.545   5.525
 1683SOL    HW1 5948   5.254   5.620   5.580
 1683SOL    HW2 5949   5.164   5.484   5.584
 1684SOL     OW 5950   0.555   6.635   4.464
 1684SOL    HW1 5951   0.527   6.726   4.493
 1684SOL    HW2 5952   0.527   6.620   4.370
 1685SOL     OW 5953   0.847   1.875   0.574
 1685SOL    HW1 5954   0.804   1.933   0.642
 1685SOL    HW2 5955   0.919   1.820   0.616
 1686SOL     OW 5956   2.049   6.735   6.807
 1686SOL    HW1 5957   2.022   6.658   6.749
 1686SOL    HW2 5958   2.148   6.735   6.818
 1687SOL     OW 5959   3.248   6.230   1.850
 1687SOL    HW1 5960   3.259   6.139   1.809
 1687SOL    HW2 5961   3.318   6.291   1.813
 1688SOL     OW 5962   0.514   1.383   3.852
 1688SOL    HW1 5963   0.440   1.341   3.905
 1688SOL    HW2 5964   0.483   1.399   3.758
 1689SOL     OW 5965   3.449   1.549   1.388
 1689SOL    HW1 5966   3.365   1.583   1.346
 1689SOL    HW2 5967   3.528   1.591   1.342
 1690SOL     OW 5968   0.861   2.381   0.371
 1690SOL    HW1 5969   0.820   2.342   0.453
 1690SOL    HW2 5970   0.949   2.337   0.354
 1691SOL     OW 5971   4.295   4.598   2.995
 1691SOL    HW1 5972   4.356   4.564   2.924
 1691SOL    HW2 5973   4.345   4.604   3.082
 1692SOL     OW 5974   0.975   0.471   3.644
 1692SOL    HW1 5975   0.973   0.545   3.712
 1692SOL    HW2 5976   0.976   0.383   3.691
 1693SOL     OW 5977   3.585   1.884   3.772
 1693SOL    HW1 5978   3.546   1.807   3.823
 1693SOL    HW2 5979   3.588   1.862   3.675
 1694SOL     OW 5980   6.187   5.710   5.185
 1694SOL    HW1 5981   6.280   5.736   5.159
 1694SOL    HW2 5982   6.175   5.612   5.172
 1695SOL     OW 5983   3.677   1.084   6.104
 1695SOL    HW1 5984   3.748   1.153   6.120
 1695SOL    HW2 5985   3.720   0.997   6.081
 1696SOL     OW 5986   3.318   5.738   2.003
 1696SOL    HW1 5987   3.411   5.732   1.966
 1696SOL    HW2 5988   3.288   5.834   2.001
 1697SOL     OW 5989   1.060   1.706   2.198
 1697SOL    HW1 5990   1.006   1.720   2.281
 1697SOL    HW2 5991   1.032   1.772   2.128
 1698SOL     OW 5992   4.608   1.802   0.808
 1698SOL    HW1 5993   4.649   1.776   0.896
 1698SOL    HW2 5994   4.663   1.875   0.766
 1699SOL     OW 5995   2.683   4.698   0.514
 1699SOL    HW1 5996   2.622   4.768   0.475
 1699SOL    HW2 5997   2.682   4.705   0.614
 1700SOL     OW 5998   5.933   2.452   4.244
 1700SOL    HW1 5999   5.863   2.387   4.271
 1700SOL    HW2 6000   5.898   2.545   4.254
 1701SOL     OW 6001   6.391   3.028   5.183
 1701SOL    HW1 6002   6.302   2.988   5.160
 1701SOL    HW2 6003   6.377   3.123   5.211
 1702SOL     OW 6004   4.601   2.782   1.814
 1702SOL    HW1 6005   4.594   2.765   1.716
 1702SOL    HW2 6006   4.600   2.880   1.832
 1703SOL     OW 6007   1.774   3.451   0.864
 1703SOL    HW1 6008   1.865   3.492   0.855
 1703SOL    HW2 6009   1.778   3.356   0.834
 1704SOL     OW 6010   0.346   1.427   2.612
 1704SOL    HW1 6011   0.265   1.369   2.625
 1704SOL    HW2 6012   0.428   1.370   2.613
 1705SOL     OW 6013   3.669   3.028   2.549
 1705SOL    HW1 6014   3.767   3.025   2.530
 1705SOL    HW2 6015   3.623   3.082   2.478
 1706SOL     OW 6016   2.121   0.606   6.271
 1706SOL    HW1 6017   2.075   0.581   6.185
 1706SOL    HW2 6018   2.053   0.641   6.336
 1707SOL     OW 6019   5.282   1.506   2.795
 1707SOL    HW1 6020   5.267   1.433   2.861
 1707SOL    HW2 6021   5.208   1.574   2.803
 1708SOL     OW 6022   0.182   4.541   1.735
 1708SOL    HW1 6023   0.131   4.619   1.771
 1708SOL    HW2 6024   0.155   4.457   1.783
 1709SOL     OW 6025   3.028   5.477   4.467
 1709SOL    HW1 6026   3.127   5.473   4.484
 1709SOL    HW2 6027   2.994   5.385   4.449
 1710SOL     OW 6028   6.653   5.165   4.595
 1710SOL    HW1 6029   6.609   5.120   4.518
 1710SOL    HW2 6030   6.752   5.147   4.593
 1711SOL     OW 6031   1.355   4.417   5.619
 1711SOL    HW1 6032   1.369   4.497   5.678
 1711SOL    HW2 6033   1.282   4.438   5.553
 1712SOL     OW 6034   2.219   4.942   1.701
 1712SOL    HW1 6035   2.270   4.968   1.782
 1712SOL    HW2 6036   2.138   5.000   1.692
 1713SOL     OW 6037   2.144   3.210   0.897
 1713SOL    HW1 6038   2.104   3.167   0.978
 1713SOL    HW2 6039   2.231   3.165   0.875
 1714SOL     OW 6040   4.188   1.230   1.523
 1714SOL    HW1 6041   4.140   1.219   1.610
 1714SOL    HW2 6042   4.233   1.144   1.499
 1715SOL     OW 6043   0.435   3.020   3.943
 1715SOL    HW1 6044   0.437   3.099   3.882
 1715SOL    HW2 6045   0.516   2.963   3.925
 1716SOL     OW 6046   0.222   0.405   6.861
 1716SOL    HW1 6047   0.313   0.364   6.868
 1716SOL    HW2 6048   0.221   0.469   6.784
 1717SOL     OW 6049   3.037   0.375   6.519
 1717SOL    HW1 6050   3.007   0.431   6.597
 1717SOL    HW2 6051   3.014   0.421   6.434
 1718SOL     OW 6052   1.782   4.144   5.518
 1718SOL    HW1 6053   1.775   4.053   5.560
 1718SOL    HW2 6054   1.837   4.137   5.434
 1719SOL     OW 6055   1.661   3.446   1.120
 1719SOL    HW1 6056   1.647   3.540   1.150
 1719SOL    HW2 6057   1.708   3.445   1.032
 1720SOL     OW 6058   0.180   1.980   2.031
 1720SOL    HW1 6059   0.131   1.922   1.966
 1720SOL    HW2 6060   0.182   2.074   1.997
 1721SOL     OW 6061   1.140   6.225   4.297
 1721SOL    HW1 6062   1.131   6.315   4.340
 1721SOL    HW2 6063   1.051   6.197   4.259
 1722SOL     OW 6064   5.703   0.146   1.942
 1722SOL    HW1 6065   5.689   0.210   1.867
 1722SOL    HW2 6066   5.714   0.053   1.906
 1723SOL     OW 6067   5.443   1.147   2.799
 1723SOL    HW1 6068   5.504   1.204   2.854
 1723SOL    HW2 6069   5.461   1.050   2.820
 1724SOL     OW 6070   5.146   0.295   0.394
 1724SOL    HW1 6071   5.170   0.237   0.316
 1724SOL    HW2 6072   5.064   0.348   0.372
 1725SOL     OW 6073   3.543   5.748   1.806
 1725SOL    HW1 6074   3.600   5.814   1.757
 1725SOL    HW2 6075   3.601   5.683   1.855
 1726SOL     OW 6076   6.777   3.898   4.421
 1726SOL    HW1 6077   6.819   3.816   4.461
 1726SOL    HW2 6078   6.709   3.934   4.485
 1727SOL     OW 6079   2.641   3.565   5.342
 1727SOL    HW1 6080   2.555   3.609   5.369
 1727SOL    HW2 6081   2.704   3.635   5.308
 1728SOL     OW 6082   4.325   5.441   3.441
 1728SOL    HW1 6083   4.309   5.524   3.495
 1728SOL    HW2 6084   4.237   5.407   3.406
 1729SOL     OW 6085   0.752   3.230   2.306
 1729SOL    HW1 6086   0.751   3.195   2.400
 1729SOL    HW2 6087   0.828   3.294   2.296
 1730SOL     OW 6088   5.102   2.029   4.769
 1730SOL    HW1 6089   5.043   2.083   4.710
 1730SOL    HW2 6090   5.073   2.039   4.864
 1731SOL     OW 6091   0.118   7.025   0.529
 1731SOL    HW1 6092   0.146   0.028   0.437
 1731SOL    HW2 6093   0.026   6.986   0.525
 1732SOL     OW 6094   0.862   4.595   6.978
 1732SOL    HW1 6095   0.802   4.657   6.928
 1732SOL    HW2 6096   0.807   4.522   7.020
 1733SOL     OW 6097   1.210   4.267   6.906
 1733SOL    HW1 6098   1.150   4.304   6.835
 1733SOL    HW2 6099   1.280   4.210   6.865
 1734SOL     OW 6100   5.135   3.923   1.207
 1734SOL    HW1 6101   5.108   3.976   1.128
 1734SOL    HW2 6102   5.065   3.929   1.278
 1735SOL     OW 6103   4.930   5.688   0.005
 1735SOL    HW1 6104   4.834   5.715   0.011
 1735SOL    HW2 6105   4.985   5.744   0.066
 1736SOL     OW 6106   2.872   3.269   0.379
 1736SOL    HW1 6107   2.946   3.301   0.438
 1736SOL    HW2 6108   2.828   3.348   0.336
 1737SOL     OW 6109   0.664   5.722   3.424
 1737SOL    HW1 6110   0.692   5.806   3.379
 1737SOL    HW2 6111   0.734   5.695   3.491
 1738SOL     OW 6112   0.726   1.314   1.994
 1738SOL    HW1 6113   0.634   1.276   1.993
 1738SOL    HW2 6114   0.787   1.253   2.045
 1739SOL     OW 6115   4.109   2.267   6.073
 1739SOL    HW1 6116   4.094   2.242   6.169
 1739SOL    HW2 6117   4.079   2.192   6.015
 1740SOL     OW 6118   0.561   2.046   6.116
 1740SOL    HW1 6119   0.515   1.963   6.086
 1740SOL    HW2 6120   0.651   2.023   6.153
 1741SOL     OW 6121   1.597   1.107   2.244
 1741SOL    HW1 6122   1.677   1.079   2.296
 1741SOL    HW2 6123   1.610   1.087   2.147
 1742SOL     OW 6124   5.812   6.043   4.161
 1742SOL    HW1 6125   5.812   5.944   4.149
 1742SOL    HW2 6126   5.743   6.084   4.102
 1743SOL     OW 6127   4.819   1.302   0.205
 1743SOL    HW1 6128   4.831   1.401   0.204
 1743SOL    HW2 6129   4.784   1.273   0.294
 1744SOL     OW 6130   3.543   6.440   1.294
 1744SOL    HW1 6131   3.488   6.369   1.338
 1744SOL    HW2 6132   3.619   6.465   1.354
 1745SOL     OW 6133   0.109   3.204   5.004
 1745SOL    HW1 6134   0.137   3.209   4.908
 1745SOL    HW2 6135   0.033   3.267   5.020
 1746SOL     OW 6136   2.429   1.137   5.968
 1746SOL    HW1 6137   2.407   1.164   5.874
 1746SOL    HW2 6138   2.504   1.071   5.968
 1747SOL     OW 6139   5.085   6.822   5.303
 1747SOL    HW1 6140   4.999   6.792   5.262
 1747SOL    HW2 6141   5.161   6.778   5.256
 1748SOL     OW 6142   5.741   0.967   1.504
 1748SOL    HW1 6143   5.713   0.895   1.567
 1748SOL    HW2 6144   5.838   0.987   1.517
 1749SOL     OW 6145   5.317   0.158   6.172
 1749SOL    HW1 6146   5.257   0.159   6.092
 1749SOL    HW2 6147   5.397   0.216   6.155
 1750SOL     OW 6148   4.134   0.640   4.054
 1750SOL    HW1 6149   4.125   0.717   3.991
 1750SOL    HW2 6150   4.087   0.560   4.017
 1751SOL     OW 6151   1.879   5.727   4.529
 1751SOL    HW1 6152   1.959   5.757   4.581
 1751SOL    HW2 6153   1.839   5.646   4.573
 1752SOL     OW 6154   6.874   2.229   6.415
 1752SOL    HW1 6155   6.857   2.169   6.337
 1752SOL    HW2 6156   6.968   2.263   6.410
 1753SOL     OW 6157   2.393   6.282   2.330
 1753SOL    HW1 6158   2.452   6.305   2.407
 1753SOL    HW2 6159   2.375   6.363   2.276
 1754SOL     OW 6160   2.945   3.228   2.134
 1754SOL    HW1 6161   2.936   3.180   2.222
 1754SOL    HW2 6162   2.899   3.317   2.140
 1755SOL     OW 6163   6.455   4.425   0.279
 1755SOL    HW1 6164   6.534   4.394   0.225
 1755SOL    HW2 6165   6.408   4.346   0.318
 1756SOL     OW 6166   5.731   5.237   4.706
 1756SOL    HW1 6167   5.700   5.254   4.612
 1756SOL    HW2 6168   5.710   5.316   4.763
 1757SOL     OW 6169   3.577   0.382   5.666
 1757SOL    HW1 6170   3.671   0.371   5.696
 1757SOL    HW2 6171   3.538   0.464   5.708
 1758SOL     OW 6172   3.222   1.268   3.215
 1758SOL    HW1 6173   3.239   1.365   3.234
 1758SOL    HW2 6174   3.145   1.260   3.152
 1759SOL     OW 6175   0.208   5.793   6.357
 1759SOL    HW1 6176   0.285   5.795   6.293
 1759SOL    HW2 6177   0.214   5.711   6.414
 1760SOL     OW 6178   4.932   6.618   2.164
 1760SOL    HW1 6179   4.894   6.683   2.097
 1760SOL    HW2 6180   5.032   6.621   2.159
 1761SOL     OW 6181   5.535   3.010   1.595
 1761SOL    HW1 6182   5.590   2.974   1.519
 1761SOL    HW2 6183   5.470   3.077   1.559
 1762SOL     OW 6184   5.592   3.068   0.520
 1762SOL    HW1 6185   5.549   3.044   0.607
 1762SOL    HW2 6186   5.563   3.159   0.492
 1763SOL     OW 6187   2.286   2.857   4.177
 1763SOL    HW1 6188   2.237   2.944   4.189
 1763SOL    HW2 6189   2.329   2.832   4.263
 1764SOL     OW 6190   6.573   3.558   3.275
 1764SOL    HW1 6191   6.549   3.646   3.317
 1764SOL    HW2 6192   6.646   3.515   3.328
 1765SOL     OW 6193   2.241   3.598   6.069
 1765SOL    HW1 6194   2.295   3.557   5.995
 1765SOL    HW2 6195   2.154   3.550   6.077
 1766SOL     OW 6196   6.194   3.576   5.770
 1766SOL    HW1 6197   6.282   3.624   5.769
 1766SOL    HW2 6198   6.209   3.480   5.793
 1767SOL     OW 6199   6.635   4.885   1.295
 1767SOL    HW1 6200   6.612   4.859   1.202
 1767SOL    HW2 6201   6.695   4.964   1.294
 1768SOL     OW 6202   6.156   6.678   3.211
 1768SOL    HW1 6203   6.195   6.769   3.197
 1768SOL    HW2 6204   6.076   6.684   3.269
 1769SOL     OW 6205   4.824   0.897   3.098
 1769SOL    HW1 6206   4.754   0.959   3.061
 1769SOL    HW2 6207   4.803   0.877   3.193
 1770SOL     OW 6208   3.586   5.900   5.469
 1770SOL    HW1 6209   3.669   5.872   5.518
 1770SOL    HW2 6210   3.534   5.964   5.526
 1771SOL     OW 6211   4.558   6.646   6.510
 1771SOL    HW1 6212   4.631   6.677   6.570
 1771SOL    HW2 6213   4.471   6.686   6.540
 1772SOL     OW 6214   2.693   6.273   2.644
 1772SOL    HW1 6215   2.653   6.202   2.586
 1772SOL    HW2 6216   2.680   6.249   2.740
 1773SOL     OW 6217   1.188   0.371   0.584
 1773SOL    HW1 6218   1.112   0.398   0.642
 1773SOL    HW2 6219   1.220   0.450   0.532
 1774SOL     OW 6220   2.930   4.828   2.840
 1774SOL    HW1 6221   2.871   4.896   2.883
 1774SOL    HW2 6222   2.969   4.865   2.756
 1775SOL     OW 6223   1.241   4.899   0.871
 1775SOL    HW1 6224   1.223   4.802   0.885
 1775SOL    HW2 6225   1.216   4.923   0.777
 1776SOL     OW 6226   2.992   6.225   5.334
 1776SOL    HW1 6227   3.005   6.129   5.360
 1776SOL    HW2 6228   2.943   6.273   5.406
 1777SOL     OW 6229   3.267   6.390   0.329
 1777SOL    HW1 6230   3.256   6.360   0.423
 1777SOL    HW2 6231   3.354   6.357   0.293
 1778SOL     OW 6232   6.682   3.122   5.897
 1778SOL    HW1 6233   6.718   3.119   5.804
 1778SOL    HW2 6234   6.586   3.150   5.895
 1779SOL     OW 6235   3.576   0.074   5.714
 1779SOL    HW1 6236   3.577   7.002   5.693
 1779SOL    HW2 6237   3.486   0.112   5.692
 1780SOL     OW 6238   3.084   3.100   6.973
 1780SOL    HW1 6239   3.024   3.156   0.004
 1780SOL    HW2 6240   3.149   3.158   6.925
 1781SOL     OW 6241   2.788   5.708   3.648
 1781SOL    HW1 6242   2.833   5.720   3.559
 1781SOL    HW2 6243   2.854   5.673   3.714
 1782SOL     OW 6244   3.141   1.752   4.362
 1782SOL    HW1 6245   3.096   1.802   4.288
 1782SOL    HW2 6246   3.083   1.755   4.444
 1783SOL     OW 6247   2.528   6.122   0.073
 1783SOL    HW1 6248   2.432   6.134   0.051
 1783SOL    HW2 6249   2.542   6.140   0.171
 1784SOL     OW 6250   2.570   0.075   6.197
 1784SOL    HW1 6251   2.564   0.175   6.204
 1784SOL    HW2 6252   2.502   0.042   6.131
 1785SOL     OW 6253   6.724   5.483   2.000
 1785SOL    HW1 6254   6.674   5.489   1.913
 1785SOL    HW2 6255   6.784   5.563   2.009
 1786SOL     OW 6256   4.011   2.590   1.693
 1786SOL    HW1 6257   3.944   2.664   1.696
 1786SOL    HW2 6258   4.103   2.630   1.682
 1787SOL     OW 6259   3.561   0.764   5.364
 1787SOL    HW1 6260   3.570   0.666   5.347
 1787SOL    HW2 6261   3.495   0.779   5.438
 1788SOL     OW 6262   1.251   4.963   5.460
 1788SOL    HW1 6263   1.298   5.046   5.428
 1788SOL    HW2 6264   1.282   4.885   5.406
 1789SOL     OW 6265   5.889   6.768   6.647
 1789SOL    HW1 6266   5.983   6.738   6.664
 1789SOL    HW2 6267   5.888   6.866   6.627
 1790SOL     OW 6268   2.503   0.091   2.671
 1790SOL    HW1 6269   2.517   0.001   2.713
 1790SOL    HW2 6270   2.405   0.113   2.673
 1791SOL     OW 6271   0.579   6.691   2.953
 1791SOL    HW1 6272   0.497   6.641   2.981
 1791SOL    HW2 6273   0.646   6.627   2.916
 1792SOL     OW 6274   1.016   3.605   4.167
 1792SOL    HW1 6275   1.020   3.506   4.177
 1792SOL    HW2 6276   0.971   3.628   4.080
 1793SOL     OW 6277   0.301   0.541   3.785
 1793SOL    HW1 6278   0.364   0.578   3.717
 1793SOL    HW2 6279   0.215   0.516   3.741
 1794SOL     OW 6280   4.620   5.892   6.454
 1794SOL    HW1 6281   4.543   5.863   6.398
 1794SOL    HW2 6282   4.678   5.814   6.475
 1795SOL     OW 6283   0.887   3.224   6.799
 1795SOL    HW1 6284   0.809   3.286   6.803
 1795SOL    HW2 6285   0.861   3.140   6.751
 1796SOL     OW 6286   3.645   0.336   6.140
 1796SOL    HW1 6287   3.599   0.406   6.194
 1796SOL    HW2 6288   3.736   0.370   6.113
 1797SOL     OW 6289   0.222   1.672   2.060
 1797SOL    HW1 6290   0.239   1.768   2.082
 1797SOL    HW2 6291   0.124   1.658   2.046
 1798SOL     OW 6292   5.780   1.634   2.953
 1798SOL    HW1 6293   5.692   1.642   2.906
 1798SOL    HW2 6294   5.849   1.687   2.903
 1799SOL     OW 6295   2.349   1.611   0.369
 1799SOL    HW1 6296   2.375   1.519   0.398
 1799SOL    HW2 6297   2.281   1.605   0.296
 1800SOL     OW 6298   3.070   4.882   2.607
 1800SOL    HW1 6299   3.003   4.825   2.559
 1800SOL    HW2 6300   3.087   4.965   2.554
 1801SOL     OW 6301   5.602   6.598   0.777
 1801SOL    HW1 6302   5.702   6.592   0.774
 1801SOL    HW2 6303   5.571   6.660   0.705
 1802SOL     OW 6304   5.962   4.817   3.859
 1802SOL    HW1 6305   6.002   4.817   3.768
 1802SOL    HW2 6306   5.894   4.890   3.866
 1803SOL     OW 6307   5.786   4.970   1.287
 1803SOL    HW1 6308   5.870   5.017   1.313
 1803SOL    HW2 6309   5.781   4.883   1.337
 1804SOL     OW 6310   3.127   3.349   6.194
 1804SOL    HW1 6311   3.053   3.387   6.250
 1804SOL    HW2 6312   3.089   3.278   6.134
 1805SOL     OW 6313   5.786   3.181   6.900
 1805SOL    HW1 6314   5.791   3.089   6.861
 1805SOL    HW2 6315   5.703   3.189   6.956
 1806SOL     OW 6316   6.513   0.356   0.563
 1806SOL    HW1 6317   6.581   0.361   0.490
 1806SOL    HW2 6318   6.462   0.442   0.568
 1807SOL     OW 6319   6.537   2.150   5.766
 1807SOL    HW1 6320   6.505   2.137   5.673
 1807SOL    HW2 6321   6.502   2.077   5.824
 1808SOL     OW 6322   2.550   4.665   4.420
 1808SOL    HW1 6323   2.502   4.735   4.472
 1808SOL    HW2 6324   2.525   4.574   4.453
 1809SOL     OW 6325   3.777   0.180   6.439
 1809SOL    HW1 6326   3.871   0.199   6.410
 1809SOL    HW2 6327   3.722   0.264   6.431
 1810SOL     OW 6328   3.093   6.571   2.395
 1810SOL    HW1 6329   3.154   6.575   2.475
 1810SOL    HW2 6330   3.036   6.489   2.402
 1811SOL     OW 6331   5.822   5.830   2.982
 1811SOL    HW1 6332   5.848   5.745   2.937
 1811SOL    HW2 6333   5.724   5.843   2.974
 1812SOL     OW 6334   4.336   5.129   5.802
 1812SOL    HW1 6335   4.296   5.086   5.883
 1812SOL    HW2 6336   4.304   5.224   5.797
 1813SOL     OW 6337   6.802   5.452   5.322
 1813SOL    HW1 6338   6.719   5.502   5.346
 1813SOL    HW2 6339   6.878   5.517   5.313
 1814SOL     OW 6340   4.890   6.195   2.295
 1814SOL    HW1 6341   4.936   6.271   2.340
 1814SOL    HW2 6342   4.799   6.223   2.266
 1815SOL     OW 6343   0.239   1.490   3.041
 1815SOL    HW1 6344   0.203   1.401   3.066
 1815SOL    HW2 6345   0.329   1.479   2.997
 1816SOL     OW 6346   1.378   5.061   0.562
 1816SOL    HW1 6347   1.294   5.026   0.602
 1816SOL    HW2 6348   1.367   5.072   0.463
 1817SOL     OW 6349   1.497   5.440   2.028
 1817SOL    HW1 6350   1.584   5.486   2.012
 1817SOL    HW2 6351   1.513   5.347   2.059
 1818SOL     OW 6352   1.263   1.548   3.613
 1818SOL    HW1 6353   1.359   1.544   3.641
 1818SOL    HW2 6354   1.214   1.470   3.652
 1819SOL     OW 6355   0.859   4.471   2.408
 1819SOL    HW1 6356   0.912   4.501   2.329
 1819SOL    HW2 6357   0.855   4.371   2.409
 1820SOL     OW 6358   5.877   0.008   2.732
 1820SOL    HW1 6359   5.947   0.075   2.757
 1820SOL    HW2 6360   5.789   0.055   2.721
 1821SOL     OW 6361   1.851   1.870   3.497
 1821SOL    HW1 6362   1.758   1.905   3.490
 1821SOL    HW2 6363   1.848   1.774   3.526
 1822SOL     OW 6364   3.162   3.684   2.216
 1822SOL    HW1 6365   3.113   3.709   2.132
 1822SOL    HW2 6366   3.095   3.664   2.288
 1823SOL     OW 6367   4.583   0.152   2.542
 1823SOL    HW1 6368   4.660   0.205   2.577
 1823SOL    HW2 6369   4.616   0.083   2.479
 1824SOL     OW 6370   5.333   2.122   1.394
 1824SOL    HW1 6371   5.369   2.030   1.405
 1824SOL    HW2 6372   5.375   2.183   1.461
 1825SOL     OW 6373   0.503   0.349   1.924
 1825SOL    HW1 6374   0.493   0.345   2.023
 1825SOL    HW2 6375   0.543   0.263   1.891
 1826SOL     OW 6376   2.845   6.000   6.218
 1826SOL    HW1 6377   2.777   5.931   6.245
 1826SOL    HW2 6378   2.917   6.004   6.287
 1827SOL     OW 6379   6.195   6.896   1.786
 1827SOL    HW1 6380   6.219   6.917   1.691
 1827SOL    HW2 6381   6.169   6.799   1.793
 1828SOL     OW 6382   1.571   2.697   7.007
 1828SOL    HW1 6383   1.540   2.791   7.021
 1828SOL    HW2 6384   1.498   2.643   6.965
 1829SOL     OW 6385   6.032   5.473   2.117
 1829SOL    HW1 6386   6.116   5.426   2.092
 1829SOL    HW2 6387   6.018   5.465   2.216
 1830SOL     OW 6388   5.440   6.728   4.208
 1830SOL    HW1 6389   5.454   6.629   4.202
 1830SOL    HW2 6390   5.348   6.751   4.177
 1831SOL     OW 6391   5.277   0.711   3.171
 1831SOL    HW1 6392   5.224   0.795   3.181
 1831SOL    HW2 6393   5.374   0.734   3.163
 1832SOL     OW 6394   4.649   2.259   0.038
 1832SOL    HW1 6395   4.653   2.320   0.117
 1832SOL    HW2 6396   4.615   2.169   0.067
 1833SOL     OW 6397   5.475   1.990   5.512
 1833SOL    HW1 6398   5.527   2.074   5.502
 1833SOL    HW2 6399   5.535   1.917   5.545
 1834SOL     OW 6400   2.759   3.982   0.337
 1834SOL    HW1 6401   2.788   4.076   0.318
 1834SOL    HW2 6402   2.756   3.967   0.435
 1835SOL     OW 6403   1.817   4.477   6.754
 1835SOL    HW1 6404   1.773   4.567   6.744
 1835SOL    HW2 6405   1.752   4.413   6.794
 1836SOL     OW 6406   0.961   6.737   0.642
 1836SOL    HW1 6407   0.924   6.684   0.719
 1836SOL    HW2 6408   0.950   6.834   0.660
 1837SOL     OW 6409   0.645   2.268   4.734
 1837SOL    HW1 6410   0.582   2.318   4.794
 1837SOL    HW2 6411   0.721   2.327   4.708
 1838SOL     OW 6412   0.585   2.693   5.432
 1838SOL    HW1 6413   0.596   2.772   5.493
 1838SOL    HW2 6414   0.675   2.658   5.406
 1839SOL     OW 6415   1.153   1.802   6.776
 1839SOL    HW1 6416   1.212   1.728   6.746
 1839SOL    HW2 6417   1.057   1.774   6.770
 1840SOL     OW 6418   1.045   5.193   1.270
 1840SOL    HW1 6419   1.056   5.209   1.368
 1840SOL    HW2 6420   1.058   5.279   1.220
 1841SOL     OW 6421   1.039   2.831   3.773
 1841SOL    HW1 6422   0.999   2.750   3.815
 1841SOL    HW2 6423   1.079   2.889   3.844
 1842SOL     OW 6424   0.929   5.717   6.444
 1842SOL    HW1 6425   0.939   5.716   6.543
 1842SOL    HW2 6426   0.940   5.810   6.410
 1843SOL     OW 6427   4.448   2.066   5.082
 1843SOL    HW1 6428   4.365   2.116   5.106
 1843SOL    HW2 6429   4.476   2.090   4.989
 1844SOL     OW 6430   5.678   4.311   3.599
 1844SOL    HW1 6431   5.627   4.228   3.621
 1844SOL    HW2 6432   5.747   4.328   3.670
 1845SOL     OW 6433   4.387   6.407   0.933
 1845SOL    HW1 6434   4.435   6.449   0.856
 1845SOL    HW2 6435   4.388   6.470   1.010
 1846SOL     OW 6436   3.651   1.589   5.615
 1846SOL    HW1 6437   3.714   1.553   5.683
 1846SOL    HW2 6438   3.703   1.619   5.535
 1847SOL     OW 6439   1.371   6.495   6.555
 1847SOL    HW1 6440   1.286   6.483   6.606
 1847SOL    HW2 6441   1.361   6.452   6.465
 1848SOL     OW 6442   1.952   0.409   3.120
 1848SOL    HW1 6443   1.995   0.404   3.210
 1848SOL    HW2 6444   1.865   0.359   3.122
 1849SOL     OW 6445   2.700   0.583   6.603
 1849SOL    HW1 6446   2.611   0.554   6.639
 1849SOL    HW2 6447   2.698   0.681   6.584
 1850SOL     OW 6448   5.400   1.732   2.279
 1850SOL    HW1 6449   5.345   1.682   2.346
 1850SOL    HW2 6450   5.398   1.830   2.300
 1851SOL     OW 6451   6.243   3.986   3.057
 1851SOL    HW1 6452   6.267   3.953   2.965
 1851SOL    HW2 6453   6.186   3.918   3.103
 1852SOL     OW 6454   5.194   1.528   5.476
 1852SOL    HW1 6455   5.197   1.432   5.448
 1852SOL    HW2 6456   5.133   1.538   5.554
 1853SOL     OW 6457   1.217   4.595   0.737
 1853SOL    HW1 6458   1.281   4.570   0.809
 1853SOL    HW2 6459   1.129   4.550   0.754
 1854SOL     OW 6460   2.706   5.076   3.719
 1854SOL    HW1 6461   2.635   5.006   3.713
 1854SOL    HW2 6462   2.676   5.148   3.782
 1855SOL     OW 6463   6.474   4.451   2.429
 1855SOL    HW1 6464   6.542   4.425   2.497
 1855SOL    HW2 6465   6.461   4.550   2.429
 1856SOL     OW 6466   5.180   3.101   6.712
 1856SOL    HW1 6467   5.128   3.119   6.795
 1856SOL    HW2 6468   5.134   3.141   6.633
 1857SOL     OW 6469   5.108   1.460   3.230
 1857SOL    HW1 6470   5.158   1.546   3.244
 1857SOL    HW2 6471   5.039   1.473   3.159
 1858SOL     OW 6472   5.620   4.059   3.170
 1858SOL    HW1 6473   5.619   3.979   3.231
 1858SOL    HW2 6474   5.536   4.062   3.117
 1859SOL     OW 6475   6.372   1.662   2.974
 1859SOL    HW1 6476   6.361   1.587   2.910
 1859SOL    HW2 6477   6.449   1.719   2.946
 1860SOL     OW 6478   4.020   2.188   4.814
 1860SOL    HW1 6479   4.059   2.102   4.849
 1860SOL    HW2 6480   3.947   2.219   4.875
 1861SOL     OW 6481   5.273   5.850   2.264
 1861SOL    HW1 6482   5.237   5.943   2.252
 1861SOL    HW2 6483   5.231   5.789   2.198
 1862SOL     OW 6484   2.430   1.195   0.603
 1862SOL    HW1 6485   2.368   1.135   0.653
 1862SOL    HW2 6486   2.379   1.243   0.531
 1863SOL     OW 6487   1.794   2.514   1.595
 1863SOL    HW1 6488   1.888   2.485   1.613
 1863SOL    HW2 6489   1.732   2.437   1.615
 1864SOL     OW 6490   0.828   6.311   3.071
 1864SOL    HW1 6491   0.758   6.240   3.073
 1864SOL    HW2 6492   0.909   6.277   3.022
 1865SOL     OW 6493   4.823   2.630   6.630
 1865SOL    HW1 6494   4.905   2.669   6.588
 1865SOL    HW2 6495   4.813   2.535   6.601
 1866SOL     OW 6496   5.326   5.333   1.756
 1866SOL    HW1 6497   5.344   5.405   1.688
 1866SOL    HW2 6498   5.257   5.365   1.821
 1867SOL     OW 6499   0.594   4.738   6.469
 1867SOL    HW1 6500   0.690   4.726   6.444
 1867SOL    HW2 6501   0.553   4.809   6.412
 1868SOL     OW 6502   6.763   4.069   5.669
 1868SOL    HW1 6503   6.861   4.088   5.673
 1868SOL    HW2 6504   6.743   4.013   5.588
 1869SOL     OW 6505   6.155   1.929   4.311
 1869SOL    HW1 6506   6.123   1.913   4.218
 1869SOL    HW2 6507   6.146   1.844   4.364
 1870SOL     OW 6508   2.215   4.226   4.818
 1870SOL    HW1 6509   2.233   4.321   4.843
 1870SOL    HW2 6510   2.252   4.165   4.888
 1871SOL     OW 6511   1.430   0.601   0.676
 1871SOL    HW1 6512   1.375   0.608   0.592
 1871SOL    HW2 6513   1.370   0.608   0.755
 1872SOL     OW 6514   1.639   4.661   6.659
 1872SOL    HW1 6515   1.619   4.590   6.591
 1872SOL    HW2 6516   1.559   4.721   6.668
 1873SOL     OW 6517   5.222   0.073   6.841
 1873SOL    HW1 6518   5.251   0.146   6.779
 1873SOL    HW2 6519   5.125   0.087   6.864
 1874SOL     OW 6520   0.481   4.022   2.797
 1874SOL    HW1 6521   0.541   3.967   2.855
 1874SOL    HW2 6522   0.401   4.051   2.849
 1875SOL     OW 6523   0.945   6.453   1.770
 1875SOL    HW1 6524   0.910   6.367   1.732
 1875SOL    HW2 6525   0.898   6.473   1.856
 1876SOL     OW 6526   1.963   6.796   3.413
 1876SOL    HW1 6527   2.033   6.831   3.476
 1876SOL    HW2 6528   1.994   6.810   3.319
 1877SOL     OW 6529   0.272   6.918   3.940
 1877SOL    HW1 6530   0.347   6.982   3.922
 1877SOL    HW2 6531   0.195   6.939   3.880
 1878SOL     OW 6532   6.130   2.726   5.703
 1878SOL    HW1 6533   6.179   2.781   5.771
 1878SOL    HW2 6534   6.065   2.783   5.654
 1879SOL     OW 6535   1.321   4.613   6.106
 1879SOL    HW1 6536   1.378   4.602   6.187
 1879SOL    HW2 6537   1.282   4.524   6.080
 1880SOL     OW 6538   6.305   0.386   4.806
 1880SOL    HW1 6539   6.297   0.311   4.740
 1880SOL    HW2 6540   6.241   0.371   4.881
 1881SOL     OW 6541   6.745   2.152   0.080
 1881SOL    HW1 6542   6.698   2.228   0.037
 1881SOL    HW2 6543   6.835   2.182   0.114
 1882SOL     OW 6544   1.460   6.560   0.132
 1882SOL    HW1 6545   1.384   6.545   0.068
 1882SOL    HW2 6546   1.478   6.476   0.182
 1883SOL     OW 6547   0.173   1.704   3.864
 1883SOL    HW1 6548   0.181   1.605   3.869
 1883SOL    HW2 6549   0.256   1.743   3.823
 1884SOL     OW 6550   6.667   2.070   1.134
 1884SOL    HW1 6551   6.647   2.131   1.058
 1884SOL    HW2 6552   6.625   2.105   1.217
 1885SOL     OW 6553   2.815   1.609   4.152
 1885SOL    HW1 6554   2.878   1.556   4.208
 1885SOL    HW2 6555   2.766   1.547   4.090
 1886SOL     OW 6556   0.636   6.119   3.017
 1886SOL    HW1 6557   0.557   6.074   3.060
 1886SOL    HW2 6558   0.694   6.051   2.973
 1887SOL     OW 6559   2.679   6.116   6.044
 1887SOL    HW1 6560   2.742   6.083   6.114
 1887SOL    HW2 6561   2.727   6.178   5.982
 1888SOL     OW 6562   2.366   0.637   3.064
 1888SOL    HW1 6563   2.362   0.568   3.136
 1888SOL    HW2 6564   2.390   0.726   3.105
 1889SOL     OW 6565   0.296   3.318   3.102
 1889SOL    HW1 6566   0.247   3.405   3.109
 1889SOL    HW2 6567   0.266   3.269   3.020
 1890SOL     OW 6568   1.444   6.107   4.580
 1890SOL    HW1 6569   1.380   6.077   4.651
 1890SOL    HW2 6570   1.537   6.080   4.605
 1891SOL     OW 6571   3.839   3.356   3.612
 1891SOL    HW1 6572   3.811   3.323   3.522
 1891SOL    HW2 6573   3.931   3.322   3.632
 1892SOL     OW 6574   0.535   0.380   2.695
 1892SOL    HW1 6575   0.593   0.315   2.647
 1892SOL    HW2 6576   0.460   0.331   2.739
 1893SOL     OW 6577   3.462   3.232   4.348
 1893SOL    HW1 6578   3.461   3.279   4.437
 1893SOL    HW2 6579   3.380   3.175   4.340
 1894SOL     OW 6580   3.080   3.473   4.007
 1894SOL    HW1 6581   3.143   3.531   3.955
 1894SOL    HW2 6582   3.091   3.378   3.978
 1895SOL     OW 6583   1.453   6.039   0.974
 1895SOL    HW1 6584   1.439   6.121   0.918
 1895SOL    HW2 6585   1.549   6.013   0.971
 1896SOL     OW 6586   6.542   2.520   1.211
 1896SOL    HW1 6587   6.541   2.447   1.143
 1896SOL    HW2 6588   6.478   2.498   1.285
 1897SOL     OW 6589   1.099   4.518   4.062
 1897SOL    HW1 6590   1.191   4.530   4.100
 1897SOL    HW2 6591   1.070   4.423   4.077
 1898SOL     OW 6592   1.923   6.044   2.714
 1898SOL    HW1 6593   1.996   5.977   2.724
 1898SOL    HW2 6594   1.848   6.020   2.776
 1899SOL     OW 6595   0.121   1.269   2.382
 1899SOL    HW1 6596   0.186   1.196   2.360
 1899SOL    HW2 6597   0.083   1.306   2.298
 1900SOL     OW 6598   2.551   6.805   6.790
 1900SOL    HW1 6599   2.620   6.816   6.719
 1900SOL    HW2 6600   2.582   6.851   6.873
 1901SOL     OW 6601   2.838   3.479   2.147
 1901SOL    HW1 6602   2.740   3.486   2.130
 1901SOL    HW2 6603   2.889   3.514   2.069
 1902SOL     OW 6604   1.385   6.807   5.069
 1902SOL    HW1 6605   1.474   6.784   5.109
 1902SOL    HW2 6606   1.339   6.723   5.039
 1903SOL     OW 6607   1.406   1.733   4.210
 1903SOL    HW1 6608   1.329   1.795   4.196
 1903SOL    HW2 6609   1.389   1.647   4.163
 1904SOL     OW 6610   6.056   5.919   1.436
 1904SOL    HW1 6611   6.032   6.015   1.419
 1904SOL    HW2 6612   5.984   5.876   1.490
 1905SOL     OW 6613   0.680   2.084   4.145
 1905SOL    HW1 6614   0.685   2.011   4.213
 1905SOL    HW2 6615   0.701   2.047   4.055
 1906SOL     OW 6616   0.563   6.252   4.221
 1906SOL    HW1 6617   0.618   6.275   4.301
 1906SOL    HW2 6618   0.564   6.153   4.207
 1907SOL     OW 6619   6.101   3.145   0.841
 1907SOL    HW1 6620   6.087   3.052   0.876
 1907SOL    HW2 6621   6.146   3.140   0.751
 1908SOL     OW 6622   3.738   0.767   1.559
 1908SOL    HW1 6623   3.720   0.813   1.646
 1908SOL    HW2 6624   3.755   0.836   1.488
 1909SOL     OW 6625   6.328   5.308   4.931
 1909SOL    HW1 6626   6.386   5.353   4.999
 1909SOL    HW2 6627   6.384   5.247   4.875
 1910SOL     OW 6628   0.476   5.881   5.668
 1910SOL    HW1 6629   0.398   5.943   5.670
 1910SOL    HW2 6630   0.445   5.789   5.644
 1911SOL     OW 6631   6.005   6.088   4.338
 1911SOL    HW1 6632   5.929   6.098   4.274
 1911SOL    HW2 6633   6.008   6.168   4.398
 1912SOL     OW 6634   3.515   5.099   2.154
 1912SOL    HW1 6635   3.487   5.144   2.239
 1912SOL    HW2 6636   3.451   5.123   2.081
 1913SOL     OW 6637   2.748   4.357   6.820
 1913SOL    HW1 6638   2.731   4.435   6.880
 1913SOL    HW2 6639   2.663   4.308   6.804
 1914SOL     OW 6640   3.753   4.418   0.584
 1914SOL    HW1 6641   3.819   4.443   0.655
 1914SOL    HW2 6642   3.752   4.318   0.574
 1915SOL     OW 6643   3.700   3.050   6.952
 1915SOL    HW1 6644   3.798   3.034   6.937
 1915SOL    HW2 6645   3.677   3.144   6.927
 1916SOL     OW 6646   4.330   1.109   2.193
 1916SOL    HW1 6647   4.345   1.081   2.288
 1916SOL    HW2 6648   4.401   1.070   2.135
 1917SOL     OW 6649   2.158   3.902   1.387
 1917SOL    HW1 6650   2.136   3.988   1.434
 1917SOL    HW2 6651   2.086   3.835   1.405
 1918SOL     OW 6652   5.184   2.182   3.560
 1918SOL    HW1 6653   5.151   2.245   3.490
 1918SOL    HW2 6654   5.116   2.110   3.575
 1919SOL     OW 6655   6.097   2.372   6.250
 1919SOL    HW1 6656   6.069   2.328   6.165
 1919SOL    HW2 6657   6.139   2.461   6.230
 1920SOL     OW 6658   4.340   3.407   0.500
 1920SOL    HW1 6659   4.269   3.340   0.479
 1920SOL    HW2 6660   4.417   3.394   0.437
 1921SOL     OW 6661   2.567   2.256   0.414
 1921SOL    HW1 6662   2.636   2.291   0.477
 1921SOL    HW2 6663   2.566   2.156   0.416
 1922SOL     OW 6664   3.033   3.535   4.269
 1922SOL    HW1 6665   2.986   3.623   4.274
 1922SOL    HW2 6666   3.064   3.519   4.175
 1923SOL     OW 6667   3.079   0.696   4.351
 1923SOL    HW1 6668   3.092   0.614   4.407
 1923SOL    HW2 6669   2.982   0.718   4.345
 1924SOL     OW 6670   5.356   0.936   0.521
 1924SOL    HW1 6671   5.440   0.975   0.558
 1924SOL    HW2 6672   5.378   0.859   0.461
 1925SOL     OW 6673   0.931   4.217   0.857
 1925SOL    HW1 6674   0.839   4.189   0.886
 1925SOL    HW2 6675   0.977   4.263   0.934
 1926SOL     OW 6676   3.242   0.380   1.719
 1926SOL    HW1 6677   3.281   0.373   1.811
 1926SOL    HW2 6678   3.294   0.447   1.666
 1927SOL     OW 6679   2.315   5.803   1.129
 1927SOL    HW1 6680   2.243   5.868   1.105
 1927SOL    HW2 6681   2.283   5.710   1.109
 1928SOL     OW 6682   0.201   4.267   3.015
 1928SOL    HW1 6683   0.274   4.287   3.080
 1928SOL    HW2 6684   0.199   4.338   2.944
 1929SOL     OW 6685   3.437   6.964   3.442
 1929SOL    HW1 6686   3.464   6.886   3.499
 1929SOL    HW2 6687   3.502   0.014   3.457
 1930SOL     OW 6688   3.481   3.320   0.449
 1930SOL    HW1 6689   3.452   3.224   0.452
 1930SOL    HW2 6690   3.494   3.353   0.543
 1931SOL     OW 6691   6.518   3.260   3.546
 1931SOL    HW1 6692   6.455   3.192   3.583
 1931SOL    HW2 6693   6.612   3.226   3.553
 1932SOL     OW 6694   5.189   0.505   2.235
 1932SOL    HW1 6695   5.240   0.456   2.306
 1932SOL    HW2 6696   5.189   0.603   2.254
 1933SOL     OW 6697   1.525   1.974   1.322
 1933SOL    HW1 6698   1.591   1.920   1.375
 1933SOL    HW2 6699   1.444   1.919   1.304
 1934SOL     OW 6700   6.987   1.356   6.931
 1934SOL    HW1 6701   6.966   1.292   6.857
 1934SOL    HW2 6702   6.902   1.392   6.969
 1935SOL     OW 6703   5.915   5.130   3.930
 1935SOL    HW1 6704   5.840   5.066   3.921
 1935SOL    HW2 6705   5.898   5.210   3.872
 1936SOL     OW 6706   5.041   3.197   6.488
 1936SOL    HW1 6707   4.946   3.220   6.511
 1936SOL    HW2 6708   5.064   3.238   6.400
 1937SOL     OW 6709   0.107   4.570   6.825
 1937SOL    HW1 6710   0.155   4.572   6.913
 1937SOL    HW2 6711   0.011   4.550   6.840
 1938SOL     OW 6712   6.531   1.997   0.158
 1938SOL    HW1 6713   6.531   1.897   0.153
 1938SOL    HW2 6714   6.623   2.031   0.137
 1939SOL     OW 6715   0.368   7.020   4.201
 1939SOL    HW1 6716   0.327   0.004   4.110
 1939SOL    HW2 6717   0.455   0.044   4.204
 1940SOL     OW 6718   0.990   5.349   1.533
 1940SOL    HW1 6719   0.918   5.411   1.565
 1940SOL    HW2 6720   1.058   5.400   1.481
 1941SOL     OW 6721   5.888   0.971   4.517
 1941SOL    HW1 6722   5.982   0.941   4.533
 1941SOL    HW2 6723   5.889   1.055   4.462
 1942SOL     OW 6724   0.459   5.517   1.769
 1942SOL    HW1 6725   0.459   5.498   1.867
 1942SOL    HW2 6726   0.442   5.432   1.719
 1943SOL     OW 6727   0.911   3.120   4.219
 1943SOL    HW1 6728   0.826   3.105   4.168
 1943SOL    HW2 6729   0.957   3.203   4.185
 1944SOL     OW 6730   0.855   3.131   3.853
 1944SOL    HW1 6731   0.786   3.059   3.845
 1944SOL    HW2 6732   0.934   3.095   3.903
 1945SOL     OW 6733   5.266   1.583   2.483
 1945SOL    HW1 6734   5.186   1.532   2.450
 1945SOL    HW2 6735   5.336   1.518   2.513
 1946SOL     OW 6736   6.058   5.825   0.664
 1946SOL    HW1 6737   5.959   5.838   0.674
 1946SOL    HW2 6738   6.105   5.868   0.741
 1947SOL     OW 6739   6.005   5.670   2.579
 1947SOL    HW1 6740   5.983   5.649   2.674
 1947SOL    HW2 6741   5.938   5.735   2.543
 1948SOL     OW 6742   5.319   3.499   3.463
 1948SOL    HW1 6743   5.291   3.595   3.472
 1948SOL    HW2 6744   5.342   3.480   3.368
 1949SOL     OW 6745   3.534   4.656   6.422
 1949SOL    HW1 6746   3.492   4.604   6.347
 1949SOL    HW2 6747   3.611   4.604   6.459
 1950SOL     OW 6748   3.981   3.891   3.496
 1950SOL    HW1 6749   3.981   3.791   3.505
 1950SOL    HW2 6750   4.075   3.925   3.503
 1951SOL     OW 6751   6.639   5.752   6.007
 1951SOL    HW1 6752   6.666   5.665   5.965
 1951SOL    HW2 6753   6.712   5.784   6.068
 1952SOL     OW 6754   5.809   4.005   6.631
 1952SOL    HW1 6755   5.779   3.921   6.676
 1952SOL    HW2 6756   5.867   4.058   6.693
 1953SOL     OW 6757   0.396   0.848   0.016
 1953SOL    HW1 6758   0.344   0.768   0.047
 1953SOL    HW2 6759   0.460   0.876   0.088
 1954SOL     OW 6760   3.765   6.890   2.213
 1954SOL    HW1 6761   3.837   6.952   2.181
 1954SOL    HW2 6762   3.780   6.867   2.309
 1955SOL     OW 6763   6.558   2.634   4.062
 1955SOL    HW1 6764   6.628   2.584   4.012
 1955SOL    HW2 6765   6.499   2.570   4.111
 1956SOL     OW 6766   4.779   1.337   1.257
 1956SOL    HW1 6767   4.683   1.361   1.272
 1956SOL    HW2 6768   4.802   1.257   1.312
 1957SOL     OW 6769   6.269   2.700   4.261
 1957SOL    HW1 6770   6.333   2.625   4.277
 1957SOL    HW2 6771   6.314   2.771   4.206
 1958SOL     OW 6772   4.165   1.849   0.355
 1958SOL    HW1 6773   4.230   1.878   0.425
 1958SOL    HW2 6774   4.072   1.872   0.385
 1959SOL     OW 6775   1.504   1.610   5.717
 1959SOL    HW1 6776   1.426   1.556   5.748
 1959SOL    HW2 6777   1.512   1.604   5.618
 1960SOL     OW 6778   5.339   4.253   2.649
 1960SOL    HW1 6779   5.266   4.186   2.638
 1960SOL    HW2 6780   5.400   4.250   2.571
 1961SOL     OW 6781   0.358   4.100   4.567
 1961SOL    HW1 6782   0.299   4.026   4.599
 1961SOL    HW2 6783   0.445   4.097   4.616
 1962SOL     OW 6784   0.422   6.929   1.808
 1962SOL    HW1 6785   0.327   6.958   1.807
 1962SOL    HW2 6786   0.443   6.883   1.894
 1963SOL     OW 6787   0.801   2.291   0.112
 1963SOL    HW1 6788   0.795   2.345   0.196
 1963SOL    HW2 6789   0.753   2.338   0.038
 1964SOL     OW 6790   5.844   3.256   0.825
 1964SOL    HW1 6791   5.934   3.213   0.823
 1964SOL    HW2 6792   5.834   3.317   0.746
 1965SOL     OW 6793   5.831   4.864   4.527
 1965SOL    HW1 6794   5.891   4.856   4.607
 1965SOL    HW2 6795   5.876   4.919   4.457
 1966SOL     OW 6796   0.899   5.492   6.686
 1966SOL    HW1 6797   0.837   5.419   6.716
 1966SOL    HW2 6798   0.976   5.452   6.637
 1967SOL     OW 6799   6.884   2.731   4.789
 1967SOL    HW1 6800   6.880   2.667   4.712
 1967SOL    HW2 6801   6.792   2.762   4.811
 1968SOL     OW 6802   2.691   1.378   6.253
 1968SOL    HW1 6803   2.697   1.457   6.314
 1968SOL    HW2 6804   2.596   1.368   6.222
 1969SOL     OW 6805   0.761   6.018   1.180
 1969SOL    HW1 6806   0.783   5.950   1.249
 1969SOL    HW2 6807   0.810   6.103   1.200
 1970SOL     OW 6808   5.367   4.210   3.709
 1970SOL    HW1 6809   5.278   4.172   3.734
 1970SOL    HW2 6810   5.357   4.270   3.630
 1971SOL     OW 6811   1.991   5.092   4.529
 1971SOL    HW1 6812   1.944   5.010   4.561
 1971SOL    HW2 6813   2.064   5.066   4.465
 1972SOL     OW 6814   6.032   2.207   2.630
 1972SOL    HW1 6815   6.066   2.276   2.566
 1972SOL    HW2 6816   5.941   2.233   2.662
 1973SOL     OW 6817   3.635   2.336   0.541
 1973SOL    HW1 6818   3.703   2.275   0.581
 1973SOL    HW2 6819   3.656   2.431   0.567
 1974SOL     OW 6820   2.185   6.664   4.664
 1974SOL    HW1 6821   2.268   6.705   4.627
 1974SOL    HW2 6822   2.203   6.627   4.755
 1975SOL     OW 6823   1.983   2.935   2.129
 1975SOL    HW1 6824   2.044   3.008   2.160
 1975SOL    HW2 6825   1.922   2.909   2.204
 1976SOL     OW 6826   1.517   1.070   5.312
 1976SOL    HW1 6827   1.531   1.028   5.223
 1976SOL    HW2 6828   1.584   1.034   5.377
 1977SOL     OW 6829   1.020   3.556   6.661
 1977SOL    HW1 6830   0.924   3.534   6.643
 1977SOL    HW2 6831   1.025   3.619   6.739
 1978SOL     OW 6832   2.758   0.328   2.039
 1978SOL    HW1 6833   2.763   0.277   2.125
 1978SOL    HW2 6834   2.851   0.342   2.004
 1979SOL     OW 6835   5.443   3.861   6.202
 1979SOL    HW1 6836   5.349   3.864   6.169
 1979SOL    HW2 6837   5.462   3.772   6.242
 1980SOL     OW 6838   4.066   0.398   1.322
 1980SOL    HW1 6839   4.114   0.345   1.252
 1980SOL    HW2 6840   4.011   0.469   1.278
 1981SOL     OW 6841   4.322   2.147   1.847
 1981SOL    HW1 6842   4.238   2.134   1.899
 1981SOL    HW2 6843   4.315   2.232   1.794
 1982SOL     OW 6844   1.714   2.755   6.614
 1982SOL    HW1 6845   1.745   2.665   6.644
 1982SOL    HW2 6846   1.621   2.770   6.647
 1983SOL     OW 6847   0.448   1.854   1.956
 1983SOL    HW1 6848   0.383   1.929   1.953
 1983SOL    HW2 6849   0.508   1.864   2.035
 1984SOL     OW 6850   4.645   3.541   5.557
 1984SOL    HW1 6851   4.625   3.537   5.459
 1984SOL    HW2 6852   4.676   3.633   5.581
 1985SOL     OW 6853   5.969   4.463   4.152
 1985SOL    HW1 6854   5.972   4.562   4.166
 1985SOL    HW2 6855   5.876   4.437   4.128
 1986SOL     OW 6856   2.896   3.546   2.985
 1986SOL    HW1 6857   2.900   3.642   2.957
 1986SOL    HW2 6858   2.914   3.539   3.083
 1987SOL     OW 6859   1.954   1.412   1.949
 1987SOL    HW1 6860   1.922   1.371   1.863
 1987SOL    HW2 6861   1.981   1.507   1.932
 1988SOL     OW 6862   1.114   2.171   3.122
 1988SOL    HW1 6863   1.015   2.169   3.135
 1988SOL    HW2 6864   1.143   2.264   3.100
 1989SOL     OW 6865   3.313   5.481   4.418
 1989SOL    HW1 6866   3.411   5.499   4.430
 1989SOL    HW2 6867   3.271   5.557   4.368
 1990SOL     OW 6868   4.395   6.264   0.547
 1990SOL    HW1 6869   4.439   6.350   0.570
 1990SOL    HW2 6870   4.309   6.256   0.597
 1991SOL     OW 6871   3.005   5.940   1.837
 1991SOL    HW1 6872   2.935   6.012   1.828
 1991SOL    HW2 6873   2.984   5.865   1.775
 1992SOL     OW 6874   1.292   6.713   3.257
 1992SOL    HW1 6875   1.343   6.714   3.343
 1992SOL    HW2 6876   1.353   6.691   3.181
 1993SOL     OW 6877   2.022   1.646   2.297
 1993SOL    HW1 6878   2.081   1.659   2.217
 1993SOL    HW2 6879   1.969   1.562   2.285
 1994SOL     OW 6880   3.097   3.570   1.571
 1994SOL    HW1 6881   3.003   3.585   1.542
 1994SOL    HW2 6882   3.146   3.520   1.500
 1995SOL     OW 6883   6.135   1.069   4.008
 1995SOL    HW1 6884   6.144   1.159   4.050
 1995SOL    HW2 6885   6.109   1.079   3.912
 1996SOL     OW 6886   4.446   0.337   0.961
 1996SOL    HW1 6887   4.400   0.397   0.896
 1996SOL    HW2 6888   4.468   0.388   1.044
 1997SOL     OW 6889   3.721   1.553   3.440
 1997SOL    HW1 6890   3.648   1.533   3.375
 1997SOL    HW2 6891   3.808   1.524   3.402
 1998SOL     OW 6892   2.533   3.580   1.080
 1998SOL    HW1 6893   2.481   3.559   1.163
 1998SOL    HW2 6894   2.504   3.520   1.006
 1999SOL     OW 6895   0.758   0.156   6.532
 1999SOL    HW1 6896   0.852   0.134   6.557
 1999SOL    HW2 6897   0.736   0.113   6.444
 2000SOL     OW 6898   4.245   4.545   6.225
 2000SOL    HW1 6899   4.236   4.448   6.247
 2000SOL    HW2 6900   4.195   4.599   6.293
 2001SOL     OW 6901   1.381   2.198   1.084
 2001SOL    HW1 6902   1.460   2.150   1.046
 2001SOL    HW2 6903   1.303   2.187   1.022
 2002SOL     OW 6904   6.002   5.348   0.552
 2002SOL    HW1 6905   5.977   5.269   0.608
 2002SOL    HW2 6906   6.010   5.319   0.456
 2003SOL     OW 6907   5.978   5.707   1.233
 2003SOL    HW1 6908   5.886   5.720   1.197
 2003SOL    HW2 6909   6.004   5.785   1.289
 2004SOL     OW 6910   3.924   0.376   2.726
 2004SOL    HW1 6911   3.971   0.427   2.798
 2004SOL    HW2 6912   3.830   0.358   2.755
 2005SOL     OW 6913   1.754   6.905   0.262
 2005SOL    HW1 6914   1.748   6.960   0.345
 2005SOL    HW2 6915   1.665   6.864   0.243
 2006SOL     OW 6916   6.179   0.135   2.250
 2006SOL    HW1 6917   6.251   0.105   2.312
 2006SOL    HW2 6918   6.130   0.212   2.291
 2007SOL     OW 6919   5.392   5.163   5.696
 2007SOL    HW1 6920   5.481   5.196   5.727
 2007SOL    HW2 6921   5.349   5.109   5.768
 2008SOL     OW 6922   1.833   3.480   2.807
 2008SOL    HW1 6923   1.832   3.504   2.904
 2008SOL    HW2 6924   1.927   3.458   2.779
 2009SOL     OW 6925   6.110   0.077   3.196
 2009SOL    HW1 6926   6.045   0.025   3.141
 2009SOL    HW2 6927   6.203   0.043   3.179
 2010SOL     OW 6928   0.202   1.463   1.744
 2010SOL    HW1 6929   0.264   1.495   1.816
 2010SOL    HW2 6930   0.242   1.484   1.655
 2011SOL     OW 6931   0.879   0.108   5.307
 2011SOL    HW1 6932   0.953   0.041   5.306
 2011SOL    HW2 6933   0.876   0.155   5.219
 2012SOL     OW 6934   0.129   2.646   0.494
 2012SOL    HW1 6935   0.134   2.741   0.463
 2012SOL    HW2 6936   0.122   2.644   0.594
 2013SOL     OW 6937   1.062   2.942   2.407
 2013SOL    HW1 6938   0.999   2.938   2.485
 2013SOL    HW2 6939   1.092   3.036   2.393
 2014SOL     OW 6940   3.733   1.627   4.135
 2014SOL    HW1 6941   3.751   1.642   4.233
 2014SOL    HW2 6942   3.819   1.605   4.089
 2015SOL     OW 6943   3.972   6.198   1.382
 2015SOL    HW1 6944   3.985   6.113   1.433
 2015SOL    HW2 6945   3.905   6.184   1.309
 2016SOL     OW 6946   1.660   0.926   5.496
 2016SOL    HW1 6947   1.722   0.955   5.569
 2016SOL    HW2 6948   1.629   0.832   5.514
 2017SOL     OW 6949   2.475   6.758   4.651
 2017SOL    HW1 6950   2.550   6.706   4.610
 2017SOL    HW2 6951   2.508   6.807   4.732
 2018SOL     OW 6952   0.429   0.165   4.684
 2018SOL    HW1 6953   0.521   0.126   4.680
 2018SOL    HW2 6954   0.376   0.130   4.606
 2019SOL     OW 6955   6.839   4.538   6.847
 2019SOL    HW1 6956   6.749   4.581   6.839
 2019SOL    HW2 6957   6.865   4.500   6.758
 2020SOL     OW 6958   1.767   6.751   1.358
 2020SOL    HW1 6959   1.668   6.767   1.358
 2020SOL    HW2 6960   1.808   6.796   1.278
 2021SOL     OW 6961   0.073   5.679   4.227
 2021SOL    HW1 6962   0.004   5.669   4.156
 2021SOL    HW2 6963   0.157   5.718   4.187
 2022SOL     OW 6964   1.846   3.129   4.455
 2022SOL    HW1 6965   1.933   3.169   4.425
 2022SOL    HW2 6966   1.812   3.179   4.534
 2023SOL     OW 6967   0.702   5.297   0.033
 2023SOL    HW1 6968   0.797   5.329   0.032
 2023SOL    HW2 6969   0.661   5.315   0.123
 2024SOL     OW 6970   6.646   5.885   3.763
 2024SOL    HW1 6971   6.567   5.870   3.822
 2024SOL    HW2 6972   6.630   5.964   3.704
 2025SOL     OW 6973   2.175   0.092   4.258
 2025SOL    HW1 6974   2.256   0.106   4.314
 2025SOL    HW2 6975   2.155   0.176   4.206
 2026SOL     OW 6976   1.700   0.089   5.584
 2026SOL    HW1 6977   1.674   0.095   5.487
 2026SOL    HW2 6978   1.746   0.002   5.600
 2027SOL     OW 6979   6.514   6.239   2.997
 2027SOL    HW1 6980   6.560   6.326   2.977
 2027SOL    HW2 6981   6.432   6.256   3.051
 2028SOL     OW 6982   2.485   6.131   5.239
 2028SOL    HW1 6983   2.510   6.200   5.170
 2028SOL    HW2 6984   2.548   6.137   5.316
 2029SOL     OW 6985   6.216   1.910   6.695
 2029SOL    HW1 6986   6.147   1.842   6.672
 2029SOL    HW2 6987   6.253   1.950   6.611
 2030SOL     OW 6988   1.843   6.514   2.911
 2030SOL    HW1 6989   1.876   6.422   2.933
 2030SOL    HW2 6990   1.900   6.553   2.839
 2031SOL     OW 6991   0.314   6.678   5.689
 2031SOL    HW1 6992   0.295   6.582   5.670
 2031SOL    HW2 6993   0.256   6.735   5.631
 2032SOL     OW 6994   2.496   3.131   6.572
 2032SOL    HW1 6995   2.420   3.131   6.507
 2032SOL    HW2 6996   2.566   3.067   6.542
 2033SOL     OW 6997   2.641   0.828   1.304
 2033SOL    HW1 6998   2.602   0.750   1.256
 2033SOL    HW2 6999   2.586   0.849   1.386
 2034SOL     OW 7000   0.384   4.277   5.060
 2034SOL    HW1 7001   0.384   4.229   5.148
 2034SOL    HW2 7002   0.346   4.369   5.073
 2035SOL     OW 7003   5.917   5.285   2.561
 2035SOL    HW1 7004   5.891   5.191   2.541
 2035SOL    HW2 7005   5.842   5.332   2.607
 2036SOL     OW 7006   0.506   3.920   6.138
 2036SOL    HW1 7007   0.581   3.907   6.203
 2036SOL    HW2 7008   0.453   3.836   6.131
 2037SOL     OW 7009   0.635   2.447   6.633
 2037SOL    HW1 7010   0.650   2.540   6.670
 2037SOL    HW2 7011   0.570   2.399   6.691
 2038SOL     OW 7012   1.395   0.715   5.859
 2038SOL    HW1 7013   1.362   0.770   5.935
 2038SOL    HW2 7014   1.359   0.622   5.866
 2039SOL     OW 7015   5.291   5.881   4.183
 2039SOL    HW1 7016   5.378   5.929   4.193
 2039SOL    HW2 7017   5.302   5.787   4.216
 2040SOL     OW 7018   2.457   1.809   0.888
 2040SOL    HW1 7019   2.365   1.771   0.892
 2040SOL    HW2 7020   2.452   1.906   0.864
 2041SOL     OW 7021   3.137   6.543   6.948
 2041SOL    HW1 7022   3.075   6.506   7.018
 2041SOL    HW2 7023   3.091   6.617   6.899
 2042SOL     OW 7024   0.316   0.140   5.489
 2042SOL    HW1 7025   0.294   0.182   5.577
 2042SOL    HW2 7026   0.240   0.151   5.426
 2043SOL     OW 7027   0.798   3.744   0.214
 2043SOL    HW1 7028   0.768   3.657   0.175
 2043SOL    HW2 7029   0.810   3.733   0.313
 2044SOL     OW 7030   4.044   0.826   1.850
 2044SOL    HW1 7031   3.977   0.895   1.879
 2044SOL    HW2 7032   4.065   0.766   1.927
 2045SOL     OW 7033   1.796   5.839   3.250
 2045SOL    HW1 7034   1.759   5.918   3.299
 2045SOL    HW2 7035   1.860   5.870   3.180
 2046SOL     OW 7036   0.892   2.825   6.176
 2046SOL    HW1 7037   0.961   2.896   6.190
 2046SOL    HW2 7038   0.806   2.868   6.148
 2047SOL     OW 7039   7.016   6.948   1.687
 2047SOL    HW1 7040   6.941   7.013   1.690
 2047SOL    HW2 7041   6.981   6.858   1.659
 2048SOL     OW 7042   1.715   0.888   3.450
 2048SOL    HW1 7043   1.810   0.919   3.448
 2048SOL    HW2 7044   1.654   0.966   3.434
 2049SOL     OW 7045   4.588   2.101   5.313
 2049SOL    HW1 7046   4.672   2.049   5.330
 2049SOL    HW2 7047   4.541   2.062   5.234
 2050SOL     OW 7048   0.272   0.971   2.694
 2050SOL    HW1 7049   0.366   1.001   2.679
 2050SOL    HW2 7050   0.210   1.049   2.690
 2051SOL     OW 7051   2.901   0.040   6.655
 2051SOL    HW1 7052   2.878   6.972   6.627
 2051SOL    HW2 7053   2.992   0.064   6.621
 2052SOL     OW 7054   6.818   4.163   1.159
 2052SOL    HW1 7055   6.856   4.250   1.189
 2052SOL    HW2 7056   6.769   4.176   1.073
 2053SOL     OW 7057   4.904   4.990   1.905
 2053SOL    HW1 7058   4.962   5.066   1.932
 2053SOL    HW2 7059   4.924   4.965   1.810
 2054SOL     OW 7060   3.428   4.018   3.087
 2054SOL    HW1 7061   3.490   4.075   3.142
 2054SOL    HW2 7062   3.393   3.943   3.143
 2055SOL     OW 7063   4.141   2.676   5.993
 2055SOL    HW1 7064   4.089   2.634   6.067
 2055SOL    HW2 7065   4.201   2.747   6.030
 2056SOL     OW 7066   2.548   4.785   1.815
 2056SOL    HW1 7067   2.495   4.848   1.759
 2056SOL    HW2 7068   2.640   4.775   1.775
 2057SOL     OW 7069   5.798   2.987   3.845
 2057SOL    HW1 7070   5.851   3.010   3.926
 2057SOL    HW2 7071   5.801   3.063   3.780
 2058SOL     OW 7072   5.301   7.015   3.681
 2058SOL    HW1 7073   5.201   7.011   3.686
 2058SOL    HW2 7074   5.336   6.925   3.655
 2059SOL     OW 7075   2.428   1.426   5.886
 2059SOL    HW1 7076   2.334   1.456   5.903
 2059SOL    HW2 7077   2.428   1.349   5.823
 2060SOL     OW 7078   1.236   2.518   6.614
 2060SOL    HW1 7079   1.234   2.545   6.518
 2060SOL    HW2 7080   1.189   2.431   6.625
 2061SOL     OW 7081   1.701   2.103   4.186
 2061SOL    HW1 7082   1.777   2.167   4.183
 2061SOL    HW2 7083   1.712   2.041   4.264
 2062SOL     OW 7084   5.556   5.616   4.222
 2062SOL    HW1 7085   5.508   5.610   4.309
 2062SOL    HW2 7086   5.492   5.644   4.150
 2063SOL     OW 7087   1.421   1.282   4.104
 2063SOL    HW1 7088   1.392   1.193   4.139
 2063SOL    HW2 7089   1.492   1.320   4.163
 2064SOL     OW 7090   0.558   4.072   4.913
 2064SOL    HW1 7091   0.482   4.131   4.939
 2064SOL    HW2 7092   0.640   4.098   4.964
 2065SOL     OW 7093   4.133   3.445   6.035
 2065SOL    HW1 7094   4.158   3.394   6.118
 2065SOL    HW2 7095   4.165   3.540   6.044
 2066SOL     OW 7096   1.928   2.879   4.691
 2066SOL    HW1 7097   1.909   2.949   4.622
 2066SOL    HW2 7098   1.915   2.918   4.782
 2067SOL     OW 7099   6.546   5.233   2.385
 2067SOL    HW1 7100   6.560   5.330   2.368
 2067SOL    HW2 7101   6.634   5.187   2.394
 2068SOL     OW 7102   3.507   6.507   3.987
 2068SOL    HW1 7103   3.512   6.418   3.942
 2068SOL    HW2 7104   3.595   6.553   3.979
 2069SOL     OW 7105   6.435   1.623   3.257
 2069SOL    HW1 7106   6.432   1.643   3.159
 2069SOL    HW2 7107   6.359   1.563   3.282
 2070SOL     OW 7108   0.082   4.996   2.047
 2070SOL    HW1 7109   0.165   4.940   2.045
 2070SOL    HW2 7110   0.031   4.984   1.961
 2071SOL     OW 7111   6.962   2.310   4.122
 2071SOL    HW1 7112   6.969   2.357   4.210
 2071SOL    HW2 7113   0.027   2.299   4.083
 2072SOL     OW 7114   5.587   3.152   5.668
 2072SOL    HW1 7115   5.496   3.162   5.707
 2072SOL    HW2 7116   5.580   3.133   5.571
 2073SOL     OW 7117   3.715   5.092   6.977
 2073SOL    HW1 7118   3.741   5.048   0.038
 2073SOL    HW2 7119   3.620   5.121   6.982
 2074SOL     OW 7120   3.877   4.843   5.178
 2074SOL    HW1 7121   3.839   4.882   5.094
 2074SOL    HW2 7122   3.840   4.892   5.257
 2075SOL     OW 7123   5.408   1.710   1.028
 2075SOL    HW1 7124   5.331   1.725   1.091
 2075SOL    HW2 7125   5.430   1.612   1.025
 2076SOL     OW 7126   6.718   6.839   3.784
 2076SOL    HW1 7127   6.801   6.873   3.740
 2076SOL    HW2 7128   6.676   6.912   3.837
 2077SOL     OW 7129   0.100   4.321   1.031
 2077SOL    HW1 7130   0.046   4.375   0.966
 2077SOL    HW2 7131   0.056   4.321   1.120
 2078SOL     OW 7132   0.697   2.718   6.716
 2078SOL    HW1 7133   0.724   2.806   6.677
 2078SOL    HW2 7134   0.654   2.733   6.805
 2079SOL     OW 7135   6.159   1.970   3.317
 2079SOL    HW1 7136   6.116   1.983   3.228
 2079SOL    HW2 7137   6.113   1.895   3.365
 2080SOL     OW 7138   2.348   3.467   5.842
 2080SOL    HW1 7139   2.353   3.557   5.798
 2080SOL    HW2 7140   2.414   3.406   5.799
 2081SOL     OW 7141   0.530   6.040   2.610
 2081SOL    HW1 7142   0.595   6.089   2.552
 2081SOL    HW2 7143   0.473   6.106   2.659
 2082SOL     OW 7144   6.688   6.123   3.609
 2082SOL    HW1 7145   6.606   6.161   3.566
 2082SOL    HW2 7146   6.760   6.192   3.609
 2083SOL     OW 7147   0.507   5.278   3.523
 2083SOL    HW1 7148   0.512   5.299   3.425
 2083SOL    HW2 7149   0.570   5.203   3.544
 2084SOL     OW 7150   6.333   2.466   1.381
 2084SOL    HW1 7151   6.410   2.474   1.444
 2084SOL    HW2 7152   6.262   2.408   1.422
 2085SOL     OW 7153   5.995   5.547   6.838
 2085SOL    HW1 7154   6.091   5.529   6.817
 2085SOL    HW2 7155   5.950   5.461   6.864
 2086SOL     OW 7156   6.149   6.918   5.549
 2086SOL    HW1 7157   6.221   6.981   5.577
 2086SOL    HW2 7158   6.073   6.970   5.509
 2087SOL     OW 7159   4.637   1.761   6.715
 2087SOL    HW1 7160   4.735   1.739   6.720
 2087SOL    HW2 7161   4.592   1.696   6.653
 2088SOL     OW 7162   0.499   3.780   5.800
 2088SOL    HW1 7163   0.495   3.868   5.847
 2088SOL    HW2 7164   0.424   3.722   5.830
 2089SOL     OW 7165   3.167   5.268   5.384
 2089SOL    HW1 7166   3.182   5.180   5.431
 2089SOL    HW2 7167   3.205   5.263   5.292
 2090SOL     OW 7168   5.196   2.031   6.530
 2090SOL    HW1 7169   5.193   2.113   6.473
 2090SOL    HW2 7170   5.241   2.052   6.617
 2091SOL     OW 7171   5.333   6.548   0.869
 2091SOL    HW1 7172   5.431   6.557   0.851
 2091SOL    HW2 7173   5.284   6.626   0.830
 2092SOL     OW 7174   3.196   3.007   2.450
 2092SOL    HW1 7175   3.118   3.068   2.438
 2092SOL    HW2 7176   3.228   2.975   2.361
 2093SOL     OW 7177   5.019   6.876   0.435
 2093SOL    HW1 7178   5.102   6.857   0.383
 2093SOL    HW2 7179   5.033   6.956   0.493
 2094SOL     OW 7180   4.848   2.831   0.761
 2094SOL    HW1 7181   4.849   2.818   0.662
 2094SOL    HW2 7182   4.931   2.880   0.788
 2095SOL     OW 7183   4.957   5.317   2.994
 2095SOL    HW1 7184   4.993   5.227   3.020
 2095SOL    HW2 7185   4.877   5.304   2.936
 2096SOL     OW 7186   4.127   6.603   2.933
 2096SOL    HW1 7187   4.148   6.625   2.838
 2096SOL    HW2 7188   4.070   6.522   2.937
 2097SOL     OW 7189   1.696   5.841   5.637
 2097SOL    HW1 7190   1.640   5.788   5.574
 2097SOL    HW2 7191   1.792   5.815   5.627
 2098SOL     OW 7192   1.794   0.108   3.706
 2098SOL    HW1 7193   1.847   0.055   3.772
 2098SOL    HW2 7194   1.820   0.082   3.613
 2099SOL     OW 7195   4.469   1.964   6.760
 2099SOL    HW1 7196   4.524   2.045   6.738
 2099SOL    HW2 7197   4.525   1.882   6.749
 2100SOL     OW 7198   4.636   0.423   0.448
 2100SOL    HW1 7199   4.539   0.447   0.443
 2100SOL    HW2 7200   4.682   0.455   0.365
 2101SOL     OW 7201   1.840   0.733   2.530
 2101SOL    HW1 7202   1.767   0.789   2.489
 2101SOL    HW2 7203   1.802   0.644   2.554
 2102SOL     OW 7204   3.454   2.750   1.829
 2102SOL    HW1 7205   3.471   2.783   1.922
 2102SOL    HW2 7206   3.376   2.687   1.830
 2103SOL     OW 7207   1.856   0.106   1.199
 2103SOL    HW1 7208   1.953   0.090   1.221
 2103SOL    HW2 7209   1.848   0.132   1.103
 2104SOL     OW 7210   1.119   4.221   2.617
 2104SOL    HW1 7211   1.140   4.297   2.679
 2104SOL    HW2 7212   1.154   4.136   2.657
 2105SOL     OW 7213   5.310   6.708   5.164
 2105SOL    HW1 7214   5.407   6.707   5.189
 2105SOL    HW2 7215   5.279   6.614   5.148
 2106SOL     OW 7216   3.436   2.387   1.357
 2106SOL    HW1 7217   3.516   2.372   1.415
 2106SOL    HW2 7218   3.447   2.334   1.272
 2107SOL     OW 7219   5.540   4.233   4.790
 2107SOL    HW1 7220   5.625   4.272   4.755
 2107SOL    HW2 7221   5.468   4.302   4.787
 2108SOL     OW 7222   4.777   6.943   5.280
 2108SOL    HW1 7223   4.874   6.949   5.306
 2108SOL    HW2 7224   4.747   0.005   5.242
 2109SOL     OW 7225   2.924   5.725   1.711
 2109SOL    HW1 7226   2.830   5.722   1.676
 2109SOL    HW2 7227   2.967   5.636   1.698
 2110SOL     OW 7228   4.270   5.716   6.586
 2110SOL    HW1 7229   4.268   5.622   6.621
 2110SOL    HW2 7230   4.180   5.758   6.599
 2111SOL     OW 7231   0.493   2.786   0.295
 2111SOL    HW1 7232   0.567   2.809   0.358
 2111SOL    HW2 7233   0.453   2.698   0.322
 2112SOL     OW 7234   0.680   0.524   6.939
 2112SOL    HW1 7235   0.671   0.499   0.010
 2112SOL    HW2 7236   0.755   0.473   6.898
 2113SOL     OW 7237   6.852   1.490   4.465
 2113SOL    HW1 7238   6.946   1.523   4.454
 2113SOL    HW2 7239   6.811   1.533   4.546
 2114SOL     OW 7240   2.896   1.143   5.254
 2114SOL    HW1 7241   2.853   1.077   5.193
 2114SOL    HW2 7242   2.878   1.236   5.222
 2115SOL     OW 7243   6.413   6.767   3.521
 2115SOL    HW1 7244   6.403   6.762   3.620
 2115SOL    HW2 7245   6.338   6.821   3.482
 2116SOL     OW 7246   2.222   1.139   6.165
 2116SOL    HW1 7247   2.218   1.042   6.190
 2116SOL    HW2 7248   2.283   1.151   6.088
 2117SOL     OW 7249   5.684   2.962   2.235
 2117SOL    HW1 7250   5.606   3.020   2.257
 2117SOL    HW2 7251   5.652   2.869   2.219
 2118SOL     OW 7252   0.021   2.983   2.952
 2118SOL    HW1 7253   0.011   3.078   2.923
 2118SOL    HW2 7254   6.971   2.958   3.013
 2119SOL     OW 7255   1.697   2.585   0.417
 2119SOL    HW1 7256   1.721   2.527   0.495
 2119SOL    HW2 7257   1.658   2.671   0.451
 2120SOL     OW 7258   5.643   2.195   0.973
 2120SOL    HW1 7259   5.632   2.185   0.874
 2120SOL    HW2 7260   5.633   2.105   1.016
 2121SOL     OW 7261   3.324   6.090   1.599
 2121SOL    HW1 7262   3.332   6.003   1.649
 2121SOL    HW2 7263   3.239   6.090   1.547
 2122SOL     OW 7264   0.331   0.522   5.245
 2122SOL    HW1 7265   0.428   0.542   5.232
 2122SOL    HW2 7266   0.306   0.536   5.341
 2123SOL     OW 7267   1.171   4.938   3.229
 2123SOL    HW1 7268   1.178   4.941   3.129
 2123SOL    HW2 7269   1.082   4.902   3.255
 2124SOL     OW 7270   4.792   2.965   6.011
 2124SOL    HW1 7271   4.872   3.007   5.967
 2124SOL    HW2 7272   4.710   3.018   5.988
 2125SOL     OW 7273   1.774   5.527   5.923
 2125SOL    HW1 7274   1.718   5.445   5.937
 2125SOL    HW2 7275   1.728   5.605   5.966
 2126SOL     OW 7276   2.731   5.101   1.851
 2126SOL    HW1 7277   2.709   5.069   1.758
 2126SOL    HW2 7278   2.824   5.075   1.875
 2127SOL     OW 7279   1.587   3.538   4.143
 2127SOL    HW1 7280   1.586   3.465   4.075
 2127SOL    HW2 7281   1.682   3.559   4.167
 2128SOL     OW 7282   5.380   2.757   1.381
 2128SOL    HW1 7283   5.388   2.660   1.404
 2128SOL    HW2 7284   5.471   2.798   1.376
 2129SOL     OW 7285   6.203   4.188   3.904
 2129SOL    HW1 7286   6.141   4.128   3.854
 2129SOL    HW2 7287   6.295   4.179   3.867
 2130SOL     OW 7288   2.168   0.450   2.666
 2130SOL    HW1 7289   2.167   0.483   2.760
 2130SOL    HW2 7290   2.084   0.480   2.619
 2131SOL     OW 7291   5.562   0.881   6.747
 2131SOL    HW1 7292   5.473   0.880   6.791
 2131SOL    HW2 7293   5.589   0.787   6.725
 2132SOL     OW 7294   2.629   2.020   0.054
 2132SOL    HW1 7295   2.606   2.064   6.993
 2132SOL    HW2 7296   2.635   2.090   0.126
 2133SOL     OW 7297   4.267   2.662   1.647
 2133SOL    HW1 7298   4.325   2.643   1.569
 2133SOL    HW2 7299   4.254   2.761   1.656
 2134SOL     OW 7300   2.505   0.331   5.294
 2134SOL    HW1 7301   2.521   0.285   5.382
 2134SOL    HW2 7302   2.407   0.334   5.276
 2135SOL     OW 7303   0.957   5.791   4.550
 2135SOL    HW1 7304   1.040   5.800   4.495
 2135SOL    HW2 7305   0.888   5.855   4.517
 2136SOL     OW 7306   0.915   4.878   3.566
 2136SOL    HW1 7307   0.841   4.830   3.613
 2136SOL    HW2 7308   0.984   4.907   3.633
 2137SOL     OW 7309   0.179   7.005   4.863
 2137SOL    HW1 7310   0.228   0.051   4.914
 2137SOL    HW2 7311   0.245   6.948   4.813
 2138SOL     OW 7312   1.066   2.304   6.654
 2138SOL    HW1 7313   0.993   2.310   6.586
 2138SOL    HW2 7314   1.099   2.210   6.659
 2139SOL     OW 7315   3.077   6.342   4.513
 2139SOL    HW1 7316   3.111   6.277   4.445
 2139SOL    HW2 7317   3.036   6.420   4.466
 2140SOL     OW 7318   1.559   5.907   3.817
 2140SOL    HW1 7319   1.516   5.921   3.906
 2140SOL    HW2 7320   1.513   5.833   3.768
 2141SOL     OW 7321   6.651   1.091   6.746
 2141SOL    HW1 7322   6.683   1.120   6.656
 2141SOL    HW2 7323   6.579   1.153   6.778
 2142SOL     OW 7324   4.167   1.068   2.915
 2142SOL    HW1 7325   4.185   1.001   2.987
 2142SOL    HW2 7326   4.158   1.159   2.956
 2143SOL     OW 7327   3.597   5.828   0.674
 2143SOL    HW1 7328   3.606   5.757   0.604
 2143SOL    HW2 7329   3.561   5.911   0.632
 2144SOL     OW 7330   1.118   1.282   1.796
 2144SOL    HW1 7331   1.052   1.345   1.839
 2144SOL    HW2 7332   1.143   1.211   1.861
 2145SOL     OW 7333   2.536   6.367   3.688
 2145SOL    HW1 7334   2.436   6.365   3.686
 2145SOL    HW2 7335   2.572   6.296   3.627
 2146SOL     OW 7336   2.983   2.535   0.990
 2146SOL    HW1 7337   2.921   2.456   0.999
 2146SOL    HW2 7338   3.039   2.524   0.908
 2147SOL     OW 7339   6.715   7.009   4.874
 2147SOL    HW1 7340   6.785   0.006   4.807
 2147SOL    HW2 7341   6.639   6.962   4.829
 2148SOL     OW 7342   6.605   3.884   3.986
 2148SOL    HW1 7343   6.591   3.957   3.919
 2148SOL    HW2 7344   6.696   3.891   4.027
 2149SOL     OW 7345   2.866   0.964   2.498
 2149SOL    HW1 7346   2.910   0.993   2.583
 2149SOL    HW2 7347   2.843   0.867   2.503
 2150SOL     OW 7348   4.826   0.298   2.555
 2150SOL    HW1 7349   4.895   0.293   2.627
 2150SOL    HW2 7350   4.835   0.385   2.506
 2151SOL     OW 7351   4.301   4.866   5.694
 2151SOL    HW1 7352   4.229   4.859   5.625
 2151SOL    HW2 7353   4.294   4.955   5.740
 2152SOL     OW 7354   0.455   6.642   2.624
 2152SOL    HW1 7355   0.508   6.670   2.704
 2152SOL    HW2 7356   0.385   6.711   2.605
 2153SOL     OW 7357   4.391   1.440   3.557
 2153SOL    HW1 7358   4.417   1.460   3.652
 2153SOL    HW2 7359   4.463   1.386   3.513
 2154SOL     OW 7360   3.933   6.631   4.485
 2154SOL    HW1 7361   3.863   6.621   4.414
 2154SOL    HW2 7362   3.975   6.542   4.503
 2155SOL     OW 7363   6.108   3.601   0.508
 2155SOL    HW1 7364   6.076   3.679   0.455
 2155SOL    HW2 7365   6.065   3.601   0.598
 2156SOL     OW 7366   6.238   6.256   2.726
 2156SOL    HW1 7367   6.231   6.186   2.797
 2156SOL    HW2 7368   6.288   6.220   2.648
 2157SOL     OW 7369   5.898   1.371   3.498
 2157SOL    HW1 7370   5.869   1.370   3.402
 2157SOL    HW2 7371   5.924   1.279   3.526
 2158SOL     OW 7372   4.276   0.237   3.403
 2158SOL    HW1 7373   4.363   0.189   3.397
 2158SOL    HW2 7374   4.219   0.212   3.325
 2159SOL     OW 7375   2.600   1.198   5.497
 2159SOL    HW1 7376   2.699   1.206   5.507
 2159SOL    HW2 7377   2.571   1.243   5.413
 2160SOL     OW 7378   2.208   4.054   0.867
 2160SOL    HW1 7379   2.121   4.031   0.910
 2160SOL    HW2 7380   2.245   4.137   0.910
 2161SOL     OW 7381   4.291   2.293   3.616
 2161SOL    HW1 7382   4.248   2.215   3.662
 2161SOL    HW2 7383   4.343   2.346   3.683
 2162SOL     OW 7384   2.710   1.880   2.335
 2162SOL    HW1 7385   2.675   1.805   2.390
 2162SOL    HW2 7386   2.660   1.964   2.356
 2163SOL     OW 7387   3.429   1.981   1.042
 2163SOL    HW1 7388   3.505   1.998   0.980
 2163SOL    HW2 7389   3.422   1.883   1.061
 2164SOL     OW 7390   6.560   0.972   1.457
 2164SOL    HW1 7391   6.657   0.963   1.484
 2164SOL    HW2 7392   6.545   0.924   1.371
 2165SOL     OW 7393   2.555   0.976   2.074
 2165SOL    HW1 7394   2.513   0.972   2.164
 2165SOL    HW2 7395   2.602   0.889   2.055
 2166SOL     OW 7396   5.462   2.812   4.808
 2166SOL    HW1 7397   5.438   2.748   4.735
 2166SOL    HW2 7398   5.410   2.896   4.798
 2167SOL     OW 7399   3.242   1.661   0.956
 2167SOL    HW1 7400   3.226   1.638   1.052
 2167SOL    HW2 7401   3.176   1.613   0.898
 2168SOL     OW 7402   5.250   6.321   4.206
 2168SOL    HW1 7403   5.268   6.293   4.112
 2168SOL    HW2 7404   5.336   6.335   4.254
 2169SOL     OW 7405   5.457   1.613   6.020
 2169SOL    HW1 7406   5.479   1.575   5.930
 2169SOL    HW2 7407   5.540   1.650   6.062
 2170SOL     OW 7408   5.029   5.302   4.122
 2170SOL    HW1 7409   5.102   5.371   4.113
 2170SOL    HW2 7410   5.041   5.252   4.207
 2171SOL     OW 7411   0.487   3.852   0.263
 2171SOL    HW1 7412   0.519   3.786   0.331
 2171SOL    HW2 7413   0.480   3.943   0.305
 2172SOL     OW 7414   2.246   0.186   2.692
 2172SOL    HW1 7415   2.261   0.207   2.788
 2172SOL    HW2 7416   2.227   0.270   2.641
 2173SOL     OW 7417   4.737   2.088   4.768
 2173SOL    HW1 7418   4.734   2.154   4.843
 2173SOL    HW2 7419   4.690   2.127   4.689
 2174SOL     OW 7420   1.356   5.907   4.810
 2174SOL    HW1 7421   1.410   5.823   4.820
 2174SOL    HW2 7422   1.390   5.976   4.873
 2175SOL     OW 7423   1.676   6.653   6.297
 2175SOL    HW1 7424   1.652   6.571   6.349
 2175SOL    HW2 7425   1.774   6.670   6.305
 2176SOL     OW 7426   1.985   2.703   2.547
 2176SOL    HW1 7427   1.952   2.744   2.632
 2176SOL    HW2 7428   2.016   2.610   2.564
 2177SOL     OW 7429   1.149   1.563   1.488
 2177SOL    HW1 7430   1.059   1.587   1.524
 2177SOL    HW2 7431   1.219   1.616   1.536
 2178SOL     OW 7432   6.357   6.012   0.137
 2178SOL    HW1 7433   6.284   5.945   0.147
 2178SOL    HW2 7434   6.359   6.071   0.218
 2179SOL     OW 7435   2.171   3.814   4.029
 2179SOL    HW1 7436   2.182   3.884   4.099
 2179SOL    HW2 7437   2.142   3.728   4.072
 2180SOL     OW 7438   2.918   3.133   1.858
 2180SOL    HW1 7439   3.008   3.104   1.826
 2180SOL    HW2 7440   2.926   3.170   1.951
 2181SOL     OW 7441   3.530   6.784   1.152
 2181SOL    HW1 7442   3.594   6.773   1.229
 2181SOL    HW2 7443   3.516   6.696   1.108
 2182SOL     OW 7444   4.222   3.371   0.946
 2182SOL    HW1 7445   4.260   3.375   0.854
 2182SOL    HW2 7446   4.293   3.339   1.009
 2183SOL     OW 7447   4.087   2.776   0.916
 2183SOL    HW1 7448   4.135   2.837   0.979
 2183SOL    HW2 7449   4.039   2.705   0.968
 2184SOL     OW 7450   4.986   2.635   5.634
 2184SOL    HW1 7451   5.065   2.596   5.586
 2184SOL    HW2 7452   4.931   2.687   5.568
 2185SOL     OW 7453   6.692   6.634   2.501
 2185SOL    HW1 7454   6.608   6.653   2.451
 2185SOL    HW2 7455   6.670   6.616   2.597
 2186SOL     OW 7456   0.169   4.254   3.442
 2186SOL    HW1 7457   0.128   4.188   3.504
 2186SOL    HW2 7458   0.222   4.206   3.372
 2187SOL     OW 7459   6.306   1.303   0.237
 2187SOL    HW1 7460   6.363   1.377   0.273
 2187SOL    HW2 7461   6.360   1.218   0.236
 2188SOL     OW 7462   4.344   1.408   3.814
 2188SOL    HW1 7463   4.341   1.426   3.913
 2188SOL    HW2 7464   4.392   1.322   3.797
 2189SOL     OW 7465   3.911   6.362   0.106
 2189SOL    HW1 7466   3.836   6.304   0.075
 2189SOL    HW2 7467   3.986   6.358   0.039
 2190SOL     OW 7468   5.481   3.327   0.427
 2190SOL    HW1 7469   5.536   3.407   0.403
 2190SOL    HW2 7470   5.394   3.356   0.465
 2191SOL     OW 7471   3.810   0.784   6.651
 2191SOL    HW1 7472   3.760   0.757   6.734
 2191SOL    HW2 7473   3.768   0.865   6.612
 2192SOL     OW 7474   4.101   6.143   2.308
 2192SOL    HW1 7475   4.010   6.155   2.267
 2192SOL    HW2 7476   4.091   6.130   2.407
 2193SOL     OW 7477   6.847   6.026   4.788
 2193SOL    HW1 7478   6.907   6.034   4.708
 2193SOL    HW2 7479   6.903   6.025   4.871
 2194SOL     OW 7480   2.597   0.242   1.544
 2194SOL    HW1 7481   2.538   0.319   1.517
 2194SOL    HW2 7482   2.546   0.156   1.535
 2195SOL     OW 7483   0.287   4.557   2.021
 2195SOL    HW1 7484   0.237   4.525   2.101
 2195SOL    HW2 7485   0.225   4.562   1.942
 2196SOL     OW 7486   4.314   3.810   0.162
 2196SOL    HW1 7487   4.280   3.898   0.197
 2196SOL    HW2 7488   4.238   3.745   0.156
 2197SOL     OW 7489   4.925   3.481   6.843
 2197SOL    HW1 7490   4.857   3.549   6.816
 2197SOL    HW2 7491   4.898   3.392   6.808
 2198SOL     OW 7492   0.094   4.066   0.535
 2198SOL    HW1 7493   0.138   4.138   0.589
 2198SOL    HW2 7494   0.121   4.076   0.439
 2199SOL     OW 7495   4.180   1.160   3.376
 2199SOL    HW1 7496   4.126   1.118   3.449
 2199SOL    HW2 7497   4.264   1.108   3.362
 2200SOL     OW 7498   3.816   6.904   4.108
 2200SOL    HW1 7499   3.827   6.924   4.205
 2200SOL    HW2 7500   3.723   6.871   4.091
 2201SOL     OW 7501   4.997   4.477   4.035
 2201SOL    HW1 7502   5.048   4.411   4.090
 2201SOL    HW2 7503   4.909   4.496   4.079
 2202SOL     OW 7504   4.607   5.930   3.522
 2202SOL    HW1 7505   4.527   5.980   3.490
 2202SOL    HW2 7506   4.612   5.934   3.621
 2203SOL     OW 7507   2.147   1.852   2.796
 2203SOL    HW1 7508   2.178   1.759   2.774
 2203SOL    HW2 7509   2.217   1.898   2.850
 2204SOL     OW 7510   3.444   2.258   1.100
 2204SOL    HW1 7511   3.352   2.287   1.074
 2204SOL    HW2 7512   3.453   2.159   1.086
 2205SOL     OW 7513   3.391   1.409   2.223
 2205SOL    HW1 7514   3.352   1.335   2.278
 2205SOL    HW2 7515   3.447   1.371   2.150
 2206SOL     OW 7516   1.133   4.241   0.135
 2206SOL    HW1 7517   1.198   4.290   0.193
 2206SOL    HW2 7518   1.155   4.257   0.039
 2207SOL     OW 7519   6.932   4.804   4.940
 2207SOL    HW1 7520   7.002   4.808   4.869
 2207SOL    HW2 7521   6.938   4.717   4.988
 2208SOL     OW 7522   6.648   5.569   1.736
 2208SOL    HW1 7523   6.578   5.629   1.777
 2208SOL    HW2 7524   6.657   5.589   1.639
 2209SOL     OW 7525   0.035   6.499   2.097
 2209SOL    HW1 7526   6.987   6.553   2.139
 2209SOL    HW2 7527   0.045   6.526   2.001
 2210SOL     OW 7528   2.483   4.888   3.797
 2210SOL    HW1 7529   2.466   4.932   3.885
 2210SOL    HW2 7530   2.452   4.948   3.724
 2211SOL     OW 7531   6.504   1.171   5.794
 2211SOL    HW1 7532   6.548   1.082   5.783
 2211SOL    HW2 7533   6.556   1.225   5.860
 2212SOL     OW 7534   3.082   0.020   6.319
 2212SOL    HW1 7535   3.096   6.994   6.235
 2212SOL    HW2 7536   2.998   7.014   6.364
 2213SOL     OW 7537   4.733   0.652   3.337
 2213SOL    HW1 7538   4.684   0.567   3.360
 2213SOL    HW2 7539   4.831   0.633   3.333
 2214SOL     OW 7540   3.713   6.905   4.757
 2214SOL    HW1 7541   3.634   6.910   4.696
 2214SOL    HW2 7542   3.797   6.898   4.702
 2215SOL     OW 7543   5.461   1.994   5.216
 2215SOL    HW1 7544   5.422   2.066   5.158
 2215SOL    HW2 7545   5.417   1.996   5.305
 2216SOL     OW 7546   2.987   1.693   2.697
 2216SOL    HW1 7547   2.895   1.665   2.725
 2216SOL    HW2 7548   3.053   1.621   2.720
 2217SOL     OW 7549   2.960   6.581   1.354
 2217SOL    HW1 7550   3.039   6.591   1.294
 2217SOL    HW2 7551   2.986   6.603   1.448
 2218SOL     OW 7552   0.226   0.678   2.203
 2218SOL    HW1 7553   0.129   0.672   2.181
 2218SOL    HW2 7554   0.238   0.729   2.288
 2219SOL     OW 7555   2.929   2.238   3.086
 2219SOL    HW1 7556   2.986   2.259   3.007
 2219SOL    HW2 7557   2.899   2.143   3.081
 2220SOL     OW 7558   1.708   7.002   2.458
 2220SOL    HW1 7559   1.746   0.038   2.527
 2220SOL    HW2 7560   1.709   0.022   2.369
 2221SOL     OW 7561   0.585   6.788   5.709
 2221SOL    HW1 7562   0.584   6.689   5.723
 2221SOL    HW2 7563   0.503   6.815   5.658
 2222SOL     OW 7564   6.135   5.196   4.091
 2222SOL    HW1 7565   6.054   5.174   4.036
 2222SOL    HW2 7566   6.163   5.115   4.143
 2223SOL     OW 7567   0.042   6.887   2.323
 2223SOL    HW1 7568   0.059   6.980   2.353
 2223SOL    HW2 7569   0.064   6.878   2.226
 2224SOL     OW 7570   1.084   6.125   0.399
 2224SOL    HW1 7571   1.182   6.112   0.385
 2224SOL    HW2 7572   1.067   6.137   0.497
 2225SOL     OW 7573   0.769   4.266   0.619
 2225SOL    HW1 7574   0.821   4.263   0.705
 2225SOL    HW2 7575   0.800   4.192   0.559
 2226SOL     OW 7576   3.709   3.587   2.519
 2226SOL    HW1 7577   3.765   3.668   2.502
 2226SOL    HW2 7578   3.623   3.595   2.469
 2227SOL     OW 7579   1.085   1.621   4.805
 2227SOL    HW1 7580   1.011   1.615   4.872
 2227SOL    HW2 7581   1.061   1.690   4.736
 2228SOL     OW 7582   2.448   4.427   4.501
 2228SOL    HW1 7583   2.486   4.370   4.574
 2228SOL    HW2 7584   2.358   4.460   4.527
 2229SOL     OW 7585   6.288   6.346   3.137
 2229SOL    HW1 7586   6.208   6.378   3.087
 2229SOL    HW2 7587   6.287   6.385   3.229
 2230SOL     OW 7588   2.088   5.244   2.908
 2230SOL    HW1 7589   2.122   5.155   2.937
 2230SOL    HW2 7590   2.089   5.308   2.985
 2231SOL     OW 7591   2.141   5.991   1.094
 2231SOL    HW1 7592   2.060   6.021   1.144
 2231SOL    HW2 7593   2.116   5.967   1.000
 2232SOL     OW 7594   5.809   1.828   3.746
 2232SOL    HW1 7595   5.747   1.804   3.821
 2232SOL    HW2 7596   5.763   1.811   3.658
 2233SOL     OW 7597   3.849   1.128   0.254
 2233SOL    HW1 7598   3.882   1.047   0.302
 2233SOL    HW2 7599   3.925   1.190   0.235
 2234SOL     OW 7600   4.433   2.562   1.444
 2234SOL    HW1 7601   4.462   2.470   1.469
 2234SOL    HW2 7602   4.394   2.560   1.352
 2235SOL     OW 7603   2.067   2.019   2.233
 2235SOL    HW1 7604   2.125   2.003   2.153
 2235SOL    HW2 7605   2.124   2.042   2.311
 2236SOL     OW 7606   0.968   4.151   5.625
 2236SOL    HW1 7607   0.874   4.130   5.650
 2236SOL    HW2 7608   0.986   4.248   5.638
 2237SOL     OW 7609   6.738   2.879   3.966
 2237SOL    HW1 7610   6.761   2.948   4.035
 2237SOL    HW2 7611   6.818   2.824   3.945
 2238SOL     OW 7612   5.384   5.735   6.777
 2238SOL    HW1 7613   5.327   5.693   6.847
 2238SOL    HW2 7614   5.414   5.825   6.809
 2239SOL     OW 7615   0.130   5.632   0.988
 2239SOL    HW1 7616   0.192   5.708   0.967
 2239SOL    HW2 7617   0.149   5.598   1.080
 2240SOL     OW 7618   6.042   3.970   1.679
 2240SOL    HW1 7619   5.982   3.906   1.729
 2240SOL    HW2 7620   6.022   4.063   1.708
 2241SOL     OW 7621   1.069   0.009   4.160
 2241SOL    HW1 7622   0.997   0.012   4.091
 2241SOL    HW2 7623   1.044   0.066   4.238
 2242SOL     OW 7624   2.695   1.675   3.068
 2242SOL    HW1 7625   2.673   1.578   3.056
 2242SOL    HW2 7626   2.639   1.713   3.142
 2243SOL     OW 7627   1.797   0.273   4.661
 2243SOL    HW1 7628   1.792   0.250   4.758
 2243SOL    HW2 7629   1.708   0.258   4.619
 2244SOL     OW 7630   3.561   0.494   5.347
 2244SOL    HW1 7631   3.564   0.448   5.436
 2244SOL    HW2 7632   3.524   0.431   5.278
 2245SOL     OW 7633   0.590   2.710   2.322
 2245SOL    HW1 7634   0.581   2.801   2.362
 2245SOL    HW2 7635   0.649   2.654   2.381
 2246SOL     OW 7636   0.727   4.273   5.421
 2246SOL    HW1 7637   0.702   4.263   5.325
 2246SOL    HW2 7638   0.705   4.188   5.470
 2247SOL     OW 7639   1.977   1.531   4.232
 2247SOL    HW1 7640   2.015   1.543   4.324
 2247SOL    HW2 7641   1.882   1.563   4.230
 2248SOL     OW 7642   5.350   3.704   5.850
 2248SOL    HW1 7643   5.326   3.637   5.921
 2248SOL    HW2 7644   5.410   3.661   5.783
 2249SOL     OW 7645   5.329   5.657   5.086
 2249SOL    HW1 7646   5.358   5.603   5.165
 2249SOL    HW2 7647   5.374   5.621   5.004
 2250SOL     OW 7648   4.334   4.676   1.629
 2250SOL    HW1 7649   4.409   4.622   1.591
 2250SOL    HW2 7650   4.347   4.772   1.607
 2251SOL     OW 7651   0.218   0.893   5.166
 2251SOL    HW1 7652   0.175   0.978   5.139
 2251SOL    HW2 7653   0.311   0.890   5.130
 2252SOL     OW 7654   3.395   1.074   6.637
 2252SOL    HW1 7655   3.348   1.073   6.548
 2252SOL    HW2 7656   3.379   1.161   6.683
 2253SOL     OW 7657   0.803   3.916   0.585
 2253SOL    HW1 7658   0.712   3.911   0.627
 2253SOL    HW2 7659   0.801   3.980   0.508
 2254SOL     OW 7660   1.211   4.447   6.483
 2254SOL    HW1 7661   1.215   4.544   6.463
 2254SOL    HW2 7662   1.225   4.394   6.399
 2255SOL     OW 7663   6.821   3.766   6.460
 2255SOL    HW1 7664   6.852   3.720   6.376
 2255SOL    HW2 7665   6.729   3.736   6.483
 2256SOL     OW 7666   2.571   5.008   2.485
 2256SOL    HW1 7667   2.670   4.994   2.492
 2256SOL    HW2 7668   2.544   5.006   2.389
 2257SOL     OW 7669   1.265   4.476   5.337
 2257SOL    HW1 7670   1.169   4.450   5.337
 2257SOL    HW2 7671   1.292   4.507   5.246
 2258SOL     OW 7672   2.034   5.386   5.526
 2258SOL    HW1 7673   1.935   5.394   5.528
 2258SOL    HW2 7674   2.075   5.477   5.536
 2259SOL     OW 7675   6.037   1.778   6.084
 2259SOL    HW1 7676   5.975   1.709   6.123
 2259SOL    HW2 7677   6.130   1.743   6.085
 2260SOL     OW 7678   3.779   3.098   0.553
 2260SOL    HW1 7679   3.810   3.189   0.576
 2260SOL    HW2 7680   3.746   3.052   0.636
 2261SOL     OW 7681   2.365   6.432   5.132
 2261SOL    HW1 7682   2.276   6.406   5.169
 2261SOL    HW2 7683   2.380   6.384   5.046
 2262SOL     OW 7684   3.245   1.544   3.320
 2262SOL    HW1 7685   3.248   1.612   3.393
 2262SOL    HW2 7686   3.224   1.589   3.233
 2263SOL     OW 7687   1.117   4.551   5.647
 2263SOL    HW1 7688   1.115   4.581   5.742
 2263SOL    HW2 7689   1.031   4.507   5.623
 2264SOL     OW 7690   3.689   3.532   3.724
 2264SOL    HW1 7691   3.763   3.490   3.671
 2264SOL    HW2 7692   3.609   3.545   3.665
 2265SOL     OW 7693   1.237   6.581   4.950
 2265SOL    HW1 7694   1.171   6.642   4.904
 2265SOL    HW2 7695   1.291   6.534   4.880
 2266SOL     OW 7696   6.763   0.696   5.528
 2266SOL    HW1 7697   6.806   0.665   5.443
 2266SOL    HW2 7698   6.829   0.689   5.603
 2267SOL     OW 7699   5.685   1.845   5.151
 2267SOL    HW1 7700   5.616   1.908   5.185
 2267SOL    HW2 7701   5.739   1.890   5.079
 2268SOL     OW 7702   0.308   6.595   0.465
 2268SOL    HW1 7703   0.292   6.638   0.554
 2268SOL    HW2 7704   0.294   6.497   0.472
 2269SOL     OW 7705   0.221   6.524   3.023
 2269SOL    HW1 7706   0.302   6.467   3.011
 2269SOL    HW2 7707   0.242   6.598   3.087
 2270SOL     OW 7708   3.826   3.106   3.187
 2270SOL    HW1 7709   3.895   3.119   3.116
 2270SOL    HW2 7710   3.769   3.027   3.164
 2271SOL     OW 7711   1.923   4.421   2.467
 2271SOL    HW1 7712   1.995   4.454   2.528
 2271SOL    HW2 7713   1.850   4.489   2.461
 2272SOL     OW 7714   4.986   0.407   5.450
 2272SOL    HW1 7715   5.038   0.487   5.481
 2272SOL    HW2 7716   4.974   0.411   5.351
 2273SOL     OW 7717   0.673   1.646   2.254
 2273SOL    HW1 7718   0.623   1.725   2.289
 2273SOL    HW2 7719   0.745   1.620   2.318
 2274SOL     OW 7720   0.650   4.206   3.675
 2274SOL    HW1 7721   0.694   4.294   3.658
 2274SOL    HW2 7722   0.555   4.221   3.703
 2275SOL     OW 7723   4.583   6.760   2.949
 2275SOL    HW1 7724   4.672   6.726   2.919
 2275SOL    HW2 7725   4.533   6.796   2.870
 2276SOL     OW 7726   3.547   5.748   2.525
 2276SOL    HW1 7727   3.498   5.727   2.441
 2276SOL    HW2 7728   3.636   5.703   2.524
 2277SOL     OW 7729   3.229   3.410   2.218
 2277SOL    HW1 7730   3.146   3.354   2.214
 2277SOL    HW2 7731   3.203   3.507   2.224
 2278SOL     OW 7732   3.708   4.991   1.389
 2278SOL    HW1 7733   3.763   5.072   1.368
 2278SOL    HW2 7734   3.677   4.948   1.304
 2279SOL     OW 7735   6.063   3.691   5.553
 2279SOL    HW1 7736   6.099   3.671   5.644
 2279SOL    HW2 7737   6.111   3.771   5.515
 2280SOL     OW 7738   5.786   0.334   6.038
 2280SOL    HW1 7739   5.752   0.362   5.949
 2280SOL    HW2 7740   5.831   0.245   6.031
 2281SOL     OW 7741   2.532   0.877   0.796
 2281SOL    HW1 7742   2.605   0.943   0.775
 2281SOL    HW2 7743   2.539   0.799   0.734
 2282SOL     OW 7744   3.850   6.471   2.639
 2282SOL    HW1 7745   3.814   6.543   2.699
 2282SOL    HW2 7746   3.884   6.511   2.554
 2283SOL     OW 7747   0.594   3.370   1.425
 2283SOL    HW1 7748   0.559   3.317   1.502
 2283SOL    HW2 7749   0.674   3.422   1.454
 2284SOL     OW 7750   2.102   3.291   1.222
 2284SOL    HW1 7751   2.196   3.304   1.191
 2284SOL    HW2 7752   2.070   3.201   1.193
 2285SOL     OW 7753   2.104   2.531   6.519
 2285SOL    HW1 7754   2.202   2.513   6.530
 2285SOL    HW2 7755   2.052   2.476   6.584
 2286SOL     OW 7756   6.397   6.932   4.034
 2286SOL    HW1 7757   6.469   6.962   4.095
 2286SOL    HW2 7758   6.320   6.995   4.039
 2287SOL     OW 7759   2.139   1.370   0.701
 2287SOL    HW1 7760   2.075   1.433   0.745
 2287SOL    HW2 7761   2.218   1.355   0.760
 2288SOL     OW 7762   2.566   6.497   4.822
 2288SOL    HW1 7763   2.593   6.540   4.908
 2288SOL    HW2 7764   2.529   6.406   4.839
 2289SOL     OW 7765   3.740   0.009   6.674
 2289SOL    HW1 7766   3.697   6.955   6.631
 2289SOL    HW2 7767   3.738   0.086   6.611
 2290SOL     OW 7768   2.884   3.400   5.181
 2290SOL    HW1 7769   2.888   3.489   5.226
 2290SOL    HW2 7770   2.860   3.412   5.085
 2291SOL     OW 7771   2.918   1.987   0.460
 2291SOL    HW1 7772   2.993   1.967   0.523
 2291SOL    HW2 7773   2.935   1.942   0.372
 2292SOL     OW 7774   5.119   2.604   3.208
 2292SOL    HW1 7775   5.202   2.593   3.263
 2292SOL    HW2 7776   5.099   2.518   3.161
 2293SOL     OW 7777   0.565   0.862   0.247
 2293SOL    HW1 7778   0.484   0.897   0.294
 2293SOL    HW2 7779   0.633   0.832   0.315
 2294SOL     OW 7780   6.357   2.348   5.075
 2294SOL    HW1 7781   6.421   2.399   5.018
 2294SOL    HW2 7782   6.288   2.411   5.111
 2295SOL     OW 7783   5.803   5.918   0.621
 2295SOL    HW1 7784   5.822   6.012   0.591
 2295SOL    HW2 7785   5.753   5.921   0.708
 2296SOL     OW 7786   3.761   5.721   4.428
 2296SOL    HW1 7787   3.857   5.709   4.404
 2296SOL    HW2 7788   3.747   5.811   4.469
 2297SOL     OW 7789   6.001   2.685   6.802
 2297SOL    HW1 7790   6.050   2.757   6.850
 2297SOL    HW2 7791   6.066   2.616   6.770
 2298SOL     OW 7792   2.775   3.978   5.237
 2298SOL    HW1 7793   2.687   4.007   5.199
 2298SOL    HW2 7794   2.805   4.043   5.306
 2299SOL     OW 7795   5.918   3.398   4.499
 2299SOL    HW1 7796   5.956   3.483   4.534
 2299SOL    HW2 7797   5.872   3.415   4.412
 2300SOL     OW 7798   4.829   0.076   2.924
 2300SOL    HW1 7799   4.732   0.083   2.950
 2300SOL    HW2 7800   4.852   7.006   2.908
 2301SOL     OW 7801   4.079   3.011   5.377
 2301SOL    HW1 7802   4.073   3.105   5.341
 2301SOL    HW2 7803   4.171   2.995   5.413
 2302SOL     OW 7804   0.083   3.552   5.509
 2302SOL    HW1 7805   0.040   3.526   5.423
 2302SOL    HW2 7806   0.091   3.471   5.568
 2303SOL     OW 7807   2.966   1.553   6.250
 2303SOL    HW1 7808   2.911   1.504   6.318
 2303SOL    HW2 7809   3.046   1.498   6.227
 2304SOL     OW 7810   4.847   6.750   2.394
 2304SOL    HW1 7811   4.828   6.700   2.479
 2304SOL    HW2 7812   4.890   6.689   2.328
 2305SOL     OW 7813   2.890   6.273   5.087
 2305SOL    HW1 7814   2.809   6.219   5.066
 2305SOL    HW2 7815   2.934   6.238   5.170
 2306SOL     OW 7816   0.944   4.794   4.804
 2306SOL    HW1 7817   0.863   4.747   4.840
 2306SOL    HW2 7818   1.026   4.753   4.842
 2307SOL     OW 7819   6.052   3.690   4.795
 2307SOL    HW1 7820   5.992   3.757   4.838
 2307SOL    HW2 7821   6.054   3.607   4.850
 2308SOL     OW 7822   1.037   5.908   2.358
 2308SOL    HW1 7823   1.136   5.903   2.345
 2308SOL    HW2 7824   0.997   5.818   2.342
 2309SOL     OW 7825   1.825   0.952   4.573
 2309SOL    HW1 7826   1.798   1.042   4.539
 2309SOL    HW2 7827   1.902   0.962   4.636
 2310SOL     OW 7828   5.185   6.319   0.445
 2310SOL    HW1 7829   5.203   6.227   0.480
 2310SOL    HW2 7830   5.100   6.319   0.392
 2311SOL     OW 7831   2.766   5.920   0.800
 2311SOL    HW1 7832   2.850   5.916   0.855
 2311SOL    HW2 7833   2.712   5.999   0.827
 2312SOL     OW 7834   2.706   4.670   2.853
 2312SOL    HW1 7835   2.661   4.663   2.764
 2312SOL    HW2 7836   2.791   4.722   2.843
 2313SOL     OW 7837   4.591   4.918   0.993
 2313SOL    HW1 7838   4.588   4.818   0.997
 2313SOL    HW2 7839   4.522   4.956   1.055
 2314SOL     OW 7840   2.370   4.411   3.022
 2314SOL    HW1 7841   2.437   4.455   3.083
 2314SOL    HW2 7842   2.410   4.400   2.931
 2315SOL     OW 7843   4.120   1.706   6.408
 2315SOL    HW1 7844   4.040   1.692   6.467
 2315SOL    HW2 7845   4.175   1.782   6.444
 2316SOL     OW 7846   5.448   3.292   1.447
 2316SOL    HW1 7847   5.476   3.245   1.364
 2316SOL    HW2 7848   5.484   3.385   1.447
 2317SOL     OW 7849   0.821   6.091   3.913
 2317SOL    HW1 7850   0.754   6.024   3.941
 2317SOL    HW2 7851   0.846   6.076   3.817
 2318SOL     OW 7852   6.802   1.759   3.631
 2318SOL    HW1 7853   6.753   1.798   3.709
 2318SOL    HW2 7854   6.881   1.815   3.610
 2319SOL     OW 7855   1.014   4.933   2.414
 2319SOL    HW1 7856   1.104   4.891   2.422
 2319SOL    HW2 7857   0.997   4.993   2.492
 2320SOL     OW 7858   6.544   4.703   4.356
 2320SOL    HW1 7859   6.607   4.682   4.281
 2320SOL    HW2 7860   6.507   4.795   4.344
 2321SOL     OW 7861   3.674   4.991   3.969
 2321SOL    HW1 7862   3.633   4.929   4.036
 2321SOL    HW2 7863   3.634   4.975   3.879
 2322SOL     OW 7864   2.282   1.166   4.618
 2322SOL    HW1 7865   2.359   1.148   4.680
 2322SOL    HW2 7866   2.316   1.173   4.524
 2323SOL     OW 7867   5.354   3.358   1.867
 2323SOL    HW1 7868   5.304   3.398   1.944
 2323SOL    HW2 7869   5.288   3.327   1.798
 2324SOL     OW 7870   6.931   5.208   3.993
 2324SOL    HW1 7871   6.895   5.245   4.078
 2324SOL    HW2 7872   6.912   5.271   3.918
 2325SOL     OW 7873   6.107   1.788   0.527
 2325SOL    HW1 7874   6.079   1.826   0.615
 2325SOL    HW2 7875   6.195   1.743   0.537
 2326SOL     OW 7876   0.722   5.263   0.552
 2326SOL    HW1 7877   0.653   5.269   0.624
 2326SOL    HW2 7878   0.692   5.315   0.472
 2327SOL     OW 7879   4.716   1.345   3.133
 2327SOL    HW1 7880   4.744   1.278   3.064
 2327SOL    HW2 7881   4.786   1.417   3.138
 2328SOL     OW 7882   6.001   4.858   3.594
 2328SOL    HW1 7883   5.932   4.808   3.542
 2328SOL    HW2 7884   5.975   4.954   3.601
 2329SOL     OW 7885   1.395   6.388   3.221
 2329SOL    HW1 7886   1.315   6.376   3.280
 2329SOL    HW2 7887   1.366   6.385   3.125
 2330SOL     OW 7888   1.317   4.375   0.326
 2330SOL    HW1 7889   1.370   4.295   0.355
 2330SOL    HW2 7890   1.344   4.454   0.382
 2331SOL     OW 7891   1.593   5.071   4.964
 2331SOL    HW1 7892   1.689   5.068   4.938
 2331SOL    HW2 7893   1.559   4.978   4.975
 2332SOL     OW 7894   6.106   3.325   5.825
 2332SOL    HW1 7895   6.118   3.302   5.922
 2332SOL    HW2 7896   6.018   3.292   5.793
 2333SOL     OW 7897   2.677   4.808   4.020
 2333SOL    HW1 7898   2.734   4.782   3.942
 2333SOL    HW2 7899   2.636   4.898   4.003
 2334SOL     OW 7900   2.725   6.905   5.628
 2334SOL    HW1 7901   2.741   6.833   5.695
 2334SOL    HW2 7902   2.677   6.981   5.672
 2335SOL     OW 7903   4.785   4.703   4.192
 2335SOL    HW1 7904   4.868   4.736   4.238
 2335SOL    HW2 7905   4.742   4.779   4.143
 2336SOL     OW 7906   4.370   1.619   5.920
 2336SOL    HW1 7907   4.301   1.681   5.954
 2336SOL    HW2 7908   4.398   1.647   5.828
 2337SOL     OW 7909   5.668   0.623   4.714
 2337SOL    HW1 7910   5.609   0.542   4.714
 2337SOL    HW2 7911   5.733   0.617   4.638
 2338SOL     OW 7912   1.127   6.877   6.883
 2338SOL    HW1 7913   1.091   6.942   6.817
 2338SOL    HW2 7914   1.052   6.838   6.937
 2339SOL     OW 7915   3.924   4.553   6.730
 2339SOL    HW1 7916   3.849   4.526   6.789
 2339SOL    HW2 7917   3.973   4.630   6.770
 2340SOL     OW 7918   4.160   5.061   3.753
 2340SOL    HW1 7919   4.166   5.146   3.701
 2340SOL    HW2 7920   4.070   5.055   3.797
 2341SOL     OW 7921   0.237   4.317   6.277
 2341SOL    HW1 7922   0.198   4.409   6.272
 2341SOL    HW2 7923   0.336   4.323   6.285
 2342SOL     OW 7924   6.218   1.216   5.751
 2342SOL    HW1 7925   6.176   1.170   5.673
 2342SOL    HW2 7926   6.313   1.188   5.760
 2343SOL     OW 7927   1.347   6.038   0.670
 2343SOL    HW1 7928   1.280   6.059   0.741
 2343SOL    HW2 7929   1.360   5.939   0.665
 2344SOL     OW 7930   2.597   1.196   2.873
 2344SOL    HW1 7931   2.662   1.228   2.804
 2344SOL    HW2 7932   2.514   1.163   2.827
 2345SOL     OW 7933   1.540   2.086   2.522
 2345SOL    HW1 7934   1.489   2.146   2.461
 2345SOL    HW2 7935   1.624   2.131   2.552
 2346SOL     OW 7936   4.842   3.325   5.116
 2346SOL    HW1 7937   4.786   3.402   5.147
 2346SOL    HW2 7938   4.896   3.353   5.036
 2347SOL     OW 7939   1.237   3.949   0.487
 2347SOL    HW1 7940   1.209   3.920   0.395
 2347SOL    HW2 7941   1.163   4.002   0.529
 2348SOL     OW 7942   2.520   0.458   1.115
 2348SOL    HW1 7943   2.530   0.359   1.129
 2348SOL    HW2 7944   2.570   0.507   1.185
 2349SOL     OW 7945   5.367   3.040   6.493
 2349SOL    HW1 7946   5.326   3.102   6.426
 2349SOL    HW2 7947   5.332   3.061   6.584
 2350SOL     OW 7948   1.976   6.141   5.066
 2350SOL    HW1 7949   1.922   6.146   4.982
 2350SOL    HW2 7950   1.943   6.064   5.122
 2351SOL     OW 7951   1.401   4.867   2.978
 2351SOL    HW1 7952   1.461   4.858   3.057
 2351SOL    HW2 7953   1.337   4.943   2.994
 2352SOL     OW 7954   5.657   5.764   6.598
 2352SOL    HW1 7955   5.750   5.788   6.571
 2352SOL    HW2 7956   5.660   5.697   6.673
 2353SOL     OW 7957   2.972   2.824   6.156
 2353SOL    HW1 7958   2.938   2.746   6.209
 2353SOL    HW2 7959   2.932   2.822   6.065
 2354SOL     OW 7960   4.357   1.465   2.296
 2354SOL    HW1 7961   4.415   1.467   2.378
 2354SOL    HW2 7962   4.291   1.390   2.304
 2355SOL     OW 7963   0.341   1.343   2.114
 2355SOL    HW1 7964   0.370   1.420   2.057
 2355SOL    HW2 7965   0.362   1.258   2.067
 2356SOL     OW 7966   3.502   5.354   4.208
 2356SOL    HW1 7967   3.548   5.353   4.119
 2356SOL    HW2 7968   3.431   5.284   4.210
 2357SOL     OW 7969   1.191   5.457   1.356
 2357SOL    HW1 7970   1.185   5.424   1.262
 2357SOL    HW2 7971   1.254   5.535   1.360
 2358SOL     OW 7972   2.174   0.327   5.638
 2358SOL    HW1 7973   2.171   0.348   5.541
 2358SOL    HW2 7974   2.177   0.413   5.691
 2359SOL     OW 7975   2.856   2.362   6.277
 2359SOL    HW1 7976   2.909   2.323   6.352
 2359SOL    HW2 7977   2.908   2.354   6.192
 2360SOL     OW 7978   3.074   5.148   0.689
 2360SOL    HW1 7979   2.990   5.128   0.739
 2360SOL    HW2 7980   3.086   5.081   0.616
 2361SOL     OW 7981   3.338   4.930   1.397
 2361SOL    HW1 7982   3.247   4.908   1.361
 2361SOL    HW2 7983   3.378   4.847   1.438
 2362SOL     OW 7984   2.841   4.976   4.695
 2362SOL    HW1 7985   2.763   4.918   4.717
 2362SOL    HW2 7986   2.884   4.942   4.611
 2363SOL     OW 7987   1.918   4.139   1.013
 2363SOL    HW1 7988   1.883   4.117   0.922
 2363SOL    HW2 7989   1.913   4.238   1.028
 2364SOL     OW 7990   4.930   0.722   2.035
 2364SOL    HW1 7991   4.903   0.630   2.064
 2364SOL    HW2 7992   4.995   0.715   1.959
 2365SOL     OW 7993   5.564   4.703   3.047
 2365SOL    HW1 7994   5.579   4.724   3.144
 2365SOL    HW2 7995   5.490   4.760   3.012
 2366SOL     OW 7996   3.418   4.750   5.253
 2366SOL    HW1 7997   3.512   4.751   5.287
 2366SOL    HW2 7998   3.379   4.659   5.266
 2367SOL     OW 7999   6.209   5.280   5.290
 2367SOL    HW1 8000   6.171   5.241   5.373
 2367SOL    HW2 8001   6.144   5.345   5.250
 2368SOL     OW 8002   5.318   0.252   4.902
 2368SOL    HW1 8003   5.348   0.177   4.961
 2368SOL    HW2 8004   5.358   0.338   4.934
 2369SOL     OW 8005   3.907   1.782   4.618
 2369SOL    HW1 8006   3.989   1.834   4.597
 2369SOL    HW2 8007   3.880   1.729   4.538
 2370SOL     OW 8008   4.295   1.846   1.385
 2370SOL    HW1 8009   4.358   1.888   1.319
 2370SOL    HW2 8010   4.322   1.870   1.478
 2371SOL     OW 8011   2.455   6.919   2.134
 2371SOL    HW1 8012   2.441   6.854   2.060
 2371SOL    HW2 8013   2.454   6.871   2.222
 2372SOL     OW 8014   6.474   7.019   5.423
 2372SOL    HW1 8015   6.409   6.948   5.393
 2372SOL    HW2 8016   6.566   6.994   5.393
 2373SOL     OW 8017   6.237   4.239   6.150
 2373SOL    HW1 8018   6.323   4.218   6.103
 2373SOL    HW2 8019   6.217   4.167   6.216
 2374SOL     OW 8020   6.961   6.257   2.207
 2374SOL    HW1 8021   0.007   6.192   2.228
 2374SOL    HW2 8022   6.995   6.327   2.144
 2375SOL     OW 8023   1.500   0.596   4.316
 2375SOL    HW1 8024   1.438   0.616   4.240
 2375SOL    HW2 8025   1.591   0.575   4.280
 2376SOL     OW 8026   5.111   3.272   3.954
 2376SOL    HW1 8027   5.138   3.201   4.018
 2376SOL    HW2 8028   5.190   3.301   3.900
 2377SOL     OW 8029   3.688   4.328   5.979
 2377SOL    HW1 8030   3.629   4.270   5.923
 2377SOL    HW2 8031   3.724   4.275   6.056
 2378SOL     OW 8032   0.757   0.946   0.743
 2378SOL    HW1 8033   0.850   0.974   0.763
 2378SOL    HW2 8034   0.708   1.020   0.696
 2379SOL     OW 8035   0.845   4.739   2.501
 2379SOL    HW1 8036   0.893   4.759   2.415
 2379SOL    HW2 8037   0.822   4.641   2.504
 2380SOL     OW 8038   3.978   5.542   6.425
 2380SOL    HW1 8039   3.965   5.578   6.332
 2380SOL    HW2 8040   4.073   5.515   6.437
 2381SOL     OW 8041   2.151   3.600   3.810
 2381SOL    HW1 8042   2.220   3.664   3.845
 2381SOL    HW2 8043   2.091   3.649   3.746
 2382SOL     OW 8044   6.687   5.917   2.953
 2382SOL    HW1 8045   6.634   5.967   2.884
 2382SOL    HW2 8046   6.642   5.925   3.042
 2383SOL     OW 8047   5.014   4.193   5.994
 2383SOL    HW1 8048   4.988   4.289   5.980
 2383SOL    HW2 8049   5.073   4.186   6.074
 2384SOL     OW 8050   0.424   2.272   2.965
 2384SOL    HW1 8051   0.495   2.341   2.976
 2384SOL    HW2 8052   0.452   2.206   2.895
 2385SOL     OW 8053   0.269   1.050   0.595
 2385SOL    HW1 8054   0.177   1.030   0.561
 2385SOL    HW2 8055   0.279   1.016   0.688
 2386SOL     OW 8056   6.869   4.960   5.433
 2386SOL    HW1 8057   6.868   4.982   5.336
 2386SOL    HW2 8058   6.840   5.039   5.486
 2387SOL     OW 8059   0.063   0.427   3.689
 2387SOL    HW1 8060   0.104   0.389   3.607
 2387SOL    HW2 8061   7.022   0.362   3.727
 2388SOL     OW 8062   1.727   4.328   4.322
 2388SOL    HW1 8063   1.796   4.321   4.394
 2388SOL    HW2 8064   1.642   4.287   4.354
 2389SOL     OW 8065   3.870   6.657   3.046
 2389SOL    HW1 8066   3.969   6.666   3.044
 2389SOL    HW2 8067   3.834   6.662   2.953
 2390SOL     OW 8068   5.329   2.660   5.565
 2390SOL    HW1 8069   5.315   2.567   5.598
 2390SOL    HW2 8070   5.293   2.725   5.632
 2391SOL     OW 8071   2.760   3.869   6.446
 2391SOL    HW1 8072   2.714   3.950   6.483
 2391SOL    HW2 8073   2.847   3.855   6.493
 2392SOL     OW 8074   3.937   5.461   5.918
 2392SOL    HW1 8075   4.023   5.442   5.964
 2392SOL    HW2 8076   3.932   5.406   5.834
 2393SOL     OW 8077   3.869   4.436   0.042
 2393SOL    HW1 8078   3.931   4.446   0.119
 2393SOL    HW2 8079   3.798   4.507   0.047
 2394SOL     OW 8080   6.694   2.526   3.285
 2394SOL    HW1 8081   6.649   2.537   3.374
 2394SOL    HW2 8082   6.638   2.569   3.214
 2395SOL     OW 8083   1.459   2.450   3.779
 2395SOL    HW1 8084   1.518   2.527   3.756
 2395SOL    HW2 8085   1.370   2.463   3.735
 2396SOL     OW 8086   6.975   0.224   6.323
 2396SOL    HW1 8087   7.001   0.270   6.238
 2396SOL    HW2 8088   6.967   0.126   6.308
 2397SOL     OW 8089   2.135   4.924   6.055
 2397SOL    HW1 8090   2.170   4.830   6.062
 2397SOL    HW2 8091   2.181   4.970   5.979
 2398SOL     OW 8092   4.061   6.118   4.860
 2398SOL    HW1 8093   4.041   6.039   4.801
 2398SOL    HW2 8094   4.006   6.112   4.943
 2399SOL     OW 8095   2.897   1.621   2.330
 2399SOL    HW1 8096   2.897   1.721   2.338
 2399SOL    HW2 8097   2.985   1.590   2.293
 2400SOL     OW 8098   0.881   2.662   0.340
 2400SOL    HW1 8099   0.888   2.564   0.321
 2400SOL    HW2 8100   0.805   2.678   0.404
 2401SOL     OW 8101   1.253   6.468   0.375
 2401SOL    HW1 8102   1.248   6.459   0.475
 2401SOL    HW2 8103   1.317   6.401   0.339
 2402SOL     OW 8104   0.627   3.734   2.660
 2402SOL    HW1 8105   0.701   3.667   2.652
 2402SOL    HW2 8106   0.657   3.822   2.624
 2403SOL     OW 8107   3.101   4.332   5.285
 2403SOL    HW1 8108   3.024   4.388   5.253
 2403SOL    HW2 8109   3.086   4.237   5.257
 2404SOL     OW 8110   6.262   1.581   2.079
 2404SOL    HW1 8111   6.296   1.649   2.144
 2404SOL    HW2 8112   6.301   1.600   1.989
 2405SOL     OW 8113   1.658   2.815   0.797
 2405SOL    HW1 8114   1.566   2.785   0.824
 2405SOL    HW2 8115   1.664   2.818   0.698
 2406SOL     OW 8116   4.229   5.705   4.468
 2406SOL    HW1 8117   4.257   5.682   4.561
 2406SOL    HW2 8118   4.306   5.691   4.405
 2407SOL     OW 8119   2.293   1.529   3.856
 2407SOL    HW1 8120   2.230   1.602   3.829
 2407SOL    HW2 8121   2.354   1.562   3.928
 2408SOL     OW 8122   4.141   0.215   5.803
 2408SOL    HW1 8123   4.186   0.298   5.837
 2408SOL    HW2 8124   4.045   0.215   5.830
 2409SOL     OW 8125   0.807   3.003   6.708
 2409SOL    HW1 8126   0.889   2.948   6.691
 2409SOL    HW2 8127   0.768   3.033   6.621
 2410SOL     OW 8128   7.017   3.526   4.332
 2410SOL    HW1 8129   0.061   3.569   4.390
 2410SOL    HW2 8130   0.033   3.494   4.247
 2411SOL     OW 8131   3.136   1.153   0.126
 2411SOL    HW1 8132   3.137   1.079   0.058
 2411SOL    HW2 8133   3.154   1.114   0.217
 2412SOL     OW 8134   2.843   2.281   6.730
 2412SOL    HW1 8135   2.761   2.266   6.674
 2412SOL    HW2 8136   2.824   2.254   6.824
 2413SOL     OW 8137   6.827   3.844   6.987
 2413SOL    HW1 8138   6.833   3.793   6.901
 2413SOL    HW2 8139   6.732   3.872   7.002
 2414SOL     OW 8140   6.568   1.436   4.846
 2414SOL    HW1 8141   6.521   1.504   4.902
 2414SOL    HW2 8142   6.501   1.381   4.798
 2415SOL     OW 8143   3.284   4.035   6.407
 2415SOL    HW1 8144   3.262   4.059   6.501
 2415SOL    HW2 8145   3.202   4.046   6.350
 2416SOL     OW 8146   0.384   3.415   4.324
 2416SOL    HW1 8147   0.471   3.464   4.314
 2416SOL    HW2 8148   0.350   3.426   4.417
 2417SOL     OW 8149   3.594   2.528   1.719
 2417SOL    HW1 8150   3.586   2.620   1.756
 2417SOL    HW2 8151   3.645   2.470   1.783
 2418SOL     OW 8152   5.701   3.962   6.400
 2418SOL    HW1 8153   5.744   4.007   6.321
 2418SOL    HW2 8154   5.735   4.003   6.484
 2419SOL     OW 8155   3.610   0.917   2.779
 2419SOL    HW1 8156   3.609   0.841   2.714
 2419SOL    HW2 8157   3.633   1.002   2.730
 2420SOL     OW 8158   1.331   3.625   2.117
 2420SOL    HW1 8159   1.260   3.626   2.046
 2420SOL    HW2 8160   1.414   3.584   2.079
 2421SOL     OW 8161   2.761   6.991   2.920
 2421SOL    HW1 8162   2.674   6.954   2.888
 2421SOL    HW2 8163   2.754   7.012   3.018
 2422SOL     OW 8164   3.904   6.427   0.408
 2422SOL    HW1 8165   3.848   6.510   0.404
 2422SOL    HW2 8166   3.902   6.381   0.319
 2423SOL     OW 8167   3.436   4.958   4.667
 2423SOL    HW1 8168   3.362   4.953   4.734
 2423SOL    HW2 8169   3.402   4.925   4.579
 2424SOL     OW 8170   5.423   6.719   6.196
 2424SOL    HW1 8171   5.367   6.674   6.126
 2424SOL    HW2 8172   5.520   6.704   6.176
 2425SOL     OW 8173   4.047   5.392   5.250
 2425SOL    HW1 8174   4.071   5.302   5.212
 2425SOL    HW2 8175   4.096   5.405   5.336
 2426SOL     OW 8176   3.142   2.164   5.343
 2426SOL    HW1 8177   3.044   2.186   5.340
 2426SOL    HW2 8178   3.190   2.217   5.273
 2427SOL     OW 8179   3.929   2.137   0.580
 2427SOL    HW1 8180   3.910   2.192   0.661
 2427SOL    HW2 8181   3.989   2.188   0.518
 2428SOL     OW 8182   1.816   1.764   2.754
 2428SOL    HW1 8183   1.777   1.856   2.759
 2428SOL    HW2 8184   1.849   1.747   2.661
 2429SOL     OW 8185   5.320   5.913   1.220
 2429SOL    HW1 8186   5.328   5.984   1.290
 2429SOL    HW2 8187   5.394   5.848   1.229
 2430SOL     OW 8188   6.754   0.374   6.891
 2430SOL    HW1 8189   6.811   0.348   6.969
 2430SOL    HW2 8190   6.793   0.456   6.848
 2431SOL     OW 8191   1.832   3.338   1.869
 2431SOL    HW1 8192   1.756   3.398   1.890
 2431SOL    HW2 8193   1.812   3.286   1.785
 2432SOL     OW 8194   2.969   6.004   2.149
 2432SOL    HW1 8195   2.978   5.913   2.191
 2432SOL    HW2 8196   2.978   5.995   2.050
 2433SOL     OW 8197   6.743   4.706   4.158
 2433SOL    HW1 8198   6.831   4.662   4.142
 2433SOL    HW2 8199   6.745   4.799   4.120
 2434SOL     OW 8200   4.258   1.829   2.725
 2434SOL    HW1 8201   4.313   1.784   2.655
 2434SOL    HW2 8202   4.170   1.856   2.687
 2435SOL     OW 8203   5.893   7.013   6.557
 2435SOL    HW1 8204   5.973   6.999   6.500
 2435SOL    HW2 8205   5.907   0.068   6.615
 2436SOL     OW 8206   6.950   2.876   0.811
 2436SOL    HW1 8207   0.007   2.870   0.754
 2436SOL    HW2 8208   6.901   2.789   0.808
 2437SOL     OW 8209   1.310   4.438   1.472
 2437SOL    HW1 8210   1.224   4.390   1.489
 2437SOL    HW2 8211   1.352   4.402   1.389
 2438SOL     OW 8212   3.576   1.584   4.694
 2438SOL    HW1 8213   3.505   1.540   4.639
 2438SOL    HW2 8214   3.579   1.542   4.785
 2439SOL     OW 8215   0.026   6.012   0.449
 2439SOL    HW1 8216   7.025   6.109   0.449
 2439SOL    HW2 8217   6.998   5.963   0.517
 2440SOL     OW 8218   5.800   2.009   5.364
 2440SOL    HW1 8219   5.738   1.931   5.364
 2440SOL    HW2 8220   5.769   2.076   5.296
 2441SOL     OW 8221   6.057   1.093   6.959
 2441SOL    HW1 8222   6.108   1.054   6.883
 2441SOL    HW2 8223   6.093   1.184   6.980
 2442SOL     OW 8224   5.238   3.110   2.611
 2442SOL    HW1 8225   5.234   3.018   2.572
 2442SOL    HW2 8226   5.145   3.146   2.619
 2443SOL     OW 8227   0.271   2.937   1.428
 2443SOL    HW1 8228   0.217   2.896   1.355
 2443SOL    HW2 8229   0.365   2.905   1.422
 2444SOL     OW 8230   3.776   4.995   3.022
 2444SOL    HW1 8231   3.683   4.979   2.990
 2444SOL    HW2 8232   3.790   4.948   3.109
 2445SOL     OW 8233   0.689   1.582   1.138
 2445SOL    HW1 8234   0.756   1.652   1.161
 2445SOL    HW2 8235   0.700   1.555   1.042
 2446SOL     OW 8236   6.387   6.000   1.521
 2446SOL    HW1 8237   6.348   5.910   1.508
 2446SOL    HW2 8238   6.323   6.070   1.490
 2447SOL     OW 8239   1.804   6.986   0.565
 2447SOL    HW1 8240   1.739   6.913   0.545
 2447SOL    HW2 8241   1.818   6.992   0.664
 2448SOL     OW 8242   5.655   1.001   4.058
 2448SOL    HW1 8243   5.675   1.096   4.081
 2448SOL    HW2 8244   5.582   0.967   4.117
 2449SOL     OW 8245   2.028   4.128   1.525
 2449SOL    HW1 8246   1.951   4.146   1.464
 2449SOL    HW2 8247   2.080   4.212   1.539
 2450SOL     OW 8248   0.831   6.513   5.369
 2450SOL    HW1 8249   0.740   6.536   5.403
 2450SOL    HW2 8250   0.866   6.587   5.312
 2451SOL     OW 8251   1.575   7.005   6.669
 2451SOL    HW1 8252   1.627   6.976   6.588
 2451SOL    HW2 8253   1.619   6.970   6.751
 2452SOL     OW 8254   2.375   2.068   3.750
 2452SOL    HW1 8255   2.286   2.024   3.740
 2452SOL    HW2 8256   2.382   2.106   3.843
 2453SOL     OW 8257   1.223   1.446   6.068
 2453SOL    HW1 8258   1.215   1.539   6.034
 2453SOL    HW2 8259   1.132   1.409   6.085
 2454SOL     OW 8260   2.888   6.199   0.540
 2454SOL    HW1 8261   2.886   6.106   0.577
 2454SOL    HW2 8262   2.936   6.200   0.452
 2455SOL     OW 8263   4.652   2.396   0.301
 2455SOL    HW1 8264   4.567   2.405   0.353
 2455SOL    HW2 8265   4.670   2.480   0.250
 2456SOL     OW 8266   0.673   3.603   5.932
 2456SOL    HW1 8267   0.762   3.606   5.886
 2456SOL    HW2 8268   0.612   3.670   5.891
 2457SOL     OW 8269   4.806   1.229   5.972
 2457SOL    HW1 8270   4.897   1.265   5.996
 2457SOL    HW2 8271   4.755   1.300   5.923
 2458SOL     OW 8272   0.885   0.266   2.201
 2458SOL    HW1 8273   0.907   0.362   2.187
 2458SOL    HW2 8274   0.855   0.225   2.115
 2459SOL     OW 8275   2.242   6.521   1.307
 2459SOL    HW1 8276   2.177   6.581   1.354
 2459SOL    HW2 8277   2.335   6.554   1.322
 2460SOL     OW 8278   0.249   0.299   3.898
 2460SOL    HW1 8279   0.300   0.353   3.832
 2460SOL    HW2 8280   0.238   0.351   3.983
 2461SOL     OW 8281   3.348   1.328   3.579
 2461SOL    HW1 8282   3.268   1.371   3.537
 2461SOL    HW2 8283   3.423   1.324   3.514
 2462SOL     OW 8284   0.319   6.390   0.845
 2462SOL    HW1 8285   0.405   6.340   0.832
 2462SOL    HW2 8286   0.317   6.429   0.937
 2463SOL     OW 8287   6.748   6.810   1.258
 2463SOL    HW1 8288   6.675   6.867   1.221
 2463SOL    HW2 8289   6.836   6.847   1.229
 2464SOL     OW 8290   0.621   2.741   4.932
 2464SOL    HW1 8291   0.638   2.837   4.954
 2464SOL    HW2 8292   0.554   2.703   4.995
 2465SOL     OW 8293   6.059   1.343   6.729
 2465SOL    HW1 8294   6.099   1.333   6.820
 2465SOL    HW2 8295   6.071   1.437   6.697
 2466SOL     OW 8296   0.625   2.344   1.262
 2466SOL    HW1 8297   0.552   2.285   1.230
 2466SOL    HW2 8298   0.701   2.341   1.197
 2467SOL     OW 8299   5.078   2.851   4.887
 2467SOL    HW1 8300   5.003   2.784   4.894
 2467SOL    HW2 8301   5.051   2.936   4.930
 2468SOL     OW 8302   3.403   6.973   5.082
 2468SOL    HW1 8303   3.438   0.012   5.150
 2468SOL    HW2 8304   3.421   7.008   4.990
 2469SOL     OW 8305   3.058   1.855   5.904
 2469SOL    HW1 8306   3.125   1.789   5.872
 2469SOL    HW2 8307   2.982   1.808   5.949
 2470SOL     OW 8308   2.111   5.900   6.305
 2470SOL    HW1 8309   2.102   5.920   6.207
 2470SOL    HW2 8310   2.100   5.802   6.320
 2471SOL     OW 8311   3.204   5.871   2.955
 2471SOL    HW1 8312   3.112   5.910   2.952
 2471SOL    HW2 8313   3.202   5.778   2.918
 2472SOL     OW 8314   4.697   1.627   2.436
 2472SOL    HW1 8315   4.759   1.595   2.364
 2472SOL    HW2 8316   4.749   1.648   2.518
 2473SOL     OW 8317   0.520   4.520   4.364
 2473SOL    HW1 8318   0.557   4.460   4.293
 2473SOL    HW2 8319   0.593   4.546   4.427
 2474SOL     OW 8320   1.605   6.565   0.693
 2474SOL    HW1 8321   1.700   6.567   0.726
 2474SOL    HW2 8322   1.601   6.511   0.609
 2475SOL     OW 8323   5.446   2.324   0.535
 2475SOL    HW1 8324   5.366   2.290   0.487
 2475SOL    HW2 8325   5.489   2.249   0.586
 2476SOL     OW 8326   4.638   0.005   0.545
 2476SOL    HW1 8327   4.545   0.033   0.571
 2476SOL    HW2 8328   4.702   0.078   0.567
 2477SOL     OW 8329   3.682   0.534   3.475
 2477SOL    HW1 8330   3.765   0.486   3.504
 2477SOL    HW2 8331   3.687   0.629   3.506
 2478SOL     OW 8332   3.605   0.238   4.372
 2478SOL    HW1 8333   3.527   0.192   4.330
 2478SOL    HW2 8334   3.607   0.334   4.343
 2479SOL     OW 8335   5.122   3.264   1.208
 2479SOL    HW1 8336   5.197   3.325   1.183
 2479SOL    HW2 8337   5.124   3.249   1.307
 2480SOL     OW 8338   3.347   2.381   1.726
 2480SOL    HW1 8339   3.423   2.444   1.740
 2480SOL    HW2 8340   3.261   2.427   1.746
 2481SOL     OW 8341   3.205   0.205   1.508
 2481SOL    HW1 8342   3.226   0.258   1.590
 2481SOL    HW2 8343   3.109   0.220   1.482
 2482SOL     OW 8344   6.717   3.242   0.094
 2482SOL    HW1 8345   6.735   3.167   0.031
 2482SOL    HW2 8346   6.706   3.327   0.043
 2483SOL     OW 8347   2.832   2.295   0.982
 2483SOL    HW1 8348   2.797   2.208   0.946
 2483SOL    HW2 8349   2.801   2.306   1.076
 2484SOL     OW 8350   4.539   0.271   6.700
 2484SOL    HW1 8351   4.537   0.220   6.786
 2484SOL    HW2 8352   4.621   0.327   6.696
 2485SOL     OW 8353   0.230   1.661   6.109
 2485SOL    HW1 8354   0.216   1.603   6.030
 2485SOL    HW2 8355   0.183   1.622   6.188
 2486SOL     OW 8356   0.026   5.386   3.600
 2486SOL    HW1 8357   0.011   5.457   3.531
 2486SOL    HW2 8358   0.123   5.366   3.608
 2487SOL     OW 8359   4.604   5.975   0.249
 2487SOL    HW1 8360   4.554   5.989   0.163
 2487SOL    HW2 8361   4.643   5.883   0.250
 2488SOL     OW 8362   6.979   3.991   0.810
 2488SOL    HW1 8363   7.013   3.915   0.755
 2488SOL    HW2 8364   6.922   3.955   0.884
 2489SOL     OW 8365   6.329   5.155   4.494
 2489SOL    HW1 8366   6.328   5.059   4.521
 2489SOL    HW2 8367   6.256   5.204   4.543
 2490SOL     OW 8368   2.295   5.574   2.056
 2490SOL    HW1 8369   2.303   5.664   2.100
 2490SOL    HW2 8370   2.220   5.575   1.991
 2491SOL     OW 8371   3.827   4.532   1.692
 2491SOL    HW1 8372   3.924   4.552   1.684
 2491SOL    HW2 8373   3.814   4.434   1.706
 2492SOL     OW 8374   7.025   5.287   1.078
 2492SOL    HW1 8375   6.950   5.264   1.016
 2492SOL    HW2 8376   6.988   5.325   1.162
 2493SOL     OW 8377   5.268   6.591   0.529
 2493SOL    HW1 8378   5.200   6.574   0.459
 2493SOL    HW2 8379   5.235   6.556   0.617
 2494SOL     OW 8380   6.880   3.837   1.020
 2494SOL    HW1 8381   6.840   3.746   1.021
 2494SOL    HW2 8382   6.816   3.902   1.061
 2495SOL     OW 8383   0.596   3.306   1.894
 2495SOL    HW1 8384   0.549   3.288   1.980
 2495SOL    HW2 8385   0.694   3.290   1.906
 2496SOL     OW 8386   5.691   4.729   6.478
 2496SOL    HW1 8387   5.655   4.815   6.442
 2496SOL    HW2 8388   5.735   4.745   6.566
 2497SOL     OW 8389   0.304   0.234   2.583
 2497SOL    HW1 8390   0.258   0.280   2.659
 2497SOL    HW2 8391   0.368   0.167   2.619
 2498SOL     OW 8392   1.867   3.513   4.862
 2498SOL    HW1 8393   1.799   3.530   4.791
 2498SOL    HW2 8394   1.874   3.415   4.879
 2499SOL     OW 8395   6.387   3.807   2.398
 2499SOL    HW1 8396   6.336   3.891   2.416
 2499SOL    HW2 8397   6.420   3.768   2.484
 2500SOL     OW 8398   3.784   3.515   2.013
 2500SOL    HW1 8399   3.686   3.526   2.030
 2500SOL    HW2 8400   3.836   3.562   2.085
 2501SOL     OW 8401   6.219   5.417   6.067
 2501SOL    HW1 8402   6.150   5.388   6.133
 2501SOL    HW2 8403   6.233   5.344   5.999
 2502SOL     OW 8404   2.052   6.413   4.047
 2502SOL    HW1 8405   2.016   6.504   4.026
 2502SOL    HW2 8406   2.144   6.422   4.085
 2503SOL     OW 8407   2.523   0.143   5.545
 2503SOL    HW1 8408   2.484   0.072   5.487
 2503SOL    HW2 8409   2.485   0.137   5.637
 2504SOL     OW 8410   3.745   0.138   3.064
 2504SOL    HW1 8411   3.761   0.133   2.965
 2504SOL    HW2 8412   3.777   0.226   3.099
 2505SOL     OW 8413   6.423   4.180   3.751
 2505SOL    HW1 8414   6.511   4.131   3.753
 2505SOL    HW2 8415   6.409   4.218   3.660
 2506SOL     OW 8416   6.038   5.303   6.247
 2506SOL    HW1 8417   5.991   5.336   6.329
 2506SOL    HW2 8418   6.105   5.233   6.272
 2507SOL     OW 8419   6.881   3.235   2.878
 2507SOL    HW1 8420   6.862   3.232   2.780
 2507SOL    HW2 8421   6.831   3.311   2.919
 2508SOL     OW 8422   5.948   0.901   4.107
 2508SOL    HW1 8423   6.009   0.965   4.060
 2508SOL    HW2 8424   5.864   0.948   4.134
 2509SOL     OW 8425   0.344   3.145   5.723
 2509SOL    HW1 8426   0.253   3.117   5.692
 2509SOL    HW2 8427   0.413   3.088   5.678
 2510SOL     OW 8428   3.279   4.077   2.529
 2510SOL    HW1 8429   3.199   4.096   2.586
 2510SOL    HW2 8430   3.251   4.061   2.435
 2511SOL     OW 8431   2.095   0.613   4.398
 2511SOL    HW1 8432   2.167   0.680   4.416
 2511SOL    HW2 8433   2.058   0.580   4.485
 2512SOL     OW 8434   4.237   4.776   3.717
 2512SOL    HW1 8435   4.241   4.870   3.752
 2512SOL    HW2 8436   4.306   4.721   3.764
 2513SOL     OW 8437   2.037   5.728   6.696
 2513SOL    HW1 8438   1.943   5.748   6.724
 2513SOL    HW2 8439   2.101   5.779   6.753
 2514SOL     OW 8440   1.939   1.863   3.243
 2514SOL    HW1 8441   1.919   1.870   3.340
 2514SOL    HW2 8442   2.009   1.794   3.228
 2515SOL     OW 8443   0.414   1.952   1.294
 2515SOL    HW1 8444   0.359   1.982   1.372
 2515SOL    HW2 8445   0.504   1.923   1.326
 2516SOL     OW 8446   6.049   2.330   4.595
 2516SOL    HW1 8447   6.091   2.244   4.566
 2516SOL    HW2 8448   6.105   2.407   4.564
 2517SOL     OW 8449   0.788   1.367   3.834
 2517SOL    HW1 8450   0.705   1.407   3.795
 2517SOL    HW2 8451   0.762   1.300   3.904
 2518SOL     OW 8452   2.351   4.289   0.980
 2518SOL    HW1 8453   2.422   4.294   0.909
 2518SOL    HW2 8454   2.382   4.339   1.061
 2519SOL     OW 8455   0.913   1.271   1.165
 2519SOL    HW1 8456   0.816   1.253   1.150
 2519SOL    HW2 8457   0.951   1.201   1.226
 2520SOL     OW 8458   2.310   2.671   1.043
 2520SOL    HW1 8459   2.327   2.709   1.134
 2520SOL    HW2 8460   2.396   2.658   0.995
 2521SOL     OW 8461   5.232   0.517   4.864
 2521SOL    HW1 8462   5.300   0.590   4.866
 2521SOL    HW2 8463   5.239   0.462   4.947
 2522SOL     OW 8464   1.177   2.085   6.846
 2522SOL    HW1 8465   1.090   2.092   6.895
 2522SOL    HW2 8466   1.200   1.989   6.832
 2523SOL     OW 8467   1.055   5.366   6.488
 2523SOL    HW1 8468   1.097   5.299   6.428
 2523SOL    HW2 8469   0.992   5.424   6.436
 2524SOL     OW 8470   1.157   1.448   4.541
 2524SOL    HW1 8471   1.249   1.466   4.577
 2524SOL    HW2 8472   1.152   1.353   4.510
 2525SOL     OW 8473   6.291   2.794   5.425
 2525SOL    HW1 8474   6.263   2.704   5.392
 2525SOL    HW2 8475   6.362   2.831   5.365
 2526SOL     OW 8476   1.591   0.722   0.451
 2526SOL    HW1 8477   1.656   0.727   0.528
 2526SOL    HW2 8478   1.519   0.790   0.464
 2527SOL     OW 8479   3.989   4.825   6.766
 2527SOL    HW1 8480   4.014   4.842   6.671
 2527SOL    HW2 8481   3.893   4.851   6.780
 2528SOL     OW 8482   4.539   5.535   6.302
 2528SOL    HW1 8483   4.478   5.613   6.318
 2528SOL    HW2 8484   4.570   5.498   6.389
 2529SOL     OW 8485   0.559   6.531   5.724
 2529SOL    HW1 8486   0.461   6.517   5.719
 2529SOL    HW2 8487   0.601   6.455   5.774
 2530SOL     OW 8488   2.522   6.148   6.626
 2530SOL    HW1 8489   2.426   6.134   6.599
 2530SOL    HW2 8490   2.576   6.069   6.598
 2531SOL     OW 8491   6.977   5.379   6.294
 2531SOL    HW1 8492   0.037   5.348   6.336
 2531SOL    HW2 8493   6.923   5.300   6.265
 2532SOL     OW 8494   5.867   5.757   1.547
 2532SOL    HW1 8495   5.770   5.753   1.571
 2532SOL    HW2 8496   5.918   5.692   1.604
 2533SOL     OW 8497   4.260   0.963   3.665
 2533SOL    HW1 8498   4.299   0.878   3.630
 2533SOL    HW2 8499   4.163   0.968   3.642
 2534SOL     OW 8500   3.960   1.270   2.460
 2534SOL    HW1 8501   3.953   1.184   2.512
 2534SOL    HW2 8502   3.872   1.289   2.417
 2535SOL     OW 8503   3.636   2.898   6.225
 2535SOL    HW1 8504   3.661   2.883   6.129
 2535SOL    HW2 8505   3.705   2.955   6.269
 2536SOL     OW 8506   1.484   0.410   1.526
 2536SOL    HW1 8507   1.387   0.419   1.548
 2536SOL    HW2 8508   1.505   0.314   1.504
 2537SOL     OW 8509   3.850   0.035   5.680
 2537SOL    HW1 8510   3.865   6.962   5.682
 2537SOL    HW2 8511   3.759   0.055   5.717
 2538SOL     OW 8512   5.744   3.539   3.586
 2538SOL    HW1 8513   5.798   3.616   3.551
 2538SOL    HW2 8514   5.655   3.574   3.618
 2539SOL     OW 8515   5.276   2.848   5.137
 2539SOL    HW1 8516   5.352   2.792   5.103
 2539SOL    HW2 8517   5.205   2.855   5.067
 2540SOL     OW 8518   2.806   2.046   1.277
 2540SOL    HW1 8519   2.827   2.010   1.186
 2540SOL    HW2 8520   2.888   2.044   1.333
 2541SOL     OW 8521   3.351   6.611   3.761
 2541SOL    HW1 8522   3.296   6.538   3.719
 2541SOL    HW2 8523   3.373   6.586   3.855
 2542SOL     OW 8524   2.043   5.247   5.891
 2542SOL    HW1 8525   2.094   5.332   5.903
 2542SOL    HW2 8526   1.972   5.241   5.962
 2543SOL     OW 8527   0.378   0.420   4.161
 2543SOL    HW1 8528   0.439   0.344   4.180
 2543SOL    HW2 8529   0.332   0.447   4.245
 2544SOL     OW 8530   0.351   5.158   6.565
 2544SOL    HW1 8531   0.396   5.236   6.609
 2544SOL    HW2 8532   0.408   5.076   6.575
 2545SOL     OW 8533   2.603   5.894   3.547
 2545SOL    HW1 8534   2.676   5.843   3.591
 2545SOL    HW2 8535   2.520   5.890   3.604
 2546SOL     OW 8536   0.082   1.243   1.823
 2546SOL    HW1 8537   0.124   1.321   1.778
 2546SOL    HW2 8538   0.024   1.275   1.898
 2547SOL     OW 8539   1.122   3.357   5.377
 2547SOL    HW1 8540   1.023   3.362   5.372
 2547SOL    HW2 8541   1.155   3.406   5.458
 2548SOL     OW 8542   1.215   0.493   5.856
 2548SOL    HW1 8543   1.200   0.408   5.907
 2548SOL    HW2 8544   1.129   0.544   5.851
 2549SOL     OW 8545   6.560   2.998   2.226
 2549SOL    HW1 8546   6.557   2.977   2.324
 2549SOL    HW2 8547   6.635   3.062   2.208
 2550SOL     OW 8548   5.877   5.350   6.977
 2550SOL    HW1 8549   5.796   5.306   6.938
 2550SOL    HW2 8550   5.859   5.375   0.047
 2551SOL     OW 8551   0.927   5.472   0.421
 2551SOL    HW1 8552   0.893   5.475   0.515
 2551SOL    HW2 8553   0.897   5.388   0.377
 2552SOL     OW 8554   1.491   5.680   3.666
 2552SOL    HW1 8555   1.586   5.674   3.636
 2552SOL    HW2 8556   1.434   5.707   3.589
 2553SOL     OW 8557   4.141   3.693   6.613
 2553SOL    HW1 8558   4.171   3.620   6.675
 2553SOL    HW2 8559   4.174   3.781   6.646
 2554SOL     OW 8560   1.111   2.019   0.649
 2554SOL    HW1 8561   1.124   2.077   0.729
 2554SOL    HW2 8562   1.018   1.983   0.648
 2555SOL     OW 8563   6.655   0.138   6.601
 2555SOL    HW1 8564   6.666   0.175   6.508
 2555SOL    HW2 8565   6.601   0.054   6.596
 2556SOL     OW 8566   3.813   4.969   0.657
 2556SOL    HW1 8567   3.848   5.042   0.598
 2556SOL    HW2 8568   3.794   4.888   0.602
 2557SOL     OW 8569   1.390   4.464   6.718
 2557SOL    HW1 8570   1.371   4.536   6.784
 2557SOL    HW2 8571   1.308   4.442   6.666
 2558SOL     OW 8572   4.020   0.362   5.063
 2558SOL    HW1 8573   3.920   0.369   5.070
 2558SOL    HW2 8574   4.060   0.374   5.154
 2559SOL     OW 8575   0.500   5.143   4.932
 2559SOL    HW1 8576   0.595   5.127   4.904
 2559SOL    HW2 8577   0.464   5.223   4.883
 2560SOL     OW 8578   5.811   1.212   6.951
 2560SOL    HW1 8579   5.735   1.157   6.916
 2560SOL    HW2 8580   5.895   1.158   6.948
 2561SOL     OW 8581   2.772   5.921   4.214
 2561SOL    HW1 8582   2.830   6.001   4.200
 2561SOL    HW2 8583   2.804   5.846   4.156
 2562SOL     OW 8584   2.424   3.782   0.039
 2562SOL    HW1 8585   2.360   3.725   0.090
 2562SOL    HW2 8586   2.375   3.832   6.993
 2563SOL     OW 8587   1.889   0.832   1.645
 2563SOL    HW1 8588   1.922   0.893   1.573
 2563SOL    HW2 8589   1.911   0.870   1.735
 2564SOL     OW 8590   1.788   6.686   2.264
 2564SOL    HW1 8591   1.690   6.681   2.284
 2564SOL    HW2 8592   1.839   6.685   2.350
 2565SOL     OW 8593   0.566   0.895   1.928
 2565SOL    HW1 8594   0.626   0.842   1.868
 2565SOL    HW2 8595   0.471   0.880   1.901
 2566SOL     OW 8596   2.132   6.886   5.720
 2566SOL    HW1 8597   2.190   6.967   5.729
 2566SOL    HW2 8598   2.052   6.896   5.780
 2567SOL     OW 8599   1.103   0.946   0.158
 2567SOL    HW1 8600   1.118   0.847   0.157
 2567SOL    HW2 8601   1.031   0.968   0.224
 2568SOL     OW 8602   5.209   4.162   0.107
 2568SOL    HW1 8603   5.225   4.073   0.064
 2568SOL    HW2 8604   5.190   4.231   0.036
 2569SOL     OW 8605   2.573   0.714   2.474
 2569SOL    HW1 8606   2.596   0.644   2.406
 2569SOL    HW2 8607   2.536   0.794   2.428
 2570SOL     OW 8608   5.394   2.587   5.903
 2570SOL    HW1 8609   5.474   2.569   5.960
 2570SOL    HW2 8610   5.333   2.650   5.950
 2571SOL     OW 8611   0.681   3.855   4.459
 2571SOL    HW1 8612   0.666   3.933   4.520
 2571SOL    HW2 8613   0.777   3.853   4.431
 2572SOL     OW 8614   1.671   4.764   3.815
 2572SOL    HW1 8615   1.616   4.721   3.887
 2572SOL    HW2 8616   1.766   4.770   3.844
 2573SOL     OW 8617   1.164   0.117   0.668
 2573SOL    HW1 8618   1.172   0.210   0.632
 2573SOL    HW2 8619   1.237   0.060   0.630
 2574SOL     OW 8620   6.338   3.667   0.760
 2574SOL    HW1 8621   6.420   3.709   0.722
 2574SOL    HW2 8622   6.279   3.636   0.686
 2575SOL     OW 8623   0.652   6.317   6.350
 2575SOL    HW1 8624   0.641   6.260   6.431
 2575SOL    HW2 8625   0.618   6.268   6.270
 2576SOL     OW 8626   4.399   6.454   4.892
 2576SOL    HW1 8627   4.399   6.358   4.863
 2576SOL    HW2 8628   4.305   6.485   4.904
 2577SOL     OW 8629   1.751   4.289   2.747
 2577SOL    HW1 8630   1.803   4.237   2.679
 2577SOL    HW2 8631   1.787   4.382   2.753
 2578SOL     OW 8632   4.252   1.931   2.417
 2578SOL    HW1 8633   4.333   1.881   2.447
 2578SOL    HW2 8634   4.185   1.933   2.492
 2579SOL     OW 8635   0.763   6.513   2.809
 2579SOL    HW1 8636   0.744   6.423   2.850
 2579SOL    HW2 8637   0.829   6.502   2.735
 2580SOL     OW 8638   2.537   1.962   5.819
 2580SOL    HW1 8639   2.584   1.878   5.790
 2580SOL    HW2 8640   2.600   2.019   5.872
 2581SOL     OW 8641   3.300   0.629   5.267
 2581SOL    HW1 8642   3.360   0.702   5.235
 2581SOL    HW2 8643   3.321   0.545   5.216
 2582SOL     OW 8644   6.927   3.169   1.456
 2582SOL    HW1 8645   7.004   3.169   1.391
 2582SOL    HW2 8646   6.955   3.213   1.541
 2583SOL     OW 8647   5.742   0.623   1.045
 2583SOL    HW1 8648   5.819   0.680   1.076
 2583SOL    HW2 8649   5.772   0.528   1.040
 2584SOL     OW 8650   3.691   4.772   6.226
 2584SOL    HW1 8651   3.629   4.740   6.298
 2584SOL    HW2 8652   3.709   4.697   6.162
 2585SOL     OW 8653   3.076   5.753   0.015
 2585SOL    HW1 8654   3.152   5.702   7.000
 2585SOL    HW2 8655   3.043   5.706   0.097
 2586SOL     OW 8656   2.612   0.898   3.564
 2586SOL    HW1 8657   2.570   0.827   3.620
 2586SOL    HW2 8658   2.705   0.915   3.597
 2587SOL     OW 8659   6.086   0.727   4.364
 2587SOL    HW1 8660   6.139   0.643   4.370
 2587SOL    HW2 8661   6.135   0.794   4.308
 2588SOL     OW 8662   4.587   0.523   7.016
 2588SOL    HW1 8663   4.629   0.584   6.949
 2588SOL    HW2 8664   4.496   0.557   0.014
 2589SOL     OW 8665   2.318   6.261   0.326
 2589SOL    HW1 8666   2.406   6.225   0.357
 2589SOL    HW2 8667   2.327   6.359   0.307
 2590SOL     OW 8668   3.219   5.961   0.169
 2590SOL    HW1 8669   3.155   6.024   0.214
 2590SOL    HW2 8670   3.168   5.897   0.112
 2591SOL     OW 8671   5.417   5.633   2.780
 2591SOL    HW1 8672   5.468   5.550   2.806
 2591SOL    HW2 8673   5.323   5.607   2.756
 2592SOL     OW 8674   2.783   3.896   1.173
 2592SOL    HW1 8675   2.798   3.797   1.170
 2592SOL    HW2 8676   2.741   3.926   1.087
 2593SOL     OW 8677   3.437   4.588   6.996
 2593SOL    HW1 8678   3.468   4.538   6.915
 2593SOL    HW2 8679   3.483   4.676   7.000
 2594SOL     OW 8680   2.139   3.186   3.793
 2594SOL    HW1 8681   2.191   3.107   3.761
 2594SOL    HW2 8682   2.095   3.230   3.715
 2595SOL     OW 8683   2.393   1.538   2.918
 2595SOL    HW1 8684   2.478   1.509   2.874
 2595SOL    HW2 8685   2.329   1.573   2.849
 2596SOL     OW 8686   0.248   2.244   0.647
 2596SOL    HW1 8687   0.255   2.313   0.720
 2596SOL    HW2 8688   0.322   2.178   0.656
 2597SOL     OW 8689   6.476   6.794   0.328
 2597SOL    HW1 8690   6.465   6.703   0.289
 2597SOL    HW2 8691   6.416   6.804   0.408
 2598SOL     OW 8692   4.644   2.579   2.550
 2598SOL    HW1 8693   4.554   2.567   2.590
 2598SOL    HW2 8694   4.635   2.607   2.454
 2599SOL     OW 8695   2.683   5.700   2.443
 2599SOL    HW1 8696   2.709   5.745   2.528
 2599SOL    HW2 8697   2.663   5.769   2.373
 2600SOL     OW 8698   5.503   3.735   4.404
 2600SOL    HW1 8699   5.524   3.639   4.424
 2600SOL    HW2 8700   5.533   3.756   4.311
 2601SOL     OW 8701   6.467   1.278   4.639
 2601SOL    HW1 8702   6.523   1.196   4.648
 2601SOL    HW2 8703   6.491   1.325   4.554
 2602SOL     OW 8704   0.845   4.764   2.786
 2602SOL    HW1 8705   0.861   4.754   2.688
 2602SOL    HW2 8706   0.879   4.684   2.834
 2603SOL     OW 8707   2.406   5.511   2.808
 2603SOL    HW1 8708   2.505   5.510   2.812
 2603SOL    HW2 8709   2.369   5.548   2.893
 2604SOL     OW 8710   4.542   2.589   3.590
 2604SOL    HW1 8711   4.450   2.590   3.550
 2604SOL    HW2 8712   4.542   2.531   3.671
 2605SOL     OW 8713   1.311   2.924   1.831
 2605SOL    HW1 8714   1.295   2.874   1.746
 2605SOL    HW2 8715   1.393   2.887   1.876
 2606SOL     OW 8716   5.207   3.631   1.240
 2606SOL    HW1 8717   5.252   3.557   1.190
 2606SOL    HW2 8718   5.257   3.716   1.226
 2607SOL     OW 8719   2.621   3.139   1.675
 2607SOL    HW1 8720   2.656   3.203   1.742
 2607SOL    HW2 8721   2.527   3.113   1.699
 2608SOL     OW 8722   3.259   5.524   5.406
 2608SOL    HW1 8723   3.250   5.426   5.424
 2608SOL    HW2 8724   3.337   5.561   5.457
 2609SOL     OW 8725   0.775   2.016   1.532
 2609SOL    HW1 8726   0.707   1.968   1.476
 2609SOL    HW2 8727   0.866   1.989   1.503
 2610SOL     OW 8728   1.335   4.217   4.951
 2610SOL    HW1 8729   1.388   4.245   5.032
 2610SOL    HW2 8730   1.395   4.173   4.885
 2611SOL     OW 8731   5.774   0.241   5.667
 2611SOL    HW1 8732   5.730   0.170   5.612
 2611SOL    HW2 8733   5.704   0.296   5.712
 2612SOL     OW 8734   6.526   6.534   0.182
 2612SOL    HW1 8735   6.445   6.475   0.174
 2612SOL    HW2 8736   6.542   6.580   0.095
 2613SOL     OW 8737   1.461   6.925   0.048
 2613SOL    HW1 8738   1.436   6.830   0.027
 2613SOL    HW2 8739   1.436   6.946   0.142
 2614SOL     OW 8740   5.725   1.848   0.582
 2614SOL    HW1 8741   5.733   1.843   0.483
 2614SOL    HW2 8742   5.815   1.867   0.622
 2615SOL     OW 8743   0.662   3.362   6.855
 2615SOL    HW1 8744   0.610   3.303   6.916
 2615SOL    HW2 8745   0.655   3.457   6.885
 2616SOL     OW 8746   1.191   1.178   4.484
 2616SOL    HW1 8747   1.093   1.163   4.494
 2616SOL    HW2 8748   1.236   1.094   4.454
 2617SOL     OW 8749   5.565   0.246   1.469
 2617SOL    HW1 8750   5.602   0.333   1.499
 2617SOL    HW2 8751   5.477   0.261   1.424
 2618SOL     OW 8752   1.385   0.131   6.531
 2618SOL    HW1 8753   1.448   0.078   6.588
 2618SOL    HW2 8754   1.375   0.087   6.442
 2619SOL     OW 8755   4.812   1.415   2.791
 2619SOL    HW1 8756   4.740   1.470   2.749
 2619SOL    HW2 8757   4.884   1.397   2.724
 2620SOL     OW 8758   6.313   2.145   2.085
 2620SOL    HW1 8759   6.312   2.217   2.016
 2620SOL    HW2 8760   6.229   2.091   2.078
 2621SOL     OW 8761   2.503   6.583   1.335
 2621SOL    HW1 8762   2.566   6.660   1.322
 2621SOL    HW2 8763   2.528   6.509   1.273
 2622SOL     OW 8764   2.542   3.508   7.017
 2622SOL    HW1 8765   2.572   3.572   0.062
 2622SOL    HW2 8766   2.524   3.557   6.932
 2623SOL     OW 8767   6.960   0.386   4.119
 2623SOL    HW1 8768   6.861   0.400   4.117
 2623SOL    HW2 8769   7.006   0.471   4.144
 2624SOL     OW 8770   1.121   1.754   5.687
 2624SOL    HW1 8771   1.146   1.848   5.710
 2624SOL    HW2 8772   1.021   1.746   5.688
 2625SOL     OW 8773   2.739   5.459   5.839
 2625SOL    HW1 8774   2.704   5.381   5.788
 2625SOL    HW2 8775   2.796   5.426   5.915
 2626SOL     OW 8776   6.886   0.000   6.930
 2626SOL    HW1 8777   6.894   0.092   6.970
 2626SOL    HW2 8778   6.884   0.007   6.831
 2627SOL     OW 8779   2.241   0.652   5.817
 2627SOL    HW1 8780   2.288   0.686   5.899
 2627SOL    HW2 8781   2.212   0.730   5.761
 2628SOL     OW 8782   0.073   4.996   1.284
 2628SOL    HW1 8783   0.144   5.041   1.230
 2628SOL    HW2 8784   0.087   5.014   1.381
 2629SOL     OW 8785   3.135   3.926   2.775
 2629SOL    HW1 8786   3.193   3.850   2.805
 2629SOL    HW2 8787   3.079   3.896   2.698
 2630SOL     OW 8788   3.473   0.746   4.381
 2630SOL    HW1 8789   3.553   0.789   4.422
 2630SOL    HW2 8790   3.406   0.817   4.356
 2631SOL     OW 8791   5.068   6.185   6.937
 2631SOL    HW1 8792   4.977   6.150   6.914
 2631SOL    HW2 8793   5.067   6.285   6.936
 2632SOL     OW 8794   5.383   5.062   1.745
 2632SOL    HW1 8795   5.365   5.161   1.750
 2632SOL    HW2 8796   5.476   5.044   1.779
 2633SOL     OW 8797   0.135   3.389   5.980
 2633SOL    HW1 8798   0.056   3.339   5.944
 2633SOL    HW2 8799   0.188   3.426   5.904
 2634SOL     OW 8800   1.233   1.717   5.984
 2634SOL    HW1 8801   1.310   1.780   6.000
 2634SOL    HW2 8802   1.210   1.718   5.887
 2635SOL     OW 8803   4.021   5.551   2.959
 2635SOL    HW1 8804   4.060   5.496   2.885
 2635SOL    HW2 8805   3.938   5.596   2.926
 2636SOL     OW 8806   3.535   6.306   6.170
 2636SOL    HW1 8807   3.499   6.277   6.258
 2636SOL    HW2 8808   3.463   6.353   6.119
 2637SOL     OW 8809   0.316   1.076   3.245
 2637SOL    HW1 8810   0.297   1.128   3.329
 2637SOL    HW2 8811   0.399   1.112   3.202
 2638SOL     OW 8812   0.831   6.619   4.819
 2638SOL    HW1 8813   0.845   6.524   4.849
 2638SOL    HW2 8814   0.748   6.655   4.862
 2639SOL     OW 8815   4.957   4.932   4.657
 2639SOL    HW1 8816   5.001   4.891   4.577
 2639SOL    HW2 8817   4.875   4.880   4.680
 2640SOL     OW 8818   2.404   1.277   3.329
 2640SOL    HW1 8819   2.332   1.265   3.397
 2640SOL    HW2 8820   2.364   1.285   3.238
 2641SOL     OW 8821   5.242   2.424   0.112
 2641SOL    HW1 8822   5.268   2.466   0.200
 2641SOL    HW2 8823   5.226   2.326   0.125
 2642SOL     OW 8824   0.122   0.099   2.417
 2642SOL    HW1 8825   0.154   0.131   2.328
 2642SOL    HW2 8826   0.184   0.132   2.488
 2643SOL     OW 8827   1.568   4.593   4.020
 2643SOL    HW1 8828   1.521   4.527   3.962
 2643SOL    HW2 8829   1.518   4.604   4.106
 2644SOL     OW 8830   5.651   5.525   3.822
 2644SOL    HW1 8831   5.597   5.533   3.906
 2644SOL    HW2 8832   5.629   5.602   3.762
 2645SOL     OW 8833   5.176   5.667   2.492
 2645SOL    HW1 8834   5.196   5.581   2.445
 2645SOL    HW2 8835   5.147   5.736   2.425
 2646SOL     OW 8836   1.260   2.120   6.261
 2646SOL    HW1 8837   1.205   2.108   6.179
 2646SOL    HW2 8838   1.357   2.123   6.236
 2647SOL     OW 8839   4.188   6.609   2.617
 2647SOL    HW1 8840   4.172   6.519   2.575
 2647SOL    HW2 8841   4.274   6.646   2.583
 2648SOL     OW 8842   1.678   0.760   5.804
 2648SOL    HW1 8843   1.676   0.714   5.715
 2648SOL    HW2 8844   1.612   0.718   5.865
 2649SOL     OW 8845   6.297   1.703   3.604
 2649SOL    HW1 8846   6.214   1.757   3.589
 2649SOL    HW2 8847   6.273   1.605   3.605
 2650SOL     OW 8848   2.237   0.405   4.608
 2650SOL    HW1 8849   2.176   0.475   4.645
 2650SOL    HW2 8850   2.213   0.316   4.646
 2651SOL     OW 8851   3.978   1.932   3.654
 2651SOL    HW1 8852   3.991   1.988   3.572
 2651SOL    HW2 8853   3.972   1.836   3.628
 2652SOL     OW 8854   5.046   3.770   5.903
 2652SOL    HW1 8855   5.142   3.747   5.885
 2652SOL    HW2 8856   5.023   3.854   5.854
 2653SOL     OW 8857   2.092   6.442   0.085
 2653SOL    HW1 8858   2.190   6.451   0.068
 2653SOL    HW2 8859   2.054   6.531   0.106
 2654SOL     OW 8860   7.014   1.004   0.665
 2654SOL    HW1 8861   6.933   0.947   0.653
 2654SOL    HW2 8862   7.000   1.092   0.620
 2655SOL     OW 8863   5.265   6.660   2.928
 2655SOL    HW1 8864   5.360   6.631   2.929
 2655SOL    HW2 8865   5.260   6.758   2.951
 2656SOL     OW 8866   4.899   6.175   4.288
 2656SOL    HW1 8867   4.949   6.181   4.201
 2656SOL    HW2 8868   4.802   6.189   4.270
 2657SOL     OW 8869   1.564   3.348   7.023
 2657SOL    HW1 8870   1.659   3.345   0.029
 2657SOL    HW2 8871   1.561   3.330   6.925
 2658SOL     OW 8872   3.117   4.299   0.231
 2658SOL    HW1 8873   3.112   4.387   0.278
 2658SOL    HW2 8874   3.093   4.311   0.134
 2659SOL     OW 8875   0.158   2.093   5.200
 2659SOL    HW1 8876   0.234   2.038   5.164
 2659SOL    HW2 8877   0.179   2.120   5.294
 2660SOL     OW 8878   0.939   1.279   0.855
 2660SOL    HW1 8879   0.951   1.266   0.953
 2660SOL    HW2 8880   0.972   1.198   0.806
 2661SOL     OW 8881   1.716   1.191   1.170
 2661SOL    HW1 8882   1.786   1.234   1.113
 2661SOL    HW2 8883   1.632   1.244   1.165
 2662SOL     OW 8884   3.125   1.645   1.659
 2662SOL    HW1 8885   3.071   1.686   1.733
 2662SOL    HW2 8886   3.173   1.717   1.609
 2663SOL     OW 8887   3.840   0.814   0.999
 2663SOL    HW1 8888   3.849   0.914   1.001
 2663SOL    HW2 8889   3.827   0.783   0.905
 2664SOL     OW 8890   5.046   2.904   5.851
 2664SOL    HW1 8891   5.073   2.860   5.765
 2664SOL    HW2 8892   5.008   2.995   5.833
 2665SOL     OW 8893   1.393   2.886   3.955
 2665SOL    HW1 8894   1.374   2.927   3.866
 2665SOL    HW2 8895   1.435   2.954   4.016
 2666SOL     OW 8896   1.528   4.170   2.006
 2666SOL    HW1 8897   1.523   4.106   1.930
 2666SOL    HW2 8898   1.460   4.242   1.993
 2667SOL     OW 8899   6.478   2.810   4.547
 2667SOL    HW1 8900   6.404   2.877   4.536
 2667SOL    HW2 8901   6.543   2.819   4.471
 2668SOL     OW 8902   5.480   0.961   4.256
 2668SOL    HW1 8903   5.435   1.041   4.295
 2668SOL    HW2 8904   5.412   0.891   4.236
 2669SOL     OW 8905   2.644   1.085   1.516
 2669SOL    HW1 8906   2.707   1.128   1.450
 2669SOL    HW2 8907   2.694   1.063   1.599
 2670SOL     OW 8908   0.511   0.585   0.602
 2670SOL    HW1 8909   0.586   0.521   0.589
 2670SOL    HW2 8910   0.464   0.600   0.514
 2671SOL     OW 8911   5.317   4.459   5.899
 2671SOL    HW1 8912   5.416   4.444   5.906
 2671SOL    HW2 8913   5.279   4.473   5.990
 2672SOL     OW 8914   2.545   1.777   2.713
 2672SOL    HW1 8915   2.498   1.864   2.718
 2672SOL    HW2 8916   2.544   1.743   2.619
 2673SOL     OW 8917   3.381   6.837   2.656
 2673SOL    HW1 8918   3.413   6.889   2.735
 2673SOL    HW2 8919   3.403   6.741   2.668
 2674SOL     OW 8920   6.601   5.932   3.206
 2674SOL    HW1 8921   6.675   5.963   3.266
 2674SOL    HW2 8922   6.523   5.994   3.214
 2675SOL     OW 8923   4.532   0.999   4.741
 2675SOL    HW1 8924   4.622   0.994   4.783
 2675SOL    HW2 8925   4.462   0.973   4.808
 2676SOL     OW 8926   3.701   3.091   4.644
 2676SOL    HW1 8927   3.758   3.065   4.565
 2676SOL    HW2 8928   3.651   3.011   4.677
 2677SOL     OW 8929   1.695   5.846   0.260
 2677SOL    HW1 8930   1.599   5.872   0.272
 2677SOL    HW2 8931   1.748   5.927   0.235
 2678SOL     OW 8932   3.598   2.050   2.459
 2678SOL    HW1 8933   3.591   2.048   2.359
 2678SOL    HW2 8934   3.518   2.095   2.497
 2679SOL     OW 8935   2.058   3.539   2.421
 2679SOL    HW1 8936   2.083   3.591   2.502
 2679SOL    HW2 8937   1.958   3.534   2.414
 2680SOL     OW 8938   5.526   2.703   6.769
 2680SOL    HW1 8939   5.536   2.622   6.711
 2680SOL    HW2 8940   5.430   2.714   6.795
 2681SOL     OW 8941   2.287   2.181   3.424
 2681SOL    HW1 8942   2.340   2.179   3.340
 2681SOL    HW2 8943   2.193   2.211   3.404
 2682SOL     OW 8944   3.818   4.021   1.990
 2682SOL    HW1 8945   3.729   4.063   2.011
 2682SOL    HW2 8946   3.887   4.056   2.054
 2683SOL     OW 8947   1.686   3.614   1.715
 2683SOL    HW1 8948   1.659   3.568   1.799
 2683SOL    HW2 8949   1.619   3.596   1.643
 2684SOL     OW 8950   5.660   0.563   3.947
 2684SOL    HW1 8951   5.660   0.657   3.915
 2684SOL    HW2 8952   5.745   0.543   3.995
 2685SOL     OW 8953   1.487   6.999   5.725
 2685SOL    HW1 8954   1.556   0.034   5.686
 2685SOL    HW2 8955   1.529   6.941   5.795
 2686SOL     OW 8956   1.884   1.481   6.059
 2686SOL    HW1 8957   1.874   1.471   6.158
 2686SOL    HW2 8958   1.794   1.498   6.018
 2687SOL     OW 8959   4.063   2.008   1.452
 2687SOL    HW1 8960   3.985   1.944   1.450
 2687SOL    HW2 8961   4.142   1.965   1.408
 2688SOL     OW 8962   3.883   2.576   6.582
 2688SOL    HW1 8963   3.842   2.613   6.665
 2688SOL    HW2 8964   3.813   2.565   6.511
 2689SOL     OW 8965   0.038   3.764   3.020
 2689SOL    HW1 8966   0.042   3.782   2.922
 2689SOL    HW2 8967   7.022   3.675   3.037
 2690SOL     OW 8968   4.996   0.900   5.140
 2690SOL    HW1 8969   5.009   0.975   5.075
 2690SOL    HW2 8970   4.974   0.816   5.091
 2691SOL     OW 8971   0.131   3.453   4.740
 2691SOL    HW1 8972   0.208   3.490   4.792
 2691SOL    HW2 8973   0.128   3.354   4.752
 2692SOL     OW 8974   2.194   5.310   1.725
 2692SOL    HW1 8975   2.236   5.232   1.770
 2692SOL    HW2 8976   2.121   5.279   1.664
 2693SOL     OW 8977   0.570   4.915   2.953
 2693SOL    HW1 8978   0.543   4.895   3.047
 2693SOL    HW2 8979   0.647   4.980   2.954
 2694SOL     OW 8980   2.303   0.445   2.436
 2694SOL    HW1 8981   2.370   0.517   2.420
 2694SOL    HW2 8982   2.280   0.441   2.534
 2695SOL     OW 8983   6.991   5.557   3.411
 2695SOL    HW1 8984   6.974   5.564   3.313
 2695SOL    HW2 8985   6.966   5.643   3.456
 2696SOL     OW 8986   3.910   4.880   6.094
 2696SOL    HW1 8987   3.828   4.824   6.098
 2696SOL    HW2 8988   3.987   4.824   6.063
 2697SOL     OW 8989   3.846   2.607   0.326
 2697SOL    HW1 8990   3.815   2.625   0.419
 2697SOL    HW2 8991   3.772   2.561   0.275
 2698SOL     OW 8992   1.445   5.931   6.494
 2698SOL    HW1 8993   1.531   5.957   6.450
 2698SOL    HW2 8994   1.398   6.013   6.525
 2699SOL     OW 8995   2.914   0.024   1.715
 2699SOL    HW1 8996   2.906   0.119   1.684
 2699SOL    HW2 8997   2.999   7.010   1.681
 2700SOL     OW 8998   4.418   2.037   1.572
 2700SOL    HW1 8999   4.376   2.116   1.527
 2700SOL    HW2 9000   4.385   2.031   1.666
 2701SOL     OW 9001   5.335   3.598   5.192
 2701SOL    HW1 9002   5.404   3.530   5.216
 2701SOL    HW2 9003   5.275   3.561   5.122
 2702SOL     OW 9004   2.042   1.279   4.580
 2702SOL    HW1 9005   2.130   1.238   4.605
 2702SOL    HW2 9006   1.994   1.309   4.662
 2703SOL     OW 9007   2.215   6.069   2.304
 2703SOL    HW1 9008   2.277   6.146   2.293
 2703SOL    HW2 9009   2.121   6.098   2.283
 2704SOL     OW 9010   4.113   0.646   3.400
 2704SOL    HW1 9011   4.131   0.647   3.498
 2704SOL    HW2 9012   4.183   0.591   3.354
 2705SOL     OW 9013   1.559   0.115   5.343
 2705SOL    HW1 9014   1.620   0.042   5.312
 2705SOL    HW2 9015   1.464   0.088   5.326
 2706SOL     OW 9016   6.664   4.620   3.716
 2706SOL    HW1 9017   6.697   4.688   3.782
 2706SOL    HW2 9018   6.591   4.567   3.758
 2707SOL     OW 9019   4.933   1.499   3.042
 2707SOL    HW1 9020   4.899   1.466   2.954
 2707SOL    HW2 9021   4.903   1.593   3.056
 2708SOL     OW 9022   4.916   3.173   5.865
 2708SOL    HW1 9023   4.861   3.208   5.789
 2708SOL    HW2 9024   4.995   3.233   5.879
 2709SOL     OW 9025   5.271   1.400   5.791
 2709SOL    HW1 9026   5.238   1.405   5.697
 2709SOL    HW2 9027   5.196   1.417   5.854
 2710SOL     OW 9028   1.308   2.816   4.522
 2710SOL    HW1 9029   1.401   2.818   4.559
 2710SOL    HW2 9030   1.312   2.799   4.424
 2711SOL     OW 9031   4.530   0.660   1.487
 2711SOL    HW1 9032   4.572   0.671   1.397
 2711SOL    HW2 9033   4.432   0.680   1.482
 2712SOL     OW 9034   5.593   5.714   1.570
 2712SOL    HW1 9035   5.561   5.798   1.615
 2712SOL    HW2 9036   5.521   5.645   1.575
 2713SOL     OW 9037   3.531   5.013   5.479
 2713SOL    HW1 9038   3.451   4.963   5.445
 2713SOL    HW2 9039   3.505   5.108   5.496
 2714SOL     OW 9040   3.033   4.485   6.274
 2714SOL    HW1 9041   3.034   4.502   6.372
 2714SOL    HW2 9042   3.042   4.572   6.225
 2715SOL     OW 9043   4.771   6.039   7.010
 2715SOL    HW1 9044   4.676   6.011   7.022
 2715SOL    HW2 9045   4.830   5.978   0.038
 2716SOL     OW 9046   4.353   0.917   2.764
 2716SOL    HW1 9047   4.292   0.985   2.804
 2716SOL    HW2 9048   4.439   0.914   2.815
 2717SOL     OW 9049   1.451   2.299   2.338
 2717SOL    HW1 9050   1.355   2.321   2.319
 2717SOL    HW2 9051   1.494   2.377   2.384
 2718SOL     OW 9052   6.295   1.728   5.799
 2718SOL    HW1 9053   6.235   1.799   5.763
 2718SOL    HW2 9054   6.241   1.652   5.835
 2719SOL     OW 9055   0.949   4.807   3.314
 2719SOL    HW1 9056   0.933   4.854   3.401
 2719SOL    HW2 9057   0.940   4.708   3.327
 2720SOL     OW 9058   2.333   5.114   6.839
 2720SOL    HW1 9059   2.394   5.184   6.876
 2720SOL    HW2 9060   2.296   5.145   6.752
 2721SOL     OW 9061   1.948   6.860   3.140
 2721SOL    HW1 9062   2.008   6.783   3.119
 2721SOL    HW2 9063   1.853   6.831   3.136
 2722SOL     OW 9064   3.541   4.847   6.614
 2722SOL    HW1 9065   3.485   4.919   6.573
 2722SOL    HW2 9066   3.550   4.771   6.550
 2723SOL     OW 9067   4.263   5.357   6.614
 2723SOL    HW1 9068   4.329   5.284   6.631
 2723SOL    HW2 9069   4.241   5.360   6.516
 2724SOL     OW 9070   6.576   5.916   1.292
 2724SOL    HW1 9071   6.657   5.866   1.261
 2724SOL    HW2 9072   6.553   5.987   1.225
 2725SOL     OW 9073   6.235   4.965   3.279
 2725SOL    HW1 9074   6.191   4.877   3.298
 2725SOL    HW2 9075   6.167   5.029   3.244
 2726SOL     OW 9076   6.616   2.244   3.159
 2726SOL    HW1 9077   6.616   2.344   3.156
 2726SOL    HW2 9078   6.616   2.213   3.254
 2727SOL     OW 9079   1.759   5.196   3.745
 2727SOL    HW1 9080   1.847   5.243   3.732
 2727SOL    HW2 9081   1.732   5.203   3.841
 2728SOL     OW 9082   5.012   5.733   5.560
 2728SOL    HW1 9083   5.096   5.690   5.526
 2728SOL    HW2 9084   5.018   5.746   5.659
 2729SOL     OW 9085   6.478   0.189   0.268
 2729SOL    HW1 9086   6.470   0.273   0.323
 2729SOL    HW2 9087   6.517   0.212   0.179
 2730SOL     OW 9088   1.332   5.421   2.744
 2730SOL    HW1 9089   1.307   5.469   2.828
 2730SOL    HW2 9090   1.276   5.454   2.669
 2731SOL     OW 9091   3.969   3.899   5.084
 2731SOL    HW1 9092   4.056   3.851   5.078
 2731SOL    HW2 9093   3.903   3.844   5.135
 2732SOL     OW 9094   4.796   0.582   1.605
 2732SOL    HW1 9095   4.704   0.597   1.569
 2732SOL    HW2 9096   4.844   0.670   1.608
 2733SOL     OW 9097   0.534   6.996   0.420
 2733SOL    HW1 9098   0.460   7.007   0.354
 2733SOL    HW2 9099   0.526   6.908   0.465
 2734SOL     OW 9100   3.209   0.156   2.496
 2734SOL    HW1 9101   3.272   0.083   2.471
 2734SOL    HW2 9102   3.152   0.127   2.573
 2735SOL     OW 9103   1.193   2.311   2.624
 2735SOL    HW1 9104   1.224   2.404   2.645
 2735SOL    HW2 9105   1.261   2.245   2.657
 2736SOL     OW 9106   5.728   4.432   2.636
 2736SOL    HW1 9107   5.729   4.332   2.626
 2736SOL    HW2 9108   5.793   4.473   2.572
 2737SOL     OW 9109   2.914   0.495   5.582
 2737SOL    HW1 9110   2.827   0.446   5.583
 2737SOL    HW2 9111   2.940   0.518   5.676
 2738SOL     OW 9112   5.060   6.157   1.166
 2738SOL    HW1 9113   5.113   6.151   1.251
 2738SOL    HW2 9114   5.046   6.253   1.142
 2739SOL     OW 9115   0.370   5.720   1.408
 2739SOL    HW1 9116   0.395   5.662   1.331
 2739SOL    HW2 9117   0.411   5.684   1.492
 2740SOL     OW 9118   6.754   5.253   4.205
 2740SOL    HW1 9119   6.755   5.345   4.243
 2740SOL    HW2 9120   6.728   5.187   4.276
 2741SOL     OW 9121   1.123   6.916   6.547
 2741SOL    HW1 9122   1.213   6.875   6.535
 2741SOL    HW2 9123   1.084   6.937   6.457
 2742SOL     OW 9124   2.810   5.010   3.014
 2742SOL    HW1 9125   2.720   5.023   2.972
 2742SOL    HW2 9126   2.802   4.946   3.090
 2743SOL     OW 9127   5.612   1.998   2.886
 2743SOL    HW1 9128   5.637   1.999   2.790
 2743SOL    HW2 9129   5.674   2.058   2.937
 2744SOL     OW 9130   3.553   4.027   2.280
 2744SOL    HW1 9131   3.460   3.997   2.301
 2744SOL    HW2 9132   3.590   4.076   2.359
 2745SOL     OW 9133   0.572   6.054   0.161
 2745SOL    HW1 9134   0.609   6.042   0.253
 2745SOL    HW2 9135   0.588   6.148   0.131
 2746SOL     OW 9136   1.562   0.872   4.451
 2746SOL    HW1 9137   1.529   0.778   4.458
 2746SOL    HW2 9138   1.645   0.883   4.505
 2747SOL     OW 9139   4.341   4.642   0.144
 2747SOL    HW1 9140   4.433   4.679   0.129
 2747SOL    HW2 9141   4.342   4.580   0.222
 2748SOL     OW 9142   4.244   0.250   1.186
 2748SOL    HW1 9143   4.255   0.271   1.089
 2748SOL    HW2 9144   4.307   0.177   1.212
 2749SOL     OW 9145   3.705   1.226   0.466
 2749SOL    HW1 9146   3.632   1.162   0.490
 2749SOL    HW2 9147   3.764   1.185   0.396
 2750SOL     OW 9148   2.564   5.927   2.897
 2750SOL    HW1 9149   2.604   5.894   2.982
 2750SOL    HW2 9150   2.582   6.024   2.887
 2751SOL     OW 9151   6.081   5.218   1.187
 2751SOL    HW1 9152   6.135   5.267   1.256
 2751SOL    HW2 9153   6.131   5.217   1.101
 2752SOL     OW 9154   4.010   5.801   6.560
 2752SOL    HW1 9155   3.937   5.733   6.552
 2752SOL    HW2 9156   3.999   5.869   6.487
 2753SOL     OW 9157   5.709   4.722   5.598
 2753SOL    HW1 9158   5.721   4.756   5.691
 2753SOL    HW2 9159   5.659   4.790   5.544
 2754SOL     OW 9160   1.168   0.266   5.306
 2754SOL    HW1 9161   1.210   0.253   5.395
 2754SOL    HW2 9162   1.103   0.342   5.310
 2755SOL     OW 9163   3.151   6.931   2.022
 2755SOL    HW1 9164   3.152   6.863   2.096
 2755SOL    HW2 9165   3.243   6.968   2.010
 2756SOL     OW 9166   4.549   5.853   6.805
 2756SOL    HW1 9167   4.578   5.884   6.715
 2756SOL    HW2 9168   4.457   5.887   6.824
 2757SOL     OW 9169   0.808   5.006   0.629
 2757SOL    HW1 9170   0.763   4.948   0.562
 2757SOL    HW2 9171   0.793   5.102   0.606
 2758SOL     OW 9172   4.878   0.482   5.170
 2758SOL    HW1 9173   4.891   0.573   5.132
 2758SOL    HW2 9174   4.867   0.416   5.095
 2759SOL     OW 9175   4.916   4.925   3.824
 2759SOL    HW1 9176   4.942   4.830   3.805
 2759SOL    HW2 9177   4.824   4.927   3.864
 2760SOL     OW 9178   1.091   6.482   3.562
 2760SOL    HW1 9179   1.009   6.425   3.572
 2760SOL    HW2 9180   1.070   6.576   3.587
 2761SOL     OW 9181   2.551   5.215   4.675
 2761SOL    HW1 9182   2.464   5.213   4.626
 2761SOL    HW2 9183   2.561   5.131   4.728
 2762SOL     OW 9184   2.002   1.166   5.997
 2762SOL    HW1 9185   2.088   1.167   6.047
 2762SOL    HW2 9186   1.998   1.245   5.935
 2763SOL     OW 9187   5.589   0.702   2.181
 2763SOL    HW1 9188   5.550   0.757   2.255
 2763SOL    HW2 9189   5.579   0.751   2.094
 2764SOL     OW 9190   6.124   0.617   1.869
 2764SOL    HW1 9191   6.072   0.576   1.794
 2764SOL    HW2 9192   6.138   0.714   1.850
 2765SOL     OW 9193   5.372   1.897   2.917
 2765SOL    HW1 9194   5.463   1.937   2.905
 2765SOL    HW2 9195   5.321   1.950   2.985
 2766SOL     OW 9196   5.313   0.066   2.630
 2766SOL    HW1 9197   5.350   0.131   2.696
 2766SOL    HW2 9198   5.371   7.010   2.628
 2767SOL     OW 9199   6.423   4.047   5.703
 2767SOL    HW1 9200   6.512   4.075   5.738
 2767SOL    HW2 9201   6.356   4.044   5.777
 2768SOL     OW 9202   5.892   1.354   6.494
 2768SOL    HW1 9203   5.886   1.260   6.459
 2768SOL    HW2 9204   5.975   1.397   6.459
 2769SOL     OW 9205   0.752   4.606   0.840
 2769SOL    HW1 9206   0.666   4.587   0.889
 2769SOL    HW2 9207   0.788   4.694   0.871
 2770SOL     OW 9208   5.541   6.410   2.249
 2770SOL    HW1 9209   5.495   6.351   2.315
 2770SOL    HW2 9210   5.488   6.414   2.164
 2771SOL     OW 9211   4.717   0.704   1.275
 2771SOL    HW1 9212   4.771   0.620   1.268
 2771SOL    HW2 9213   4.778   0.783   1.276
 2772SOL     OW 9214   4.007   1.432   6.585
 2772SOL    HW1 9215   3.977   1.436   6.490
 2772SOL    HW2 9216   3.939   1.383   6.640
 2773SOL     OW 9217   2.911   4.627   0.836
 2773SOL    HW1 9218   2.871   4.688   0.768
 2773SOL    HW2 9219   2.879   4.534   0.822
 2774SOL     OW 9220   5.157   3.429   2.088
 2774SOL    HW1 9221   5.157   3.505   2.153
 2774SOL    HW2 9222   5.065   3.417   2.051
 2775SOL     OW 9223   0.207   0.176   2.924
 2775SOL    HW1 9224   0.211   0.238   3.002
 2775SOL    HW2 9225   0.127   0.196   2.868
 2776SOL     OW 9226   2.358   6.495   0.024
 2776SOL    HW1 9227   2.370   6.440   6.968
 2776SOL    HW2 9228   2.436   6.482   0.085
 2777SOL     OW 9229   1.910   2.326   4.250
 2777SOL    HW1 9230   1.871   2.417   4.262
 2777SOL    HW2 9231   2.004   2.325   4.283
 2778SOL     OW 9232   2.791   2.133   5.202
 2778SOL    HW1 9233   2.877   2.092   5.170
 2778SOL    HW2 9234   2.719   2.065   5.198
 2779SOL     OW 9235   6.256   1.080   1.161
 2779SOL    HW1 9236   6.297   1.161   1.119
 2779SOL    HW2 9237   6.319   1.003   1.154
 2780SOL     OW 9238   3.713   6.135   0.304
 2780SOL    HW1 9239   3.747   6.166   0.392
 2780SOL    HW2 9240   3.725   6.036   0.296
 2781SOL     OW 9241   4.656   3.770   6.531
 2781SOL    HW1 9242   4.576   3.731   6.486
 2781SOL    HW2 9243   4.653   3.869   6.525
 2782SOL     OW 9244   3.716   1.221   5.389
 2782SOL    HW1 9245   3.760   1.304   5.422
 2782SOL    HW2 9246   3.777   1.143   5.402
 2783SOL     OW 9247   0.520   4.128   5.504
 2783SOL    HW1 9248   0.492   4.083   5.589
 2783SOL    HW2 9249   0.480   4.219   5.501
 2784SOL     OW 9250   2.471   2.586   1.672
 2784SOL    HW1 9251   2.387   2.598   1.620
 2784SOL    HW2 9252   2.449   2.558   1.766
 2785SOL     OW 9253   6.060   1.434   2.157
 2785SOL    HW1 9254   6.141   1.489   2.137
 2785SOL    HW2 9255   5.995   1.489   2.210
 2786SOL     OW 9256   3.638   0.615   0.487
 2786SOL    HW1 9257   3.576   0.550   0.531
 2786SOL    HW2 9258   3.640   0.597   0.389
 2787SOL     OW 9259   2.094   3.846   6.121
 2787SOL    HW1 9260   2.147   3.764   6.096
 2787SOL    HW2 9261   2.050   3.830   6.209
 2788SOL     OW 9262   0.348   3.583   7.000
 2788SOL    HW1 9263   0.397   3.669   7.012
 2788SOL    HW2 9264   0.365   3.523   0.053
 2789SOL     OW 9265   0.709   2.704   4.292
 2789SOL    HW1 9266   0.676   2.798   4.294
 2789SOL    HW2 9267   0.807   2.702   4.311
 2790SOL     OW 9268   3.649   6.250   4.453
 2790SOL    HW1 9269   3.643   6.291   4.545
 2790SOL    HW2 9270   3.574   6.284   4.397
 2791SOL     OW 9271   1.999   3.680   2.684
 2791SOL    HW1 9272   2.054   3.644   2.759
 2791SOL    HW2 9273   1.912   3.715   2.719
 2792SOL     OW 9274   1.024   2.483   5.645
 2792SOL    HW1 9275   0.985   2.416   5.582
 2792SOL    HW2 9276   0.959   2.558   5.659
 2793SOL     OW 9277   4.667   0.441   4.032
 2793SOL    HW1 9278   4.676   0.455   4.131
 2793SOL    HW2 9279   4.574   0.412   4.011
 2794SOL     OW 9280   1.007   1.328   1.528
 2794SOL    HW1 9281   1.081   1.384   1.491
 2794SOL    HW2 9282   1.033   1.291   1.617
 2795SOL     OW 9283   1.131   4.018   1.154
 2795SOL    HW1 9284   1.110   3.960   1.076
 2795SOL    HW2 9285   1.050   4.027   1.212
 2796SOL     OW 9286   5.272   4.518   2.301
 2796SOL    HW1 9287   5.336   4.466   2.244
 2796SOL    HW2 9288   5.178   4.491   2.280
 2797SOL     OW 9289   4.674   4.305   5.202
 2797SOL    HW1 9290   4.606   4.377   5.187
 2797SOL    HW2 9291   4.693   4.296   5.300
 2798SOL     OW 9292   1.798   4.009   3.432
 2798SOL    HW1 9293   1.852   3.932   3.465
 2798SOL    HW2 9294   1.778   4.072   3.507
 2799SOL     OW 9295   0.028   5.847   6.170
 2799SOL    HW1 9296   0.099   5.840   6.239
 2799SOL    HW2 9297   6.977   5.787   6.194
 2800SOL     OW 9298   2.733   1.208   6.479
 2800SOL    HW1 9299   2.719   1.204   6.380
 2800SOL    HW2 9300   2.667   1.149   6.525
 2801SOL     OW 9301   4.239   5.303   2.194
 2801SOL    HW1 9302   4.170   5.305   2.122
 2801SOL    HW2 9303   4.201   5.259   2.276
 2802SOL     OW 9304   6.448   0.333   6.470
 2802SOL    HW1 9305   6.393   0.250   6.484
 2802SOL    HW2 9306   6.544   0.307   6.459
 2803SOL     OW 9307   2.446   5.887   5.552
 2803SOL    HW1 9308   2.430   5.837   5.637
 2803SOL    HW2 9309   2.543   5.883   5.528
 2804SOL     OW 9310   0.529   4.554   2.359
 2804SOL    HW1 9311   0.577   4.588   2.278
 2804SOL    HW2 9312   0.533   4.455   2.362
 2805SOL     OW 9313   6.108   3.922   6.808
 2805SOL    HW1 9314   6.084   3.832   6.773
 2805SOL    HW2 9315   6.206   3.937   6.796
 2806SOL     OW 9316   6.670   5.717   2.574
 2806SOL    HW1 9317   6.589   5.755   2.620
 2806SOL    HW2 9318   6.733   5.682   2.643
 2807SOL     OW 9319   3.769   5.119   3.661
 2807SOL    HW1 9320   3.729   5.034   3.625
 2807SOL    HW2 9321   3.842   5.150   3.601
 2808SOL     OW 9322   4.647   6.197   4.215
 2808SOL    HW1 9323   4.567   6.147   4.182
 2808SOL    HW2 9324   4.620   6.257   4.290
 2809SOL     OW 9325   5.891   2.912   0.197
 2809SOL    HW1 9326   5.865   2.839   0.134
 2809SOL    HW2 9327   5.984   2.897   0.230
 2810SOL     OW 9328   1.648   1.117   6.440
 2810SOL    HW1 9329   1.578   1.091   6.373
 2810SOL    HW2 9330   1.605   1.162   6.518
 2811SOL     OW 9331   0.013   0.646   4.199
 2811SOL    HW1 9332   0.057   0.639   4.288
 2811SOL    HW2 9333   6.945   0.679   4.210
 2812SOL     OW 9334   4.818   4.450   2.812
 2812SOL    HW1 9335   4.798   4.352   2.807
 2812SOL    HW2 9336   4.835   4.485   2.720
 2813SOL     OW 9337   6.227   1.984   6.439
 2813SOL    HW1 9338   6.256   2.070   6.397
 2813SOL    HW2 9339   6.130   1.991   6.463
 2814SOL     OW 9340   5.567   4.394   4.498
 2814SOL    HW1 9341   5.612   4.462   4.440
 2814SOL    HW2 9342   5.630   4.367   4.571
 2815SOL     OW 9343   0.678   0.828   4.412
 2815SOL    HW1 9344   0.734   0.759   4.459
 2815SOL    HW2 9345   0.677   0.912   4.466
 2816SOL     OW 9346   5.181   6.492   3.123
 2816SOL    HW1 9347   5.221   6.536   3.203
 2816SOL    HW2 9348   5.197   6.549   3.042
 2817SOL     OW 9349   1.656   1.530   1.336
 2817SOL    HW1 9350   1.562   1.497   1.340
 2817SOL    HW2 9351   1.717   1.461   1.376
 2818SOL     OW 9352   1.298   3.104   7.000
 2818SOL    HW1 9353   1.379   3.049   6.983
 2818SOL    HW2 9354   1.227   3.047   0.016
 2819SOL     OW 9355   6.529   3.055   1.248
 2819SOL    HW1 9356   6.622   3.091   1.240
 2819SOL    HW2 9357   6.492   3.041   1.156
 2820SOL     OW 9358   5.017   2.317   3.824
 2820SOL    HW1 9359   5.019   2.217   3.813
 2820SOL    HW2 9360   5.041   2.341   3.918
 2821SOL     OW 9361   1.609   3.264   3.564
 2821SOL    HW1 9362   1.542   3.324   3.521
 2821SOL    HW2 9363   1.667   3.222   3.494
 2822SOL     OW 9364   2.911   1.924   1.029
 2822SOL    HW1 9365   3.005   1.955   1.031
 2822SOL    HW2 9366   2.905   1.838   0.978
 2823SOL     OW 9367   1.816   0.083   4.181
 2823SOL    HW1 9368   1.872   0.108   4.101
 2823SOL    HW2 9369   1.860   0.008   4.230
 2824SOL     OW 9370   3.187   1.924   5.437
 2824SOL    HW1 9371   3.106   1.914   5.495
 2824SOL    HW2 9372   3.188   2.014   5.395
 2825SOL     OW 9373   6.135   6.412   1.220
 2825SOL    HW1 9374   6.086   6.335   1.179
 2825SOL    HW2 9375   6.071   6.467   1.274
 2826SOL     OW 9376   4.959   3.357   4.237
 2826SOL    HW1 9377   4.901   3.310   4.171
 2826SOL    HW2 9378   5.048   3.312   4.240
 2827SOL     OW 9379   6.718   0.288   6.366
 2827SOL    HW1 9380   6.668   0.364   6.324
 2827SOL    HW2 9381   6.816   0.297   6.345
 2828SOL     OW 9382   3.950   1.945   6.355
 2828SOL    HW1 9383   3.851   1.934   6.349
 2828SOL    HW2 9384   3.991   1.860   6.389
 2829SOL     OW 9385   3.099   0.260   6.955
 2829SOL    HW1 9386   3.002   0.246   6.933
 2829SOL    HW2 9387   3.112   0.254   0.028
 2830SOL     OW 9388   3.196   3.647   6.756
 2830SOL    HW1 9389   3.196   3.745   6.775
 2830SOL    HW2 9390   3.104   3.610   6.769
 2831SOL     OW 9391   6.886   6.332   4.191
 2831SOL    HW1 9392   6.897   6.423   4.230
 2831SOL    HW2 9393   6.910   6.334   4.094
 2832SOL     OW 9394   0.583   1.374   2.263
 2832SOL    HW1 9395   0.607   1.471   2.254
 2832SOL    HW2 9396   0.504   1.354   2.205
 2833SOL     OW 9397   6.738   3.439   2.550
 2833SOL    HW1 9398   6.764   3.452   2.454
 2833SOL    HW2 9399   6.661   3.376   2.555
 2834SOL     OW 9400   4.594   0.690   5.727
 2834SOL    HW1 9401   4.538   0.755   5.779
 2834SOL    HW2 9402   4.554   0.676   5.637
 2835SOL     OW 9403   6.603   6.511   3.512
 2835SOL    HW1 9404   6.662   6.466   3.446
 2835SOL    HW2 9405   6.538   6.570   3.465
 2836SOL     OW 9406   6.126   0.278   0.706
 2836SOL    HW1 9407   6.033   0.312   0.693
 2836SOL    HW2 9408   6.185   0.353   0.735
 2837SOL     OW 9409   6.095   3.310   3.450
 2837SOL    HW1 9410   6.101   3.243   3.376
 2837SOL    HW2 9411   6.092   3.262   3.538
 2838SOL     OW 9412   2.094   4.498   4.279
 2838SOL    HW1 9413   2.002   4.517   4.245
 2838SOL    HW2 9414   2.088   4.449   4.366
 2839SOL     OW 9415   4.390   2.680   0.905
 2839SOL    HW1 9416   4.482   2.692   0.943
 2839SOL    HW2 9417   4.356   2.768   0.871
 2840SOL     OW 9418   6.604   2.791   4.806
 2840SOL    HW1 9419   6.580   2.884   4.832
 2840SOL    HW2 9420   6.558   2.767   4.721
 2841SOL     OW 9421   6.997   6.604   0.625
 2841SOL    HW1 9422   7.024   6.525   0.680
 2841SOL    HW2 9423   0.033   6.681   0.644
 2842SOL     OW 9424   6.008   3.264   2.791
 2842SOL    HW1 9425   6.042   3.358   2.801
 2842SOL    HW2 9426   5.932   3.263   2.726
 2843SOL     OW 9427   3.885   1.234   3.768
 2843SOL    HW1 9428   3.925   1.238   3.859
 2843SOL    HW2 9429   3.837   1.319   3.749
 2844SOL     OW 9430   0.988   4.145   5.339
 2844SOL    HW1 9431   0.934   4.064   5.359
 2844SOL    HW2 9432   1.063   4.153   5.405
 2845SOL     OW 9433   7.020   4.159   5.708
 2845SOL    HW1 9434   0.072   4.098   5.728
 2845SOL    HW2 9435   0.026   4.254   5.705
 2846SOL     OW 9436   5.447   1.001   6.058
 2846SOL    HW1 9437   5.517   1.041   6.118
 2846SOL    HW2 9438   5.491   0.959   5.979
 2847SOL     OW 9439   4.461   4.611   4.351
 2847SOL    HW1 9440   4.550   4.604   4.305
 2847SOL    HW2 9441   4.403   4.676   4.302
 2848SOL     OW 9442   2.126   6.493   5.477
 2848SOL    HW1 9443   2.164   6.426   5.413
 2848SOL    HW2 9444   2.030   6.471   5.495
 2849SOL     OW 9445   1.775   3.025   1.904
 2849SOL    HW1 9446   1.831   3.065   1.832
 2849SOL    HW2 9447   1.833   2.998   1.981
 2850SOL     OW 9448   3.764   1.629   0.491
 2850SOL    HW1 9449   3.682   1.685   0.482
 2850SOL    HW2 9450   3.755   1.547   0.434
 2851SOL     OW 9451   2.608   5.198   6.084
 2851SOL    HW1 9452   2.696   5.178   6.126
 2851SOL    HW2 9453   2.542   5.127   6.109
 2852SOL     OW 9454   0.369   2.561   6.589
 2852SOL    HW1 9455   0.332   2.653   6.579
 2852SOL    HW2 9456   0.467   2.563   6.571
 2853SOL     OW 9457   3.649   2.305   1.546
 2853SOL    HW1 9458   3.710   2.262   1.613
 2853SOL    HW2 9459   3.624   2.396   1.579
 2854SOL     OW 9460   0.488   0.666   3.619
 2854SOL    HW1 9461   0.569   0.722   3.605
 2854SOL    HW2 9462   0.443   0.649   3.531
 2855SOL     OW 9463   3.366   1.748   4.822
 2855SOL    HW1 9464   3.338   1.721   4.729
 2855SOL    HW2 9465   3.463   1.730   4.834
 2856SOL     OW 9466   2.255   1.525   5.480
 2856SOL    HW1 9467   2.219   1.452   5.537
 2856SOL    HW2 9468   2.316   1.583   5.534
 2857SOL     OW 9469   3.524   3.299   3.567
 2857SOL    HW1 9470   3.510   3.397   3.583
 2857SOL    HW2 9471   3.563   3.285   3.476
 2858SOL     OW 9472   5.560   2.653   3.231
 2858SOL    HW1 9473   5.503   2.621   3.307
 2858SOL    HW2 9474   5.611   2.577   3.192
 2859SOL     OW 9475   5.256   6.078   0.078
 2859SOL    HW1 9476   5.297   6.157   0.123
 2859SOL    HW2 9477   5.180   6.109   0.021
 2860SOL     OW 9478   4.312   2.206   1.025
 2860SOL    HW1 9479   4.280   2.179   1.115
 2860SOL    HW2 9480   4.412   2.206   1.024
 2861SOL     OW 9481   3.717   5.302   6.275
 2861SOL    HW1 9482   3.631   5.352   6.284
 2861SOL    HW2 9483   3.745   5.300   6.179
 2862SOL     OW 9484   6.597   6.766   3.310
 2862SOL    HW1 9485   6.541   6.742   3.389
 2862SOL    HW2 9486   6.550   6.741   3.226
 2863SOL     OW 9487   6.702   1.014   7.009
 2863SOL    HW1 9488   6.685   1.054   6.919
 2863SOL    HW2 9489   6.637   0.940   0.000
 2864SOL     OW 9490   3.526   1.773   0.484
 2864SOL    HW1 9491   3.475   1.747   0.566
 2864SOL    HW2 9492   3.469   1.759   0.403
 2865SOL     OW 9493   4.498   5.148   5.086
 2865SOL    HW1 9494   4.474   5.233   5.039
 2865SOL    HW2 9495   4.480   5.070   5.026
 2866SOL     OW 9496   0.228   6.939   6.334
 2866SOL    HW1 9497   0.272   6.988   6.410
 2866SOL    HW2 9498   0.257   6.979   6.247
 2867SOL     OW 9499   6.932   4.547   3.546
 2867SOL    HW1 9500   6.856   4.584   3.599
 2867SOL    HW2 9501   6.908   4.457   3.511
 2868SOL     OW 9502   1.859   5.075   4.894
 2868SOL    HW1 9503   1.908   5.162   4.902
 2868SOL    HW2 9504   1.914   5.010   4.841
 2869SOL     OW 9505   6.187   1.262   2.338
 2869SOL    HW1 9506   6.269   1.317   2.353
 2869SOL    HW2 9507   6.129   1.306   2.270
 2870SOL     OW 9508   4.218   2.197   2.455
 2870SOL    HW1 9509   4.221   2.099   2.434
 2870SOL    HW2 9510   4.206   2.249   2.370
 2871SOL     OW 9511   1.224   1.488   5.639
 2871SOL    HW1 9512   1.223   1.481   5.539
 2871SOL    HW2 9513   1.203   1.582   5.665
 2872SOL     OW 9514   2.023   0.201   3.982
 2872SOL    HW1 9515   1.946   0.262   3.961
 2872SOL    HW2 9516   2.079   0.189   3.900
 2873SOL     OW 9517   6.738   5.887   2.087
 2873SOL    HW1 9518   6.729   5.981   2.055
 2873SOL    HW2 9519   6.804   5.838   2.030
 2874SOL     OW 9520   5.474   2.023   2.071
 2874SOL    HW1 9521   5.432   1.973   1.994
 2874SOL    HW2 9522   5.406   2.083   2.113
 2875SOL     OW 9523   2.580   5.018   1.380
 2875SOL    HW1 9524   2.497   5.075   1.389
 2875SOL    HW2 9525   2.654   5.073   1.341
 2876SOL     OW 9526   6.786   2.336   1.792
 2876SOL    HW1 9527   6.820   2.339   1.698
 2876SOL    HW2 9528   6.863   2.329   1.855
 2877SOL     OW 9529   2.102   3.706   5.681
 2877SOL    HW1 9530   2.067   3.660   5.600
 2877SOL    HW2 9531   2.038   3.777   5.710
 2878SOL     OW 9532   3.716   4.802   0.478
 2878SOL    HW1 9533   3.656   4.727   0.505
 2878SOL    HW2 9534   3.801   4.766   0.440
 2879SOL     OW 9535   4.632   4.280   0.023
 2879SOL    HW1 9536   4.608   4.310   6.956
 2879SOL    HW2 9537   4.698   4.205   0.018
 2880SOL     OW 9538   1.625   6.863   2.722
 2880SOL    HW1 9539   1.701   6.891   2.664
 2880SOL    HW2 9540   1.562   6.806   2.670
 2881SOL     OW 9541   0.028   0.236   6.876
 2881SOL    HW1 9542   6.976   0.264   6.819
 2881SOL    HW2 9543   0.104   0.300   6.864
 2882SOL     OW 9544   6.773   3.360   3.335
 2882SOL    HW1 9545   6.873   3.367   3.340
 2882SOL    HW2 9546   6.742   3.282   3.390
 2883SOL     OW 9547   4.529   6.028   2.076
 2883SOL    HW1 9548   4.517   6.022   2.175
 2883SOL    HW2 9549   4.510   6.121   2.045
 2884SOL     OW 9550   1.815   5.555   3.092
 2884SOL    HW1 9551   1.898   5.532   3.043
 2884SOL    HW2 9552   1.742   5.491   3.066
 2885SOL     OW 9553   0.895   2.380   4.403
 2885SOL    HW1 9554   0.890   2.399   4.501
 2885SOL    HW2 9555   0.807   2.345   4.371
 2886SOL     OW 9556   2.663   2.912   6.406
 2886SOL    HW1 9557   2.605   2.925   6.325
 2886SOL    HW2 9558   2.705   2.821   6.403
 2887SOL     OW 9559   2.570   1.313   4.856
 2887SOL    HW1 9560   2.584   1.299   4.954
 2887SOL    HW2 9561   2.659   1.310   4.810
 2888SOL     OW 9562   0.135   5.642   0.172
 2888SOL    HW1 9563   0.119   5.737   0.195
 2888SOL    HW2 9564   0.198   5.636   0.094
 2889SOL     OW 9565   0.783   0.038   0.904
 2889SOL    HW1 9566   0.754   0.122   0.951
 2889SOL    HW2 9567   0.703   7.019   0.864
 2890SOL     OW 9568   3.129   0.613   0.496
 2890SOL    HW1 9569   3.163   0.567   0.414
 2890SOL    HW2 9570   3.032   0.592   0.509
 2891SOL     OW 9571   2.987   4.887   4.949
 2891SOL    HW1 9572   2.914   4.945   4.913
 2891SOL    HW2 9573   2.950   4.798   4.974
 2892SOL     OW 9574   4.431   4.369   5.351
 2892SOL    HW1 9575   4.381   4.396   5.269
 2892SOL    HW2 9576   4.384   4.406   5.432
 2893SOL     OW 9577   3.727   1.063   5.762
 2893SOL    HW1 9578   3.681   1.146   5.796
 2893SOL    HW2 9579   3.674   0.983   5.789
 2894SOL     OW 9580   3.940   2.935   1.451
 2894SOL    HW1 9581   3.843   2.953   1.441
 2894SOL    HW2 9582   3.989   3.021   1.465
 2895SOL     OW 9583   3.204   3.075   0.531
 2895SOL    HW1 9584   3.184   3.130   0.450
 2895SOL    HW2 9585   3.204   2.978   0.506
 2896SOL     OW 9586   1.586   4.633   0.668
 2896SOL    HW1 9587   1.523   4.629   0.590
 2896SOL    HW2 9588   1.586   4.725   0.707
 2897SOL     OW 9589   1.102   0.158   3.741
 2897SOL    HW1 9590   1.156   0.074   3.733
 2897SOL    HW2 9591   1.005   0.135   3.749
 2898SOL     OW 9592   2.231   4.684   2.977
 2898SOL    HW1 9593   2.307   4.638   3.022
 2898SOL    HW2 9594   2.154   4.689   3.041
 2899SOL     OW 9595   5.598   1.044   0.635
 2899SOL    HW1 9596   5.579   1.023   0.731
 2899SOL    HW2 9597   5.677   0.992   0.604
 2900SOL     OW 9598   3.478   5.356   6.540
 2900SOL    HW1 9599   3.539   5.334   6.616
 2900SOL    HW2 9600   3.465   5.274   6.483
 2901SOL     OW 9601   2.505   0.138   1.155
 2901SOL    HW1 9602   2.491   0.041   1.176
 2901SOL    HW2 9603   2.598   0.165   1.180
 2902SOL     OW 9604   5.076   5.415   0.778
 2902SOL    HW1 9605   4.976   5.414   0.778
 2902SOL    HW2 9606   5.111   5.345   0.717
 2903SOL     OW 9607   2.729   2.266   1.702
 2903SOL    HW1 9608   2.702   2.343   1.643
 2903SOL    HW2 9609   2.828   2.252   1.694
 2904SOL     OW 9610   2.474   2.424   4.123
 2904SOL    HW1 9611   2.511   2.457   4.037
 2904SOL    HW2 9612   2.518   2.471   4.199
 2905SOL     OW 9613   1.427   1.892   2.282
 2905SOL    HW1 9614   1.373   1.965   2.323
 2905SOL    HW2 9615   1.454   1.826   2.352
 2906SOL     OW 9616   5.480   5.460   2.066
 2906SOL    HW1 9617   5.522   5.425   2.150
 2906SOL    HW2 9618   5.547   5.513   2.015
 2907SOL     OW 9619   6.059   0.428   4.407
 2907SOL    HW1 9620   5.986   0.387   4.461
 2907SOL    HW2 9621   6.132   0.459   4.469
 2908SOL     OW 9622   3.675   5.813   5.225
 2908SOL    HW1 9623   3.654   5.855   5.314
 2908SOL    HW2 9624   3.713   5.883   5.164
 2909SOL     OW 9625   2.142   5.624   5.578
 2909SOL    HW1 9626   2.082   5.704   5.591
 2909SOL    HW2 9627   2.175   5.594   5.667
 2910SOL     OW 9628   4.763   6.362   5.204
 2910SOL    HW1 9629   4.718   6.419   5.135
 2910SOL    HW2 9630   4.753   6.404   5.294
 2911SOL     OW 9631   2.329   4.522   3.614
 2911SOL    HW1 9632   2.254   4.587   3.615
 2911SOL    HW2 9633   2.342   4.483   3.705
 2912SOL     OW 9634   2.716   5.275   0.989
 2912SOL    HW1 9635   2.624   5.240   1.008
 2912SOL    HW2 9636   2.720   5.373   1.011
 2913SOL     OW 9637   1.072   3.616   2.554
 2913SOL    HW1 9638   0.992   3.564   2.585
 2913SOL    HW2 9639   1.042   3.690   2.494
 2914SOL     OW 9640   5.397   4.785   5.736
 2914SOL    HW1 9641   5.374   4.873   5.778
 2914SOL    HW2 9642   5.318   4.751   5.684
 2915SOL     OW 9643   4.312   1.423   4.101
 2915SOL    HW1 9644   4.411   1.428   4.118
 2915SOL    HW2 9645   4.272   1.514   4.115
 2916SOL     OW 9646   4.846   6.913   4.517
 2916SOL    HW1 9647   4.759   6.864   4.521
 2916SOL    HW2 9648   4.920   6.849   4.494
 2917SOL     OW 9649   3.887   0.527   1.879
 2917SOL    HW1 9650   3.961   0.572   1.930
 2917SOL    HW2 9651   3.914   0.520   1.783
 2918SOL     OW 9652   0.737   2.990   4.619
 2918SOL    HW1 9653   0.829   3.028   4.608
 2918SOL    HW2 9654   0.697   2.972   4.530
 2919SOL     OW 9655   6.159   6.167   0.607
 2919SOL    HW1 9656   6.213   6.092   0.569
 2919SOL    HW2 9657   6.207   6.253   0.592
 2920SOL     OW 9658   4.626   2.180   2.810
 2920SOL    HW1 9659   4.568   2.203   2.732
 2920SOL    HW2 9660   4.717   2.220   2.797
 2921SOL     OW 9661   0.246   0.994   1.344
 2921SOL    HW1 9662   0.198   0.923   1.294
 2921SOL    HW2 9663   0.344   0.990   1.323
 2922SOL     OW 9664   4.262   6.366   5.320
 2922SOL    HW1 9665   4.348   6.413   5.300
 2922SOL    HW2 9666   4.277   6.298   5.391
 2923SOL     OW 9667   7.009   4.261   0.040
 2923SOL    HW1 9668   6.971   4.353   0.043
 2923SOL    HW2 9669   0.034   4.243   0.125
 2924SOL     OW 9670   6.477   6.550   5.843
 2924SOL    HW1 9671   6.395   6.576   5.793
 2924SOL    HW2 9672   6.497   6.618   5.914
 2925SOL     OW 9673   5.877   3.303   1.123
 2925SOL    HW1 9674   5.867   3.272   1.028
 2925SOL    HW2 9675   5.787   3.326   1.160
 2926SOL     OW 9676   0.314   1.247   3.985
 2926SOL    HW1 9677   0.277   1.197   4.064
 2926SOL    HW2 9678   0.347   1.181   3.917
 2927SOL     OW 9679   0.802   3.171   2.561
 2927SOL    HW1 9680   0.760   3.170   2.653
 2927SOL    HW2 9681   0.850   3.085   2.546
 2928SOL     OW 9682   5.201   6.062   0.542
 2928SOL    HW1 9683   5.102   6.062   0.535
 2928SOL    HW2 9684   5.231   5.978   0.587
 2929SOL     OW 9685   0.735   0.307   6.090
 2929SOL    HW1 9686   0.690   0.396   6.104
 2929SOL    HW2 9687   0.753   0.264   6.178
 2930SOL     OW 9688   3.169   6.497   4.224
 2930SOL    HW1 9689   3.106   6.570   4.252
 2930SOL    HW2 9690   3.161   6.483   4.125
 2931SOL     OW 9691   4.002   4.719   6.345
 2931SOL    HW1 9692   3.980   4.770   6.262
 2931SOL    HW2 9693   3.919   4.682   6.385
 2932SOL     OW 9694   1.546   4.764   2.106
 2932SOL    HW1 9695   1.561   4.851   2.152
 2932SOL    HW2 9696   1.539   4.779   2.007
 2933SOL     OW 9697   4.666   2.191   3.716
 2933SOL    HW1 9698   4.625   2.211   3.627
 2933SOL    HW2 9699   4.695   2.277   3.759
 2934SOL     OW 9700   1.894   1.083   0.876
 2934SOL    HW1 9701   1.896   1.113   0.780
 2934SOL    HW2 9702   1.799   1.079   0.908
 2935SOL     OW 9703   6.803   1.529   1.184
 2935SOL    HW1 9704   6.790   1.503   1.280
 2935SOL    HW2 9705   6.759   1.617   1.167
 2936SOL     OW 9706   3.351   5.547   0.234
 2936SOL    HW1 9707   3.260   5.530   0.197
 2936SOL    HW2 9708   3.405   5.463   0.231
 2937SOL     OW 9709   2.820   4.755   0.054
 2937SOL    HW1 9710   2.736   4.752   0.108
 2937SOL    HW2 9711   2.870   4.839   0.073
 2938SOL     OW 9712   5.059   4.775   5.632
 2938SOL    HW1 9713   5.081   4.856   5.579
 2938SOL    HW2 9714   4.993   4.719   5.582
 2939SOL     OW 9715   0.490   6.737   6.150
 2939SOL    HW1 9716   0.550   6.792   6.091
 2939SOL    HW2 9717   0.491   6.775   6.243
 2940SOL     OW 9718   3.688   6.767   5.187
 2940SOL    HW1 9719   3.600   6.755   5.233
 2940SOL    HW2 9720   3.756   6.797   5.254
 2941SOL     OW 9721   3.548   1.563   4.996
 2941SOL    HW1 9722   3.571   1.498   5.068
 2941SOL    HW2 9723   3.466   1.532   4.949
 2942SOL     OW 9724   4.163   6.380   4.068
 2942SOL    HW1 9725   4.222   6.363   3.990
 2942SOL    HW2 9726   4.182   6.472   4.105
 2943SOL     OW 9727   5.235   4.517   2.578
 2943SOL    HW1 9728   5.255   4.554   2.487
 2943SOL    HW2 9729   5.284   4.430   2.589
 2944SOL     OW 9730   4.453   6.069   0.023
 2944SOL    HW1 9731   4.475   6.161   7.016
 2944SOL    HW2 9732   4.386   6.027   6.987
 2945SOL     OW 9733   3.396   4.094   3.924
 2945SOL    HW1 9734   3.469   4.026   3.917
 2945SOL    HW2 9735   3.435   4.181   3.953
 2946SOL     OW 9736   0.615   5.974   6.108
 2946SOL    HW1 9737   0.710   5.949   6.092
 2946SOL    HW2 9738   0.607   6.074   6.108
 2947SOL     OW 9739   0.126   5.424   0.318
 2947SOL    HW1 9740   0.117   5.351   0.250
 2947SOL    HW2 9741   0.110   5.512   0.274
 2948SOL     OW 9742   5.770   4.106   5.505
 2948SOL    HW1 9743   5.864   4.130   5.479
 2948SOL    HW2 9744   5.740   4.026   5.453
 2949SOL     OW 9745   0.831   6.617   0.848
 2949SOL    HW1 9746   0.874   6.614   0.938
 2949SOL    HW2 9747   0.732   6.626   0.859
 2950SOL     OW 9748   4.931   3.618   4.738
 2950SOL    HW1 9749   4.909   3.656   4.828
 2950SOL    HW2 9750   5.028   3.593   4.735
 2951SOL     OW 9751   5.929   0.664   0.810
 2951SOL    HW1 9752   5.963   0.658   0.904
 2951SOL    HW2 9753   5.971   0.742   0.764
 2952SOL     OW 9754   0.919   3.972   1.690
 2952SOL    HW1 9755   0.845   3.928   1.640
 2952SOL    HW2 9756   1.006   3.929   1.665
 2953SOL     OW 9757   5.638   1.620   2.175
 2953SOL    HW1 9758   5.551   1.649   2.216
 2953SOL    HW2 9759   5.676   1.543   2.226
 2954SOL     OW 9760   5.731   6.008   1.664
 2954SOL    HW1 9761   5.814   6.011   1.720
 2954SOL    HW2 9762   5.741   6.072   1.587
 2955SOL     OW 9763   6.203   2.334   0.485
 2955SOL    HW1 9764   6.113   2.351   0.525
 2955SOL    HW2 9765   6.232   2.415   0.434
 2956SOL     OW 9766   6.909   5.767   3.550
 2956SOL    HW1 9767   6.909   5.856   3.504
 2956SOL    HW2 9768   6.845   5.769   3.626
 2957SOL     OW 9769   1.548   4.894   1.606
 2957SOL    HW1 9770   1.525   4.991   1.614
 2957SOL    HW2 9771   1.475   4.846   1.557
 2958SOL     OW 9772   2.977   5.348   6.708
 2958SOL    HW1 9773   3.007   5.378   6.799
 2958SOL    HW2 9774   2.950   5.428   6.654
 2959SOL     OW 9775   4.132   5.439   6.889
 2959SOL    HW1 9776   4.119   5.395   6.801
 2959SOL    HW2 9777   4.098   5.380   6.962
 2960SOL     OW 9778   2.784   1.316   0.037
 2960SOL    HW1 9779   2.787   1.400   7.009
 2960SOL    HW2 9780   2.696   1.311   0.084
 2961SOL     OW 9781   5.925   1.620   4.482
 2961SOL    HW1 9782   5.958   1.533   4.517
 2961SOL    HW2 9783   5.886   1.674   4.557
 2962SOL     OW 9784   4.019   0.586   2.578
 2962SOL    HW1 9785   4.102   0.601   2.631
 2962SOL    HW2 9786   3.970   0.507   2.616
 2963SOL     OW 9787   1.958   3.722   4.988
 2963SOL    HW1 9788   1.920   3.640   4.946
 2963SOL    HW2 9789   1.918   3.736   5.078
 2964SOL     OW 9790   2.912   5.899   0.336
 2964SOL    HW1 9791   2.822   5.882   0.297
 2964SOL    HW2 9792   2.934   5.996   0.328
 2965SOL     OW 9793   0.214   2.571   6.033
 2965SOL    HW1 9794   0.128   2.532   6.065
 2965SOL    HW2 9795   0.276   2.583   6.111
 2966SOL     OW 9796   5.114   4.877   3.512
 2966SOL    HW1 9797   5.016   4.897   3.505
 2966SOL    HW2 9798   5.157   4.885   3.422
 2967SOL     OW 9799   5.707   2.364   3.799
 2967SOL    HW1 9800   5.772   2.340   3.872
 2967SOL    HW2 9801   5.678   2.459   3.811
 2968SOL     OW 9802   6.319   3.548   3.201
 2968SOL    HW1 9803   6.409   3.553   3.244
 2968SOL    HW2 9804   6.309   3.461   3.154
 2969SOL     OW 9805   3.832   1.227   4.566
 2969SOL    HW1 9806   3.887   1.155   4.607
 2969SOL    HW2 9807   3.781   1.275   4.637
 2970SOL     OW 9808   0.847   3.985   6.172
 2970SOL    HW1 9809   0.878   4.079   6.187
 2970SOL    HW2 9810   0.852   3.963   6.075
 2971SOL     OW 9811   5.374   3.595   2.741
 2971SOL    HW1 9812   5.378   3.635   2.649
 2971SOL    HW2 9813   5.291   3.540   2.749
 2972SOL     OW 9814   0.997   4.426   5.301
 2972SOL    HW1 9815   0.980   4.328   5.316
 2972SOL    HW2 9816   0.948   4.480   5.368
 2973SOL     OW 9817   5.994   0.211   4.027
 2973SOL    HW1 9818   6.052   0.137   4.060
 2973SOL    HW2 9819   5.989   0.208   3.927
 2974SOL     OW 9820   6.830   4.218   2.370
 2974SOL    HW1 9821   6.856   4.122   2.363
 2974SOL    HW2 9822   6.883   4.272   2.304
 2975SOL     OW 9823   0.005   1.269   4.213
 2975SOL    HW1 9824   0.035   1.364   4.200
 2975SOL    HW2 9825   6.991   1.235   4.127
 2976SOL     OW 9826   2.564   6.166   1.685
 2976SOL    HW1 9827   2.535   6.155   1.780
 2976SOL    HW2 9828   2.635   6.236   1.680
 2977SOL     OW 9829   3.386   6.339   4.361
 2977SOL    HW1 9830   3.335   6.271   4.413
 2977SOL    HW2 9831   3.329   6.371   4.285
 2978SOL     OW 9832   3.324   0.183   6.380
 2978SOL    HW1 9833   3.244   0.124   6.372
 2978SOL    HW2 9834   3.405   0.132   6.350
 2979SOL     OW 9835   3.482   1.219   3.138
 2979SOL    HW1 9836   3.522   1.130   3.119
 2979SOL    HW2 9837   3.383   1.210   3.150
 2980SOL     OW 9838   6.615   6.158   3.944
 2980SOL    HW1 9839   6.704   6.198   3.923
 2980SOL    HW2 9840   6.628   6.068   3.986
 2981SOL     OW 9841   2.163   1.525   6.062
 2981SOL    HW1 9842   2.174   1.501   6.158
 2981SOL    HW2 9843   2.068   1.511   6.034
 2982SOL     OW 9844   4.881   6.225   2.030
 2982SOL    HW1 9845   4.943   6.296   1.997
 2982SOL    HW2 9846   4.918   6.184   2.113
 2983SOL     OW 9847   6.595   0.826   2.914
 2983SOL    HW1 9848   6.638   0.915   2.928
 2983SOL    HW2 9849   6.656   0.754   2.948
 2984SOL     OW 9850   6.254   4.400   1.773
 2984SOL    HW1 9851   6.290   4.384   1.865
 2984SOL    HW2 9852   6.326   4.382   1.706
 2985SOL     OW 9853   6.903   2.201   3.321
 2985SOL    HW1 9854   6.832   2.145   3.364
 2985SOL    HW2 9855   6.914   2.173   3.226
 2986SOL     OW 9856   2.177   3.550   5.030
 2986SOL    HW1 9857   2.274   3.568   5.014
 2986SOL    HW2 9858   2.130   3.637   5.046
 2987SOL     OW 9859   4.864   1.669   4.831
 2987SOL    HW1 9860   4.883   1.641   4.925
 2987SOL    HW2 9861   4.940   1.643   4.772
 2988SOL     OW 9862   0.686   6.662   2.018
 2988SOL    HW1 9863   0.756   6.733   2.007
 2988SOL    HW2 9864   0.730   6.578   2.051
 2989SOL     OW 9865   6.370   5.338   0.610
 2989SOL    HW1 9866   6.336   5.261   0.556
 2989SOL    HW2 9867   6.297   5.370   0.671
 2990SOL     OW 9868   2.941   1.579   1.147
 2990SOL    HW1 9869   2.856   1.545   1.106
 2990SOL    HW2 9870   2.921   1.661   1.201
 2991SOL     OW 9871   6.210   4.646   0.071
 2991SOL    HW1 9872   6.306   4.630   0.048
 2991SOL    HW2 9873   6.160   4.559   0.066
 2992SOL     OW 9874   4.272   4.708   6.797
 2992SOL    HW1 9875   4.343   4.743   6.858
 2992SOL    HW2 9876   4.280   4.752   6.708
 2993SOL     OW 9877   1.554   4.616   0.195
 2993SOL    HW1 9878   1.638   4.649   0.239
 2993SOL    HW2 9879   1.568   4.522   0.164
 2994SOL     OW 9880   4.110   5.892   0.204
 2994SOL    HW1 9881   4.167   5.965   0.243
 2994SOL    HW2 9882   4.053   5.930   0.132
 2995SOL     OW 9883   2.713   0.738   5.715
 2995SOL    HW1 9884   2.634   0.681   5.694
 2995SOL    HW2 9885   2.732   0.799   5.638
 2996SOL     OW 9886   4.376   5.998   5.336
 2996SOL    HW1 9887   4.309   5.951   5.279
 2996SOL    HW2 9888   4.332   6.071   5.388
 2997SOL     OW 9889   4.326   5.715   0.555
 2997SOL    HW1 9890   4.318   5.806   0.515
 2997SOL    HW2 9891   4.307   5.646   0.484
 2998SOL     OW 9892   6.110   4.911   5.442
 2998SOL    HW1 9893   6.051   4.844   5.399
 2998SOL    HW2 9894   6.182   4.865   5.494
 2999SOL     OW 9895   2.189   0.766   2.065
 2999SOL    HW1 9896   2.258   0.740   2.132
 2999SOL    HW2 9897   2.126   0.831   2.105
 3000SOL     OW 9898   1.289   2.081   4.925
 3000SOL    HW1 9899   1.349   2.005   4.951
 3000SOL    HW2 9900   1.281   2.084   4.825
 3001SOL     OW 9901   5.100   6.786   5.576
 3001SOL    HW1 9902   5.053   6.862   5.621
 3001SOL    HW2 9903   5.075   6.783   5.480
 3002SOL     OW 9904   3.047   0.584   5.313
 3002SOL    HW1 9905   3.026   0.583   5.411
 3002SOL    HW2 9906   3.143   0.606   5.299
 3003SOL     OW 9907   2.070   0.186   5.996
 3003SOL    HW1 9908   2.111   0.140   5.917
 3003SOL    HW2 9909   2.115   0.156   6.080
 3004SOL     OW 9910   6.718   2.808   5.476
 3004SOL    HW1 9911   6.650   2.743   5.513
 3004SOL    HW2 9912   6.692   2.835   5.384
 3005SOL     OW 9913   4.699   2.350   1.120
 3005SOL    HW1 9914   4.718   2.448   1.126
 3005SOL    HW2 9915   4.640   2.324   1.196
 3006SOL     OW 9916   4.448   0.045   1.195
 3006SOL    HW1 9917   4.514   0.064   1.123
 3006SOL    HW2 9918   4.495   0.008   1.275
 3007SOL     OW 9919   6.011   5.559   1.684
 3007SOL    HW1 9920   6.101   5.531   1.718
 3007SOL    HW2 9921   5.948   5.571   1.761
 3008SOL     OW 9922   4.807   6.177   5.474
 3008SOL    HW1 9923   4.827   6.079   5.467
 3008SOL    HW2 9924   4.848   6.225   5.397
 3009SOL     OW 9925   1.582   0.622   2.431
 3009SOL    HW1 9926   1.489   0.647   2.460
 3009SOL    HW2 9927   1.598   0.526   2.452
 3010SOL     OW 9928   2.445   6.625   2.746
 3010SOL    HW1 9929   2.533   6.585   2.721
 3010SOL    HW2 9930   2.382   6.620   2.668
 3011SOL     OW 9931   5.634   0.435   0.073
 3011SOL    HW1 9932   5.631   0.502   0.147
 3011SOL    HW2 9933   5.707   0.460   0.008
 3012SOL     OW 9934   0.063   4.690   1.222
 3012SOL    HW1 9935   0.103   4.780   1.202
 3012SOL    HW2 9936   0.127   4.637   1.277
 3013SOL     OW 9937   6.351   3.928   2.034
 3013SOL    HW1 9938   6.343   3.928   1.934
 3013SOL    HW2 9939   6.398   3.845   2.063
 3014SOL     OW 9940   5.263   0.001   5.490
 3014SOL    HW1 9941   5.274   6.969   5.571
 3014SOL    HW2 9942   5.198   0.075   5.511
 3015SOL     OW 9943   2.650   1.000   0.190
 3015SOL    HW1 9944   2.727   0.943   0.218
 3015SOL    HW2 9945   2.613   0.965   0.104
 3016SOL     OW 9946   4.036   6.208   3.456
 3016SOL    HW1 9947   4.102   6.241   3.389
 3016SOL    HW2 9948   4.056   6.247   3.546
 3017SOL     OW 9949   0.058   5.818   1.212
 3017SOL    HW1 9950   0.067   5.720   1.193
 3017SOL    HW2 9951   0.149   5.859   1.220
 3018SOL     OW 9952   4.209   0.136   6.102
 3018SOL    HW1 9953   4.228   0.233   6.118
 3018SOL    HW2 9954   4.179   0.123   6.008
 3019SOL     OW 9955   5.184   6.774   1.983
 3019SOL    HW1 9956   5.190   6.869   2.013
 3019SOL    HW2 9957   5.244   6.760   1.904
 3020SOL     OW 9958   1.989   1.053   1.807
 3020SOL    HW1 9959   1.986   1.004   1.894
 3020SOL    HW2 9960   2.072   1.026   1.757
 3021SOL     OW 9961   4.437   0.639   6.234
 3021SOL    HW1 9962   4.339   0.659   6.227
 3021SOL    HW2 9963   4.488   0.724   6.221
 3022SOL     OW 9964   6.594   0.269   2.618
 3022SOL    HW1 9965   6.604   0.346   2.555
 3022SOL    HW2 9966   6.554   0.191   2.570
 3023SOL     OW 9967   5.906   0.206   1.485
 3023SOL    HW1 9968   5.865   0.134   1.429
 3023SOL    HW2 9969   5.955   0.271   1.427
 3024SOL     OW 9970   3.152   6.909   6.549
 3024SOL    HW1 9971   3.152   6.836   6.481
 3024SOL    HW2 9972   3.171   6.996   6.505
 3025SOL     OW 9973   1.961   2.600   2.143
 3025SOL    HW1 9974   1.936   2.692   2.175
 3025SOL    HW2 9975   1.981   2.542   2.223
 3026SOL     OW 9976   2.723   5.631   0.471
 3026SOL    HW1 9977   2.735   5.585   0.559
 3026SOL    HW2 9978   2.808   5.623   0.418
 3027SOL     OW 9979   1.915   1.596   3.626
 3027SOL    HW1 9980   1.930   1.520   3.562
 3027SOL    HW2 9981   1.838   1.574   3.687
 3028SOL     OW 9982   1.122   0.761   4.659
 3028SOL    HW1 9983   1.135   0.859   4.648
 3028SOL    HW2 9984   1.060   0.743   4.735
 3029SOL     OW 9985   5.547   5.226   5.969
 3029SOL    HW1 9986   5.610   5.269   6.032
 3029SOL    HW2 9987   5.591   5.147   5.926
 3030SOL     OW 9988   0.944   1.152   5.866
 3030SOL    HW1 9989   0.907   1.169   5.958
 3030SOL    HW2 9990   0.950   1.054   5.850
 3031SOL     OW 9991   0.619   5.386   6.414
 3031SOL    HW1 9992   0.573   5.468   6.447
 3031SOL    HW2 9993   0.559   5.337   6.350
 3032SOL     OW 9994   3.932   6.806   5.680
 3032SOL    HW1 9995   4.000   6.840   5.746
 3032SOL    HW2 9996   3.921   6.707   5.693
 3033SOL     OW 9997   5.642   4.783   5.872
 3033SOL    HW1 9998   5.550   4.783   5.834
 3033SOL    HW2 9999   5.673   4.688   5.883
 3034SOL     OW10000   2.795   6.729   4.331
 3034SOL    HW110001   2.771   6.804   4.270
 3034SOL    HW210002   2.850   6.763   4.407
 3035SOL     OW10003   6.535   6.989   0.043
 3035SOL    HW110004   6.449   7.023   0.082
 3035SOL    HW210005   6.562   0.023   6.993
 3036SOL     OW10006   1.075   5.069   5.072
 3036SOL    HW110007   1.044   4.989   5.123
 3036SOL    HW210008   0.995   5.121   5.040
 3037SOL     OW10009   5.949   6.729   5.601
 3037SOL    HW110010   6.020   6.800   5.599
 3037SOL    HW210011   5.900   6.734   5.688
 3038SOL     OW10012   6.082   6.210   5.712
 3038SOL    HW110013   6.085   6.302   5.751
 3038SOL    HW210014   6.174   6.172   5.711
 3039SOL     OW10015   0.125   4.990   0.186
 3039SOL    HW110016   0.184   4.966   0.263
 3039SOL    HW210017   0.152   5.079   0.150
 3040SOL     OW10018   2.763   1.528   6.866
 3040SOL    HW110019   2.837   1.595   6.855
 3040SOL    HW210020   2.762   1.466   6.787
 3041SOL     OW10021   1.692   2.537   6.224
 3041SOL    HW110022   1.746   2.602   6.277
 3041SOL    HW210023   1.750   2.460   6.196
 3042SOL     OW10024   5.921   6.824   1.782
 3042SOL    HW110025   5.961   6.783   1.864
 3042SOL    HW210026   5.963   6.913   1.765
 3043SOL     OW10027   6.682   5.049   6.721
 3043SOL    HW110028   6.592   5.007   6.710
 3043SOL    HW210029   6.678   5.145   6.691
 3044SOL     OW10030   2.570   3.187   6.206
 3044SOL    HW110031   2.512   3.152   6.279
 3044SOL    HW210032   2.549   3.283   6.189
 3045SOL     OW10033   4.465   1.744   3.902
 3045SOL    HW110034   4.507   1.752   3.992
 3045SOL    HW210035   4.372   1.708   3.911
 3046SOL     OW10036   1.959   2.420   5.943
 3046SOL    HW110037   2.010   2.415   5.857
 3046SOL    HW210038   2.017   2.391   6.019
 3047SOL     OW10039   0.329   4.610   1.271
 3047SOL    HW110040   0.345   4.533   1.209
 3047SOL    HW210041   0.414   4.661   1.284
 3048SOL     OW10042   2.895   2.639   1.646
 3048SOL    HW110043   2.909   2.620   1.743
 3048SOL    HW210044   2.797   2.646   1.627
 3049SOL     OW10045   0.955   0.518   1.647
 3049SOL    HW110046   0.962   0.606   1.694
 3049SOL    HW210047   0.892   0.526   1.570
 3050SOL     OW10048   1.813   0.396   4.003
 3050SOL    HW110049   1.891   0.442   4.045
 3050SOL    HW210050   1.728   0.432   4.041
 3051SOL     OW10051   2.911   4.567   5.904
 3051SOL    HW110052   2.934   4.623   5.824
 3051SOL    HW210053   2.815   4.580   5.928
 3052SOL     OW10054   4.817   6.842   2.761
 3052SOL    HW110055   4.899   6.866   2.710
 3052SOL    HW210056   4.736   6.860   2.704
 3053SOL     OW10057   4.924   6.807   1.975
 3053SOL    HW110058   4.878   6.858   1.902
 3053SOL    HW210059   5.021   6.797   1.952
 3054SOL     OW10060   2.203   4.209   5.513
 3054SOL    HW110061   2.226   4.112   5.524
 3054SOL    HW210062   2.288   4.263   5.509
 3055SOL     OW10063   5.660   6.749   3.085
 3055SOL    HW110064   5.699   6.700   3.163
 3055SOL    HW210065   5.624   6.684   3.018
 3056SOL     OW10066   5.726   0.504   2.059
 3056SOL    HW110067   5.659   0.573   2.086
 3056SOL    HW210068   5.818   0.544   2.060
 3057SOL     OW10069   6.582   6.084   2.761
 3057SOL    HW110070   6.562   6.146   2.837
 3057SOL    HW210071   6.625   6.134   2.687
 3058SOL     OW10072   6.260   5.751   1.522
 3058SOL    HW110073   6.191   5.820   1.504
 3058SOL    HW210074   6.237   5.702   1.607
 3059SOL     OW10075   1.949   2.704   5.633
 3059SOL    HW110076   1.960   2.774   5.562
 3059SOL    HW210077   2.031   2.647   5.637
 3060SOL     OW10078   0.399   6.738   0.272
 3060SOL    HW110079   0.414   6.679   0.192
 3060SOL    HW210080   0.354   6.684   0.344
 3061SOL     OW10081   0.317   0.854   5.721
 3061SOL    HW110082   0.297   0.850   5.623
 3061SOL    HW210083   0.361   0.769   5.750
 3062SOL     OW10084   3.195   5.418   6.333
 3062SOL    HW110085   3.239   5.460   6.254
 3062SOL    HW210086   3.103   5.455   6.344
 3063SOL     OW10087   2.640   5.897   0.566
 3063SOL    HW110088   2.665   5.811   0.522
 3063SOL    HW210089   2.670   5.896   0.661
 3064SOL     OW10090   6.868   4.797   3.848
 3064SOL    HW110091   6.909   4.738   3.918
 3064SOL    HW210092   6.936   4.863   3.816
 3065SOL     OW10093   2.996   1.287   1.067
 3065SOL    HW110094   3.052   1.216   1.024
 3065SOL    HW210095   2.902   1.255   1.074
 3066SOL     OW10096   5.313   5.759   0.413
 3066SOL    HW110097   5.368   5.818   0.474
 3066SOL    HW210098   5.334   5.663   0.433
 3067SOL     OW10099   4.259   6.925   3.002
 3067SOL    HW110100   4.193   6.868   2.953
 3067SOL    HW210101   4.214   7.008   3.033
 3068SOL     OW10102   5.678   4.776   0.055
 3068SOL    HW110103   5.596   4.739   0.012
 3068SOL    HW210104   5.676   4.876   0.053
 3069SOL     OW10105   1.279   5.227   3.848
 3069SOL    HW110106   1.297   5.325   3.846
 3069SOL    HW210107   1.197   5.207   3.795
 3070SOL     OW10108   3.847   1.643   4.397
 3070SOL    HW110109   3.877   1.550   4.374
 3070SOL    HW210110   3.747   1.645   4.401
 3071SOL     OW10111   5.754   0.283   4.114
 3071SOL    HW110112   5.699   0.201   4.132
 3071SOL    HW210113   5.834   0.258   4.059
 3072SOL     OW10114   0.107   0.347   1.962
 3072SOL    HW110115   0.194   0.381   1.997
 3072SOL    HW210116   0.050   0.425   1.933
 3073SOL     OW10117   1.739   2.613   4.865
 3073SOL    HW110118   1.823   2.606   4.812
 3073SOL    HW210119   1.760   2.650   4.956
 3074SOL     OW10120   4.845   3.615   6.033
 3074SOL    HW110121   4.842   3.517   6.050
 3074SOL    HW210122   4.924   3.637   5.976
 3075SOL     OW10123   6.837   5.906   0.601
 3075SOL    HW110124   6.747   5.885   0.562
 3075SOL    HW210125   6.899   5.829   0.585
 3076SOL     OW10126   0.655   0.860   4.954
 3076SOL    HW110127   0.613   0.887   4.868
 3076SOL    HW210128   0.729   0.923   4.977
 3077SOL     OW10129   5.461   4.305   3.961
 3077SOL    HW110130   5.405   4.228   3.992
 3077SOL    HW210131   5.425   4.339   3.874
 3078SOL     OW10132   2.016   2.553   0.066
 3078SOL    HW110133   2.101   2.561   0.012
 3078SOL    HW210134   1.940   2.533   0.004
 3079SOL     OW10135   5.614   2.825   6.502
 3079SOL    HW110136   5.661   2.889   6.441
 3079SOL    HW210137   5.534   2.869   6.542
 3080SOL     OW10138   6.616   6.659   1.439
 3080SOL    HW110139   6.533   6.622   1.396
 3080SOL    HW210140   6.668   6.710   1.371
 3081SOL     OW10141   0.522   4.743   6.110
 3081SOL    HW110142   0.436   4.696   6.090
 3081SOL    HW210143   0.586   4.680   6.153
 3082SOL     OW10144   2.812   7.011   2.439
 3082SOL    HW110145   2.883   6.949   2.472
 3082SOL    HW210146   2.789   6.989   2.345
 3083SOL     OW10147   3.163   0.468   2.060
 3083SOL    HW110148   3.093   0.409   2.020
 3083SOL    HW210149   3.190   0.538   1.994
 3084SOL     OW10150   4.614   6.466   3.793
 3084SOL    HW110151   4.669   6.431   3.869
 3084SOL    HW210152   4.623   6.405   3.714
 3085SOL     OW10153   1.274   5.263   1.784
 3085SOL    HW110154   1.275   5.345   1.727
 3085SOL    HW210155   1.218   5.279   1.865
 3086SOL     OW10156   6.109   1.306   4.164
 3086SOL    HW110157   6.068   1.387   4.122
 3086SOL    HW210158   6.138   1.328   4.257
 3087SOL     OW10159   5.598   3.505   2.145
 3087SOL    HW110160   5.585   3.458   2.232
 3087SOL    HW210161   5.527   3.575   2.134
 3088SOL     OW10162   2.999   3.799   6.573
 3088SOL    HW110163   3.058   3.863   6.622
 3088SOL    HW210164   3.056   3.729   6.530
 3089SOL     OW10165   3.408   2.082   1.335
 3089SOL    HW110166   3.384   2.017   1.263
 3089SOL    HW210167   3.507   2.100   1.333
 3090SOL     OW10168   6.734   1.926   0.788
 3090SOL    HW110169   6.767   1.884   0.873
 3090SOL    HW210170   6.672   1.863   0.741
 3091SOL     OW10171   2.262   6.784   0.554
 3091SOL    HW110172   2.357   6.758   0.538
 3091SOL    HW210173   2.252   6.817   0.648
 3092SOL     OW10174   3.758   5.524   0.344
 3092SOL    HW110175   3.715   5.610   0.372
 3092SOL    HW210176   3.818   5.491   0.416
 3093SOL     OW10177   4.990   6.318   3.246
 3093SOL    HW110178   4.898   6.354   3.230
 3093SOL    HW210179   5.055   6.366   3.188
 3094SOL     OW10180   2.970   5.428   5.446
 3094SOL    HW110181   3.043   5.359   5.445
 3094SOL    HW210182   2.943   5.449   5.353
 3095SOL     OW10183   1.980   4.970   5.142
 3095SOL    HW110184   1.923   4.903   5.189
 3095SOL    HW210185   1.931   5.007   5.063
 3096SOL     OW10186   0.234   0.824   5.435
 3096SOL    HW110187   0.220   0.923   5.444
 3096SOL    HW210188   0.235   0.800   5.338
 3097SOL     OW10189   1.859   1.803   0.132
 3097SOL    HW110190   1.841   1.894   0.095
 3097SOL    HW210191   1.946   1.769   0.096
 3098SOL     OW10192   3.990   2.318   0.382
 3098SOL    HW110193   3.952   2.403   0.344
 3098SOL    HW210194   4.083   2.306   0.349
 3099SOL     OW10195   1.485   5.836   5.374
 3099SOL    HW110196   1.529   5.779   5.304
 3099SOL    HW210197   1.497   5.932   5.350
 3100SOL     OW10198   6.049   6.340   6.263
 3100SOL    HW110199   6.109   6.280   6.210
 3100SOL    HW210200   6.022   6.294   6.348
 3101SOL     OW10201   3.701   0.142   1.317
 3101SOL    HW110202   3.704   0.074   1.244
 3101SOL    HW210203   3.792   0.154   1.356
 3102SOL     OW10204   0.694   6.286   0.525
 3102SOL    HW110205   0.720   6.198   0.487
 3102SOL    HW210206   0.672   6.350   0.451
 3103SOL     OW10207   4.210   3.919   1.777
 3103SOL    HW110208   4.264   4.002   1.787
 3103SOL    HW210209   4.267   3.847   1.737
 3104SOL     OW10210   5.891   5.724   3.736
 3104SOL    HW110211   5.856   5.737   3.829
 3104SOL    HW210212   5.819   5.746   3.670
 3105SOL     OW10213   5.785   5.340   3.530
 3105SOL    HW110214   5.823   5.394   3.605
 3105SOL    HW210215   5.853   5.332   3.457
 3106SOL     OW10216   6.678   3.206   4.850
 3106SOL    HW110217   6.774   3.191   4.831
 3106SOL    HW210218   6.668   3.286   4.909
 3107SOL     OW10219   2.758   6.921   4.103
 3107SOL    HW110220   2.672   6.928   4.052
 3107SOL    HW210221   2.809   7.007   4.095
 3108SOL     OW10222   2.975   0.800   2.883
 3108SOL    HW110223   3.028   0.749   2.815
 3108SOL    HW210224   2.972   0.897   2.857
 3109SOL     OW10225   4.658   5.588   3.264
 3109SOL    HW110226   4.591   5.622   3.198
 3109SOL    HW210227   4.613   5.523   3.325
 3110SOL     OW10228   1.442   2.686   2.024
 3110SOL    HW110229   1.449   2.764   2.086
 3110SOL    HW210230   1.356   2.638   2.041
 3111SOL     OW10231   6.998   4.782   2.647
 3111SOL    HW110232   7.025   4.703   2.702
 3111SOL    HW210233   6.989   4.862   2.707
 3112SOL     OW10234   2.858   3.894   6.212
 3112SOL    HW110235   2.817   3.865   6.299
 3112SOL    HW210236   2.856   3.818   6.147
 3113SOL     OW10237   4.274   6.611   4.210
 3113SOL    HW110238   4.296   6.691   4.155
 3113SOL    HW210239   4.298   6.628   4.306
 3114SOL     OW10240   5.249   5.697   0.951
 3114SOL    HW110241   5.194   5.689   0.868
 3114SOL    HW210242   5.269   5.793   0.969
 3115SOL     OW10243   2.537   3.484   1.643
 3115SOL    HW110244   2.616   3.424   1.658
 3115SOL    HW210245   2.465   3.459   1.708
 3116SOL     OW10246   0.468   1.451   6.864
 3116SOL    HW110247   0.369   1.463   6.858
 3116SOL    HW210248   0.488   1.361   6.902
 3117SOL     OW10249   4.050   3.813   5.744
 3117SOL    HW110250   4.031   3.897   5.693
 3117SOL    HW210251   4.016   3.821   5.837
 3118SOL     OW10252   5.882   5.611   6.423
 3118SOL    HW110253   5.789   5.634   6.393
 3118SOL    HW210254   5.926   5.693   6.461
 3119SOL     OW10255   2.147   4.731   6.982
 3119SOL    HW110256   2.136   4.708   6.885
 3119SOL    HW210257   2.230   4.785   6.993
 3120SOL     OW10258   2.514   5.446   6.188
 3120SOL    HW110259   2.528   5.362   6.136
 3120SOL    HW210260   2.456   5.509   6.136
 3121SOL     OW10261   0.454   5.954   3.120
 3121SOL    HW110262   0.411   5.884   3.176
 3121SOL    HW210263   0.438   5.934   3.023
 3122SOL     OW10264   3.037   5.794   0.821
 3122SOL    HW110265   3.018   5.845   0.737
 3122SOL    HW210266   3.096   5.849   0.881
 3123SOL     OW10267   3.772   6.649   4.264
 3123SOL    HW110268   3.792   6.747   4.258
 3123SOL    HW210269   3.772   6.609   4.172
 3124SOL     OW10270   3.906   0.400   6.178
 3124SOL    HW110271   3.861   0.444   6.256
 3124SOL    HW210272   3.943   0.312   6.206
 3125SOL     OW10273   6.924   2.011   5.960
 3125SOL    HW110274   6.933   2.068   5.878
 3125SOL    HW210275   7.014   1.975   5.985
 3126SOL     OW10276   3.738   6.111   0.017
 3126SOL    HW110277   3.654   6.157   7.015
 3126SOL    HW210278   3.730   6.078   0.111
 3127SOL     OW10279   1.291   1.602   3.976
 3127SOL    HW110280   1.261   1.665   3.904
 3127SOL    HW210281   1.339   1.525   3.934
 3128SOL     OW10282   1.745   0.848   0.741
 3128SOL    HW110283   1.680   0.776   0.767
 3128SOL    HW210284   1.780   0.893   0.824
 3129SOL     OW10285   1.333   3.186   3.311
 3129SOL    HW110286   1.238   3.186   3.342
 3129SOL    HW210287   1.377   3.101   3.338
 3130SOL     OW10288   2.156   5.674   3.522
 3130SOL    HW110289   2.077   5.670   3.461
 3130SOL    HW210290   2.147   5.605   3.593
 3131SOL     OW10291   0.908   3.424   4.678
 3131SOL    HW110292   0.913   3.332   4.641
 3131SOL    HW210293   0.964   3.486   4.623
 3132SOL     OW10294   5.421   4.730   5.147
 3132SOL    HW110295   5.383   4.795   5.212
 3132SOL    HW210296   5.442   4.776   5.061
 3133SOL     OW10297   2.430   2.206   3.208
 3133SOL    HW110298   2.424   2.188   3.110
 3133SOL    HW210299   2.526   2.213   3.235
 3134SOL     OW10300   5.772   2.834   1.762
 3134SOL    HW110301   5.868   2.842   1.736
 3134SOL    HW210302   5.738   2.924   1.789
 3135SOL     OW10303   2.255   1.906   3.344
 3135SOL    HW110304   2.270   1.998   3.380
 3135SOL    HW210305   2.255   1.909   3.244
 3136SOL     OW10306   6.559   6.791   4.732
 3136SOL    HW110307   6.624   6.753   4.798
 3136SOL    HW210308   6.467   6.758   4.754
 3137SOL     OW10309   0.327   1.479   4.468
 3137SOL    HW110310   0.406   1.540   4.466
 3137SOL    HW210311   0.269   1.496   4.389
 3138SOL     OW10312   5.151   1.652   4.718
 3138SOL    HW110313   5.193   1.742   4.729
 3138SOL    HW210314   5.216   1.582   4.747
 3139SOL     OW10315   4.726   5.528   4.812
 3139SOL    HW110316   4.720   5.592   4.888
 3139SOL    HW210317   4.683   5.568   4.731
 3140SOL     OW10318   5.791   5.903   6.192
 3140SOL    HW110319   5.783   5.937   6.286
 3140SOL    HW210320   5.875   5.850   6.183
 3141SOL     OW10321   0.678   5.422   1.314
 3141SOL    HW110322   0.725   5.343   1.352
 3141SOL    HW210323   0.691   5.424   1.215
 3142SOL     OW10324   3.960   6.817   0.267
 3142SOL    HW110325   3.915   6.768   0.341
 3142SOL    HW210326   3.911   6.803   0.182
 3143SOL     OW10327   0.505   1.454   1.278
 3143SOL    HW110328   0.548   1.375   1.322
 3143SOL    HW210329   0.576   1.512   1.238
 3144SOL     OW10330   1.760   3.072   6.942
 3144SOL    HW110331   1.751   3.156   6.996
 3144SOL    HW210332   1.827   3.087   6.869
 3145SOL     OW10333   3.022   5.365   3.693
 3145SOL    HW110334   3.017   5.447   3.750
 3145SOL    HW210335   3.117   5.346   3.669
 3146SOL     OW10336   2.364   0.034   3.661
 3146SOL    HW110337   2.380   0.118   3.714
 3146SOL    HW210338   2.450   7.008   3.653
 3147SOL     OW10339   3.955   4.275   0.902
 3147SOL    HW110340   3.972   4.266   1.000
 3147SOL    HW210341   3.980   4.367   0.872
 3148SOL     OW10342   3.361   5.585   5.030
 3148SOL    HW110343   3.456   5.572   5.059
 3148SOL    HW210344   3.353   5.567   4.932
 3149SOL     OW10345   2.726   6.426   6.199
 3149SOL    HW110346   2.687   6.384   6.281
 3149SOL    HW210347   2.653   6.453   6.137
 3150SOL     OW10348   0.091   6.941   4.317
 3150SOL    HW110349   0.086   6.899   4.408
 3150SOL    HW210350   0.180   6.922   4.277
 3151SOL     OW10351   4.008   6.887   1.209
 3151SOL    HW110352   3.977   6.948   1.137
 3151SOL    HW210353   4.063   6.813   1.168
 3152SOL     OW10354   1.266   4.735   6.456
 3152SOL    HW110355   1.187   4.745   6.395
 3152SOL    HW210356   1.347   4.714   6.401
 3153SOL     OW10357   7.010   4.521   2.990
 3153SOL    HW110358   0.017   4.569   3.071
 3153SOL    HW210359   6.990   4.425   3.014
 3154SOL     OW10360   5.581   2.585   6.362
 3154SOL    HW110361   5.599   2.670   6.411
 3154SOL    HW210362   5.664   2.528   6.362
 3155SOL     OW10363   4.360   5.959   0.436
 3155SOL    HW110364   4.405   6.010   0.510
 3155SOL    HW210365   4.429   5.919   0.376
 3156SOL     OW10366   3.849   3.524   3.056
 3156SOL    HW110367   3.792   3.600   3.025
 3156SOL    HW210368   3.944   3.556   3.062
 3157SOL     OW10369   2.173   3.104   4.990
 3157SOL    HW110370   2.159   3.028   4.927
 3157SOL    HW210371   2.254   3.087   5.046
 3158SOL     OW10372   4.624   6.226   1.121
 3158SOL    HW110373   4.559   6.275   1.180
 3158SOL    HW210374   4.654   6.287   1.048
 3159SOL     OW10375   5.369   5.070   0.470
 3159SOL    HW110376   5.427   5.130   0.525
 3159SOL    HW210377   5.365   4.979   0.513
 3160SOL     OW10378   6.111   4.919   0.450
 3160SOL    HW110379   6.024   4.877   0.476
 3160SOL    HW210380   6.166   4.853   0.398
 3161SOL     OW10381   1.017   1.276   3.259
 3161SOL    HW110382   1.117   1.271   3.256
 3161SOL    HW210383   0.986   1.262   3.353
 3162SOL     OW10384   0.315   6.861   5.895
 3162SOL    HW110385   0.298   6.799   5.818
 3162SOL    HW210386   0.412   6.860   5.918
 3163SOL     OW10387   2.024   4.421   5.469
 3163SOL    HW110388   2.098   4.371   5.515
 3163SOL    HW210389   2.059   4.461   5.384
 3164SOL     OW10390   6.188   5.190   5.942
 3164SOL    HW110391   6.248   5.180   5.863
 3164SOL    HW210392   6.093   5.181   5.914
 3165SOL     OW10393   0.614   2.396   1.650
 3165SOL    HW110394   0.562   2.440   1.723
 3165SOL    HW210395   0.558   2.324   1.609
 3166SOL     OW10396   4.701   2.857   6.433
 3166SOL    HW110397   4.761   2.890   6.360
 3166SOL    HW210398   4.733   2.769   6.467
 3167SOL     OW10399   0.501   4.456   1.875
 3167SOL    HW110400   0.431   4.496   1.934
 3167SOL    HW210401   0.474   4.363   1.851
 3168SOL     OW10402   6.098   2.898   0.950
 3168SOL    HW110403   6.128   2.945   1.034
 3168SOL    HW210404   6.155   2.817   0.935
 3169SOL     OW10405   2.485   2.400   5.412
 3169SOL    HW110406   2.490   2.492   5.372
 3169SOL    HW210407   2.389   2.373   5.422
 3170SOL     OW10408   3.914   0.076   5.427
 3170SOL    HW110409   3.829   0.111   5.388
 3170SOL    HW210410   3.908   0.078   5.527
 3171SOL     OW10411   6.079   6.513   3.013
 3171SOL    HW110412   6.086   6.566   3.098
 3171SOL    HW210413   6.140   6.553   2.944
 3172SOL     OW10414   6.085   6.633   5.367
 3172SOL    HW110415   6.040   6.654   5.453
 3172SOL    HW210416   6.017   6.614   5.296
 3173SOL     OW10417   2.214   1.047   1.628
 3173SOL    HW110418   2.277   1.124   1.631
 3173SOL    HW210419   2.265   0.961   1.640
 3174SOL     OW10420   2.273   2.985   6.964
 3174SOL    HW110421   2.223   3.048   7.023
 3174SOL    HW210422   2.219   2.967   6.881
 3175SOL     OW10423   0.256   6.338   0.361
 3175SOL    HW110424   0.174   6.312   0.411
 3175SOL    HW210425   0.275   6.270   0.290
 3176SOL     OW10426   1.392   5.919   0.087
 3176SOL    HW110427   1.340   5.842   0.050
 3176SOL    HW210428   1.387   5.917   0.187
 3177SOL     OW10429   0.973   6.813   4.669
 3177SOL    HW110430   0.926   6.739   4.718
 3177SOL    HW210431   0.934   6.823   4.578
 3178SOL     OW10432   2.735   3.085   6.931
 3178SOL    HW110433   2.724   3.005   6.871
 3178SOL    HW210434   2.657   3.146   6.920
 3179SOL     OW10435   1.151   2.338   4.320
 3179SOL    HW110436   1.205   2.413   4.356
 3179SOL    HW210437   1.056   2.349   4.349
 3180SOL     OW10438   6.181   1.242   6.208
 3180SOL    HW110439   6.238   1.215   6.286
 3180SOL    HW210440   6.238   1.284   6.138
 3181SOL     OW10441   0.884   1.766   2.845
 3181SOL    HW110442   0.800   1.767   2.792
 3181SOL    HW210443   0.889   1.850   2.900
 3182SOL     OW10444   1.422   4.203   5.796
 3182SOL    HW110445   1.446   4.263   5.872
 3182SOL    HW210446   1.420   4.255   5.711
 3183SOL     OW10447   4.579   3.147   1.451
 3183SOL    HW110448   4.633   3.063   1.445
 3183SOL    HW210449   4.628   3.222   1.407
 3184SOL     OW10450   0.934   2.006   3.651
 3184SOL    HW110451   0.943   2.105   3.661
 3184SOL    HW210452   0.943   1.962   3.741
 3185SOL     OW10453   0.231   6.757   7.001
 3185SOL    HW110454   0.210   6.814   6.922
 3185SOL    HW210455   0.147   6.722   0.016
 3186SOL     OW10456   3.112   0.751   1.655
 3186SOL    HW110457   3.140   0.847   1.647
 3186SOL    HW210458   3.165   0.707   1.728
 3187SOL     OW10459   2.500   4.150   0.262
 3187SOL    HW110460   2.477   4.104   0.176
 3187SOL    HW210461   2.600   4.161   0.267
 3188SOL     OW10462   4.136   0.121   3.113
 3188SOL    HW110463   4.084   0.177   3.048
 3188SOL    HW210464   4.073   0.059   3.161
 3189SOL     OW10465   6.363   6.513   2.664
 3189SOL    HW110466   6.321   6.425   2.689
 3189SOL    HW210467   6.315   6.552   2.586
 3190SOL     OW10468   0.974   7.005   1.648
 3190SOL    HW110469   0.916   7.017   1.729
 3190SOL    HW210470   0.937   6.932   1.590
 3191SOL     OW10471   3.929   0.903   0.365
 3191SOL    HW110472   4.008   0.848   0.393
 3191SOL    HW210473   3.857   0.895   0.434
 3192SOL     OW10474   5.397   2.270   3.771
 3192SOL    HW110475   5.464   2.344   3.764
 3192SOL    HW210476   5.313   2.297   3.724
 3193SOL     OW10477   5.187   4.438   1.189
 3193SOL    HW110478   5.234   4.517   1.228
 3193SOL    HW210479   5.148   4.382   1.262
 3194SOL     OW10480   2.543   5.293   5.056
 3194SOL    HW110481   2.464   5.331   5.104
 3194SOL    HW210482   2.627   5.328   5.097
 3195SOL     OW10483   0.020   4.470   3.771
 3195SOL    HW110484   6.990   4.493   3.691
 3195SOL    HW210485   0.113   4.505   3.757
 3196SOL     OW10486   0.446   6.510   6.016
 3196SOL    HW110487   0.499   6.446   6.071
 3196SOL    HW210488   0.456   6.602   6.054
 3197SOL     OW10489   0.465   4.687   4.900
 3197SOL    HW110490   0.417   4.613   4.947
 3197SOL    HW210491   0.410   4.770   4.905
 3198SOL     OW10492   5.786   6.835   0.195
 3198SOL    HW110493   5.841   6.905   0.241
 3198SOL    HW210494   5.771   6.759   0.258
 3199SOL     OW10495   3.503   1.414   3.329
 3199SOL    HW110496   3.444   1.485   3.290
 3199SOL    HW210497   3.488   1.328   3.280
 3200SOL     OW10498   6.618   2.013   0.416
 3200SOL    HW110499   6.662   1.935   0.461
 3200SOL    HW210500   6.569   1.981   0.335
 3201SOL     OW10501   4.657   4.785   3.187
 3201SOL    HW110502   4.724   4.765   3.258
 3201SOL    HW210503   4.643   4.704   3.130
 3202SOL     OW10504   1.569   5.439   1.685
 3202SOL    HW110505   1.577   5.444   1.785
 3202SOL    HW210506   1.475   5.461   1.659
 3203SOL     OW10507   4.645   0.133   0.927
 3203SOL    HW110508   4.671   0.140   0.831
 3203SOL    HW210509   4.569   0.194   0.947
 3204SOL     OW10510   6.461   6.450   1.754
 3204SOL    HW110511   6.407   6.514   1.809
 3204SOL    HW210512   6.550   6.436   1.796
 3205SOL     OW10513   0.900   3.906   4.748
 3205SOL    HW110514   0.997   3.888   4.735
 3205SOL    HW210515   0.887   4.001   4.777
 3206SOL     OW10516   1.781   0.307   6.773
 3206SOL    HW110517   1.792   0.286   6.676
 3206SOL    HW210518   1.861   0.275   6.823
 3207SOL     OW10519   1.380   1.529   3.004
 3207SOL    HW110520   1.478   1.540   3.018
 3207SOL    HW210521   1.330   1.572   3.079
 3208SOL     OW10522   6.331   6.853   4.872
 3208SOL    HW110523   6.249   6.858   4.930
 3208SOL    HW210524   6.396   6.923   4.900
 3209SOL     OW10525   1.277   0.117   3.249
 3209SOL    HW110526   1.205   0.111   3.319
 3209SOL    HW210527   1.259   0.195   3.190
 3210SOL     OW10528   0.628   5.487   2.216
 3210SOL    HW110529   0.683   5.410   2.182
 3210SOL    HW210530   0.688   5.565   2.234
 3211SOL     OW10531   0.571   4.566   3.470
 3211SOL    HW110532   0.472   4.558   3.480
 3211SOL    HW210533   0.598   4.533   3.380
 3212SOL     OW10534   4.993   2.908   5.189
 3212SOL    HW110535   4.938   2.976   5.141
 3212SOL    HW210536   4.934   2.853   5.248
 3213SOL     OW10537   5.654   6.772   1.533
 3213SOL    HW110538   5.709   6.840   1.484
 3213SOL    HW210539   5.610   6.816   1.612
 3214SOL     OW10540   4.134   4.286   6.799
 3214SOL    HW110541   4.220   4.295   6.749
 3214SOL    HW210542   4.151   4.245   6.888
 3215SOL     OW10543   6.146   1.350   7.001
 3215SOL    HW110544   6.203   1.309   0.046
 3215SOL    HW210545   6.126   1.445   7.024
 3216SOL     OW10546   4.999   6.085   4.725
 3216SOL    HW110547   5.023   6.065   4.630
 3216SOL    HW210548   4.900   6.075   4.738
 3217SOL     OW10549   6.726   4.364   0.175
 3217SOL    HW110550   6.799   4.433   0.174
 3217SOL    HW210551   6.721   4.322   0.266
 3218SOL     OW10552   3.745   1.866   1.946
 3218SOL    HW110553   3.665   1.863   1.886
 3218SOL    HW210554   3.730   1.804   2.024
 3219SOL     OW10555   0.306   0.543   3.425
 3219SOL    HW110556   0.285   0.446   3.437
 3219SOL    HW210557   0.391   0.553   3.373
 3220SOL     OW10558   6.608   3.376   6.416
 3220SOL    HW110559   6.511   3.351   6.419
 3220SOL    HW210560   6.646   3.351   6.327
 3221SOL     OW10561   3.657   0.865   1.793
 3221SOL    HW110562   3.700   0.830   1.876
 3221SOL    HW210563   3.561   0.887   1.813
 3222SOL     OW10564   6.587   4.344   1.920
 3222SOL    HW110565   6.584   4.256   1.873
 3222SOL    HW210566   6.528   4.340   2.001
 3223SOL     OW10567   2.153   4.291   4.108
 3223SOL    HW110568   2.210   4.237   4.171
 3223SOL    HW210569   2.122   4.374   4.153
 3224SOL     OW10570   3.284   6.311   1.153
 3224SOL    HW110571   3.267   6.399   1.197
 3224SOL    HW210572   3.328   6.250   1.218
 3225SOL     OW10573   1.989   2.884   0.593
 3225SOL    HW110574   1.964   2.823   0.668
 3225SOL    HW210575   2.042   2.961   0.629
 3226SOL     OW10576   6.636   0.783   4.008
 3226SOL    HW110577   6.718   0.805   3.954
 3226SOL    HW210578   6.591   0.868   4.035
 3227SOL     OW10579   2.054   2.054   5.460
 3227SOL    HW110580   2.019   2.064   5.367
 3227SOL    HW210581   2.060   1.957   5.484
 3228SOL     OW10582   5.047   3.540   4.999
 3228SOL    HW110583   5.112   3.570   4.929
 3228SOL    HW210584   4.973   3.607   5.007
 3229SOL     OW10585   4.547   1.705   5.333
 3229SOL    HW110586   4.619   1.733   5.270
 3229SOL    HW210587   4.458   1.724   5.292
 3230SOL     OW10588   1.354   0.282   3.643
 3230SOL    HW110589   1.344   0.373   3.604
 3230SOL    HW210590   1.265   0.250   3.677
 3231SOL     OW10591   4.577   4.628   1.014
 3231SOL    HW110592   4.573   4.568   1.094
 3231SOL    HW210593   4.500   4.608   0.954
 3232SOL     OW10594   1.052   3.990   2.910
 3232SOL    HW110595   0.953   3.994   2.916
 3232SOL    HW210596   1.080   3.980   2.815
 3233SOL     OW10597   1.904   4.412   1.082
 3233SOL    HW110598   1.974   4.439   1.017
 3233SOL    HW210599   1.861   4.494   1.120
 3234SOL     OW10600   6.898   1.907   4.950
 3234SOL    HW110601   6.918   1.993   4.904
 3234SOL    HW210602   6.896   1.921   5.049
 3235SOL     OW10603   5.798   0.707   2.453
 3235SOL    HW110604   5.852   0.775   2.504
 3235SOL    HW210605   5.726   0.754   2.402
 3236SOL     OW10606   0.350   2.383   1.493
 3236SOL    HW110607   0.284   2.398   1.419
 3236SOL    HW210608   0.393   2.293   1.482
 3237SOL     OW10609   2.701   6.084   4.942
 3237SOL    HW110610   2.746   6.138   4.871
 3237SOL    HW210611   2.705   5.987   4.919
 3238SOL     OW10612   6.568   6.328   6.817
 3238SOL    HW110613   6.532   6.405   6.765
 3238SOL    HW210614   6.642   6.359   6.875
 3239SOL     OW10615   1.509   6.095   5.265
 3239SOL    HW110616   1.607   6.111   5.278
 3239SOL    HW210617   1.458   6.135   5.342
 3240SOL     OW10618   0.610   2.010   4.766
 3240SOL    HW110619   0.585   1.999   4.862
 3240SOL    HW210620   0.626   2.106   4.746
 3241SOL     OW10621   4.179   6.739   5.090
 3241SOL    HW110622   4.107   6.808   5.097
 3241SOL    HW210623   4.167   6.686   5.006
 3242SOL     OW10624   3.405   0.432   0.606
 3242SOL    HW110625   3.336   0.405   0.539
 3242SOL    HW210626   3.453   0.351   0.639
 3243SOL     OW10627   3.805   5.312   1.724
 3243SOL    HW110628   3.899   5.292   1.696
 3243SOL    HW210629   3.741   5.269   1.660
 3244SOL     OW10630   0.819   0.032   5.813
 3244SOL    HW110631   0.863   6.973   5.785
 3244SOL    HW210632   0.773   0.019   5.901
 3245SOL     OW10633   3.347   1.839   5.797
 3245SOL    HW110634   3.317   1.925   5.839
 3245SOL    HW210635   3.373   1.857   5.702
 3246SOL     OW10636   5.546   6.289   2.935
 3246SOL    HW110637   5.626   6.279   2.876
 3246SOL    HW210638   5.545   6.215   3.002
 3247SOL     OW10639   6.314   3.246   5.607
 3247SOL    HW110640   6.230   3.277   5.650
 3247SOL    HW210641   6.393   3.290   5.650
 3248SOL     OW10642   4.902   4.103   3.139
 3248SOL    HW110643   4.936   4.052   3.218
 3248SOL    HW210644   4.954   4.075   3.057
 3249SOL     OW10645   3.530   4.654   5.648
 3249SOL    HW110646   3.531   4.635   5.550
 3249SOL    HW210647   3.471   4.588   5.694
 3250SOL     OW10648   4.377   4.950   1.151
 3250SOL    HW110649   4.299   4.994   1.196
 3250SOL    HW210650   4.344   4.899   1.071
 3251SOL     OW10651   3.320   0.792   3.641
 3251SOL    HW110652   3.345   0.813   3.736
 3251SOL    HW210653   3.371   0.712   3.610
 3252SOL     OW10654   3.739   2.143   3.284
 3252SOL    HW110655   3.752   2.173   3.379
 3252SOL    HW210656   3.643   2.120   3.270
 3253SOL     OW10657   5.110   4.307   1.622
 3253SOL    HW110658   5.105   4.254   1.707
 3253SOL    HW210659   5.094   4.403   1.642
 3254SOL     OW10660   6.767   4.646   2.638
 3254SOL    HW110661   6.759   4.668   2.735
 3254SOL    HW210662   6.815   4.720   2.591
 3255SOL     OW10663   3.687   5.198   0.800
 3255SOL    HW110664   3.774   5.238   0.828
 3255SOL    HW210665   3.700   5.100   0.783
 3256SOL     OW10666   6.452   0.257   5.329
 3256SOL    HW110667   6.537   0.309   5.330
 3256SOL    HW210668   6.463   0.173   5.381
 3257SOL     OW10669   2.712   1.168   1.082
 3257SOL    HW110670   2.671   1.145   0.994
 3257SOL    HW210671   2.645   1.154   1.155
 3258SOL     OW10672   5.659   6.498   1.527
 3258SOL    HW110673   5.642   6.597   1.525
 3258SOL    HW210674   5.654   6.462   1.434
 3259SOL     OW10675   5.459   5.873   3.169
 3259SOL    HW110676   5.390   5.904   3.103
 3259SOL    HW210677   5.447   5.776   3.187
 3260SOL     OW10678   2.498   1.493   1.501
 3260SOL    HW110679   2.482   1.463   1.407
 3260SOL    HW210680   2.595   1.515   1.513
 3261SOL     OW10681   4.818   6.748   4.101
 3261SOL    HW110682   4.902   6.695   4.115
 3261SOL    HW210683   4.750   6.690   4.057
 3262SOL     OW10684   4.183   1.637   3.879
 3262SOL    HW110685   4.111   1.673   3.820
 3262SOL    HW210686   4.247   1.582   3.824
 3263SOL     OW10687   3.259   4.931   3.443
 3263SOL    HW110688   3.351   4.915   3.408
 3263SOL    HW210689   3.213   4.999   3.386
 3264SOL     OW10690   5.723   5.070   6.263
 3264SOL    HW110691   5.806   5.039   6.311
 3264SOL    HW210692   5.727   5.170   6.252
 3265SOL     OW10693   5.680   0.060   5.508
 3265SOL    HW110694   5.623   0.084   5.430
 3265SOL    HW210695   5.628   0.002   5.571
 3266SOL     OW10696   1.011   2.809   6.627
 3266SOL    HW110697   1.009   2.726   6.572
 3266SOL    HW210698   1.023   2.784   6.723
 3267SOL     OW10699   5.250   3.876   2.139
 3267SOL    HW110700   5.226   3.822   2.059
 3267SOL    HW210701   5.343   3.914   2.128
 3268SOL     OW10702   1.773   5.509   7.024
 3268SOL    HW110703   1.758   5.554   0.087
 3268SOL    HW210704   1.695   5.525   6.965
 3269SOL     OW10705   4.325   3.697   0.819
 3269SOL    HW110706   4.268   3.755   0.761
 3269SOL    HW210707   4.276   3.674   0.903
 3270SOL     OW10708   6.842   5.385   3.803
 3270SOL    HW110709   6.929   5.392   3.753
 3270SOL    HW210710   6.789   5.469   3.791
 3271SOL     OW10711   4.397   6.641   1.118
 3271SOL    HW110712   4.483   6.688   1.096
 3271SOL    HW210713   4.382   6.643   1.216
 3272SOL     OW10714   4.801   5.640   6.515
 3272SOL    HW110715   4.881   5.690   6.481
 3272SOL    HW210716   4.805   5.633   6.614
 3273SOL     OW10717   0.791   0.398   2.978
 3273SOL    HW110718   0.717   0.333   2.957
 3273SOL    HW210719   0.758   0.491   2.963
 3274SOL     OW10720   2.553   1.267   0.194
 3274SOL    HW110721   2.574   1.172   0.219
 3274SOL    HW210722   2.460   1.272   0.157
 3275SOL     OW10723   4.336   0.607   0.011
 3275SOL    HW110724   4.277   0.532   7.007
 3275SOL    HW210725   4.317   0.630   0.106
 3276SOL     OW10726   1.439   6.213   0.484
 3276SOL    HW110727   1.519   6.260   0.519
 3276SOL    HW210728   1.406   6.148   0.553
 3277SOL     OW10729   0.374   6.501   0.045
 3277SOL    HW110730   0.345   6.586   0.001
 3277SOL    HW210731   0.297   6.437   0.049
 3278SOL     OW10732   1.207   0.309   0.093
 3278SOL    HW110733   1.154   0.259   0.161
 3278SOL    HW210734   1.243   0.246   0.025
 3279SOL     OW10735   2.299   0.094   1.511
 3279SOL    HW110736   2.299   0.058   1.418
 3279SOL    HW210737   2.253   0.183   1.512
 3280SOL     OW10738   2.803   6.325   3.546
 3280SOL    HW110739   2.740   6.257   3.508
 3280SOL    HW210740   2.838   6.294   3.634
 3281SOL     OW10741   1.384   6.487   0.844
 3281SOL    HW110742   1.313   6.492   0.774
 3281SOL    HW210743   1.458   6.550   0.820
 3282SOL     OW10744   2.065   4.972   3.008
 3282SOL    HW110745   2.052   4.884   3.054
 3282SOL    HW210746   2.013   4.974   2.922
 3283SOL     OW10747   1.556   0.496   3.372
 3283SOL    HW110748   1.613   0.537   3.443
 3283SOL    HW210749   1.462   0.489   3.405
 3284SOL     OW10750   1.708   5.391   5.633
 3284SOL    HW110751   1.609   5.405   5.629
 3284SOL    HW210752   1.750   5.463   5.689
 3285SOL     OW10753   0.604   2.531   4.484
 3285SOL    HW110754   0.645   2.557   4.572
 3285SOL    HW210755   0.628   2.600   4.415
 3286SOL     OW10756   4.871   4.434   6.007
 3286SOL    HW110757   4.920   4.521   6.001
 3286SOL    HW210758   4.779   4.450   6.042
 3287SOL     OW10759   0.344   2.829   1.826
 3287SOL    HW110760   0.431   2.860   1.788
 3287SOL    HW210761   0.270   2.850   1.762
 3288SOL     OW10762   0.754   0.114   0.519
 3288SOL    HW110763   0.812   0.053   0.573
 3288SOL    HW210764   0.666   0.068   0.501
 3289SOL     OW10765   1.572   0.278   3.843
 3289SOL    HW110766   1.485   0.292   3.795
 3289SOL    HW210767   1.643   0.256   3.777
 3290SOL     OW10768   0.009   5.009   3.846
 3290SOL    HW110769   0.026   5.043   3.754
 3290SOL    HW210770   0.001   5.086   3.910
 3291SOL     OW10771   1.331   1.730   1.577
 3291SOL    HW110772   1.321   1.795   1.653
 3291SOL    HW210773   1.411   1.672   1.593
 3292SOL     OW10774   0.747   5.964   4.641
 3292SOL    HW110775   0.815   6.037   4.643
 3292SOL    HW210776   0.747   5.916   4.729
 3293SOL     OW10777   5.435   0.446   3.245
 3293SOL    HW110778   5.397   0.537   3.257
 3293SOL    HW210779   5.494   0.444   3.165
 3294SOL     OW10780   6.675   0.209   1.081
 3294SOL    HW110781   6.579   0.203   1.054
 3294SOL    HW210782   6.687   0.171   1.173
 3295SOL     OW10783   2.591   2.663   6.144
 3295SOL    HW110784   2.601   2.758   6.113
 3295SOL    HW210785   2.562   2.606   6.068
 3296SOL     OW10786   1.234   6.658   2.290
 3296SOL    HW110787   1.306   6.595   2.319
 3296SOL    HW210788   1.223   6.730   2.358
 3297SOL     OW10789   3.329   0.945   5.177
 3297SOL    HW110790   3.428   0.962   5.174
 3297SOL    HW210791   3.307   0.866   5.120
 3298SOL     OW10792   0.641   4.641   2.943
 3298SOL    HW110793   0.635   4.736   2.914
 3298SOL    HW210794   0.736   4.610   2.935
 3299SOL     OW10795   1.177   1.303   4.218
 3299SOL    HW110796   1.268   1.324   4.183
 3299SOL    HW210797   1.184   1.239   4.294
 3300SOL     OW10798   0.600   6.758   4.913
 3300SOL    HW110799   0.534   6.799   4.850
 3300SOL    HW210800   0.645   6.830   4.965
 3301SOL     OW10801   6.214   4.379   2.510
 3301SOL    HW110802   6.200   4.303   2.447
 3301SOL    HW210803   6.305   4.418   2.495
 3302SOL     OW10804   1.125   5.813   5.310
 3302SOL    HW110805   1.130   5.912   5.311
 3302SOL    HW210806   1.209   5.775   5.272
 3303SOL     OW10807   3.211   3.764   4.679
 3303SOL    HW110808   3.290   3.805   4.634
 3303SOL    HW210809   3.140   3.833   4.690
 3304SOL     OW10810   1.506   1.205   3.699
 3304SOL    HW110811   1.551   1.170   3.781
 3304SOL    HW210812   1.540   1.156   3.619
 3305SOL     OW10813   0.763   2.695   0.602
 3305SOL    HW110814   0.798   2.717   0.693
 3305SOL    HW210815   0.668   2.667   0.609
 3306SOL     OW10816   1.890   2.032   1.521
 3306SOL    HW110817   1.831   1.991   1.452
 3306SOL    HW210818   1.882   1.982   1.607
 3307SOL     OW10819   0.769   0.170   6.979
 3307SOL    HW110820   0.750   0.084   6.932
 3307SOL    HW210821   0.816   0.232   6.916
 3308SOL     OW10822   4.808   6.249   0.628
 3308SOL    HW110823   4.804   6.269   0.726
 3308SOL    HW210824   4.797   6.334   0.576
 3309SOL     OW10825   1.402   4.575   1.765
 3309SOL    HW110826   1.449   4.555   1.679
 3309SOL    HW210827   1.432   4.664   1.800
 3310SOL     OW10828   2.202   6.731   2.231
 3310SOL    HW110829   2.206   6.815   2.285
 3310SOL    HW210830   2.121   6.731   2.173
 3311SOL     OW10831   4.204   5.250   0.747
 3311SOL    HW110832   4.267   5.245   0.825
 3311SOL    HW210833   4.254   5.281   0.666
 3312SOL     OW10834   1.252   2.480   6.053
 3312SOL    HW110835   1.322   2.462   6.122
 3312SOL    HW210836   1.163   2.489   6.098
 3313SOL     OW10837   5.398   6.459   4.800
 3313SOL    HW110838   5.421   6.372   4.843
 3313SOL    HW210839   5.298   6.468   4.793
 3314SOL     OW10840   0.579   4.124   6.654
 3314SOL    HW110841   0.651   4.194   6.652
 3314SOL    HW210842   0.527   4.128   6.569
 3315SOL     OW10843   6.107   2.789   3.087
 3315SOL    HW110844   6.066   2.828   3.169
 3315SOL    HW210845   6.202   2.818   3.079
 3316SOL     OW10846   4.125   0.528   6.785
 3316SOL    HW110847   4.213   0.537   6.739
 3316SOL    HW210848   4.060   0.482   6.724
 3317SOL     OW10849   4.670   2.683   1.569
 3317SOL    HW110850   4.746   2.620   1.552
 3317SOL    HW210851   4.587   2.649   1.524
 3318SOL     OW10852   2.667   4.954   6.430
 3318SOL    HW110853   2.724   5.036   6.429
 3318SOL    HW210854   2.675   4.909   6.519
 3319SOL     OW10855   0.426   6.265   6.809
 3319SOL    HW110856   0.343   6.220   6.777
 3319SOL    HW210857   0.409   6.363   6.820
 3320SOL     OW10858   0.877   0.663   0.894
 3320SOL    HW110859   0.836   0.745   0.933
 3320SOL    HW210860   0.926   0.612   0.965
 3321SOL     OW10861   3.557   3.638   4.323
 3321SOL    HW110862   3.618   3.636   4.402
 3321SOL    HW210863   3.591   3.575   4.253
 3322SOL     OW10864   4.890   2.937   2.733
 3322SOL    HW110865   4.911   3.021   2.683
 3322SOL    HW210866   4.892   2.955   2.831
 3323SOL     OW10867   1.545   4.293   0.629
 3323SOL    HW110868   1.501   4.234   0.561
 3323SOL    HW210869   1.591   4.369   0.582
 3324SOL     OW10870   6.469   3.239   1.442
 3324SOL    HW110871   6.390   3.200   1.489
 3324SOL    HW210872   6.505   3.173   1.376
 3325SOL     OW10873   0.904   4.446   5.010
 3325SOL    HW110874   0.940   4.433   5.102
 3325SOL    HW210875   0.969   4.409   4.943
 3326SOL     OW10876   5.177   0.125   2.364
 3326SOL    HW110877   5.080   0.102   2.375
 3326SOL    HW210878   5.230   0.086   2.439
 3327SOL     OW10879   4.509   5.929   1.592
 3327SOL    HW110880   4.569   6.008   1.599
 3327SOL    HW210881   4.558   5.846   1.618
 3328SOL     OW10882   6.097   6.461   4.147
 3328SOL    HW110883   6.195   6.471   4.125
 3328SOL    HW210884   6.069   6.536   4.207
 3329SOL     OW10885   5.535   0.598   6.005
 3329SOL    HW110886   5.474   0.519   5.998
 3329SOL    HW210887   5.516   0.646   6.091
 3330SOL     OW10888   6.147   0.300   3.020
 3330SOL    HW110889   6.223   0.361   3.041
 3330SOL    HW210890   6.130   0.240   3.098
 3331SOL     OW10891   0.919   3.428   2.224
 3331SOL    HW110892   0.908   3.523   2.194
 3331SOL    HW210893   1.009   3.417   2.267
 3332SOL     OW10894   4.099   4.988   0.737
 3332SOL    HW110895   4.134   5.082   0.728
 3332SOL    HW210896   3.999   4.991   0.740
 3333SOL     OW10897   2.031   4.304   0.652
 3333SOL    HW110898   1.967   4.380   0.641
 3333SOL    HW210899   1.987   4.231   0.704
 3334SOL     OW10900   1.889   2.830   2.778
 3334SOL    HW110901   1.878   2.929   2.767
 3334SOL    HW210902   1.945   2.811   2.859
 3335SOL     OW10903   4.210   4.278   6.229
 3335SOL    HW110904   4.266   4.195   6.237
 3335SOL    HW210905   4.117   4.253   6.204
 3336SOL     OW10906   3.661   5.861   6.006
 3336SOL    HW110907   3.631   5.797   6.077
 3336SOL    HW210908   3.669   5.953   6.045
 3337SOL     OW10909   2.916   3.648   3.757
 3337SOL    HW110910   2.968   3.568   3.727
 3337SOL    HW210911   2.845   3.619   3.821
 3338SOL     OW10912   2.901   3.297   1.496
 3338SOL    HW110913   2.824   3.328   1.441
 3338SOL    HW210914   2.987   3.324   1.452
 3339SOL     OW10915   1.036   6.618   6.236
 3339SOL    HW110916   1.040   6.523   6.204
 3339SOL    HW210917   1.127   6.647   6.265
 3340SOL     OW10918   4.814   0.967   6.579
 3340SOL    HW110919   4.742   0.914   6.626
 3340SOL    HW210920   4.789   0.978   6.483
 3341SOL     OW10921   1.563   4.627   1.354
 3341SOL    HW110922   1.508   4.702   1.391
 3341SOL    HW210923   1.555   4.547   1.415
 3342SOL     OW10924   6.010   6.931   2.210
 3342SOL    HW110925   5.945   7.001   2.180
 3342SOL    HW210926   6.101   6.972   2.220
 3343SOL     OW10927   3.071   4.963   1.045
 3343SOL    HW110928   3.065   4.889   0.978
 3343SOL    HW210929   2.979   4.993   1.070
 3344SOL     OW10930   1.283   3.220   1.726
 3344SOL    HW110931   1.218   3.226   1.650
 3344SOL    HW210932   1.296   3.124   1.751
 3345SOL     OW10933   5.319   5.323   1.031
 3345SOL    HW110934   5.232   5.274   1.027
 3345SOL    HW210935   5.391   5.261   1.063
 3346SOL     OW10936   1.123   0.985   6.863
 3346SOL    HW110937   1.146   1.001   6.767
 3346SOL    HW210938   1.024   0.976   6.872
 3347SOL     OW10939   0.820   3.966   5.471
 3347SOL    HW110940   0.895   3.911   5.508
 3347SOL    HW210941   0.733   3.919   5.484
 3348SOL     OW10942   3.426   3.726   6.125
 3348SOL    HW110943   3.419   3.684   6.216
 3348SOL    HW210944   3.441   3.824   6.136
 3349SOL     OW10945   1.750   5.595   1.931
 3349SOL    HW110946   1.796   5.587   1.843
 3349SOL    HW210947   1.817   5.584   2.005
 3350SOL     OW10948   2.751   5.597   4.462
 3350SOL    HW110949   2.729   5.564   4.553
 3350SOL    HW210950   2.849   5.582   4.443
 3351SOL     OW10951   5.851   6.873   1.219
 3351SOL    HW110952   5.938   6.917   1.241
 3351SOL    HW210953   5.776   6.920   1.265
 3352SOL     OW10954   5.443   1.354   6.813
 3352SOL    HW110955   5.532   1.394   6.796
 3352SOL    HW210956   5.454   1.266   6.860
 3353SOL     OW10957   4.128   0.412   6.466
 3353SOL    HW110958   4.106   0.507   6.488
 3353SOL    HW210959   4.190   0.375   6.536
 3354SOL     OW10960   2.340   2.375   0.303
 3354SOL    HW110961   2.253   2.330   0.323
 3354SOL    HW210962   2.415   2.322   0.343
 3355SOL     OW10963   1.607   1.453   5.097
 3355SOL    HW110964   1.557   1.434   5.013
 3355SOL    HW210965   1.596   1.550   5.121
 3356SOL     OW10966   3.375   0.701   5.575
 3356SOL    HW110967   3.338   0.609   5.562
 3356SOL    HW210968   3.463   0.695   5.623
 3357SOL     OW10969   3.174   4.001   4.037
 3357SOL    HW110970   3.107   4.021   3.965
 3357SOL    HW210971   3.262   4.041   4.012
 3358SOL     OW10972   0.523   2.154   1.570
 3358SOL    HW110973   0.474   2.068   1.564
 3358SOL    HW210974   0.619   2.137   1.592
 3359SOL     OW10975   1.343   6.922   4.104
 3359SOL    HW110976   1.400   7.001   4.081
 3359SOL    HW210977   1.268   6.952   4.163
 3360SOL     OW10978   1.239   5.341   4.938
 3360SOL    HW110979   1.207   5.434   4.954
 3360SOL    HW210980   1.328   5.328   4.983
 3361SOL     OW10981   0.452   6.915   4.470
 3361SOL    HW110982   0.430   6.847   4.401
 3361SOL    HW210983   0.532   6.968   4.441
 3362SOL     OW10984   3.020   0.740   4.752
 3362SOL    HW110985   3.019   0.823   4.807
 3362SOL    HW210986   3.114   0.720   4.724
 3363SOL     OW10987   4.406   3.457   0.762
 3363SOL    HW110988   4.392   3.453   0.663
 3363SOL    HW210989   4.374   3.546   0.796
 3364SOL     OW10990   1.699   3.266   1.647
 3364SOL    HW110991   1.676   3.363   1.637
 3364SOL    HW210992   1.745   3.235   1.564
 3365SOL     OW10993   0.870   2.789   2.821
 3365SOL    HW110994   0.930   2.827   2.892
 3365SOL    HW210995   0.847   2.694   2.845
 3366SOL     OW10996   6.039   3.611   4.157
 3366SOL    HW110997   5.974   3.673   4.202
 3366SOL    HW210998   5.990   3.530   4.124
 3367SOL     OW10999   3.065   3.888   3.783
 3367SOL    HW111000   3.054   3.946   3.702
 3367SOL    HW211001   3.017   3.801   3.768
 3368SOL     OW11002   2.003   0.833   3.625
 3368SOL    HW111003   2.017   0.836   3.526
 3368SOL    HW211004   1.997   0.926   3.660
 3369SOL     OW11005   5.291   2.809   1.099
 3369SOL    HW111006   5.321   2.794   1.193
 3369SOL    HW211007   5.267   2.905   1.086
 3370SOL     OW11008   0.509   5.516   3.325
 3370SOL    HW111009   0.421   5.563   3.319
 3370SOL    HW211010   0.576   5.575   3.369
 3371SOL     OW11011   2.591   3.011   1.433
 3371SOL    HW111012   2.615   3.068   1.511
 3371SOL    HW211013   2.638   3.043   1.351
 3372SOL     OW11014   5.007   2.782   3.010
 3372SOL    HW111015   4.920   2.775   3.058
 3372SOL    HW211016   5.078   2.733   3.061
 3373SOL     OW11017   0.604   4.797   0.498
 3373SOL    HW111018   0.563   4.755   0.417
 3373SOL    HW211019   0.691   4.753   0.518
 3374SOL     OW11020   1.378   5.639   4.099
 3374SOL    HW111021   1.288   5.618   4.137
 3374SOL    HW211022   1.380   5.734   4.069
 3375SOL     OW11023   0.000   6.509   5.761
 3375SOL    HW111024   6.950   6.567   5.791
 3375SOL    HW211025   0.039   6.546   5.676
 3376SOL     OW11026   3.744   3.819   4.828
 3376SOL    HW111027   3.840   3.794   4.844
 3376SOL    HW211028   3.731   3.916   4.846
 3377SOL     OW11029   0.147   5.341   3.874
 3377SOL    HW111030   0.190   5.274   3.813
 3377SOL    HW211031   0.212   5.414   3.895
 3378SOL     OW11032   1.052   5.731   0.669
 3378SOL    HW111033   1.096   5.739   0.579
 3378SOL    HW211034   1.086   5.803   0.729
 3379SOL     OW11035   5.827   4.606   3.721
 3379SOL    HW111036   5.886   4.669   3.770
 3379SOL    HW211037   5.812   4.524   3.777
 3380SOL     OW11038   1.786   5.025   1.880
 3380SOL    HW111039   1.792   4.935   1.923
 3380SOL    HW211040   1.707   5.075   1.917
 3381SOL     OW11041   2.830   3.988   6.790
 3381SOL    HW111042   2.859   3.900   6.752
 3381SOL    HW211043   2.790   4.044   6.717
 3382SOL     OW11044   0.449   3.896   6.773
 3382SOL    HW111045   0.484   3.986   6.747
 3382SOL    HW211046   0.488   3.870   6.862
 3383SOL     OW11047   3.486   6.057   0.606
 3383SOL    HW111048   3.393   6.077   0.636
 3383SOL    HW211049   3.528   6.140   0.571
 3384SOL     OW11050   3.202   2.746   6.356
 3384SOL    HW111051   3.273   2.817   6.349
 3384SOL    HW211052   3.241   2.664   6.398
 3385SOL     OW11053   5.726   2.750   4.590
 3385SOL    HW111054   5.692   2.664   4.553
 3385SOL    HW211055   5.692   2.826   4.535
 3386SOL     OW11056   0.108   4.954   5.507
 3386SOL    HW111057   0.067   4.966   5.416
 3386SOL    HW211058   0.079   4.866   5.546
 3387SOL     OW11059   5.918   0.448   3.069
 3387SOL    HW111060   6.004   0.401   3.050
 3387SOL    HW211061   5.874   0.405   3.148
 3388SOL     OW11062   0.918   3.701   0.458
 3388SOL    HW111063   0.914   3.791   0.501
 3388SOL    HW211064   0.863   3.636   0.512
 3389SOL     OW11065   6.397   4.946   5.750
 3389SOL    HW111066   6.385   4.870   5.814
 3389SOL    HW211067   6.381   4.913   5.657
 3390SOL     OW11068   2.772   5.153   1.228
 3390SOL    HW111069   2.768   5.170   1.129
 3390SOL    HW211070   2.857   5.190   1.265
 3391SOL     OW11071   5.299   3.992   5.900
 3391SOL    HW111072   5.326   3.896   5.899
 3391SOL    HW211073   5.344   4.040   5.825
 3392SOL     OW11074   5.104   6.185   5.720
 3392SOL    HW111075   5.026   6.145   5.672
 3392SOL    HW211076   5.087   6.182   5.819
 3393SOL     OW11077   3.651   0.297   0.830
 3393SOL    HW111078   3.571   0.244   0.859
 3393SOL    HW211079   3.680   0.357   0.904
 3394SOL     OW11080   2.642   6.324   1.378
 3394SOL    HW111081   2.668   6.325   1.475
 3394SOL    HW211082   2.724   6.320   1.322
 3395SOL     OW11083   1.940   5.944   2.990
 3395SOL    HW111084   1.999   5.896   2.925
 3395SOL    HW211085   1.976   6.036   3.007
 3396SOL     OW11086   3.965   0.754   4.372
 3396SOL    HW111087   3.961   0.800   4.461
 3396SOL    HW211088   4.059   0.754   4.339
 3397SOL     OW11089   2.401   6.204   1.275
 3397SOL    HW111090   2.375   6.227   1.181
 3397SOL    HW211091   2.493   6.238   1.293
 3398SOL     OW11092   6.511   0.825   0.042
 3398SOL    HW111093   6.495   0.791   6.975
 3398SOL    HW211094   6.428   0.869   0.077
 3399SOL     OW11095   0.213   6.332   1.844
 3399SOL    HW111096   0.246   6.415   1.798
 3399SOL    HW211097   0.245   6.332   1.939
 3400SOL     OW11098   3.510   3.133   5.750
 3400SOL    HW111099   3.498   3.066   5.676
 3400SOL    HW211100   3.478   3.093   5.836
 3401SOL     OW11101   6.830   3.559   4.136
 3401SOL    HW111102   6.762   3.626   4.165
 3401SOL    HW211103   6.886   3.532   4.214
 3402SOL     OW11104   5.723   3.637   6.793
 3402SOL    HW111105   5.684   3.724   6.764
 3402SOL    HW211106   5.724   3.632   6.893
 3403SOL     OW11107   5.985   6.856   3.929
 3403SOL    HW111108   5.920   6.904   3.870
 3403SOL    HW211109   5.939   6.779   3.974
 3404SOL     OW11110   5.696   4.950   3.375
 3404SOL    HW111111   5.630   4.876   3.388
 3404SOL    HW211112   5.655   5.036   3.405
 3405SOL     OW11113   4.134   6.572   1.288
 3405SOL    HW111114   4.135   6.531   1.379
 3405SOL    HW211115   4.205   6.530   1.232
 3406SOL     OW11116   4.139   5.051   1.077
 3406SOL    HW111117   4.049   5.013   1.098
 3406SOL    HW211118   4.182   4.997   1.004
 3407SOL     OW11119   1.216   2.441   0.819
 3407SOL    HW111120   1.280   2.421   0.745
 3407SOL    HW211121   1.131   2.476   0.780
 3408SOL     OW11122   3.796   7.003   3.852
 3408SOL    HW111123   3.784   6.909   3.819
 3408SOL    HW211124   3.834   7.001   3.944
 3409SOL     OW11125   4.138   2.127   6.412
 3409SOL    HW111126   4.061   2.072   6.379
 3409SOL    HW211127   4.116   2.224   6.402
 3410SOL     OW11128   6.767   0.621   2.619
 3410SOL    HW111129   6.849   0.678   2.617
 3410SOL    HW211130   6.689   0.676   2.645
 3411SOL     OW11131   5.689   3.324   6.328
 3411SOL    HW111132   5.673   3.341   6.425
 3411SOL    HW211133   5.602   3.321   6.280
 3412SOL     OW11134   4.919   3.209   3.715
 3412SOL    HW111135   5.007   3.210   3.762
 3412SOL    HW211136   4.873   3.297   3.727
 3413SOL     OW11137   1.028   2.259   1.211
 3413SOL    HW111138   1.072   2.343   1.180
 3413SOL    HW211139   0.988   2.274   1.302
 3414SOL     OW11140   3.678   3.056   2.065
 3414SOL    HW111141   3.755   3.113   2.036
 3414SOL    HW211142   3.594   3.111   2.066
 3415SOL     OW11143   2.395   0.878   6.458
 3415SOL    HW111144   2.459   0.947   6.424
 3415SOL    HW211145   2.306   0.889   6.413
 3416SOL     OW11146   5.466   6.707   5.766
 3416SOL    HW111147   5.422   6.696   5.856
 3416SOL    HW211148   5.418   6.777   5.714
 3417SOL     OW11149   5.988   0.877   2.547
 3417SOL    HW111150   5.997   0.976   2.537
 3417SOL    HW211151   6.038   0.847   2.629
 3418SOL     OW11152   4.353   5.207   0.973
 3418SOL    HW111153   4.293   5.163   1.038
 3418SOL    HW211154   4.401   5.283   1.018
 3419SOL     OW11155   3.002   4.797   5.236
 3419SOL    HW111156   2.970   4.706   5.210
 3419SOL    HW211157   3.058   4.836   5.163
 3420SOL     OW11158   4.040   1.358   1.301
 3420SOL    HW111159   4.087   1.313   1.377
 3420SOL    HW211160   4.056   1.457   1.306
 3421SOL     OW11161   0.579   1.161   4.577
 3421SOL    HW111162   0.618   1.179   4.486
 3421SOL    HW211163   0.480   1.146   4.568
 3422SOL     OW11164   3.011   5.575   1.430
 3422SOL    HW111165   2.979   5.543   1.341
 3422SOL    HW211166   2.972   5.519   1.502
 3423SOL     OW11167   1.599   4.431   6.478
 3423SOL    HW111168   1.695   4.407   6.465
 3423SOL    HW211169   1.561   4.375   6.551
 3424SOL     OW11170   5.649   6.608   2.627
 3424SOL    HW111171   5.627   6.599   2.530
 3424SOL    HW211172   5.738   6.652   2.637
 3425SOL     OW11173   5.367   2.798   6.273
 3425SOL    HW111174   5.450   2.743   6.290
 3425SOL    HW211175   5.348   2.854   6.354
 3426SOL     OW11176   6.813   5.504   6.775
 3426SOL    HW111177   6.893   5.536   6.725
 3426SOL    HW211178   6.749   5.580   6.788
 3427SOL     OW11179   1.644   1.660   6.687
 3427SOL    HW111180   1.722   1.700   6.736
 3427SOL    HW211181   1.672   1.574   6.645
 3428SOL     OW11182   4.400   0.502   3.911
 3428SOL    HW111183   4.340   0.427   3.940
 3428SOL    HW211184   4.361   0.588   3.942
 3429SOL     OW11185   4.527   5.592   0.695
 3429SOL    HW111186   4.467   5.652   0.642
 3429SOL    HW211187   4.604   5.644   0.731
 3430SOL     OW11188   2.458   4.557   0.054
 3430SOL    HW111189   2.541   4.532   0.103
 3430SOL    HW211190   2.480   4.575   6.984
 3431SOL     OW11191   1.256   4.525   2.410
 3431SOL    HW111192   1.189   4.457   2.381
 3431SOL    HW211193   1.334   4.480   2.451
 3432SOL     OW11194   0.196   5.286   6.384
 3432SOL    HW111195   0.205   5.235   6.298
 3432SOL    HW211196   0.247   5.239   6.456
 3433SOL     OW11197   0.631   1.334   0.144
 3433SOL    HW111198   0.589   1.257   0.192
 3433SOL    HW211199   0.560   1.394   0.107
 3434SOL     OW11200   4.183   2.288   2.195
 3434SOL    HW111201   4.202   2.220   2.124
 3434SOL    HW211202   4.111   2.350   2.164
 3435SOL     OW11203   2.935   2.970   1.319
 3435SOL    HW111204   2.947   2.871   1.309
 3435SOL    HW211205   2.933   2.993   1.416
 3436SOL     OW11206   4.338   5.650   5.020
 3436SOL    HW111207   4.255   5.608   4.984
 3436SOL    HW211208   4.314   5.729   5.076
 3437SOL     OW11209   1.981   6.514   0.380
 3437SOL    HW111210   1.980   6.560   0.292
 3437SOL    HW211211   1.981   6.583   0.453
 3438SOL     OW11212   2.542   4.422   0.534
 3438SOL    HW111213   2.486   4.456   0.459
 3438SOL    HW211214   2.566   4.327   0.517
 3439SOL     OW11215   3.078   6.147   1.184
 3439SOL    HW111216   3.096   6.064   1.237
 3439SOL    HW211217   3.165   6.189   1.159
 3440SOL     OW11218   4.169   4.298   5.666
 3440SOL    HW111219   4.188   4.266   5.758
 3440SOL    HW211220   4.096   4.242   5.625
 3441SOL     OW11221   0.045   5.146   5.221
 3441SOL    HW111222   0.050   5.238   5.182
 3441SOL    HW211223   0.130   5.097   5.200
 3442SOL     OW11224   0.795   2.061   0.332
 3442SOL    HW111225   0.879   2.105   0.302
 3442SOL    HW211226   0.797   1.964   0.306
 3443SOL     OW11227   0.221   5.874   2.152
 3443SOL    HW111228   0.150   5.853   2.218
 3443SOL    HW211229   0.211   5.815   2.072
 3444SOL     OW11230   0.692   3.846   6.337
 3444SOL    HW111231   0.681   3.752   6.305
 3444SOL    HW211232   0.754   3.895   6.276
 3445SOL     OW11233   6.063   5.447   4.607
 3445SOL    HW111234   6.003   5.510   4.557
 3445SOL    HW211235   6.039   5.353   4.582
 3446SOL     OW11236   5.142   1.776   0.105
 3446SOL    HW111237   5.143   1.813   0.198
 3446SOL    HW211238   5.074   1.824   0.050
 3447SOL     OW11239   5.198   1.732   5.811
 3447SOL    HW111240   5.162   1.672   5.740
 3447SOL    HW211241   5.292   1.706   5.833
 3448SOL     OW11242   0.928   5.425   4.873
 3448SOL    HW111243   1.027   5.437   4.859
 3448SOL    HW211244   0.905   5.451   4.967
 3449SOL     OW11245   1.633   3.838   4.764
 3449SOL    HW111246   1.722   3.847   4.808
 3449SOL    HW211247   1.644   3.837   4.665
 3450SOL     OW11248   2.127   6.992   2.567
 3450SOL    HW111249   2.112   6.944   2.653
 3450SOL    HW211250   2.155   0.061   2.586
 3451SOL     OW11251   1.879   1.713   0.683
 3451SOL    HW111252   1.818   1.779   0.726
 3451SOL    HW211253   1.864   1.714   0.584
 3452SOL     OW11254   4.635   1.029   5.623
 3452SOL    HW111255   4.539   1.009   5.600
 3452SOL    HW211256   4.693   0.956   5.588
 3453SOL     OW11257   4.614   6.175   5.061
 3453SOL    HW111258   4.696   6.175   5.005
 3453SOL    HW211259   4.631   6.225   5.146
 3454SOL     OW11260   0.973   3.027   3.596
 3454SOL    HW111261   0.994   2.949   3.655
 3454SOL    HW211262   0.899   3.081   3.637
 3455SOL     OW11263   1.338   3.785   6.075
 3455SOL    HW111264   1.392   3.703   6.096
 3455SOL    HW211265   1.398   3.864   6.065
 3456SOL     OW11266   4.370   5.085   2.440
 3456SOL    HW111267   4.439   5.132   2.495
 3456SOL    HW211268   4.280   5.126   2.457
 3457SOL     OW11269   3.975   3.936   0.032
 3457SOL    HW111270   3.955   4.014   0.091
 3457SOL    HW211271   3.998   3.857   0.088
 3458SOL     OW11272   4.110   1.672   1.048
 3458SOL    HW111273   4.074   1.595   0.997
 3458SOL    HW211274   4.045   1.698   1.120
 3459SOL     OW11275   6.636   0.420   3.037
 3459SOL    HW111276   6.717   0.363   3.051
 3459SOL    HW211277   6.581   0.382   2.963
 3460SOL     OW11278   4.690   1.441   5.248
 3460SOL    HW111279   4.679   1.518   5.310
 3460SOL    HW211280   4.686   1.355   5.299
 3461SOL     OW11281   4.254   4.746   3.440
 3461SOL    HW111282   4.160   4.733   3.409
 3461SOL    HW211283   4.255   4.777   3.535
 3462SOL     OW11284   0.884   4.707   6.670
 3462SOL    HW111285   0.791   4.702   6.707
 3462SOL    HW211286   0.927   4.792   6.701
 3463SOL     OW11287   5.750   4.506   6.782
 3463SOL    HW111288   5.676   4.523   6.718
 3463SOL    HW211289   5.772   4.589   6.832
 3464SOL     OW11290   6.555   5.140   4.032
 3464SOL    HW111291   6.620   5.185   4.093
 3464SOL    HW211292   6.557   5.183   3.943
 3465SOL     OW11293   0.876   2.476   1.649
 3465SOL    HW111294   0.878   2.566   1.694
 3465SOL    HW211295   0.783   2.458   1.616
 3466SOL     OW11296   5.847   3.755   3.449
 3466SOL    HW111297   5.887   3.846   3.462
 3466SOL    HW211298   5.883   3.714   3.366
 3467SOL     OW11299   2.041   1.775   5.491
 3467SOL    HW111300   2.094   1.737   5.415
 3467SOL    HW211301   2.066   1.727   5.575
 3468SOL     OW11302   4.972   5.228   1.599
 3468SOL    HW111303   5.052   5.168   1.590
 3468SOL    HW211304   4.999   5.312   1.646
 3469SOL     OW11305   5.371   3.633   0.096
 3469SOL    HW111306   5.402   3.725   0.073
 3469SOL    HW211307   5.320   3.635   0.182
 3470SOL     OW11308   6.424   5.610   0.050
 3470SOL    HW111309   6.369   5.583   6.996
 3470SOL    HW211310   6.451   5.528   0.101
 3471SOL     OW11311   4.772   6.519   4.562
 3471SOL    HW111312   4.835   6.561   4.497
 3471SOL    HW211313   4.810   6.524   4.654
 3472SOL     OW11314   3.813   0.336   4.511
 3472SOL    HW111315   3.735   0.285   4.474
 3472SOL    HW211316   3.869   0.276   4.566
 3473SOL     OW11317   4.577   6.624   4.039
 3473SOL    HW111318   4.533   6.563   4.104
 3473SOL    HW211319   4.590   6.576   3.952
 3474SOL     OW11320   4.741   4.454   0.236
 3474SOL    HW111321   4.679   4.398   0.182
 3474SOL    HW211322   4.829   4.461   0.189
 3475SOL     OW11323   1.447   5.421   5.585
 3475SOL    HW111324   1.385   5.374   5.647
 3475SOL    HW211325   1.443   5.520   5.602
 3476SOL     OW11326   3.616   1.795   3.504
 3476SOL    HW111327   3.685   1.725   3.489
 3476SOL    HW211328   3.547   1.790   3.431
 3477SOL     OW11329   4.562   5.515   2.530
 3477SOL    HW111330   4.539   5.426   2.570
 3477SOL    HW211331   4.522   5.521   2.438
 3478SOL     OW11332   3.753   4.539   0.322
 3478SOL    HW111333   3.684   4.497   0.263
 3478SOL    HW211334   3.729   4.524   0.418
 3479SOL     OW11335   2.102   0.779   0.166
 3479SOL    HW111336   2.141   0.693   0.199
 3479SOL    HW211337   2.012   0.793   0.207
 3480SOL     OW11338   1.322   6.556   4.476
 3480SOL    HW111339   1.402   6.514   4.434
 3480SOL    HW211340   1.330   6.655   4.472
 3481SOL     OW11341   2.178   5.060   0.266
 3481SOL    HW111342   2.212   5.133   0.325
 3481SOL    HW211343   2.146   5.098   0.180
 3482SOL     OW11344   0.341   2.179   1.815
 3482SOL    HW111345   0.416   2.190   1.881
 3482SOL    HW211346   0.371   2.212   1.725
 3483SOL     OW11347   3.636   1.206   1.140
 3483SOL    HW111348   3.712   1.183   1.080
 3483SOL    HW211349   3.553   1.221   1.085
 3484SOL     OW11350   3.645   4.141   3.230
 3484SOL    HW111351   3.682   4.222   3.276
 3484SOL    HW211352   3.694   4.059   3.262
 3485SOL     OW11353   5.876   2.263   3.991
 3485SOL    HW111354   5.884   2.169   3.958
 3485SOL    HW211355   5.967   2.301   4.007
 3486SOL     OW11356   6.518   1.271   3.036
 3486SOL    HW111357   6.477   1.183   3.012
 3486SOL    HW211358   6.447   1.333   3.068
 3487SOL     OW11359   1.247   0.365   1.019
 3487SOL    HW111360   1.327   0.331   1.069
 3487SOL    HW211361   1.277   0.428   0.947
 3488SOL     OW11362   6.394   3.691   5.059
 3488SOL    HW111363   6.446   3.747   5.124
 3488SOL    HW211364   6.402   3.729   4.967
 3489SOL     OW11365   3.063   5.459   6.928
 3489SOL    HW111366   3.144   5.512   6.952
 3489SOL    HW211367   2.989   5.521   6.900
 3490SOL     OW11368   5.011   3.685   0.264
 3490SOL    HW111369   5.102   3.718   0.291
 3490SOL    HW211370   5.000   3.591   0.295
 3491SOL     OW11371   6.021   2.565   4.849
 3491SOL    HW111372   5.954   2.507   4.804
 3491SOL    HW211373   6.111   2.553   4.807
 3492SOL     OW11374   7.000   4.416   6.573
 3492SOL    HW111375   0.064   4.458   6.563
 3492SOL    HW211376   7.011   4.319   6.598
 3493SOL     OW11377   6.632   4.851   1.021
 3493SOL    HW111378   6.584   4.797   0.952
 3493SOL    HW211379   6.723   4.813   1.036
 3494SOL     OW11380   3.626   0.004   1.081
 3494SOL    HW111381   3.723   7.015   1.058
 3494SOL    HW211382   3.586   6.943   1.111
 3495SOL     OW11383   5.993   4.604   6.314
 3495SOL    HW111384   5.900   4.575   6.337
 3495SOL    HW211385   6.024   4.672   6.380
 3496SOL     OW11386   0.313   5.879   0.957
 3496SOL    HW111387   0.316   5.945   1.032
 3496SOL    HW211388   0.406   5.851   0.933
 3497SOL     OW11389   2.795   0.064   5.316
 3497SOL    HW111390   2.826   7.012   5.262
 3497SOL    HW211391   2.732   0.033   5.387
 3498SOL     OW11392   0.829   1.805   0.299
 3498SOL    HW111393   0.863   1.802   0.393
 3498SOL    HW211394   0.906   1.815   0.237
 3499SOL     OW11395   6.298   4.046   3.310
 3499SOL    HW111396   6.241   3.964   3.315
 3499SOL    HW211397   6.295   4.084   3.218
 3500SOL     OW11398   6.422   2.858   0.882
 3500SOL    HW111399   6.479   2.833   0.960
 3500SOL    HW211400   6.422   2.958   0.872
 3501SOL     OW11401   0.041   4.973   3.356
 3501SOL    HW111402   6.979   4.965   3.309
 3501SOL    HW211403   0.110   5.010   3.294
 3502SOL     OW11404   1.115   6.088   1.221
 3502SOL    HW111405   1.100   5.989   1.213
 3502SOL    HW211406   1.212   6.108   1.214
 3503SOL     OW11407   3.321   0.220   3.467
 3503SOL    HW111408   3.349   0.201   3.373
 3503SOL    HW211409   3.401   0.214   3.527
 3504SOL     OW11410   2.193   3.017   3.018
 3504SOL    HW111411   2.243   2.930   3.014
 3504SOL    HW211412   2.185   3.054   2.925
 3505SOL     OW11413   4.505   6.570   4.665
 3505SOL    HW111414   4.602   6.556   4.647
 3505SOL    HW211415   4.476   6.510   4.739
 3506SOL     OW11416   6.817   4.147   2.682
 3506SOL    HW111417   6.795   4.241   2.657
 3506SOL    HW211418   6.917   4.136   2.686
 3507SOL     OW11419   6.696   0.386   5.321
 3507SOL    HW111420   6.758   0.459   5.292
 3507SOL    HW211421   6.632   0.420   5.390
 3508SOL     OW11422   6.960   4.542   0.187
 3508SOL    HW111423   0.024   4.502   0.207
 3508SOL    HW211424   6.973   4.633   0.147
 3509SOL     OW11425   4.956   6.879   6.667
 3509SOL    HW111426   5.047   6.897   6.631
 3509SOL    HW211427   4.931   6.951   6.732
 3510SOL     OW11428   2.325   1.147   2.422
 3510SOL    HW111429   2.242   1.155   2.367
 3510SOL    HW211430   2.305   1.171   2.517
 3511SOL     OW11431   0.918   0.812   4.069
 3511SOL    HW111432   0.975   0.883   4.028
 3511SOL    HW211433   0.834   0.854   4.105
 3512SOL     OW11434   3.546   3.385   1.833
 3512SOL    HW111435   3.612   3.375   1.758
 3512SOL    HW211436   3.543   3.481   1.862
 3513SOL     OW11437   6.536   4.454   1.131
 3513SOL    HW111438   6.447   4.493   1.105
 3513SOL    HW211439   6.568   4.497   1.215
 3514SOL     OW11440   3.416   5.915   3.399
 3514SOL    HW111441   3.343   5.878   3.342
 3514SOL    HW211442   3.424   5.860   3.482
 3515SOL     OW11443   3.773   5.617   3.375
 3515SOL    HW111444   3.744   5.659   3.461
 3515SOL    HW211445   3.698   5.562   3.338
 3516SOL     OW11446   1.037   1.217   0.393
 3516SOL    HW111447   1.072   1.293   0.448
 3516SOL    HW211448   1.000   1.251   0.307
 3517SOL     OW11449   0.323   0.589   0.090
 3517SOL    HW111450   0.362   0.568   0.001
 3517SOL    HW211451   0.395   0.582   0.160
 3518SOL     OW11452   4.219   3.705   6.105
 3518SOL    HW111453   4.210   3.691   6.204
 3518SOL    HW211454   4.303   3.757   6.086
 3519SOL     OW11455   4.058   0.300   0.165
 3519SOL    HW111456   4.057   0.316   0.264
 3519SOL    HW211457   3.986   0.235   0.141
 3520SOL     OW11458   3.883   4.807   1.460
 3520SOL    HW111459   3.804   4.862   1.433
 3520SOL    HW211460   3.950   4.864   1.507
 3521SOL     OW11461   6.919   2.133   5.726
 3521SOL    HW111462   6.829   2.168   5.749
 3521SOL    HW211463   6.910   2.057   5.662
 3522SOL     OW11464   1.892   0.183   0.941
 3522SOL    HW111465   1.900   0.178   0.841
 3522SOL    HW211466   1.822   0.251   0.965
 3523SOL     OW11467   2.447   4.277   5.242
 3523SOL    HW111468   2.414   4.288   5.336
 3523SOL    HW211469   2.480   4.183   5.229
 3524SOL     OW11470   2.860   1.771   3.484
 3524SOL    HW111471   2.807   1.700   3.438
 3524SOL    HW211472   2.818   1.793   3.572
 3525SOL     OW11473   1.377   2.945   3.417
 3525SOL    HW111474   1.443   2.904   3.353
 3525SOL    HW211475   1.297   2.886   3.425
 3526SOL     OW11476   3.415   6.106   3.636
 3526SOL    HW111477   3.444   6.025   3.585
 3526SOL    HW211478   3.367   6.169   3.574
 3527SOL     OW11479   6.822   4.115   6.408
 3527SOL    HW111480   6.889   4.124   6.334
 3527SOL    HW211481   6.869   4.116   6.496
 3528SOL     OW11482   0.854   6.895   4.421
 3528SOL    HW111483   0.837   6.839   4.340
 3528SOL    HW211484   0.906   6.976   4.395
 3529SOL     OW11485   3.478   5.632   0.480
 3529SOL    HW111486   3.496   5.548   0.529
 3529SOL    HW211487   3.463   5.612   0.383
 3530SOL     OW11488   2.126   5.586   2.788
 3530SOL    HW111489   2.041   5.556   2.744
 3530SOL    HW211490   2.203   5.533   2.751
 3531SOL     OW11491   5.139   4.589   6.793
 3531SOL    HW111492   5.187   4.599   6.706
 3531SOL    HW211493   5.084   4.671   6.810
 3532SOL     OW11494   2.307   6.530   0.340
 3532SOL    HW111495   2.232   6.521   0.405
 3532SOL    HW211496   2.326   6.627   0.324
 3533SOL     OW11497   1.191   0.962   3.223
 3533SOL    HW111498   1.151   0.973   3.313
 3533SOL    HW211499   1.213   1.052   3.185
 3534SOL     OW11500   5.086   6.818   3.814
 3534SOL    HW111501   5.017   6.759   3.855
 3534SOL    HW211502   5.153   6.845   3.884
 3535SOL     OW11503   4.793   5.167   0.231
 3535SOL    HW111504   4.781   5.231   0.155
 3535SOL    HW211505   4.833   5.215   0.309
 3536SOL     OW11506   1.789   3.711   2.388
 3536SOL    HW111507   1.771   3.803   2.422
 3536SOL    HW211508   1.781   3.709   2.289
 3537SOL     OW11509   3.166   4.969   2.144
 3537SOL    HW111510   3.082   4.917   2.133
 3537SOL    HW211511   3.227   4.921   2.208
 3538SOL     OW11512   3.358   0.185   3.201
 3538SOL    HW111513   3.357   0.265   3.140
 3538SOL    HW211514   3.283   0.124   3.176
 3539SOL     OW11515   4.991   5.335   5.106
 3539SOL    HW111516   5.005   5.269   5.178
 3539SOL    HW211517   5.011   5.427   5.140
 3540SOL     OW11518   4.380   4.278   6.647
 3540SOL    HW111519   4.455   4.279   6.713
 3540SOL    HW211520   4.380   4.363   6.594
 3541SOL     OW11521   0.586   2.959   2.444
 3541SOL    HW111522   0.535   3.031   2.492
 3541SOL    HW211523   0.678   2.952   2.484
 3542SOL     OW11524   5.630   1.626   7.006
 3542SOL    HW111525   5.615   1.667   6.916
 3542SOL    HW211526   5.569   1.669   0.047
 3543SOL     OW11527   0.296   3.034   4.535
 3543SOL    HW111528   0.358   3.112   4.542
 3543SOL    HW211529   0.302   2.995   4.443
 3544SOL     OW11530   3.412   4.886   5.728
 3544SOL    HW111531   3.396   4.847   5.819
 3544SOL    HW211532   3.458   4.819   5.670
 3545SOL     OW11533   2.694   6.986   0.876
 3545SOL    HW111534   2.641   7.006   0.958
 3545SOL    HW211535   2.729   6.892   0.881
 3546SOL     OW11536   6.975   4.854   0.724
 3546SOL    HW111537   0.049   4.854   0.739
 3546SOL    HW211538   6.938   4.765   0.750
 3547SOL     OW11539   1.595   4.168   4.482
 3547SOL    HW111540   1.498   4.169   4.506
 3547SOL    HW211541   1.634   4.078   4.503
 3548SOL     OW11542   6.479   0.330   5.736
 3548SOL    HW111543   6.509   0.359   5.826
 3548SOL    HW211544   6.503   0.400   5.668
 3549SOL     OW11545   1.911   6.977   6.515
 3549SOL    HW111546   1.815   6.956   6.496
 3549SOL    HW211547   1.932   6.954   6.611
 3550SOL     OW11548   6.199   2.190   5.416
 3550SOL    HW111549   6.184   2.155   5.323
 3550SOL    HW211550   6.118   2.173   5.471
 3551SOL     OW11551   6.303   0.916   4.829
 3551SOL    HW111552   6.319   1.009   4.861
 3551SOL    HW211553   6.266   0.861   4.904
 3552SOL     OW11554   6.539   1.234   3.434
 3552SOL    HW111555   6.632   1.252   3.467
 3552SOL    HW211556   6.507   1.147   3.470
 3553SOL     OW11557   5.277   6.359   6.150
 3553SOL    HW111558   5.300   6.271   6.108
 3553SOL    HW211559   5.305   6.358   6.246
 3554SOL     OW11560   5.419   3.974   6.522
 3554SOL    HW111561   5.509   3.954   6.484
 3554SOL    HW211562   5.363   3.892   6.521
 3555SOL     OW11563   3.162   0.850   5.415
 3555SOL    HW111564   3.209   0.771   5.377
 3555SOL    HW211565   3.216   0.933   5.397
 3556SOL     OW11566   5.622   1.651   0.794
 3556SOL    HW111567   5.656   1.677   0.885
 3556SOL    HW211568   5.603   1.733   0.741
 3557SOL     OW11569   4.852   6.942   1.290
 3557SOL    HW111570   4.911   6.996   1.351
 3557SOL    HW211571   4.846   6.848   1.324
 3558SOL     OW11572   3.806   5.647   2.492
 3558SOL    HW111573   3.813   5.619   2.396
 3558SOL    HW211574   3.898   5.653   2.531
 3559SOL     OW11575   4.216   6.271   6.487
 3559SOL    HW111576   4.120   6.300   6.487
 3559SOL    HW211577   4.221   6.171   6.494
 3560SOL     OW11578   2.341   6.004   4.488
 3560SOL    HW111579   2.399   6.045   4.558
 3560SOL    HW211580   2.338   5.905   4.500
 3561SOL     OW11581   3.825   2.770   5.916
 3561SOL    HW111582   3.893   2.696   5.920
 3561SOL    HW211583   3.872   2.857   5.902
 3562SOL     OW11584   2.855   0.804   0.333
 3562SOL    HW111585   2.809   0.729   0.380
 3562SOL    HW211586   2.917   0.768   0.264
 3563SOL     OW11587   6.931   2.312   6.723
 3563SOL    HW111588   6.886   2.226   6.699
 3563SOL    HW211589   7.007   2.328   6.661
 3564SOL     OW11590   6.139   3.114   3.225
 3564SOL    HW111591   6.088   3.120   3.139
 3564SOL    HW211592   6.107   3.036   3.278
 3565SOL     OW11593   5.101   0.141   4.746
 3565SOL    HW111594   5.124   0.197   4.825
 3565SOL    HW211595   5.028   0.077   4.772
 3566SOL     OW11596   0.675   1.246   5.042
 3566SOL    HW111597   0.587   1.201   5.058
 3566SOL    HW211598   0.680   1.276   4.947
 3567SOL     OW11599   0.485   4.451   6.457
 3567SOL    HW111600   0.457   4.421   6.548
 3567SOL    HW211601   0.470   4.550   6.448
 3568SOL     OW11602   3.647   4.122   5.521
 3568SOL    HW111603   3.665   4.170   5.607
 3568SOL    HW211604   3.549   4.129   5.500
 3569SOL     OW11605   1.169   0.556   3.185
 3569SOL    HW111606   1.075   0.591   3.181
 3569SOL    HW211607   1.233   0.629   3.163
 3570SOL     OW11608   0.426   1.890   4.612
 3570SOL    HW111609   0.512   1.918   4.655
 3570SOL    HW211610   0.350   1.936   4.658
 3571SOL     OW11611   6.471   5.189   5.187
 3571SOL    HW111612   6.433   5.119   5.126
 3571SOL    HW211613   6.397   5.243   5.225
 3572SOL     OW11614   5.844   6.187   5.547
 3572SOL    HW111615   5.747   6.198   5.572
 3572SOL    HW211616   5.898   6.180   5.631
 3573SOL     OW11617   0.710   2.715   2.050
 3573SOL    HW111618   0.673   2.742   2.138
 3573SOL    HW211619   0.670   2.628   2.022
 3574SOL     OW11620   6.964   3.523   0.230
 3574SOL    HW111621   6.928   3.487   0.144
 3574SOL    HW211622   6.964   3.623   0.227
 3575SOL     OW11623   6.364   0.562   2.811
 3575SOL    HW111624   6.425   0.613   2.750
 3575SOL    HW211625   6.269   0.580   2.786
 3576SOL     OW11626   0.625   1.140   0.613
 3576SOL    HW111627   0.625   1.141   0.513
 3576SOL    HW211628   0.541   1.183   0.646
 3577SOL     OW11629   2.331   4.830   0.321
 3577SOL    HW111630   2.273   4.905   0.287
 3577SOL    HW211631   2.382   4.862   0.401
 3578SOL     OW11632   3.413   4.718   1.636
 3578SOL    HW111633   3.454   4.663   1.709
 3578SOL    HW211634   3.405   4.813   1.667
 3579SOL     OW11635   2.052   2.875   6.201
 3579SOL    HW111636   1.975   2.935   6.180
 3579SOL    HW211637   2.110   2.865   6.120
 3580SOL     OW11638   5.996   1.633   1.600
 3580SOL    HW111639   5.987   1.712   1.540
 3580SOL    HW211640   6.008   1.664   1.695
 3581SOL     OW11641   0.006   0.957   3.043
 3581SOL    HW111642   0.024   0.939   3.140
 3581SOL    HW211643   0.062   0.896   2.987
 3582SOL     OW11644   0.364   0.605   5.852
 3582SOL    HW111645   0.327   0.513   5.863
 3582SOL    HW211646   0.463   0.601   5.847
 3583SOL     OW11647   1.489   6.846   1.736
 3583SOL    HW111648   1.538   6.766   1.702
 3583SOL    HW211649   1.541   6.929   1.714
 3584SOL     OW11650   5.166   0.443   4.384
 3584SOL    HW111651   5.142   0.414   4.291
 3584SOL    HW211652   5.248   0.395   4.413
 3585SOL     OW11653   2.679   4.689   3.737
 3585SOL    HW111654   2.677   4.605   3.792
 3585SOL    HW211655   2.624   4.759   3.781
 3586SOL     OW11656   1.019   1.241   6.937
 3586SOL    HW111657   1.077   1.163   6.913
 3586SOL    HW211658   1.074   1.325   6.934
 3587SOL     OW11659   3.726   6.900   5.930
 3587SOL    HW111660   3.671   6.817   5.935
 3587SOL    HW211661   3.793   6.902   6.004
 3588SOL     OW11662   2.653   2.502   5.620
 3588SOL    HW111663   2.742   2.485   5.577
 3588SOL    HW211664   2.581   2.458   5.566
 3589SOL     OW11665   2.938   6.606   4.755
 3589SOL    HW111666   3.036   6.617   4.739
 3589SOL    HW211667   2.923   6.590   4.852
 3590SOL     OW11668   1.010   5.375   0.062
 3590SOL    HW111669   1.032   5.401   0.156
 3590SOL    HW211670   1.043   5.282   0.044
 3591SOL     OW11671   5.198   1.244   5.478
 3591SOL    HW111672   5.296   1.247   5.496
 3591SOL    HW211673   5.173   1.155   5.441
 3592SOL     OW11674   5.636   1.663   1.773
 3592SOL    HW111675   5.542   1.630   1.767
 3592SOL    HW211676   5.682   1.621   1.851
 3593SOL     OW11677   1.121   5.588   4.187
 3593SOL    HW111678   1.082   5.497   4.206
 3593SOL    HW211679   1.086   5.653   4.254
 3594SOL     OW11680   4.172   1.310   4.288
 3594SOL    HW111681   4.193   1.213   4.284
 3594SOL    HW211682   4.220   1.357   4.213
 3595SOL     OW11683   2.476   6.253   6.366
 3595SOL    HW111684   2.494   6.158   6.339
 3595SOL    HW211685   2.378   6.273   6.355
 3596SOL     OW11686   6.936   3.535   3.102
 3596SOL    HW111687   6.840   3.508   3.089
 3596SOL    HW211688   6.976   3.479   3.175
 3597SOL     OW11689   4.087   0.330   4.217
 3597SOL    HW111690   4.116   0.289   4.304
 3597SOL    HW211691   4.164   0.332   4.154
 3598SOL     OW11692   2.232   0.585   0.318
 3598SOL    HW111693   2.319   0.618   0.282
 3598SOL    HW211694   2.223   0.487   0.298
 3599SOL     OW11695   0.300   2.068   4.839
 3599SOL    HW111696   0.314   1.970   4.834
 3599SOL    HW211697   0.248   2.090   4.922
 3600SOL     OW11698   6.369   6.575   1.341
 3600SOL    HW111699   6.340   6.496   1.395
 3600SOL    HW211700   6.304   6.650   1.354
 3601SOL     OW11701   6.783   3.383   5.739
 3601SOL    HW111702   6.848   3.457   5.725
 3601SOL    HW211703   6.785   3.355   5.835
 3602SOL     OW11704   3.199   2.496   1.286
 3602SOL    HW111705   3.136   2.465   1.358
 3602SOL    HW211706   3.289   2.455   1.300
 3603SOL     OW11707   3.961   5.014   4.393
 3603SOL    HW111708   4.009   4.926   4.386
 3603SOL    HW211709   3.898   5.011   4.471
 3604SOL     OW11710   6.234   4.260   3.006
 3604SOL    HW111711   6.273   4.331   3.065
 3604SOL    HW211712   6.278   4.172   3.025
 3605SOL     OW11713   5.857   1.579   6.216
 3605SOL    HW111714   5.815   1.539   6.297
 3605SOL    HW211715   5.886   1.506   6.153
 3606SOL     OW11716   2.098   4.337   2.926
 3606SOL    HW111717   2.119   4.349   2.829
 3606SOL    HW211718   2.172   4.377   2.981
 3607SOL     OW11719   4.466   0.041   5.493
 3607SOL    HW111720   4.414   0.031   5.578
 3607SOL    HW211721   4.464   6.981   5.443
 3608SOL     OW11722   0.308   2.862   3.512
 3608SOL    HW111723   0.232   2.880   3.574
 3608SOL    HW211724   0.388   2.915   3.541
 3609SOL     OW11725   6.861   0.878   3.561
 3609SOL    HW111726   6.953   0.878   3.599
 3609SOL    HW211727   6.865   0.899   3.463
 3610SOL     OW11728   1.726   4.958   5.758
 3610SOL    HW111729   1.702   5.006   5.842
 3610SOL    HW211730   1.794   5.011   5.708
 3611SOL     OW11731   5.052   5.255   5.351
 3611SOL    HW111732   5.149   5.269   5.374
 3611SOL    HW211733   4.996   5.280   5.430
 3612SOL     OW11734   1.686   5.892   0.708
 3612SOL    HW111735   1.592   5.873   0.678
 3612SOL    HW211736   1.751   5.848   0.646
 3613SOL     OW11737   5.355   4.997   5.924
 3613SOL    HW111738   5.441   5.004   5.974
 3613SOL    HW211739   5.283   4.963   5.985
 3614SOL     OW11740   3.246   3.048   4.363
 3614SOL    HW111741   3.181   3.004   4.424
 3614SOL    HW211742   3.204   3.060   4.272
 3615SOL     OW11743   5.734   6.771   5.824
 3615SOL    HW111744   5.657   6.722   5.783
 3615SOL    HW211745   5.702   6.859   5.859
 3616SOL     OW11746   6.255   1.110   4.508
 3616SOL    HW111747   6.317   1.153   4.572
 3616SOL    HW211748   6.205   1.037   4.554
 3617SOL     OW11749   0.052   0.645   0.612
 3617SOL    HW111750   0.129   0.640   0.676
 3617SOL    HW211751   0.084   0.679   0.524
 3618SOL     OW11752   3.686   6.078   6.255
 3618SOL    HW111753   3.641   6.159   6.215
 3618SOL    HW211754   3.617   6.021   6.300
 3619SOL     OW11755   5.222   3.741   3.546
 3619SOL    HW111756   5.126   3.752   3.521
 3619SOL    HW211757   5.228   3.681   3.626
 3620SOL     OW11758   6.131   1.765   4.831
 3620SOL    HW111759   6.056   1.699   4.825
 3620SOL    HW211760   6.143   1.794   4.926
 3621SOL     OW11761   1.306   2.687   5.911
 3621SOL    HW111762   1.386   2.718   5.962
 3621SOL    HW211763   1.288   2.591   5.932
 3622SOL     OW11764   0.568   3.980   1.112
 3622SOL    HW111765   0.623   3.898   1.124
 3622SOL    HW211766   0.480   3.956   1.071
 3623SOL     OW11767   6.377   4.907   4.663
 3623SOL    HW111768   6.333   4.830   4.617
 3623SOL    HW211769   6.469   4.881   4.691
 3624SOL     OW11770   1.821   0.461   1.434
 3624SOL    HW111771   1.844   0.497   1.343
 3624SOL    HW211772   1.864   0.372   1.447
 3625SOL     OW11773   1.308   2.530   4.466
 3625SOL    HW111774   1.304   2.630   4.468
 3625SOL    HW211775   1.287   2.495   4.557
 3626SOL     OW11776   2.335   3.592   5.594
 3626SOL    HW111777   2.250   3.637   5.621
 3626SOL    HW211778   2.382   3.646   5.525
 3627SOL     OW11779   3.455   3.149   4.063
 3627SOL    HW111780   3.448   3.224   4.129
 3627SOL    HW211781   3.508   3.179   3.984
 3628SOL     OW11782   2.552   6.203   4.168
 3628SOL    HW111783   2.563   6.241   4.260
 3628SOL    HW211784   2.571   6.105   4.169
 3629SOL     OW11785   5.553   3.359   4.721
 3629SOL    HW111786   5.535   3.424   4.795
 3629SOL    HW211787   5.620   3.291   4.753
 3630SOL     OW11788   5.775   1.586   5.034
 3630SOL    HW111789   5.767   1.664   5.096
 3630SOL    HW211790   5.823   1.511   5.080
 3631SOL     OW11791   1.976   1.038   4.201
 3631SOL    HW111792   1.945   1.050   4.107
 3631SOL    HW211793   1.921   0.967   4.246
 3632SOL     OW11794   4.986   7.019   6.241
 3632SOL    HW111795   4.987   0.041   6.153
 3632SOL    HW211796   5.079   6.992   6.265
 3633SOL     OW11797   0.858   2.708   5.724
 3633SOL    HW111798   0.776   2.764   5.734
 3633SOL    HW211799   0.900   2.694   5.813
 3634SOL     OW11800   2.942   5.104   6.025
 3634SOL    HW111801   2.866   5.052   6.062
 3634SOL    HW211802   3.022   5.044   6.014
 3635SOL     OW11803   2.338   1.524   4.628
 3635SOL    HW111804   2.321   1.616   4.663
 3635SOL    HW211805   2.418   1.525   4.568
 3636SOL     OW11806   1.255   6.415   1.421
 3636SOL    HW111807   1.253   6.380   1.515
 3636SOL    HW211808   1.175   6.473   1.406
 3637SOL     OW11809   4.738   0.905   2.115
 3637SOL    HW111810   4.763   0.956   2.197
 3637SOL    HW211811   4.803   0.830   2.101
 3638SOL     OW11812   6.543   5.147   3.508
 3638SOL    HW111813   6.501   5.058   3.496
 3638SOL    HW211814   6.614   5.160   3.438
 3639SOL     OW11815   2.840   6.441   0.022
 3639SOL    HW111816   2.904   6.479   0.089
 3639SOL    HW211817   2.855   6.486   6.959
 3640SOL     OW11818   2.263   6.837   1.814
 3640SOL    HW111819   2.234   6.916   1.869
 3640SOL    HW211820   2.301   6.767   1.873
 3641SOL     OW11821   1.875   1.220   5.086
 3641SOL    HW111822   1.853   1.255   5.177
 3641SOL    HW211823   1.806   1.152   5.059
 3642SOL     OW11824   6.017   6.919   2.519
 3642SOL    HW111825   6.019   6.972   2.434
 3642SOL    HW211826   5.969   6.971   2.590
 3643SOL     OW11827   4.083   6.385   4.539
 3643SOL    HW111828   4.170   6.335   4.538
 3643SOL    HW211829   4.027   6.355   4.616
 3644SOL     OW11830   6.473   6.922   1.901
 3644SOL    HW111831   6.397   6.985   1.913
 3644SOL    HW211832   6.475   6.888   1.807
 3645SOL     OW11833   4.327   5.835   3.359
 3645SOL    HW111834   4.341   5.933   3.367
 3645SOL    HW211835   4.229   5.815   3.354
 3646SOL     OW11836   0.377   5.321   4.773
 3646SOL    HW111837   0.353   5.282   4.684
 3646SOL    HW211838   0.364   5.420   4.771
 3647SOL     OW11839   2.890   3.346   0.863
 3647SOL    HW111840   2.792   3.341   0.849
 3647SOL    HW211841   2.917   3.441   0.876
 3648SOL     OW11842   3.048   6.769   3.120
 3648SOL    HW111843   2.994   6.833   3.175
 3648SOL    HW211844   3.141   6.803   3.110
 3649SOL     OW11845   3.201   3.138   2.041
 3649SOL    HW111846   3.181   3.104   1.949
 3649SOL    HW211847   3.119   3.177   2.081
 3650SOL     OW11848   5.704   6.431   1.251
 3650SOL    HW111849   5.778   6.460   1.191
 3650SOL    HW211850   5.617   6.437   1.203
 3651SOL     OW11851   1.972   6.238   2.267
 3651SOL    HW111852   1.984   6.330   2.229
 3651SOL    HW211853   1.907   6.241   2.343
 3652SOL     OW11854   4.602   5.735   2.707
 3652SOL    HW111855   4.604   5.710   2.804
 3652SOL    HW211856   4.595   5.653   2.651
 3653SOL     OW11857   6.780   3.048   4.214
 3653SOL    HW111858   6.870   3.018   4.181
 3653SOL    HW211859   6.771   3.146   4.199
 3654SOL     OW11860   2.270   0.023   1.993
 3654SOL    HW111861   2.182   0.035   2.038
 3654SOL    HW211862   2.339   7.020   2.060
 3655SOL     OW11863   6.641   1.247   3.762
 3655SOL    HW111864   6.725   1.267   3.711
 3655SOL    HW211865   6.657   1.260   3.860
 3656SOL     OW11866   2.308   1.984   2.978
 3656SOL    HW111867   2.338   1.891   3.002
 3656SOL    HW211868   2.388   2.039   2.954
 3657SOL     OW11869   5.062   5.463   1.727
 3657SOL    HW111870   5.067   5.514   1.641
 3657SOL    HW211871   5.097   5.519   1.802
 3658SOL     OW11872   2.615   4.728   5.659
 3658SOL    HW111873   2.604   4.763   5.751
 3658SOL    HW211874   2.702   4.760   5.621
 3659SOL     OW11875   1.194   3.996   6.580
 3659SOL    HW111876   1.277   4.030   6.536
 3659SOL    HW211877   1.125   3.977   6.510
 3660SOL     OW11878   4.700   3.889   0.976
 3660SOL    HW111879   4.793   3.904   0.942
 3660SOL    HW211880   4.639   3.868   0.900
 3661SOL     OW11881   5.771   1.425   1.522
 3661SOL    HW111882   5.855   1.397   1.476
 3661SOL    HW211883   5.778   1.521   1.547
 3662SOL     OW11884   1.335   6.050   4.334
 3662SOL    HW111885   1.387   6.075   4.416
 3662SOL    HW211886   1.256   6.112   4.325
 3663SOL     OW11887   1.777   3.036   6.160
 3663SOL    HW111888   1.707   2.976   6.199
 3663SOL    HW211889   1.736   3.126   6.140
 3664SOL     OW11890   3.394   0.061   1.958
 3664SOL    HW111891   3.454   0.097   1.887
 3664SOL    HW211892   3.380   0.130   2.028
 3665SOL     OW11893   2.214   1.096   5.274
 3665SOL    HW111894   2.185   1.119   5.181
 3665SOL    HW211895   2.165   1.013   5.304
 3666SOL     OW11896   0.912   4.509   3.349
 3666SOL    HW111897   0.898   4.489   3.446
 3666SOL    HW211898   0.974   4.441   3.310
 3667SOL     OW11899   0.409   1.497   0.124
 3667SOL    HW111900   0.449   1.577   0.080
 3667SOL    HW211901   0.309   1.506   0.124
 3668SOL     OW11902   2.282   6.505   2.125
 3668SOL    HW111903   2.268   6.583   2.186
 3668SOL    HW211904   2.306   6.538   2.033
 3669SOL     OW11905   5.358   1.564   4.060
 3669SOL    HW111906   5.413   1.538   4.140
 3669SOL    HW211907   5.414   1.618   3.998
 3670SOL     OW11908   2.774   5.508   6.243
 3670SOL    HW111909   2.827   5.486   6.161
 3670SOL    HW211910   2.679   5.477   6.230
 3671SOL     OW11911   2.018   0.572   3.604
 3671SOL    HW111912   2.014   0.671   3.611
 3671SOL    HW211913   1.936   0.533   3.647
 3672SOL     OW11914   6.285   6.991   0.689
 3672SOL    HW111915   6.243   0.011   0.611
 3672SOL    HW211916   6.326   6.905   0.660
 3673SOL     OW11917   4.577   6.894   6.323
 3673SOL    HW111918   4.482   6.923   6.307
 3673SOL    HW211919   4.623   6.960   6.382
 3674SOL     OW11920   0.903   6.404   0.669
 3674SOL    HW111921   0.876   6.490   0.714
 3674SOL    HW211922   0.832   6.376   0.605
 3675SOL     OW11923   2.244   2.197   4.139
 3675SOL    HW111924   2.161   2.141   4.147
 3675SOL    HW211925   2.272   2.201   4.043
 3676SOL     OW11926   1.359   4.852   2.542
 3676SOL    HW111927   1.358   4.952   2.550
 3676SOL    HW211928   1.346   4.826   2.447
 3677SOL     OW11929   5.945   0.463   3.847
 3677SOL    HW111930   5.911   0.500   3.933
 3677SOL    HW211931   5.872   0.464   3.779
 3678SOL     OW11932   1.545   2.522   4.275
 3678SOL    HW111933   1.486   2.535   4.355
 3678SOL    HW211934   1.502   2.457   4.212
 3679SOL     OW11935   6.971   1.108   2.093
 3679SOL    HW111936   6.983   1.205   2.116
 3679SOL    HW211937   0.029   1.058   2.116
 3680SOL     OW11938   6.016   4.113   4.589
 3680SOL    HW111939   5.985   4.131   4.496
 3680SOL    HW211940   6.115   4.103   4.591
 3681SOL     OW11941   5.189   6.724   4.674
 3681SOL    HW111942   5.221   6.745   4.766
 3681SOL    HW211943   5.261   6.745   4.608
 3682SOL     OW11944   0.486   2.217   6.745
 3682SOL    HW111945   0.484   2.171   6.656
 3682SOL    HW211946   0.394   2.218   6.783
 3683SOL     OW11947   5.210   5.837   2.727
 3683SOL    HW111948   5.305   5.856   2.702
 3683SOL    HW211949   5.172   5.768   2.665
 3684SOL     OW11950   2.262   3.760   1.133
 3684SOL    HW111951   2.299   3.844   1.094
 3684SOL    HW211952   2.222   3.778   1.222
 3685SOL     OW11953   5.693   6.430   5.997
 3685SOL    HW111954   5.637   6.423   5.915
 3685SOL    HW211955   5.655   6.501   6.057
 3686SOL     OW11956   0.178   4.353   0.570
 3686SOL    HW111957   0.264   4.305   0.588
 3686SOL    HW211958   0.188   4.410   0.488
 3687SOL     OW11959   4.249   1.095   0.266
 3687SOL    HW111960   4.246   0.995   0.260
 3687SOL    HW211961   4.345   1.126   0.264
 3688SOL     OW11962   0.204   3.330   0.535
 3688SOL    HW111963   0.278   3.275   0.497
 3688SOL    HW211964   0.208   3.422   0.495
 3689SOL     OW11965   1.799   6.584   3.342
 3689SOL    HW111966   1.858   6.504   3.334
 3689SOL    HW211967   1.853   6.661   3.376
 3690SOL     OW11968   4.747   5.565   5.474
 3690SOL    HW111969   4.746   5.665   5.475
 3690SOL    HW211970   4.707   5.532   5.388
 3691SOL     OW11971   3.177   2.599   5.745
 3691SOL    HW111972   3.267   2.561   5.763
 3691SOL    HW211973   3.180   2.655   5.662
 3692SOL     OW11974   0.140   0.352   5.838
 3692SOL    HW111975   0.105   0.404   5.760
 3692SOL    HW211976   0.226   0.307   5.812
 3693SOL     OW11977   1.518   1.105   3.447
 3693SOL    HW111978   1.571   1.176   3.402
 3693SOL    HW211979   1.510   1.025   3.386
 3694SOL     OW11980   2.030   5.274   3.634
 3694SOL    HW111981   1.979   5.269   3.548
 3694SOL    HW211982   2.126   5.292   3.615
 3695SOL     OW11983   1.770   2.435   0.641
 3695SOL    HW111984   1.713   2.411   0.720
 3695SOL    HW211985   1.813   2.352   0.604
 3696SOL     OW11986   2.905   6.409   5.772
 3696SOL    HW111987   2.936   6.429   5.864
 3696SOL    HW211988   2.892   6.310   5.762
 3697SOL     OW11989   4.943   1.067   3.711
 3697SOL    HW111990   4.920   1.017   3.795
 3697SOL    HW211991   5.042   1.068   3.700
 3698SOL     OW11992   3.217   6.880   6.836
 3698SOL    HW111993   3.223   6.923   6.746
 3698SOL    HW211994   3.233   6.948   6.907
 3699SOL     OW11995   0.797   5.276   2.028
 3699SOL    HW111996   0.817   5.179   2.039
 3699SOL    HW211997   0.762   5.293   1.936
 3700SOL     OW11998   6.404   0.692   3.817
 3700SOL    HW111999   6.451   0.780   3.820
 3700SOL    HW212000   6.378   0.665   3.910
 3701SOL     OW12001   4.823   0.676   4.047
 3701SOL    HW112002   4.788   0.713   3.961
 3701SOL    HW212003   4.761   0.606   4.081
 3702SOL     OW12004   5.069   1.061   6.651
 3702SOL    HW112005   5.077   1.151   6.609
 3702SOL    HW212006   4.990   1.013   6.612
 3703SOL     OW12007   3.724   4.585   0.825
 3703SOL    HW112008   3.728   4.571   0.924
 3703SOL    HW212009   3.629   4.574   0.794
 3704SOL     OW12010   3.420   6.204   1.386
 3704SOL    HW112011   3.391   6.183   1.479
 3704SOL    HW212012   3.515   6.175   1.373
 3705SOL     OW12013   6.672   1.063   4.577
 3705SOL    HW112014   6.708   0.990   4.636
 3705SOL    HW212015   6.745   1.096   4.517
 3706SOL     OW12016   3.166   2.100   3.217
 3706SOL    HW112017   3.118   2.013   3.214
 3706SOL    HW212018   3.101   2.175   3.207
 3707SOL     OW12019   4.244   2.580   5.463
 3707SOL    HW112020   4.323   2.572   5.524
 3707SOL    HW212021   4.225   2.677   5.447
 3708SOL     OW12022   6.292   0.462   0.060
 3708SOL    HW112023   6.270   0.390   7.019
 3708SOL    HW212024   6.388   0.489   0.049
 3709SOL     OW12025   6.891   0.050   6.665
 3709SOL    HW112026   6.952   0.127   6.646
 3709SOL    HW212027   6.798   0.074   6.638
 3710SOL     OW12028   0.433   4.938   6.722
 3710SOL    HW112029   0.337   4.920   6.744
 3710SOL    HW212030   0.487   4.855   6.739
 3711SOL     OW12031   0.013   5.544   2.121
 3711SOL    HW112032   7.024   5.506   2.212
 3711SOL    HW212033   0.090   5.497   2.078
 3712SOL     OW12034   1.533   0.462   6.581
 3712SOL    HW112035   1.531   0.411   6.667
 3712SOL    HW212036   1.618   0.514   6.575
 3713SOL     OW12037   3.489   5.339   5.554
 3713SOL    HW112038   3.504   5.299   5.644
 3713SOL    HW212039   3.498   5.439   5.560
 3714SOL     OW12040   4.755   1.811   5.180
 3714SOL    HW112041   4.812   1.874   5.231
 3714SOL    HW212042   4.756   1.835   5.083
 3715SOL     OW12043   4.969   3.663   3.477
 3715SOL    HW112044   4.893   3.728   3.477
 3715SOL    HW212045   4.964   3.607   3.560
 3716SOL     OW12046   1.062   1.499   4.055
 3716SOL    HW112047   1.154   1.537   4.044
 3716SOL    HW212048   1.065   1.424   4.121
 3717SOL     OW12049   5.956   0.750   6.731
 3717SOL    HW112050   5.942   0.785   6.824
 3717SOL    HW212051   5.872   0.704   6.700
 3718SOL     OW12052   0.584   6.188   6.611
 3718SOL    HW112053   0.534   6.237   6.683
 3718SOL    HW212054   0.631   6.109   6.651
 3719SOL     OW12055   3.387   4.508   0.348
 3719SOL    HW112056   3.454   4.470   0.284
 3719SOL    HW212057   3.309   4.544   0.297
 3720SOL     OW12058   0.184   1.046   6.059
 3720SOL    HW112059   0.241   1.122   6.090
 3720SOL    HW212060   0.170   1.053   5.960
 3721SOL     OW12061   4.885   2.986   0.434
 3721SOL    HW112062   4.821   2.909   0.429
 3721SOL    HW212063   4.976   2.956   0.403
 3722SOL     OW12064   5.312   5.477   1.352
 3722SOL    HW112065   5.287   5.533   1.273
 3722SOL    HW212066   5.408   5.448   1.344
 3723SOL     OW12067   4.625   0.881   0.602
 3723SOL    HW112068   4.629   0.959   0.664
 3723SOL    HW212069   4.694   0.814   0.627
 3724SOL     OW12070   0.609   4.478   5.742
 3724SOL    HW112071   0.521   4.526   5.737
 3724SOL    HW212072   0.602   4.401   5.805
 3725SOL     OW12073   5.620   6.212   1.414
 3725SOL    HW112074   5.570   6.246   1.335
 3725SOL    HW212075   5.716   6.202   1.391
 3726SOL     OW12076   6.088   2.614   1.623
 3726SOL    HW112077   6.091   2.514   1.622
 3726SOL    HW212078   6.081   2.648   1.529
 3727SOL     OW12079   2.700   2.853   5.374
 3727SOL    HW112080   2.653   2.918   5.314
 3727SOL    HW212081   2.654   2.851   5.463
 3728SOL     OW12082   0.525   3.797   0.004
 3728SOL    HW112083   0.517   3.824   0.100
 3728SOL    HW212084   0.606   3.739   7.019
 3729SOL     OW12085   0.626   2.959   4.354
 3729SOL    HW112086   0.643   3.047   4.308
 3729SOL    HW212087   0.528   2.941   4.356
 3730SOL     OW12088   2.249   0.541   0.983
 3730SOL    HW112089   2.341   0.542   1.021
 3730SOL    HW212090   2.244   0.476   0.907
 3731SOL     OW12091   2.336   5.546   6.933
 3731SOL    HW112092   2.258   5.488   6.955
 3731SOL    HW212093   2.307   5.621   6.873
 3732SOL     OW12094   2.085   3.716   4.350
 3732SOL    HW112095   2.170   3.769   4.347
 3732SOL    HW212096   2.007   3.777   4.343
 3733SOL     OW12097   3.363   4.152   1.036
 3733SOL    HW112098   3.411   4.066   1.050
 3733SOL    HW212099   3.366   4.176   0.939
 3734SOL     OW12100   4.378   0.549   3.118
 3734SOL    HW112101   4.400   0.572   3.213
 3734SOL    HW212102   4.313   0.617   3.082
 3735SOL     OW12103   3.483   2.032   2.169
 3735SOL    HW112104   3.468   1.946   2.122
 3735SOL    HW212105   3.524   2.098   2.106
 3736SOL     OW12106   4.991   0.772   6.422
 3736SOL    HW112107   4.893   0.753   6.427
 3736SOL    HW212108   5.006   0.866   6.393
 3737SOL     OW12109   3.745   6.760   3.743
 3737SOL    HW112110   3.646   6.742   3.740
 3737SOL    HW212111   3.779   6.772   3.650
 3738SOL     OW12112   0.017   0.232   4.318
 3738SOL    HW112113   0.011   0.301   4.247
 3738SOL    HW212114   0.026   0.141   4.277
 3739SOL     OW12115   0.363   3.397   1.251
 3739SOL    HW112116   0.300   3.330   1.290
 3739SOL    HW212117   0.452   3.388   1.296
 3740SOL     OW12118   5.580   0.163   0.008
 3740SOL    HW112119   5.634   0.157   6.949
 3740SOL    HW212120   5.586   0.256   0.044
 3741SOL     OW12121   3.691   1.898   6.944
 3741SOL    HW112122   3.662   1.921   0.012
 3741SOL    HW212123   3.786   1.927   6.931
 3742SOL     OW12124   3.617   3.364   6.087
 3742SOL    HW112125   3.699   3.308   6.092
 3742SOL    HW212126   3.546   3.324   6.146
 3743SOL     OW12127   0.698   5.955   6.727
 3743SOL    HW112128   0.683   5.881   6.662
 3743SOL    HW212129   0.710   5.918   6.818
 3744SOL     OW12130   6.663   5.177   3.241
 3744SOL    HW112131   6.743   5.133   3.200
 3744SOL    HW212132   6.641   5.260   3.190
 3745SOL     OW12133   5.181   5.037   1.577
 3745SOL    HW112134   5.203   5.090   1.496
 3745SOL    HW212135   5.261   5.030   1.636
 3746SOL     OW12136   4.083   1.628   1.362
 3746SOL    HW112137   4.041   1.704   1.312
 3746SOL    HW212138   4.182   1.643   1.369
 3747SOL     OW12139   2.429   0.392   0.646
 3747SOL    HW112140   2.512   0.340   0.625
 3747SOL    HW212141   2.446   0.489   0.630
 3748SOL     OW12142   5.950   0.250   1.761
 3748SOL    HW112143   5.871   0.299   1.798
 3748SOL    HW212144   5.925   0.207   1.675
 3749SOL     OW12145   0.977   0.600   4.231
 3749SOL    HW112146   1.065   0.624   4.273
 3749SOL    HW212147   0.948   0.673   4.170
 3750SOL     OW12148   0.172   3.861   6.688
 3750SOL    HW112149   0.142   3.788   6.750
 3750SOL    HW212150   0.267   3.887   6.711
 3751SOL     OW12151   1.826   5.333   1.618
 3751SOL    HW112152   1.840   5.248   1.567
 3751SOL    HW212153   1.728   5.347   1.634
 3752SOL     OW12154   5.052   5.890   6.486
 3752SOL    HW112155   5.007   5.898   6.575
 3752SOL    HW212156   5.132   5.831   6.494
 3753SOL     OW12157   0.923   0.290   3.216
 3753SOL    HW112158   0.865   0.212   3.242
 3753SOL    HW212159   0.884   0.335   3.136
 3754SOL     OW12160   3.253   1.728   1.247
 3754SOL    HW112161   3.231   1.631   1.237
 3754SOL    HW212162   3.169   1.779   1.270
 3755SOL     OW12163   2.174   6.227   4.465
 3755SOL    HW112164   2.237   6.154   4.491
 3755SOL    HW212165   2.227   6.308   4.440
 3756SOL     OW12166   1.627   6.790   0.562
 3756SOL    HW112167   1.612   6.719   0.631
 3756SOL    HW212168   1.563   6.777   0.486
 3757SOL     OW12169   0.493   4.691   0.275
 3757SOL    HW112170   0.587   4.676   0.242
 3757SOL    HW212171   0.432   4.625   0.231
 3758SOL     OW12172   0.654   6.249   3.722
 3758SOL    HW112173   0.616   6.160   3.696
 3758SOL    HW212174   0.753   6.241   3.731
 3759SOL     OW12175   4.782   0.809   3.762
 3759SOL    HW112176   4.862   0.768   3.718
 3759SOL    HW212177   4.699   0.760   3.734
 3760SOL     OW12178   0.902   0.697   3.012
 3760SOL    HW112179   0.850   0.747   2.943
 3760SOL    HW212180   0.968   0.637   2.967
 3761SOL     OW12181   4.729   1.603   5.503
 3761SOL    HW112182   4.696   1.520   5.549
 3761SOL    HW212183   4.656   1.640   5.445
 3762SOL     OW12184   0.657   2.305   4.292
 3762SOL    HW112185   0.670   2.224   4.235
 3762SOL    HW212186   0.610   2.279   4.376
 3763SOL     OW12187   0.834   6.316   6.984
 3763SOL    HW112188   0.736   6.297   6.994
 3763SOL    HW212189   0.848   6.413   6.968
 3764SOL     OW12190   3.039   1.191   2.452
 3764SOL    HW112191   3.009   1.285   2.467
 3764SOL    HW212192   2.960   1.133   2.434
 3765SOL     OW12193   5.609   3.460   2.684
 3765SOL    HW112194   5.529   3.511   2.715
 3765SOL    HW212195   5.692   3.509   2.711
 3766SOL     OW12196   1.686   2.623   2.309
 3766SOL    HW112197   1.679   2.541   2.252
 3766SOL    HW212198   1.670   2.598   2.405
 3767SOL     OW12199   2.086   5.969   6.041
 3767SOL    HW112200   1.988   5.974   6.022
 3767SOL    HW212201   2.130   6.053   6.010
 3768SOL     OW12202   1.720   6.725   3.093
 3768SOL    HW112203   1.732   6.659   3.167
 3768SOL    HW212204   1.774   6.696   3.013
 3769SOL     OW12205   5.396   5.219   5.168
 3769SOL    HW112206   5.372   5.279   5.244
 3769SOL    HW212207   5.334   5.141   5.166
 3770SOL     OW12208   2.800   6.752   0.951
 3770SOL    HW112209   2.786   6.782   1.045
 3770SOL    HW212210   2.873   6.683   0.949
 3771SOL     OW12211   6.673   6.149   5.809
 3771SOL    HW112212   6.755   6.105   5.847
 3771SOL    HW212213   6.699   6.206   5.731
 3772SOL     OW12214   2.445   5.905   1.887
 3772SOL    HW112215   2.447   5.924   1.789
 3772SOL    HW212216   2.508   5.967   1.935
 3773SOL     OW12217   4.863   4.660   6.648
 3773SOL    HW112218   4.823   4.569   6.641
 3773SOL    HW212219   4.914   4.680   6.565
 3774SOL     OW12220   6.837   4.705   1.333
 3774SOL    HW112221   6.926   4.716   1.290
 3774SOL    HW212222   6.778   4.783   1.308
 3775SOL     OW12223   5.720   5.723   4.990
 3775SOL    HW112224   5.699   5.802   5.048
 3775SOL    HW212225   5.686   5.740   4.897
 3776SOL     OW12226   4.334   2.343   6.674
 3776SOL    HW112227   4.236   2.354   6.662
 3776SOL    HW212228   4.378   2.433   6.677
 3777SOL     OW12229   2.926   5.208   3.924
 3777SOL    HW112230   2.890   5.140   3.861
 3777SOL    HW212231   2.960   5.287   3.872
 3778SOL     OW12232   3.077   5.123   6.625
 3778SOL    HW112233   3.074   5.110   6.526
 3778SOL    HW212234   3.034   5.210   6.649
 3779SOL     OW12235   0.039   4.961   6.324
 3779SOL    HW112236   0.097   4.903   6.381
 3779SOL    HW212237   0.041   4.928   6.230
 3780SOL     OW12238   6.348   3.059   2.092
 3780SOL    HW112239   6.290   3.128   2.135
 3780SOL    HW212240   6.425   3.038   2.152
 3781SOL     OW12241   1.410   6.712   6.018
 3781SOL    HW112242   1.322   6.759   6.009
 3781SOL    HW212243   1.477   6.756   5.958
 3782SOL     OW12244   3.761   5.434   0.057
 3782SOL    HW112245   3.729   5.423   0.151
 3782SOL    HW212246   3.778   5.344   0.017
 3783SOL     OW12247   4.497   4.963   5.495
 3783SOL    HW112248   4.583   4.992   5.537
 3783SOL    HW212249   4.428   4.951   5.567
 3784SOL     OW12250   5.910   3.149   4.597
 3784SOL    HW112251   5.880   3.160   4.691
 3784SOL    HW212252   5.896   3.235   4.547
 3785SOL     OW12253   0.846   2.908   2.568
 3785SOL    HW112254   0.850   2.809   2.554
 3785SOL    HW212255   0.826   2.928   2.664
 3786SOL     OW12256   2.335   2.571   5.828
 3786SOL    HW112257   2.315   2.651   5.885
 3786SOL    HW212258   2.251   2.542   5.783
 3787SOL     OW12259   4.913   5.880   4.911
 3787SOL    HW112260   4.935   5.858   4.816
 3787SOL    HW212261   4.844   5.817   4.945
 3788SOL     OW12262   5.728   3.141   5.936
 3788SOL    HW112263   5.682   3.131   5.848
 3788SOL    HW212264   5.803   3.075   5.942
 3789SOL     OW12265   1.903   3.852   1.138
 3789SOL    HW112266   1.948   3.825   1.223
 3789SOL    HW212267   1.860   3.942   1.150
 3790SOL     OW12268   1.713   0.007   1.670
 3790SOL    HW112269   1.779   6.993   1.606
 3790SOL    HW212270   1.723   0.107   1.669
 3791SOL     OW12271   4.687   0.536   4.297
 3791SOL    HW112272   4.647   0.587   4.372
 3791SOL    HW212273   4.786   0.544   4.299
 3792SOL     OW12274   6.211   6.902   3.366
 3792SOL    HW112275   6.120   6.867   3.344
 3792SOL    HW212276   6.209   7.002   3.365
 3793SOL     OW12277   4.717   3.733   0.148
 3793SOL    HW112278   4.648   3.688   0.206
 3793SOL    HW212279   4.806   3.690   0.164
 3794SOL     OW12280   1.166   5.147   6.351
 3794SOL    HW112281   1.158   5.103   6.440
 3794SOL    HW212282   1.219   5.089   6.290
 3795SOL     OW12283   3.258   6.300   0.580
 3795SOL    HW112284   3.200   6.245   0.639
 3795SOL    HW212285   3.331   6.342   0.634
 3796SOL     OW12286   5.275   0.670   6.968
 3796SOL    HW112287   5.284   0.714   0.031
 3796SOL    HW212288   5.271   0.571   6.980
 3797SOL     OW12289   0.221   3.211   1.420
 3797SOL    HW112290   0.255   3.118   1.434
 3797SOL    HW212291   0.256   3.270   1.493
 3798SOL     OW12292   1.022   5.163   3.719
 3798SOL    HW112293   1.078   5.085   3.690
 3798SOL    HW212294   0.929   5.132   3.739
 3799SOL     OW12295   6.916   1.644   2.672
 3799SOL    HW112296   6.928   1.722   2.610
 3799SOL    HW212297   6.880   1.677   2.759
 3800SOL     OW12298   5.454   3.058   2.335
 3800SOL    HW112299   5.425   3.024   2.425
 3800SOL    HW212300   5.420   3.152   2.323
 3801SOL     OW12301   6.330   1.339   1.072
 3801SOL    HW112302   6.414   1.339   1.017
 3801SOL    HW212303   6.352   1.362   1.167
 3802SOL     OW12304   6.299   3.340   2.600
 3802SOL    HW112305   6.369   3.299   2.542
 3802SOL    HW212306   6.209   3.326   2.558
 3803SOL     OW12307   4.367   3.770   5.489
 3803SOL    HW112308   4.306   3.849   5.486
 3803SOL    HW212309   4.354   3.721   5.575
 3804SOL     OW12310   3.099   5.946   3.512
 3804SOL    HW112311   3.126   5.940   3.608
 3804SOL    HW212312   3.127   6.035   3.475
 3805SOL     OW12313   2.308   1.891   6.917
 3805SOL    HW112314   2.261   1.902   6.830
 3805SOL    HW212315   2.392   1.840   6.904
 3806SOL     OW12316   1.849   4.020   2.019
 3806SOL    HW112317   1.926   3.962   1.992
 3806SOL    HW212318   1.867   4.114   1.992
 3807SOL     OW12319   0.657   4.156   4.190
 3807SOL    HW112320   0.685   4.072   4.144
 3807SOL    HW212321   0.565   4.144   4.228
 3808SOL     OW12322   2.812   6.985   6.369
 3808SOL    HW112323   2.734   0.019   6.348
 3808SOL    HW212324   2.778   6.894   6.392
 3809SOL     OW12325   5.098   1.267   2.107
 3809SOL    HW112326   5.099   1.353   2.057
 3809SOL    HW212327   5.178   1.213   2.084
 3810SOL     OW12328   5.241   2.214   3.039
 3810SOL    HW112329   5.243   2.188   3.135
 3810SOL    HW212330   5.174   2.288   3.026
 3811SOL     OW12331   0.229   6.027   5.693
 3811SOL    HW112332   0.216   5.999   5.788
 3811SOL    HW212333   0.142   6.022   5.644
 3812SOL     OW12334   3.874   5.402   0.567
 3812SOL    HW112335   3.885   5.325   0.629
 3812SOL    HW212336   3.948   5.468   0.582
 3813SOL     OW12337   6.170   3.587   6.786
 3813SOL    HW112338   6.077   3.614   6.762
 3813SOL    HW212339   6.181   3.594   6.885
 3814SOL     OW12340   0.156   0.132   5.154
 3814SOL    HW112341   0.075   0.109   5.099
 3814SOL    HW212342   0.229   0.164   5.093
 3815SOL     OW12343   4.866   2.391   5.529
 3815SOL    HW112344   4.941   2.432   5.581
 3815SOL    HW212345   4.818   2.325   5.587
 3816SOL     OW12346   6.288   6.571   1.062
 3816SOL    HW112347   6.236   6.522   1.132
 3816SOL    HW212348   6.378   6.596   1.099
 3817SOL     OW12349   3.918   3.664   2.214
 3817SOL    HW112350   3.966   3.708   2.138
 3817SOL    HW212351   3.876   3.733   2.273
 3818SOL     OW12352   4.513   5.579   2.231
 3818SOL    HW112353   4.415   5.595   2.224
 3818SOL    HW212354   4.552   5.572   2.139
 3819SOL     OW12355   6.294   3.296   3.096
 3819SOL    HW112356   6.380   3.254   3.123
 3819SOL    HW212357   6.222   3.270   3.161
 3820SOL     OW12358   2.970   6.458   6.050
 3820SOL    HW112359   2.899   6.479   6.118
 3820SOL    HW212360   3.023   6.379   6.081
 3821SOL     OW12361   2.024   6.930   0.782
 3821SOL    HW112362   2.121   6.910   0.793
 3821SOL    HW212363   1.973   6.885   0.856
 3822SOL     OW12364   5.668   6.889   1.834
 3822SOL    HW112365   5.763   6.870   1.810
 3822SOL    HW212366   5.649   6.854   1.926
 3823SOL     OW12367   5.380   5.914   5.087
 3823SOL    HW112368   5.351   5.945   4.996
 3823SOL    HW212369   5.366   5.815   5.094
 3824SOL     OW12370   2.116   2.445   0.536
 3824SOL    HW112371   2.040   2.452   0.471
 3824SOL    HW212372   2.140   2.536   0.570
 3825SOL     OW12373   0.758   4.820   5.427
 3825SOL    HW112374   0.762   4.804   5.328
 3825SOL    HW212375   0.846   4.797   5.468
 3826SOL     OW12376   4.853   4.159   3.578
 3826SOL    HW112377   4.764   4.175   3.535
 3826SOL    HW212378   4.922   4.215   3.533
 3827SOL     OW12379   0.669   1.584   6.721
 3827SOL    HW112380   0.729   1.506   6.707
 3827SOL    HW212381   0.593   1.557   6.780
 3828SOL     OW12382   3.206   3.454   5.232
 3828SOL    HW112383   3.174   3.514   5.158
 3828SOL    HW212384   3.149   3.372   5.234
 3829SOL     OW12385   0.508   3.229   1.645
 3829SOL    HW112386   0.412   3.250   1.661
 3829SOL    HW212387   0.563   3.256   1.724
 3830SOL     OW12388   5.175   6.654   3.600
 3830SOL    HW112389   5.151   6.731   3.659
 3830SOL    HW212390   5.104   6.642   3.530
 3831SOL     OW12391   5.041   2.322   3.394
 3831SOL    HW112392   4.980   2.244   3.402
 3831SOL    HW212393   4.991   2.406   3.411
 3832SOL     OW12394   6.199   1.454   3.638
 3832SOL    HW112395   6.260   1.376   3.645
 3832SOL    HW212396   6.158   1.473   3.727
 3833SOL     OW12397   1.676   2.915   5.707
 3833SOL    HW112398   1.743   2.920   5.781
 3833SOL    HW212399   1.690   2.831   5.655
 3834SOL     OW12400   5.537   4.374   0.927
 3834SOL    HW112401   5.555   4.429   1.008
 3834SOL    HW212402   5.623   4.358   0.878
 3835SOL     OW12403   4.477   5.402   4.998
 3835SOL    HW112404   4.424   5.485   4.978
 3835SOL    HW212405   4.574   5.425   5.002
 3836SOL     OW12406   0.389   6.870   4.734
 3836SOL    HW112407   0.324   6.795   4.722
 3836SOL    HW212408   0.400   6.918   4.646
 3837SOL     OW12409   4.480   4.509   5.797
 3837SOL    HW112410   4.546   4.520   5.872
 3837SOL    HW212411   4.472   4.413   5.773
 3838SOL     OW12412   6.769   0.697   4.289
 3838SOL    HW112413   6.723   0.654   4.212
 3838SOL    HW212414   6.722   0.783   4.313
 3839SOL     OW12415   4.795   1.002   3.458
 3839SOL    HW112416   4.789   1.021   3.556
 3839SOL    HW212417   4.703   0.987   3.421
 3840SOL     OW12418   3.947   1.454   6.329
 3840SOL    HW112419   3.930   1.550   6.304
 3840SOL    HW212420   4.024   1.420   6.276
 3841SOL     OW12421   5.768   4.321   3.238
 3841SOL    HW112422   5.852   4.306   3.187
 3841SOL    HW212423   5.706   4.243   3.223
 3842SOL     OW12424   2.126   3.894   5.445
 3842SOL    HW112425   2.169   3.885   5.534
 3842SOL    HW212426   2.027   3.885   5.454
 3843SOL     OW12427   5.898   2.628   6.074
 3843SOL    HW112428   5.904   2.535   6.037
 3843SOL    HW212429   5.880   2.624   6.172
 3844SOL     OW12430   6.806   0.092   1.290
 3844SOL    HW112431   6.848   0.135   1.370
 3844SOL    HW212432   6.865   0.019   1.257
 3845SOL     OW12433   2.206   5.609   0.236
 3845SOL    HW112434   2.149   5.600   0.154
 3845SOL    HW212435   2.288   5.662   0.213
 3846SOL     OW12436   6.704   3.064   3.003
 3846SOL    HW112437   6.622   3.062   2.945
 3846SOL    HW212438   6.773   3.122   2.960
 3847SOL     OW12439   0.514   1.847   6.615
 3847SOL    HW112440   0.457   1.824   6.694
 3847SOL    HW212441   0.537   1.763   6.566
 3848SOL     OW12442   6.567   5.209   1.898
 3848SOL    HW112443   6.539   5.282   1.960
 3848SOL    HW212444   6.519   5.220   1.810
 3849SOL     OW12445   0.744   4.174   5.777
 3849SOL    HW112446   0.698   4.222   5.853
 3849SOL    HW212447   0.812   4.111   5.814
 3850SOL     OW12448   2.987   2.688   1.223
 3850SOL    HW112449   2.960   2.631   1.145
 3850SOL    HW212450   3.062   2.644   1.272
 3851SOL     OW12451   0.442   5.874   2.855
 3851SOL    HW112452   0.437   5.953   2.794
 3851SOL    HW212453   0.477   5.795   2.805
 3852SOL     OW12454   2.227   0.576   4.878
 3852SOL    HW112455   2.317   0.541   4.907
 3852SOL    HW212456   2.239   0.641   4.803
 3853SOL     OW12457   2.680   0.786   3.079
 3853SOL    HW112458   2.686   0.710   3.015
 3853SOL    HW212459   2.726   0.866   3.041
 3854SOL     OW12460   0.527   1.987   2.210
 3854SOL    HW112461   0.472   1.909   2.240
 3854SOL    HW212462   0.623   1.972   2.233
 3855SOL     OW12463   3.073   6.660   6.664
 3855SOL    HW112464   3.127   6.597   6.608
 3855SOL    HW212465   3.120   6.749   6.669
 3856SOL     OW12466   6.450   2.593   6.793
 3856SOL    HW112467   6.541   2.555   6.782
 3856SOL    HW212468   6.446   2.685   6.752
 3857SOL     OW12469   2.320   0.452   6.141
 3857SOL    HW112470   2.237   0.493   6.179
 3857SOL    HW212471   2.324   0.355   6.165
 3858SOL     OW12472   3.712   0.751   4.786
 3858SOL    HW112473   3.751   0.683   4.724
 3858SOL    HW212474   3.634   0.712   4.834
 3859SOL     OW12475   6.301   0.095   1.997
 3859SOL    HW112476   6.393   0.080   2.031
 3859SOL    HW212477   6.243   0.132   2.070
 3860SOL     OW12478   1.474   6.788   4.536
 3860SOL    HW112479   1.521   6.823   4.455
 3860SOL    HW212480   1.462   6.863   4.601
 3861SOL     OW12481   3.120   5.574   2.051
 3861SOL    HW112482   3.087   5.557   1.959
 3861SOL    HW212483   3.208   5.622   2.047
 3862SOL     OW12484   1.373   0.491   4.527
 3862SOL    HW112485   1.429   0.555   4.473
 3862SOL    HW212486   1.407   0.489   4.621
 3863SOL     OW12487   3.895   0.508   0.578
 3863SOL    HW112488   3.823   0.566   0.539
 3863SOL    HW212489   3.933   0.553   0.659
 3864SOL     OW12490   0.933   0.157   4.362
 3864SOL    HW112491   0.881   0.237   4.333
 3864SOL    HW212492   1.012   0.186   4.416
 3865SOL     OW12493   5.170   1.312   0.759
 3865SOL    HW112494   5.120   1.233   0.723
 3865SOL    HW212495   5.105   1.382   0.788
 3866SOL     OW12496   3.134   0.704   6.930
 3866SOL    HW112497   3.222   0.729   6.890
 3866SOL    HW212498   3.103   0.618   6.892
 3867SOL     OW12499   0.044   3.340   2.629
 3867SOL    HW112500   6.980   3.384   2.628
 3867SOL    HW212501   0.110   3.398   2.678
 3868SOL     OW12502   4.221   0.360   6.988
 3868SOL    HW112503   4.165   0.398   6.914
 3868SOL    HW212504   4.165   0.349   0.044
 3869SOL     OW12505   4.242   1.026   4.170
 3869SOL    HW112506   4.219   0.929   4.160
 3869SOL    HW212507   4.298   1.055   4.092
 3870SOL     OW12508   0.038   1.699   5.621
 3870SOL    HW112509   0.098   1.656   5.688
 3870SOL    HW212510   0.091   1.730   5.543
 3871SOL     OW12511   2.489   5.993   3.855
 3871SOL    HW112512   2.479   5.957   3.948
 3871SOL    HW212513   2.574   6.045   3.848
 3872SOL     OW12514   2.841   3.715   5.240
 3872SOL    HW112515   2.937   3.721   5.270
 3872SOL    HW212516   2.816   3.798   5.192
 3873SOL     OW12517   4.317   2.002   6.984
 3873SOL    HW112518   4.356   2.013   6.893
 3873SOL    HW212519   4.326   1.907   7.013
 3874SOL     OW12520   2.525   1.391   1.271
 3874SOL    HW112521   2.549   1.294   1.265
 3874SOL    HW212522   2.577   1.442   1.202
 3875SOL     OW12523   1.054   2.012   6.573
 3875SOL    HW112524   1.125   1.969   6.629
 3875SOL    HW212525   0.971   1.957   6.577
 3876SOL     OW12526   3.266   5.340   2.563
 3876SOL    HW112527   3.322   5.381   2.635
 3876SOL    HW212528   3.238   5.412   2.498
 3877SOL     OW12529   0.340   1.617   5.657
 3877SOL    HW112530   0.332   1.627   5.558
 3877SOL    HW212531   0.314   1.524   5.684
 3878SOL     OW12532   4.547   1.439   4.992
 3878SOL    HW112533   4.551   1.428   5.091
 3878SOL    HW212534   4.622   1.387   4.950
 3879SOL     OW12535   5.041   5.899   0.177
 3879SOL    HW112536   5.028   5.864   0.269
 3879SOL    HW212537   5.111   5.971   0.178
 3880SOL     OW12538   5.221   4.631   3.963
 3880SOL    HW112539   5.264   4.650   4.052
 3880SOL    HW212540   5.152   4.559   3.975
 3881SOL     OW12541   1.385   2.888   0.342
 3881SOL    HW112542   1.307   2.948   0.353
 3881SOL    HW212543   1.395   2.863   0.246
 3882SOL     OW12544   0.224   2.114   5.453
 3882SOL    HW112545   0.309   2.160   5.478
 3882SOL    HW212546   0.171   2.092   5.535
 3883SOL     OW12547   4.448   6.085   3.822
 3883SOL    HW112548   4.517   6.017   3.795
 3883SOL    HW212549   4.357   6.045   3.812
 3884SOL     OW12550   0.415   3.767   2.437
 3884SOL    HW112551   0.461   3.698   2.493
 3884SOL    HW212552   0.356   3.722   2.370
 3885SOL     OW12553   4.242   5.584   2.179
 3885SOL    HW112554   4.259   5.486   2.169
 3885SOL    HW212555   4.162   5.598   2.237
 3886SOL     OW12556   2.542   5.630   5.864
 3886SOL    HW112557   2.621   5.571   5.877
 3886SOL    HW212558   2.568   5.725   5.877
 3887SOL     OW12559   1.693   5.883   1.950
 3887SOL    HW112560   1.759   5.929   1.890
 3887SOL    HW212561   1.684   5.788   1.922
 3888SOL     OW12562   5.528   4.957   4.119
 3888SOL    HW112563   5.438   4.964   4.078
 3888SOL    HW212564   5.539   4.867   4.161
 3889SOL     OW12565   5.431   4.318   0.461
 3889SOL    HW112566   5.526   4.306   0.490
 3889SOL    HW212567   5.381   4.368   0.531
 3890SOL     OW12568   5.518   3.656   3.659
 3890SOL    HW112569   5.428   3.668   3.701
 3890SOL    HW212570   5.566   3.744   3.658
 3891SOL     OW12571   5.100   5.225   3.626
 3891SOL    HW112572   5.177   5.273   3.668
 3891SOL    HW212573   5.105   5.128   3.650
 3892SOL     OW12574   6.752   1.984   1.608
 3892SOL    HW112575   6.702   2.021   1.530
 3892SOL    HW212576   6.729   1.887   1.619
 3893SOL     OW12577   4.135   3.349   2.882
 3893SOL    HW112578   4.147   3.352   2.783
 3893SOL    HW212579   4.206   3.292   2.923
 3894SOL     OW12580   4.421   0.776   5.935
 3894SOL    HW112581   4.489   0.808   6.001
 3894SOL    HW212582   4.335   0.755   5.982
 3895SOL     OW12583   0.440   0.098   3.901
 3895SOL    HW112584   0.373   0.170   3.919
 3895SOL    HW212585   0.532   0.137   3.903
 3896SOL     OW12586   2.315   1.652   6.319
 3896SOL    HW112587   2.361   1.564   6.304
 3896SOL    HW212588   2.360   1.701   6.394
 3897SOL     OW12589   3.934   5.505   1.354
 3897SOL    HW112590   3.936   5.571   1.280
 3897SOL    HW212591   3.983   5.541   1.433
 3898SOL     OW12592   3.303   3.197   1.523
 3898SOL    HW112593   3.303   3.263   1.599
 3898SOL    HW212594   3.347   3.113   1.552
 3899SOL     OW12595   3.238   0.247   5.255
 3899SOL    HW112596   3.254   0.158   5.213
 3899SOL    HW212597   3.185   0.235   5.340
 3900SOL     OW12598   4.633   4.552   3.049
 3900SOL    HW112599   4.614   4.557   2.951
 3900SOL    HW212600   4.707   4.487   3.066
 3901SOL     OW12601   2.925   1.149   6.902
 3901SOL    HW112602   2.883   1.059   6.894
 3901SOL    HW212603   2.882   1.199   6.978
 3902SOL     OW12604   5.152   2.971   2.882
 3902SOL    HW112605   5.202   2.926   2.807
 3902SOL    HW212606   5.084   2.908   2.919
 3903SOL     OW12607   2.818   4.352   6.172
 3903SOL    HW112608   2.762   4.409   6.112
 3903SOL    HW212609   2.901   4.402   6.198
 3904SOL     OW12610   1.982   0.161   0.696
 3904SOL    HW112611   1.920   0.171   0.619
 3904SOL    HW212612   2.000   0.064   0.712
 3905SOL     OW12613   0.031   6.475   5.127
 3905SOL    HW112614   6.986   6.500   5.193
 3905SOL    HW212615   7.024   6.397   5.072
 3906SOL     OW12616   0.018   6.251   4.918
 3906SOL    HW112617   0.031   6.271   4.821
 3906SOL    HW212618   0.056   6.161   4.939
 3907SOL     OW12619   5.405   2.009   3.529
 3907SOL    HW112620   5.425   1.961   3.615
 3907SOL    HW212621   5.343   2.086   3.548
 3908SOL     OW12622   2.713   4.285   6.423
 3908SOL    HW112623   2.761   4.298   6.336
 3908SOL    HW212624   2.689   4.374   6.461
 3909SOL     OW12625   5.934   5.983   3.268
 3909SOL    HW112626   5.969   5.895   3.235
 3909SOL    HW212627   5.973   6.056   3.212
 3910SOL     OW12628   3.550   3.257   2.702
 3910SOL    HW112629   3.609   3.187   2.661
 3910SOL    HW212630   3.467   3.266   2.647
 3911SOL     OW12631   6.053   2.543   5.460
 3911SOL    HW112632   6.001   2.615   5.414
 3911SOL    HW212633   6.058   2.462   5.401
 3912SOL     OW12634   5.248   2.791   6.027
 3912SOL    HW112635   5.167   2.848   6.012
 3912SOL    HW212636   5.279   2.802   6.122
 3913SOL     OW12637   1.464   6.791   1.308
 3913SOL    HW112638   1.411   6.825   1.386
 3913SOL    HW212639   1.473   6.862   1.239
 3914SOL     OW12640   2.935   5.899   5.943
 3914SOL    HW112641   2.947   5.876   6.040
 3914SOL    HW212642   2.993   5.840   5.887
 3915SOL     OW12643   0.285   5.969   1.278
 3915SOL    HW112644   0.255   6.023   1.357
 3915SOL    HW212645   0.344   5.895   1.309
 3916SOL     OW12646   0.841   0.062   3.283
 3916SOL    HW112647   0.817   7.012   3.222
 3916SOL    HW212648   0.930   0.044   3.325
 3917SOL     OW12649   2.451   0.461   6.698
 3917SOL    HW112650   2.363   0.490   6.661
 3917SOL    HW212651   2.449   0.362   6.713
 3918SOL     OW12652   5.378   3.361   6.722
 3918SOL    HW112653   5.391   3.263   6.737
 3918SOL    HW212654   5.317   3.398   6.791
 3919SOL     OW12655   3.027   6.658   0.707
 3919SOL    HW112656   3.108   6.660   0.647
 3919SOL    HW212657   3.056   6.672   0.802
 3920SOL     OW12658   2.114   1.323   6.966
 3920SOL    HW112659   2.024   1.340   7.005
 3920SOL    HW212660   2.129   1.385   6.889
 3921SOL     OW12661   0.773   3.788   1.294
 3921SOL    HW112662   0.824   3.874   1.301
 3921SOL    HW212663   0.836   3.712   1.281
 3922SOL     OW12664   1.559   5.337   1.224
 3922SOL    HW112665   1.634   5.276   1.199
 3922SOL    HW212666   1.591   5.404   1.291
 3923SOL     OW12667   6.477   0.472   0.927
 3923SOL    HW112668   6.571   0.499   0.947
 3923SOL    HW212669   6.440   0.532   0.856
 3924SOL     OW12670   6.489   5.119   4.805
 3924SOL    HW112671   6.548   5.171   4.743
 3924SOL    HW212672   6.475   5.027   4.768
 3925SOL     OW12673   1.476   4.816   1.861
 3925SOL    HW112674   1.515   4.851   1.776
 3925SOL    HW212675   1.418   4.886   1.902
 3926SOL     OW12676   3.606   5.463   2.877
 3926SOL    HW112677   3.626   5.558   2.898
 3926SOL    HW212678   3.677   5.426   2.817
 3927SOL     OW12679   1.173   3.144   6.743
 3927SOL    HW112680   1.200   3.052   6.770
 3927SOL    HW212681   1.174   3.204   6.823
 3928SOL     OW12682   6.203   6.223   6.543
 3928SOL    HW112683   6.245   6.132   6.548
 3928SOL    HW212684   6.106   6.216   6.565
 3929SOL     OW12685   0.988   1.669   4.516
 3929SOL    HW112686   1.061   1.603   4.533
 3929SOL    HW212687   0.954   1.657   4.423
 3930SOL     OW12688   2.737   1.825   3.773
 3930SOL    HW112689   2.818   1.846   3.828
 3930SOL    HW212690   2.719   1.727   3.775
 3931SOL     OW12691   4.885   0.457   2.110
 3931SOL    HW112692   4.886   0.376   2.051
 3931SOL    HW212693   4.969   0.460   2.164
 3932SOL     OW12694   1.299   2.175   4.075
 3932SOL    HW112695   1.260   2.094   4.120
 3932SOL    HW212696   1.244   2.199   3.995
 3933SOL     OW12697   1.533   0.058   6.053
 3933SOL    HW112698   1.437   0.035   6.071
 3933SOL    HW212699   1.538   0.121   5.976
 3934SOL     OW12700   5.530   6.453   6.909
 3934SOL    HW112701   5.470   6.470   6.831
 3934SOL    HW212702   5.599   6.525   6.915
 3935SOL     OW12703   5.117   6.572   1.650
 3935SOL    HW112704   5.097   6.664   1.683
 3935SOL    HW212705   5.071   6.557   1.562
 3936SOL     OW12706   0.737   4.103   2.351
 3936SOL    HW112707   0.642   4.109   2.321
 3936SOL    HW212708   0.798   4.129   2.276
 3937SOL     OW12709   0.643   2.182   2.461
 3937SOL    HW112710   0.682   2.091   2.448
 3937SOL    HW212711   0.545   2.179   2.438
 3938SOL     OW12712   0.025   2.408   3.138
 3938SOL    HW112713   6.978   2.457   3.090
 3938SOL    HW212714   7.011   2.352   3.211
 3939SOL     OW12715   2.124   2.136   1.766
 3939SOL    HW112716   2.055   2.208   1.777
 3939SOL    HW212717   2.207   2.176   1.726
 3940SOL     OW12718   4.460   3.884   1.230
 3940SOL    HW112719   4.519   3.821   1.179
 3940SOL    HW212720   4.516   3.949   1.281
 3941SOL     OW12721   4.813   3.212   6.800
 3941SOL    HW112722   4.804   3.133   6.861
 3941SOL    HW212723   4.769   3.193   6.713
 3942SOL     OW12724   6.975   0.406   0.586
 3942SOL    HW112725   0.027   0.355   0.624
 3942SOL    HW212726   6.992   0.504   0.595
 3943SOL     OW12727   6.452   3.005   4.888
 3943SOL    HW112728   6.416   3.011   4.981
 3943SOL    HW212729   6.509   3.085   4.869
 3944SOL     OW12730   5.588   1.334   5.157
 3944SOL    HW112731   5.496   1.301   5.179
 3944SOL    HW212732   5.594   1.431   5.178
 3945SOL     OW12733   6.818   0.710   1.117
 3945SOL    HW112734   6.769   0.624   1.101
 3945SOL    HW212735   6.913   0.700   1.089
 3946SOL     OW12736   3.736   5.201   3.287
 3946SOL    HW112737   3.835   5.208   3.302
 3946SOL    HW212738   3.704   5.283   3.240
 3947SOL     OW12739   6.555   4.045   6.272
 3947SOL    HW112740   6.528   3.950   6.254
 3947SOL    HW212741   6.648   4.046   6.310
 3948SOL     OW12742   6.070   3.908   0.915
 3948SOL    HW112743   6.059   3.993   0.966
 3948SOL    HW212744   6.148   3.858   0.952
 3949SOL     OW12745   5.906   6.335   3.283
 3949SOL    HW112746   5.989   6.296   3.245
 3949SOL    HW212747   5.826   6.295   3.238
 3950SOL     OW12748   1.686   6.333   0.508
 3950SOL    HW112749   1.671   6.298   0.416
 3950SOL    HW212750   1.779   6.308   0.538
 3951SOL     OW12751   6.238   6.292   1.954
 3951SOL    HW112752   6.323   6.240   1.960
 3951SOL    HW212753   6.185   6.280   2.038
 3952SOL     OW12754   5.830   1.892   6.777
 3952SOL    HW112755   5.888   1.973   6.785
 3952SOL    HW212756   5.743   1.917   6.733
 3953SOL     OW12757   3.699   4.044   2.956
 3953SOL    HW112758   3.605   4.027   2.924
 3953SOL    HW212759   3.697   4.073   3.052
 3954SOL     OW12760   3.895   5.253   5.752
 3954SOL    HW112761   3.936   5.209   5.671
 3954SOL    HW212762   3.796   5.241   5.750
 3955SOL     OW12763   3.677   1.278   4.796
 3955SOL    HW112764   3.586   1.318   4.792
 3955SOL    HW212765   3.736   1.336   4.853
 3956SOL     OW12766   2.416   1.227   1.610
 3956SOL    HW112767   2.498   1.192   1.564
 3956SOL    HW212768   2.413   1.327   1.602
 3957SOL     OW12769   3.699   0.894   4.464
 3957SOL    HW112770   3.793   0.889   4.499
 3957SOL    HW212771   3.688   0.979   4.411
 3958SOL     OW12772   5.559   6.695   5.244
 3958SOL    HW112773   5.591   6.734   5.158
 3958SOL    HW212774   5.597   6.747   5.321
 3959SOL     OW12775   4.957   5.057   6.902
 3959SOL    HW112776   4.957   5.142   6.849
 3959SOL    HW212777   4.994   5.074   6.993
 3960SOL     OW12778   6.229   1.992   4.748
 3960SOL    HW112779   6.200   1.902   4.778
 3960SOL    HW212780   6.327   1.991   4.729
 3961SOL     OW12781   5.536   6.404   4.258
 3961SOL    HW112782   5.619   6.437   4.213
 3961SOL    HW212783   5.549   6.409   4.358
 3962SOL     OW12784   6.702   5.337   5.102
 3962SOL    HW112785   6.643   5.263   5.136
 3962SOL    HW212786   6.749   5.380   5.178
 3963SOL     OW12787   4.683   6.837   2.093
 3963SOL    HW112788   4.778   6.826   2.062
 3963SOL    HW212789   4.627   6.763   2.056
 3964SOL     OW12790   5.284   2.861   3.475
 3964SOL    HW112791   5.303   2.895   3.383
 3964SOL    HW212792   5.312   2.930   3.542
 3965SOL     OW12793   4.853   3.848   4.128
 3965SOL    HW112794   4.914   3.769   4.121
 3965SOL    HW212795   4.760   3.816   4.149
 3966SOL     OW12796   2.138   6.974   6.361
 3966SOL    HW112797   2.061   6.966   6.424
 3966SOL    HW212798   2.223   6.980   6.412
 3967SOL     OW12799   1.862   4.441   3.805
 3967SOL    HW112800   1.793   4.370   3.822
 3967SOL    HW212801   1.819   4.531   3.808
 3968SOL     OW12802   3.626   6.953   0.505
 3968SOL    HW112803   3.639   6.889   0.581
 3968SOL    HW212804   3.553   6.919   0.445
 3969SOL     OW12805   0.541   4.830   3.221
 3969SOL    HW112806   0.622   4.771   3.224
 3969SOL    HW212807   0.508   4.846   3.314
 3970SOL     OW12808   5.001   5.766   1.844
 3970SOL    HW112809   4.939   5.844   1.851
 3970SOL    HW212810   4.947   5.681   1.842
 3971SOL     OW12811   1.934   6.261   3.559
 3971SOL    HW112812   1.998   6.314   3.615
 3971SOL    HW212813   1.858   6.230   3.616
 3972SOL     OW12814   1.255   3.374   6.641
 3972SOL    HW112815   1.236   3.276   6.640
 3972SOL    HW212816   1.173   3.424   6.671
 3973SOL     OW12817   1.903   4.940   0.958
 3973SOL    HW112818   1.917   4.919   1.055
 3973SOL    HW212819   1.874   4.857   0.910
 3974SOL     OW12820   2.838   1.418   5.610
 3974SOL    HW112821   2.813   1.461   5.523
 3974SOL    HW212822   2.763   1.428   5.675
 3975SOL     OW12823   6.172   3.004   6.606
 3975SOL    HW112824   6.145   2.984   6.512
 3975SOL    HW212825   6.259   2.958   6.626
 3976SOL     OW12826   2.047   4.717   2.775
 3976SOL    HW112827   2.021   4.813   2.764
 3976SOL    HW212828   2.119   4.709   2.844
 3977SOL     OW12829   0.687   3.086   0.248
 3977SOL    HW112830   0.684   3.038   0.335
 3977SOL    HW212831   0.777   3.074   0.206
 3978SOL     OW12832   6.060   4.447   3.805
 3978SOL    HW112833   6.083   4.512   3.733
 3978SOL    HW212834   6.137   4.436   3.867
 3979SOL     OW12835   4.300   6.227   6.083
 3979SOL    HW112836   4.327   6.253   5.991
 3979SOL    HW212837   4.362   6.270   6.149
 3980SOL     OW12838   5.109   5.168   5.803
 3980SOL    HW112839   5.068   5.247   5.756
 3980SOL    HW212840   5.165   5.200   5.879
 3981SOL     OW12841   4.576   5.303   0.350
 3981SOL    HW112842   4.655   5.247   0.328
 3981SOL    HW212843   4.522   5.318   0.268
 3982SOL     OW12844   2.822   6.153   3.241
 3982SOL    HW112845   2.834   6.059   3.208
 3982SOL    HW212846   2.760   6.152   3.320
 3983SOL     OW12847   3.320   5.784   4.416
 3983SOL    HW112848   3.355   5.801   4.324
 3983SOL    HW212849   3.221   5.795   4.417
 3984SOL     OW12850   6.565   2.732   3.536
 3984SOL    HW112851   6.509   2.810   3.565
 3984SOL    HW212852   6.510   2.648   3.539
 3985SOL     OW12853   4.061   5.045   6.436
 3985SOL    HW112854   3.983   5.106   6.450
 3985SOL    HW212855   4.119   5.046   6.518
 3986SOL     OW12856   5.206   0.625   2.889
 3986SOL    HW112857   5.213   0.689   2.813
 3986SOL    HW212858   5.244   0.666   2.972
 3987SOL     OW12859   3.868   5.773   4.768
 3987SOL    HW112860   3.774   5.777   4.734
 3987SOL    HW212861   3.924   5.838   4.717
 3988SOL     OW12862   3.812   5.566   0.780
 3988SOL    HW112863   3.905   5.579   0.744
 3988SOL    HW212864   3.756   5.522   0.710
 3989SOL     OW12865   5.624   2.796   0.873
 3989SOL    HW112866   5.584   2.705   0.878
 3989SOL    HW212867   5.724   2.789   0.864
 3990SOL     OW12868   6.876   1.576   2.302
 3990SOL    HW112869   6.872   1.627   2.216
 3990SOL    HW212870   6.972   1.561   2.328
 3991SOL     OW12871   5.599   0.525   3.037
 3991SOL    HW112872   5.600   0.524   2.937
 3991SOL    HW212873   5.600   0.619   3.070
 3992SOL     OW12874   3.673   2.018   0.877
 3992SOL    HW112875   3.674   2.113   0.909
 3992SOL    HW212876   3.680   2.016   0.777
 3993SOL     OW12877   1.137   2.765   2.162
 3993SOL    HW112878   1.084   2.768   2.246
 3993SOL    HW212879   1.121   2.848   2.109
 3994SOL     OW12880   2.274   6.481   4.370
 3994SOL    HW112881   2.234   6.572   4.377
 3994SOL    HW212882   2.368   6.488   4.336
 3995SOL     OW12883   1.732   1.711   4.468
 3995SOL    HW112884   1.817   1.726   4.518
 3995SOL    HW212885   1.681   1.797   4.462
 3996SOL     OW12886   0.052   6.341   4.654
 3996SOL    HW112887   7.018   6.295   4.587
 3996SOL    HW212888   0.122   6.394   4.606
 3997SOL     OW12889   3.641   0.841   4.122
 3997SOL    HW112890   3.621   0.754   4.168
 3997SOL    HW212891   3.706   0.893   4.177
 3998SOL     OW12892   4.669   2.113   3.129
 3998SOL    HW112893   4.598   2.123   3.199
 3998SOL    HW212894   4.630   2.069   3.048
 3999SOL     OW12895   4.866   1.768   4.130
 3999SOL    HW112896   4.834   1.742   4.221
 3999SOL    HW212897   4.952   1.720   4.111
 4000SOL     OW12898   4.183   6.780   3.783
 4000SOL    HW112899   4.194   6.868   3.737
 4000SOL    HW212900   4.243   6.712   3.740
 4001SOL     OW12901   0.879   1.697   4.190
 4001SOL    HW112902   0.900   1.603   4.161
 4001SOL    HW212903   0.930   1.761   4.132
 4002SOL     OW12904   2.496   4.584   1.595
 4002SOL    HW112905   2.492   4.628   1.685
 4002SOL    HW212906   2.553   4.502   1.601
 4003SOL     OW12907   3.886   2.115   5.088
 4003SOL    HW112908   3.789   2.096   5.071
 4003SOL    HW212909   3.894   2.200   5.139
 4004SOL     OW12910   6.351   1.980   5.948
 4004SOL    HW112911   6.266   2.031   5.934
 4004SOL    HW212912   6.336   1.883   5.926
 4005SOL     OW12913   5.739   4.464   5.218
 4005SOL    HW112914   5.648   4.429   5.198
 4005SOL    HW212915   5.771   4.521   5.142
 4006SOL     OW12916   3.988   5.840   2.199
 4006SOL    HW112917   4.023   5.904   2.131
 4006SOL    HW212918   4.063   5.810   2.259
 4007SOL     OW12919   0.174   1.442   5.918
 4007SOL    HW112920   0.239   1.376   5.956
 4007SOL    HW212921   0.144   1.412   5.828
 4008SOL     OW12922   3.049   1.647   5.021
 4008SOL    HW112923   3.073   1.653   5.118
 4008SOL    HW212924   3.022   1.738   4.989
 4009SOL     OW12925   3.497   3.587   2.762
 4009SOL    HW112926   3.561   3.642   2.816
 4009SOL    HW212927   3.487   3.627   2.671
 4010SOL     OW12928   1.489   3.171   0.213
 4010SOL    HW112929   1.396   3.195   0.240
 4010SOL    HW212930   1.506   3.201   0.119
 4011SOL     OW12931   0.674   2.894   0.855
 4011SOL    HW112932   0.644   2.854   0.769
 4011SOL    HW212933   0.734   2.829   0.903
 4012SOL     OW12934   5.473   3.307   3.586
 4012SOL    HW112935   5.571   3.288   3.577
 4012SOL    HW212936   5.451   3.393   3.541
 4013SOL     OW12937   5.047   2.440   2.993
 4013SOL    HW112938   5.104   2.499   2.935
 4013SOL    HW212939   4.978   2.395   2.937
 4014SOL     OW12940   5.561   5.879   1.844
 4014SOL    HW112941   5.626   5.936   1.795
 4014SOL    HW212942   5.516   5.933   1.915
 4015SOL     OW12943   4.631   3.600   0.417
 4015SOL    HW112944   4.535   3.630   0.418
 4015SOL    HW212945   4.681   3.649   0.488
 4016SOL     OW12946   3.158   6.230   4.925
 4016SOL    HW112947   3.212   6.191   4.999
 4016SOL    HW212948   3.063   6.242   4.955
 4017SOL     OW12949   6.150   6.758   6.699
 4017SOL    HW112950   6.228   6.744   6.637
 4017SOL    HW212951   6.151   6.851   6.734
 4018SOL     OW12952   2.043   0.205   6.833
 4018SOL    HW112953   2.130   0.179   6.874
 4018SOL    HW212954   2.000   0.124   6.792
 4019SOL     OW12955   4.976   5.449   3.231
 4019SOL    HW112956   4.954   5.393   3.151
 4019SOL    HW212957   5.015   5.536   3.201
 4020SOL     OW12958   5.066   2.043   5.020
 4020SOL    HW112959   5.052   1.981   5.097
 4020SOL    HW212960   5.140   2.107   5.042
 4021SOL     OW12961   4.440   4.042   6.554
 4021SOL    HW112962   4.409   4.125   6.601
 4021SOL    HW212963   4.399   3.962   6.598
 4022SOL     OW12964   5.252   0.142   0.833
 4022SOL    HW112965   5.296   0.067   0.783
 4022SOL    HW212966   5.302   0.159   0.918
 4023SOL     OW12967   6.332   0.089   5.638
 4023SOL    HW112968   6.388   0.138   5.704
 4023SOL    HW212969   6.389   0.057   5.562
 4024SOL     OW12970   4.564   4.500   4.889
 4024SOL    HW112971   4.537   4.524   4.796
 4024SOL    HW212972   4.494   4.531   4.954
 4025SOL     OW12973   0.823   3.913   4.158
 4025SOL    HW112974   0.900   3.910   4.094
 4025SOL    HW212975   0.846   3.860   4.240
 4026SOL     OW12976   5.150   0.068   5.188
 4026SOL    HW112977   5.163   0.010   5.269
 4026SOL    HW212978   5.055   0.065   5.159
 4027SOL     OW12979   3.093   5.120   2.481
 4027SOL    HW112980   3.159   5.172   2.536
 4027SOL    HW212981   3.081   5.166   2.393
 4028SOL     OW12982   2.347   6.030   3.355
 4028SOL    HW112983   2.387   5.939   3.337
 4028SOL    HW212984   2.314   6.033   3.449
 4029SOL     OW12985   1.832   3.953   3.776
 4029SOL    HW112986   1.813   3.997   3.864
 4029SOL    HW212987   1.929   3.929   3.771
 4030SOL     OW12988   1.708   1.705   5.876
 4030SOL    HW112989   1.642   1.698   5.801
 4030SOL    HW212990   1.679   1.777   5.939
 4031SOL     OW12991   6.353   5.757   4.337
 4031SOL    HW112992   6.315   5.675   4.380
 4031SOL    HW212993   6.417   5.729   4.265
 4032SOL     OW12994   3.402   0.044   4.834
 4032SOL    HW112995   3.439   7.023   4.753
 4032SOL    HW212996   3.407   0.143   4.821
 4033SOL     OW12997   3.949   3.795   6.041
 4033SOL    HW112998   4.012   3.735   6.089
 4033SOL    HW212999   3.864   3.746   6.022
 4034SOL     OW13000   5.768   3.172   4.856
 4034SOL    HW113001   5.753   3.074   4.861
 4034SOL    HW213002   5.841   3.199   4.919
 4035SOL     OW13003   0.464   5.789   1.728
 4035SOL    HW113004   0.476   5.690   1.730
 4035SOL    HW213005   0.366   5.811   1.721
 4036SOL     OW13006   6.582   6.314   2.417
 4036SOL    HW113007   6.658   6.259   2.381
 4036SOL    HW213008   6.552   6.379   2.348
 4037SOL     OW13009   0.207   4.109   5.227
 4037SOL    HW113010   0.188   4.106   5.129
 4037SOL    HW213011   0.261   4.029   5.253
 4038SOL     OW13012   5.963   5.187   3.002
 4038SOL    HW113013   6.042   5.248   3.008
 4038SOL    HW213014   5.944   5.149   3.092
 4039SOL     OW13015   2.913   5.884   1.160
 4039SOL    HW113016   2.830   5.923   1.201
 4039SOL    HW213017   2.955   5.952   1.100
 4040SOL     OW13018   3.387   6.608   0.090
 4040SOL    HW113019   3.332   6.616   0.007
 4040SOL    HW213020   3.339   6.552   0.157
 4041SOL     OW13021   0.903   5.814   3.078
 4041SOL    HW113022   0.887   5.872   2.998
 4041SOL    HW213023   0.833   5.833   3.147
 4042SOL     OW13024   6.000   6.228   2.556
 4042SOL    HW113025   6.093   6.195   2.536
 4042SOL    HW213026   6.005   6.313   2.608
 4043SOL     OW13027   6.201   3.885   1.492
 4043SOL    HW113028   6.172   3.832   1.412
 4043SOL    HW213029   6.121   3.915   1.543
 4044SOL     OW13030   5.994   5.044   2.056
 4044SOL    HW113031   5.929   4.972   2.030
 4044SOL    HW213032   5.948   5.110   2.117
 4045SOL     OW13033   2.639   4.367   5.641
 4045SOL    HW113034   2.732   4.362   5.603
 4045SOL    HW213035   2.617   4.462   5.663
 4046SOL     OW13036   0.418   3.198   0.791
 4046SOL    HW113037   0.420   3.170   0.887
 4046SOL    HW213038   0.390   3.294   0.785
 4047SOL     OW13039   2.940   3.829   2.944
 4047SOL    HW113040   2.993   3.906   2.907
 4047SOL    HW213041   2.951   3.826   3.043
 4048SOL     OW13042   4.364   2.446   0.764
 4048SOL    HW113043   4.368   2.509   0.841
 4048SOL    HW213044   4.426   2.369   0.780
 4049SOL     OW13045   6.552   0.522   7.015
 4049SOL    HW113046   6.624   0.455   6.999
 4049SOL    HW213047   6.563   0.598   6.951
 4050SOL     OW13048   3.007   0.609   2.419
 4050SOL    HW113049   3.103   0.607   2.391
 4050SOL    HW213050   2.954   0.664   2.354
 4051SOL     OW13051   1.686   3.693   0.744
 4051SOL    HW113052   1.740   3.755   0.801
 4051SOL    HW213053   1.708   3.598   0.769
 4052SOL     OW13054   1.136   0.141   1.491
 4052SOL    HW113055   1.066   0.108   1.555
 4052SOL    HW213056   1.101   0.134   1.398
 4053SOL     OW13057   2.806   5.165   3.291
 4053SOL    HW113058   2.784   5.075   3.256
 4053SOL    HW213059   2.840   5.157   3.385
 4054SOL     OW13060   5.000   1.543   6.733
 4054SOL    HW113061   4.930   1.614   6.742
 4054SOL    HW213062   5.020   1.529   6.636
 4055SOL     OW13063   4.578   3.342   0.370
 4055SOL    HW113064   4.608   3.437   0.385
 4055SOL    HW213065   4.638   3.281   0.422
 4056SOL     OW13066   4.390   3.108   0.252
 4056SOL    HW113067   4.485   3.133   0.235
 4056SOL    HW213068   4.364   3.136   0.344
 4057SOL     OW13069   6.238   3.134   0.605
 4057SOL    HW113070   6.322   3.187   0.620
 4057SOL    HW213071   6.261   3.036   0.602
 4058SOL     OW13072   0.350   2.142   3.578
 4058SOL    HW113073   0.411   2.203   3.528
 4058SOL    HW213074   0.321   2.185   3.663
 4059SOL     OW13075   6.700   2.308   5.330
 4059SOL    HW113076   6.788   2.344   5.298
 4059SOL    HW213077   6.709   2.210   5.348
 4060SOL     OW13078   3.315   6.452   6.086
 4060SOL    HW113079   3.292   6.541   6.124
 4060SOL    HW213080   3.240   6.388   6.100
 4061SOL     OW13081   2.291   3.214   1.496
 4061SOL    HW113082   2.279   3.268   1.412
 4061SOL    HW213083   2.205   3.171   1.520
 4062SOL     OW13084   3.095   6.606   2.913
 4062SOL    HW113085   3.114   6.509   2.930
 4062SOL    HW213086   3.076   6.652   3.001
 4063SOL     OW13087   2.927   5.534   6.483
 4063SOL    HW113088   2.855   5.567   6.421
 4063SOL    HW213089   2.955   5.608   6.543
 4064SOL     OW13090   6.536   7.010   4.245
 4064SOL    HW113091   6.450   0.029   4.270
 4064SOL    HW213092   6.556   6.937   4.311
 4065SOL     OW13093   0.962   4.243   6.142
 4065SOL    HW113094   0.916   4.332   6.146
 4065SOL    HW213095   0.995   4.227   6.049
 4066SOL     OW13096   5.020   5.186   1.123
 4066SOL    HW113097   4.962   5.178   1.204
 4066SOL    HW213098   4.984   5.128   1.050
 4067SOL     OW13099   5.560   0.752   1.195
 4067SOL    HW113100   5.582   0.847   1.174
 4067SOL    HW213101   5.619   0.692   1.141
 4068SOL     OW13102   5.279   1.023   4.905
 4068SOL    HW113103   5.262   0.998   4.810
 4068SOL    HW213104   5.376   1.048   4.916
 4069SOL     OW13105   6.520   6.160   1.160
 4069SOL    HW113106   6.614   6.187   1.180
 4069SOL    HW213107   6.461   6.184   1.237
 4070SOL     OW13108   6.453   3.675   2.813
 4070SOL    HW113109   6.500   3.672   2.724
 4070SOL    HW213110   6.454   3.584   2.854
 4071SOL     OW13111   2.654   0.611   4.516
 4071SOL    HW113112   2.734   0.568   4.556
 4071SOL    HW213113   2.598   0.650   4.588
 4072SOL     OW13114   0.654   0.071   4.461
 4072SOL    HW113115   0.727   0.041   4.400
 4072SOL    HW213116   0.692   0.088   4.552
 4073SOL     OW13117   2.524   5.205   2.661
 4073SOL    HW113118   2.536   5.146   2.582
 4073SOL    HW213119   2.543   5.153   2.745
 4074SOL     OW13120   0.229   2.961   0.763
 4074SOL    HW113121   0.300   3.031   0.766
 4074SOL    HW213122   0.167   2.978   0.686
 4075SOL     OW13123   6.006   6.854   3.628
 4075SOL    HW113124   5.981   6.935   3.575
 4075SOL    HW213125   6.096   6.868   3.670
 4076SOL     OW13126   1.627   2.875   3.304
 4076SOL    HW113127   1.635   2.942   3.230
 4076SOL    HW213128   1.698   2.806   3.295
 4077SOL     OW13129   3.584   0.770   1.063
 4077SOL    HW113130   3.574   0.743   1.158
 4077SOL    HW213131   3.681   0.771   1.038
 4078SOL     OW13132   4.992   4.476   3.230
 4078SOL    HW113133   4.963   4.571   3.239
 4078SOL    HW213134   4.930   4.428   3.168
 4079SOL     OW13135   5.003   0.929   3.969
 4079SOL    HW113136   5.076   0.861   3.962
 4079SOL    HW213137   4.915   0.884   3.974
 4080SOL     OW13138   3.355   4.102   4.540
 4080SOL    HW113139   3.372   4.006   4.518
 4080SOL    HW213140   3.410   4.160   4.479
 4081SOL     OW13141   2.297   1.258   0.127
 4081SOL    HW113142   2.286   1.163   0.156
 4081SOL    HW213143   2.224   1.282   0.063
 4082SOL     OW13144   0.964   1.353   6.125
 4082SOL    HW113145   0.955   1.254   6.132
 4082SOL    HW213146   0.910   1.397   6.197
 4083SOL     OW13147   6.266   5.057   2.092
 4083SOL    HW113148   6.320   4.986   2.048
 4083SOL    HW213149   6.170   5.030   2.094
 4084SOL     OW13150   4.619   6.590   2.001
 4084SOL    HW113151   4.632   6.521   2.072
 4084SOL    HW213152   4.667   6.561   1.918
 4085SOL     OW13153   2.469   4.398   2.782
 4085SOL    HW113154   2.474   4.330   2.708
 4085SOL    HW213155   2.548   4.459   2.777
 4086SOL     OW13156   5.663   5.364   5.236
 4086SOL    HW113157   5.730   5.290   5.238
 4086SOL    HW213158   5.591   5.342   5.170
 4087SOL     OW13159   2.024   0.931   2.255
 4087SOL    HW113160   2.062   1.022   2.245
 4087SOL    HW213161   1.994   0.917   2.349
 4088SOL     OW13162   6.856   1.858   5.621
 4088SOL    HW113163   6.933   1.799   5.643
 4088SOL    HW213164   6.809   1.883   5.705
 4089SOL     OW13165   0.975   0.612   2.669
 4089SOL    HW113166   0.989   0.708   2.694
 4089SOL    HW213167   1.015   0.554   2.740
 4090SOL     OW13168   3.001   2.386   5.768
 4090SOL    HW113169   3.070   2.458   5.763
 4090SOL    HW213170   2.958   2.375   5.678
 4091SOL     OW13171   3.832   6.166   2.204
 4091SOL    HW113172   3.782   6.246   2.237
 4091SOL    HW213173   3.781   6.083   2.227
 4092SOL     OW13174   5.326   1.833   6.158
 4092SOL    HW113175   5.385   1.766   6.114
 4092SOL    HW213176   5.338   1.922   6.115
 4093SOL     OW13177   5.687   4.062   2.440
 4093SOL    HW113178   5.760   4.089   2.503
 4093SOL    HW213179   5.657   3.969   2.463
 4094SOL     OW13180   6.697   6.969   0.307
 4094SOL    HW113181   6.684   0.031   0.261
 4094SOL    HW213182   6.615   6.913   0.297
 4095SOL     OW13183   1.754   5.170   1.069
 4095SOL    HW113184   1.749   5.095   1.003
 4095SOL    HW213185   1.850   5.198   1.081
 4096SOL     OW13186   0.362   0.221   6.302
 4096SOL    HW113187   0.314   0.230   6.390
 4096SOL    HW213188   0.308   0.164   6.241
 4097SOL     OW13189   1.407   3.832   5.254
 4097SOL    HW113190   1.369   3.883   5.331
 4097SOL    HW213191   1.380   3.877   5.168
 4098SOL     OW13192   1.533   5.898   2.164
 4098SOL    HW113193   1.589   5.848   2.229
 4098SOL    HW213194   1.589   5.923   2.085
 4099SOL     OW13195   0.082   3.081   5.683
 4099SOL    HW113196   0.048   3.127   5.765
 4099SOL    HW213197   0.035   2.994   5.672
 4100SOL     OW13198   2.398   0.669   3.496
 4100SOL    HW113199   2.302   0.687   3.476
 4100SOL    HW213200   2.425   0.582   3.454
 4101SOL     OW13201   6.364   6.284   6.105
 4101SOL    HW113202   6.366   6.186   6.124
 4101SOL    HW213203   6.456   6.317   6.088
 4102SOL     OW13204   2.123   5.369   0.531
 4102SOL    HW113205   2.192   5.352   0.461
 4102SOL    HW213206   2.167   5.382   0.619
 4103SOL     OW13207   2.431   5.132   3.112
 4103SOL    HW113208   2.351   5.104   3.166
 4103SOL    HW213209   2.464   5.221   3.144
 4104SOL     OW13210   1.993   5.848   5.650
 4104SOL    HW113211   2.044   5.889   5.574
 4104SOL    HW213212   1.960   5.920   5.711
 4105SOL     OW13213   3.627   6.803   1.582
 4105SOL    HW113214   3.540   6.845   1.608
 4105SOL    HW213215   3.658   6.841   1.495
 4106SOL     OW13216   1.335   6.995   2.846
 4106SOL    HW113217   1.378   0.009   2.928
 4106SOL    HW213218   1.346   0.032   2.769
 4107SOL     OW13219   1.919   2.047   1.124
 4107SOL    HW113220   1.904   2.066   1.027
 4107SOL    HW213221   1.843   2.082   1.177
 4108SOL     OW13222   0.466   6.165   5.072
 4108SOL    HW113223   0.425   6.238   5.017
 4108SOL    HW213224   0.465   6.192   5.168
 4109SOL     OW13225   4.983   6.785   4.911
 4109SOL    HW113226   4.961   6.861   4.850
 4109SOL    HW213227   5.077   6.793   4.943
 4110SOL     OW13228   4.109   2.964   0.733
 4110SOL    HW113229   4.086   2.889   0.795
 4110SOL    HW213230   4.101   2.933   0.639
 4111SOL     OW13231   5.873   4.659   3.412
 4111SOL    HW113232   5.854   4.563   3.434
 4111SOL    HW213233   5.821   4.686   3.331
 4112SOL     OW13234   4.609   5.904   5.232
 4112SOL    HW113235   4.522   5.926   5.275
 4112SOL    HW213236   4.680   5.967   5.263
 4113SOL     OW13237   4.498   5.604   5.303
 4113SOL    HW113238   4.501   5.688   5.356
 4113SOL    HW213239   4.473   5.625   5.208
 4114SOL     OW13240   6.848   1.306   2.639
 4114SOL    HW113241   6.884   1.389   2.597
 4114SOL    HW213242   6.834   1.322   2.736
 4115SOL     OW13243   4.078   6.266   4.286
 4115SOL    HW113244   4.076   6.336   4.357
 4115SOL    HW213245   4.097   6.308   4.197
 4116SOL     OW13246   6.311   3.445   3.821
 4116SOL    HW113247   6.346   3.514   3.884
 4116SOL    HW213248   6.370   3.365   3.822
 4117SOL     OW13249   0.148   1.950   2.711
 4117SOL    HW113250   0.164   1.952   2.810
 4117SOL    HW213251   0.171   1.860   2.675
 4118SOL     OW13252   0.945   0.381   1.890
 4118SOL    HW113253   0.938   0.403   1.793
 4118SOL    HW213254   1.031   0.416   1.926
 4119SOL     OW13255   6.847   0.876   5.224
 4119SOL    HW113256   6.851   0.964   5.177
 4119SOL    HW213257   6.865   0.889   5.321
 4120SOL     OW13258   1.602   0.657   6.200
 4120SOL    HW113259   1.562   0.637   6.110
 4120SOL    HW213260   1.692   0.698   6.188
 4121SOL     OW13261   6.642   1.260   1.120
 4121SOL    HW113262   6.690   1.175   1.142
 4121SOL    HW213263   6.628   1.313   1.203
 4122SOL     OW13264   0.775   4.766   3.771
 4122SOL    HW113265   0.691   4.729   3.810
 4122SOL    HW213266   0.854   4.727   3.819
 4123SOL     OW13267   6.000   4.251   1.704
 4123SOL    HW113268   6.065   4.325   1.719
 4123SOL    HW213269   5.957   4.262   1.614
 4124SOL     OW13270   6.177   6.863   0.117
 4124SOL    HW113271   6.181   6.818   0.207
 4124SOL    HW213272   6.212   6.956   0.125
 4125SOL     OW13273   6.724   2.506   6.756
 4125SOL    HW113274   6.797   2.438   6.762
 4125SOL    HW213275   6.747   2.574   6.687
 4126SOL     OW13276   1.142   4.168   3.837
 4126SOL    HW113277   1.099   4.220   3.912
 4126SOL    HW213278   1.217   4.113   3.874
 4127SOL     OW13279   4.608   2.169   4.156
 4127SOL    HW113280   4.557   2.102   4.102
 4127SOL    HW213281   4.605   2.258   4.111
 4128SOL     OW13282   6.493   2.088   6.138
 4128SOL    HW113283   6.436   2.129   6.209
 4128SOL    HW213284   6.436   2.049   6.067
 4129SOL     OW13285   2.995   0.429   1.652
 4129SOL    HW113286   3.090   0.418   1.681
 4129SOL    HW213287   2.978   0.523   1.625
 4130SOL     OW13288   5.266   2.612   0.319
 4130SOL    HW113289   5.337   2.621   0.389
 4130SOL    HW213290   5.179   2.592   0.363
 4131SOL     OW13291   5.116   6.240   3.712
 4131SOL    HW113292   5.062   6.163   3.747
 4131SOL    HW213293   5.167   6.210   3.631
 4132SOL     OW13294   6.259   3.887   2.779
 4132SOL    HW113295   6.330   3.819   2.799
 4132SOL    HW213296   6.302   3.974   2.756
 4133SOL     OW13297   5.486   6.560   3.625
 4133SOL    HW113298   5.437   6.572   3.711
 4133SOL    HW213299   5.513   6.464   3.615
 4134SOL     OW13300   1.106   3.243   1.523
 4134SOL    HW113301   1.072   3.179   1.453
 4134SOL    HW213302   1.035   3.310   1.543
 4135SOL     OW13303   5.940   1.217   0.736
 4135SOL    HW113304   5.932   1.298   0.679
 4135SOL    HW213305   5.936   1.244   0.833
 4136SOL     OW13306   0.922   5.199   0.280
 4136SOL    HW113307   0.992   5.178   0.211
 4136SOL    HW213308   0.891   5.115   0.323
 4137SOL     OW13309   0.107   2.728   5.848
 4137SOL    HW113310   0.036   2.681   5.796
 4137SOL    HW213311   0.150   2.664   5.912
 4138SOL     OW13312   5.679   6.641   6.209
 4138SOL    HW113313   5.728   6.715   6.163
 4138SOL    HW213314   5.725   6.619   6.296
 4139SOL     OW13315   1.873   4.161   2.508
 4139SOL    HW113316   1.808   4.116   2.447
 4139SOL    HW213317   1.884   4.256   2.480
 4140SOL     OW13318   2.405   6.942   0.146
 4140SOL    HW113319   2.482   6.915   0.203
 4140SOL    HW213320   2.347   6.862   0.129
 4141SOL     OW13321   5.331   0.378   5.938
 4141SOL    HW113322   5.235   0.369   5.914
 4141SOL    HW213323   5.341   0.377   6.038
 4142SOL     OW13324   0.079   6.566   1.571
 4142SOL    HW113325   0.113   6.651   1.529
 4142SOL    HW213326   0.073   6.495   1.501
 4143SOL     OW13327   6.861   3.708   6.749
 4143SOL    HW113328   6.836   3.612   6.761
 4143SOL    HW213329   6.850   3.735   6.654
 4144SOL     OW13330   4.127   0.477   1.581
 4144SOL    HW113331   4.129   0.457   1.483
 4144SOL    HW213332   4.071   0.559   1.597
 4145SOL     OW13333   5.263   0.898   1.311
 4145SOL    HW113334   5.185   0.846   1.344
 4145SOL    HW213335   5.330   0.908   1.385
 4146SOL     OW13336   3.837   6.841   2.460
 4146SOL    HW113337   3.885   6.872   2.542
 4146SOL    HW213338   3.883   6.760   2.424
 4147SOL     OW13339   4.693   4.296   6.796
 4147SOL    HW113340   4.772   4.253   6.840
 4147SOL    HW213341   4.715   4.316   6.701
 4148SOL     OW13342   3.174   1.160   5.806
 4148SOL    HW113343   3.227   1.221   5.747
 4148SOL    HW213344   3.187   1.066   5.776
 4149SOL     OW13345   1.820   3.318   0.111
 4149SOL    HW113346   1.874   3.400   0.129
 4149SOL    HW213347   1.819   3.261   0.193
 4150SOL     OW13348   6.256   1.190   0.800
 4150SOL    HW113349   6.190   1.166   0.728
 4150SOL    HW213350   6.278   1.288   0.794
 4151SOL     OW13351   2.891   5.921   4.606
 4151SOL    HW113352   2.873   5.884   4.697
 4151SOL    HW213353   2.806   5.957   4.567
 4152SOL     OW13354   2.754   4.181   1.291
 4152SOL    HW113355   2.837   4.235   1.301
 4152SOL    HW213356   2.771   4.104   1.229
 4153SOL     OW13357   6.830   5.914   1.395
 4153SOL    HW113358   6.918   5.962   1.395
 4153SOL    HW213359   6.832   5.841   1.326
 4154SOL     OW13360   0.267   6.470   4.522
 4154SOL    HW113361   0.302   6.391   4.473
 4154SOL    HW213362   0.340   6.538   4.533
 4155SOL     OW13363   5.898   1.256   1.943
 4155SOL    HW113364   5.894   1.157   1.961
 4155SOL    HW213365   5.959   1.299   2.010
 4156SOL     OW13366   0.513   4.962   5.548
 4156SOL    HW113367   0.593   4.904   5.565
 4156SOL    HW213368   0.514   4.992   5.452
 4157SOL     OW13369   5.334   5.943   0.941
 4157SOL    HW113370   5.356   5.952   1.038
 4157SOL    HW213371   5.419   5.930   0.889
 4158SOL     OW13372   6.396   2.225   0.160
 4158SOL    HW113373   6.439   2.135   0.173
 4158SOL    HW213374   6.451   2.279   0.097
 4159SOL     OW13375   3.385   0.250   4.606
 4159SOL    HW113376   3.370   0.232   4.509
 4159SOL    HW213377   3.422   0.342   4.618
 4160SOL     OW13378   1.598   6.859   5.918
 4160SOL    HW113379   1.693   6.829   5.921
 4160SOL    HW213380   1.589   6.946   5.968
 4161SOL     OW13381   3.306   2.973   3.902
 4161SOL    HW113382   3.327   2.877   3.924
 4161SOL    HW213383   3.316   3.028   3.985
 4162SOL     OW13384   4.924   5.906   1.454
 4162SOL    HW113385   4.992   5.951   1.512
 4162SOL    HW213386   4.956   5.904   1.360
 4163SOL     OW13387   3.586   5.505   1.137
 4163SOL    HW113388   3.552   5.412   1.122
 4163SOL    HW213389   3.558   5.537   1.228
 4164SOL     OW13390   5.567   1.970   6.738
 4164SOL    HW113391   5.476   2.010   6.727
 4164SOL    HW213392   5.611   2.009   6.819
 4165SOL     OW13393   3.219   1.757   3.830
 4165SOL    HW113394   3.314   1.723   3.828
 4165SOL    HW213395   3.215   1.846   3.786
 4166SOL     OW13396   6.391   2.335   2.559
 4166SOL    HW113397   6.379   2.367   2.653
 4166SOL    HW213398   6.306   2.351   2.507
 4167SOL     OW13399   3.875   6.324   4.746
 4167SOL    HW113400   3.828   6.410   4.766
 4167SOL    HW213401   3.953   6.314   4.807
 4168SOL     OW13402   5.008   3.864   6.375
 4168SOL    HW113403   4.934   3.884   6.310
 4168SOL    HW213404   4.976   3.879   6.468
 4169SOL     OW13405   5.057   3.787   6.724
 4169SOL    HW113406   5.026   3.882   6.719
 4169SOL    HW213407   4.985   3.730   6.764
 4170SOL     OW13408   1.404   3.515   5.137
 4170SOL    HW113409   1.352   3.588   5.181
 4170SOL    HW213410   1.366   3.426   5.163
 4171SOL     OW13411   0.446   1.040   6.370
 4171SOL    HW113412   0.460   0.948   6.333
 4171SOL    HW213413   0.464   1.040   6.468
 4172SOL     OW13414   2.480   2.937   6.774
 4172SOL    HW113415   2.439   2.971   6.858
 4172SOL    HW213416   2.461   3.001   6.699
 4173SOL     OW13417   5.135   1.003   5.374
 4173SOL    HW113418   5.118   0.994   5.276
 4173SOL    HW213419   5.087   0.931   5.424
 4174SOL     OW13420   3.127   6.802   3.676
 4174SOL    HW113421   3.200   6.733   3.680
 4174SOL    HW213422   3.132   6.851   3.589
 4175SOL     OW13423   0.991   4.927   6.419
 4175SOL    HW113424   0.927   4.874   6.475
 4175SOL    HW213425   0.940   4.986   6.356
 4176SOL     OW13426   4.458   0.323   5.500
 4176SOL    HW113427   4.454   0.223   5.511
 4176SOL    HW213428   4.523   0.345   5.427
 4177SOL     OW13429   4.339   5.696   3.629
 4177SOL    HW113430   4.379   5.739   3.548
 4177SOL    HW213431   4.240   5.697   3.622
 4178SOL     OW13432   3.760   6.452   0.998
 4178SOL    HW113433   3.666   6.481   1.014
 4178SOL    HW213434   3.796   6.496   0.916
 4179SOL     OW13435   4.083   2.407   6.457
 4179SOL    HW113436   4.023   2.472   6.502
 4179SOL    HW213437   4.173   2.449   6.443
 4180SOL     OW13438   3.626   4.188   0.053
 4180SOL    HW113439   3.588   4.097   0.068
 4180SOL    HW213440   3.672   4.191   6.990
 4181SOL     OW13441   5.541   6.217   5.423
 4181SOL    HW113442   5.579   6.130   5.455
 4181SOL    HW213443   5.482   6.201   5.344
 4182SOL     OW13444   0.098   5.454   5.524
 4182SOL    HW113445   0.117   5.368   5.475
 4182SOL    HW213446   0.051   5.433   5.609
 4183SOL     OW13447   5.002   2.581   0.393
 4183SOL    HW113448   4.955   2.583   0.305
 4183SOL    HW213449   4.964   2.509   0.450
 4184SOL     OW13450   3.388   5.587   3.303
 4184SOL    HW113451   3.432   5.590   3.393
 4184SOL    HW213452   3.449   5.543   3.237
 4185SOL     OW13453   4.832   4.342   3.073
 4185SOL    HW113454   4.851   4.378   2.981
 4185SOL    HW213455   4.853   4.245   3.076
 4186SOL     OW13456   1.542   5.035   6.587
 4186SOL    HW113457   1.481   4.962   6.618
 4186SOL    HW213458   1.636   5.015   6.617
 4187SOL     OW13459   2.302   4.128   6.475
 4187SOL    HW113460   2.274   4.060   6.543
 4187SOL    HW213461   2.360   4.084   6.406
 4188SOL     OW13462   5.461   0.506   6.413
 4188SOL    HW113463   5.444   0.410   6.394
 4188SOL    HW213464   5.374   0.556   6.411
 4189SOL     OW13465   5.123   5.417   2.794
 4189SOL    HW113466   5.049   5.466   2.749
 4189SOL    HW213467   5.099   5.402   2.891
 4190SOL     OW13468   6.763   6.376   1.859
 4190SOL    HW113469   6.824   6.456   1.865
 4190SOL    HW213470   6.747   6.354   1.763
 4191SOL     OW13471   4.384   2.650   6.103
 4191SOL    HW113472   4.295   2.619   6.070
 4191SOL    HW213473   4.454   2.630   6.035
 4192SOL     OW13474   1.525   3.570   6.145
 4192SOL    HW113475   1.511   3.558   6.047
 4192SOL    HW213476   1.617   3.542   6.169
 4193SOL     OW13477   6.552   0.151   1.411
 4193SOL    HW113478   6.649   0.146   1.386
 4193SOL    HW213479   6.543   0.203   1.496
 4194SOL     OW13480   5.586   0.620   6.637
 4194SOL    HW113481   5.514   0.586   6.577
 4194SOL    HW213482   5.671   0.628   6.585
 4195SOL     OW13483   2.219   5.891   0.519
 4195SOL    HW113484   2.167   5.956   0.464
 4195SOL    HW213485   2.282   5.941   0.579
 4196SOL     OW13486   6.939   2.936   3.588
 4196SOL    HW113487   6.998   2.972   3.660
 4196SOL    HW213488   6.895   2.852   3.620
 4197SOL     OW13489   4.012   0.718   0.158
 4197SOL    HW113490   4.072   0.685   0.231
 4197SOL    HW213491   3.975   0.807   0.183
 4198SOL     OW13492   0.113   2.375   1.662
 4198SOL    HW113493   0.097   2.462   1.710
 4198SOL    HW213494   0.197   2.381   1.609
 4199SOL     OW13495   0.924   3.806   6.796
 4199SOL    HW113496   0.858   3.829   6.725
 4199SOL    HW213497   0.961   3.890   6.835
 4200SOL     OW13498   5.467   1.629   3.119
 4200SOL    HW113499   5.504   1.707   3.169
 4200SOL    HW213500   5.472   1.646   3.021
 4201SOL     OW13501   5.296   0.044   4.272
 4201SOL    HW113502   5.227   0.114   4.254
 4201SOL    HW213503   5.296   0.021   4.370
 4202SOL     OW13504   4.526   3.979   1.703
 4202SOL    HW113505   4.465   4.051   1.735
 4202SOL    HW213506   4.471   3.902   1.667
 4203SOL     OW13507   6.181   3.889   5.452
 4203SOL    HW113508   6.138   3.969   5.494
 4203SOL    HW213509   6.181   3.899   5.353
 4204SOL     OW13510   2.160   4.342   6.316
 4204SOL    HW113511   2.159   4.293   6.404
 4204SOL    HW213512   2.210   4.289   6.249
 4205SOL     OW13513   5.546   6.155   5.778
 4205SOL    HW113514   5.569   6.253   5.784
 4205SOL    HW213515   5.630   6.101   5.784
 4206SOL     OW13516   2.640   2.464   4.583
 4206SOL    HW113517   2.724   2.422   4.548
 4206SOL    HW213518   2.596   2.517   4.510
 4207SOL     OW13519   2.071   2.835   1.319
 4207SOL    HW113520   2.076   2.805   1.224
 4207SOL    HW213521   1.982   2.811   1.358
 4208SOL     OW13522   2.749   2.345   3.520
 4208SOL    HW113523   2.822   2.297   3.569
 4208SOL    HW213524   2.660   2.314   3.555
 4209SOL     OW13525   6.557   5.608   2.862
 4209SOL    HW113526   6.532   5.698   2.825
 4209SOL    HW213527   6.528   5.602   2.958
 4210SOL     OW13528   2.990   4.757   5.737
 4210SOL    HW113529   2.927   4.832   5.715
 4210SOL    HW213530   3.043   4.733   5.655
 4211SOL     OW13531   4.486   2.553   5.593
 4211SOL    HW113532   4.476   2.523   5.688
 4211SOL    HW213533   4.526   2.479   5.539
 4212SOL     OW13534   0.777   2.664   3.238
 4212SOL    HW113535   0.877   2.655   3.233
 4212SOL    HW213536   0.740   2.677   3.146
 4213SOL     OW13537   3.690   0.774   3.634
 4213SOL    HW113538   3.672   0.870   3.614
 4213SOL    HW213539   3.711   0.764   3.731
 4214SOL     OW13540   6.648   6.456   3.777
 4214SOL    HW113541   6.578   6.396   3.816
 4214SOL    HW213542   6.626   6.475   3.681
 4215SOL     OW13543   6.074   0.276   5.317
 4215SOL    HW113544   6.137   0.309   5.388
 4215SOL    HW213545   5.993   0.334   5.317
 4216SOL     OW13546   2.554   5.460   1.967
 4216SOL    HW113547   2.464   5.499   1.952
 4216SOL    HW213548   2.570   5.447   2.065
 4217SOL     OW13549   1.045   0.460   2.883
 4217SOL    HW113550   0.964   0.410   2.912
 4217SOL    HW213551   1.127   0.409   2.908
 4218SOL     OW13552   3.383   0.910   1.874
 4218SOL    HW113553   3.349   0.971   1.803
 4218SOL    HW213554   3.398   0.961   1.958
 4219SOL     OW13555   3.287   5.150   3.089
 4219SOL    HW113556   3.217   5.150   3.017
 4219SOL    HW213557   3.243   5.142   3.178
 4220SOL     OW13558   6.157   2.325   1.564
 4220SOL    HW113559   6.194   2.277   1.644
 4220SOL    HW213560   6.063   2.296   1.548
 4221SOL     OW13561   0.551   6.696   0.798
 4221SOL    HW113562   0.599   6.672   0.714
 4221SOL    HW213563   0.489   6.772   0.781
 4222SOL     OW13564   4.905   3.371   4.526
 4222SOL    HW113565   4.891   3.467   4.548
 4222SOL    HW213566   4.901   3.358   4.427
 4223SOL     OW13567   3.427   4.007   2.828
 4223SOL    HW113568   3.409   4.001   2.926
 4223SOL    HW213569   3.340   4.003   2.778
 4224SOL     OW13570   4.856   4.515   4.588
 4224SOL    HW113571   4.858   4.421   4.620
 4224SOL    HW213572   4.817   4.574   4.658
 4225SOL     OW13573   0.567   1.869   6.334
 4225SOL    HW113574   0.530   1.777   6.338
 4225SOL    HW213575   0.530   1.917   6.254
 4226SOL     OW13576   5.940   4.475   4.523
 4226SOL    HW113577   5.954   4.552   4.461
 4226SOL    HW213578   5.941   4.390   4.471
 4227SOL     OW13579   5.619   5.351   1.023
 4227SOL    HW113580   5.543   5.407   0.992
 4227SOL    HW213581   5.689   5.346   0.952
 4228SOL     OW13582   1.577   4.301   3.557
 4228SOL    HW113583   1.537   4.392   3.549
 4228SOL    HW213584   1.587   4.261   3.466
 4229SOL     OW13585   6.426   6.171   5.445
 4229SOL    HW113586   6.390   6.248   5.392
 4229SOL    HW213587   6.351   6.107   5.465
 4230SOL     OW13588   0.197   0.951   2.103
 4230SOL    HW113589   0.224   0.861   2.138
 4230SOL    HW213590   0.207   0.952   2.004
 4231SOL     OW13591   0.556   0.391   6.342
 4231SOL    HW113592   0.582   0.374   6.438
 4231SOL    HW213593   0.487   0.325   6.314
 4232SOL     OW13594   1.507   4.663   3.590
 4232SOL    HW113595   1.523   4.716   3.506
 4232SOL    HW213596   1.565   4.699   3.663
 4233SOL     OW13597   4.313   4.795   2.421
 4233SOL    HW113598   4.356   4.882   2.397
 4233SOL    HW213599   4.320   4.731   2.345
 4234SOL     OW13600   3.645   5.455   5.889
 4234SOL    HW113601   3.681   5.526   5.828
 4234SOL    HW213602   3.720   5.402   5.927
 4235SOL     OW13603   6.808   6.103   6.809
 4235SOL    HW113604   6.825   6.013   6.848
 4235SOL    HW213605   6.882   6.128   6.747
 4236SOL     OW13606   0.520   5.255   3.194
 4236SOL    HW113607   0.619   5.244   3.189
 4236SOL    HW213608   0.498   5.352   3.204
 4237SOL     OW13609   6.486   4.608   3.479
 4237SOL    HW113610   6.454   4.700   3.457
 4237SOL    HW213611   6.553   4.613   3.552
 4238SOL     OW13612   2.874   5.764   2.962
 4238SOL    HW113613   2.919   5.806   2.883
 4238SOL    HW213614   2.868   5.665   2.948
 4239SOL     OW13615   3.861   1.102   3.307
 4239SOL    HW113616   3.802   1.085   3.228
 4239SOL    HW213617   3.933   1.032   3.311
 4240SOL     OW13618   5.684   7.006   2.486
 4240SOL    HW113619   5.616   6.950   2.533
 4240SOL    HW213620   5.721   6.955   2.408
 4241SOL     OW13621   6.530   4.688   0.338
 4241SOL    HW113622   6.513   4.590   0.333
 4241SOL    HW213623   6.553   4.722   0.247
 4242SOL     OW13624   3.502   2.098   3.182
 4242SOL    HW113625   3.522   2.051   3.096
 4242SOL    HW213626   3.410   2.137   3.179
 4243SOL     OW13627   3.566   1.987   2.941
 4243SOL    HW113628   3.619   1.946   3.015
 4243SOL    HW213629   3.627   2.017   2.868
 4244SOL     OW13630   2.970   3.387   4.889
 4244SOL    HW113631   2.991   3.485   4.895
 4244SOL    HW213632   2.918   3.369   4.806
 4245SOL     OW13633   6.488   0.673   6.251
 4245SOL    HW113634   6.474   0.740   6.178
 4245SOL    HW213635   6.400   0.638   6.282
 4246SOL     OW13636   0.127   4.870   6.081
 4246SOL    HW113637   0.149   4.777   6.052
 4246SOL    HW213638   0.093   4.922   6.002
 4247SOL     OW13639   0.076   5.415   5.129
 4247SOL    HW113640   0.035   5.505   5.136
 4247SOL    HW213641   0.175   5.422   5.144
 4248SOL     OW13642   2.147   3.557   6.420
 4248SOL    HW113643   2.202   3.487   6.374
 4248SOL    HW213644   2.207   3.617   6.473
 4249SOL     OW13645   5.461   3.131   6.039
 4249SOL    HW113646   5.560   3.116   6.032
 4249SOL    HW213647   5.413   3.061   5.987
 4250SOL     OW13648   6.827   4.212   3.679
 4250SOL    HW113649   6.899   4.226   3.748
 4250SOL    HW213650   6.766   4.139   3.710
 4251SOL     OW13651   6.022   4.883   6.095
 4251SOL    HW113652   5.953   4.955   6.089
 4251SOL    HW213653   6.037   4.844   6.004
 4252SOL     OW13654   6.630   4.818   5.151
 4252SOL    HW113655   6.718   4.858   5.127
 4252SOL    HW213656   6.556   4.876   5.117
 4253SOL     OW13657   3.462   6.156   3.002
 4253SOL    HW113658   3.520   6.103   3.064
 4253SOL    HW213659   3.411   6.094   2.942
 4254SOL     OW13660   2.940   3.576   1.879
 4254SOL    HW113661   2.891   3.513   1.819
 4254SOL    HW213662   2.910   3.669   1.862
 4255SOL     OW13663   0.460   2.179   4.459
 4255SOL    HW113664   0.406   2.263   4.464
 4255SOL    HW213665   0.470   2.141   4.551
 4256SOL     OW13666   1.900   1.411   2.237
 4256SOL    HW113667   1.805   1.431   2.261
 4256SOL    HW213668   1.911   1.420   2.138
 4257SOL     OW13669   4.260   2.262   5.447
 4257SOL    HW113670   4.339   2.293   5.500
 4257SOL    HW213671   4.290   2.197   5.378
 4258SOL     OW13672   5.409   6.232   2.434
 4258SOL    HW113673   5.477   6.159   2.439
 4258SOL    HW213674   5.330   6.208   2.489
 4259SOL     OW13675   2.451   3.605   1.384
 4259SOL    HW113676   2.431   3.697   1.351
 4259SOL    HW213677   2.416   3.595   1.478
 4260SOL     OW13678   3.755   5.983   4.519
 4260SOL    HW113679   3.705   6.020   4.598
 4260SOL    HW213680   3.773   6.056   4.454
 4261SOL     OW13681   0.836   1.220   3.074
 4261SOL    HW113682   0.846   1.122   3.062
 4261SOL    HW213683   0.911   1.255   3.130
 4262SOL     OW13684   0.670   6.308   5.818
 4262SOL    HW113685   0.753   6.352   5.851
 4262SOL    HW213686   0.694   6.230   5.760
 4263SOL     OW13687   4.220   5.006   6.669
 4263SOL    HW113688   4.199   4.980   6.763
 4263SOL    HW213689   4.312   5.044   6.664
 4264SOL     OW13690   0.537   0.476   1.696
 4264SOL    HW113691   0.544   0.415   1.774
 4264SOL    HW213692   0.462   0.447   1.636
 4265SOL     OW13693   1.490   1.564   0.467
 4265SOL    HW113694   1.555   1.577   0.393
 4265SOL    HW213695   1.518   1.485   0.522
 4266SOL     OW13696   3.417   4.560   0.779
 4266SOL    HW113697   3.468   4.599   0.703
 4266SOL    HW213698   3.326   4.600   0.783
 4267SOL     OW13699   1.485   4.188   5.493
 4267SOL    HW113700   1.577   4.161   5.523
 4267SOL    HW213701   1.465   4.280   5.525
 4268SOL     OW13702   1.493   1.219   1.777
 4268SOL    HW113703   1.498   1.119   1.781
 4268SOL    HW213704   1.578   1.258   1.813
 4269SOL     OW13705   2.778   3.693   0.722
 4269SOL    HW113706   2.766   3.715   0.626
 4269SOL    HW213707   2.873   3.667   0.738
 4270SOL     OW13708   3.828   3.021   6.365
 4270SOL    HW113709   3.785   2.985   6.448
 4270SOL    HW213710   3.922   3.047   6.385
 4271SOL     OW13711   1.531   0.722   1.079
 4271SOL    HW113712   1.617   0.691   1.038
 4271SOL    HW213713   1.509   0.664   1.158
 4272SOL     OW13714   0.071   3.908   3.796
 4272SOL    HW113715   0.076   3.827   3.854
 4272SOL    HW213716   0.113   3.985   3.844
 4273SOL     OW13717   5.932   0.041   3.470
 4273SOL    HW113718   5.970   0.116   3.416
 4273SOL    HW213719   5.851   0.004   3.425
 4274SOL     OW13720   2.263   0.446   4.015
 4274SOL    HW113721   2.297   0.472   4.106
 4274SOL    HW213722   2.325   0.377   3.976
 4275SOL     OW13723   0.628   0.475   5.374
 4275SOL    HW113724   0.611   0.378   5.388
 4275SOL    HW213725   0.682   0.511   5.450
 4276SOL     OW13726   2.223   4.286   2.443
 4276SOL    HW113727   2.230   4.212   2.510
 4276SOL    HW213728   2.127   4.303   2.421
 4277SOL     OW13729   0.700   5.555   5.602
 4277SOL    HW113730   0.767   5.482   5.608
 4277SOL    HW213731   0.712   5.618   5.679
 4278SOL     OW13732   1.657   6.391   6.387
 4278SOL    HW113733   1.570   6.346   6.365
 4278SOL    HW213734   1.727   6.362   6.321
 4279SOL     OW13735   2.921   6.220   3.766
 4279SOL    HW113736   3.004   6.191   3.813
 4279SOL    HW213737   2.843   6.171   3.804
 4280SOL     OW13738   4.893   2.515   3.503
 4280SOL    HW113739   4.864   2.477   3.590
 4280SOL    HW213740   4.900   2.614   3.510
 4281SOL     OW13741   2.156   4.103   5.205
 4281SOL    HW113742   2.169   4.096   5.304
 4281SOL    HW213743   2.227   4.051   5.159
 4282SOL     OW13744   0.203   2.379   0.881
 4282SOL    HW113745   0.187   2.315   0.957
 4282SOL    HW213746   0.290   2.426   0.896
 4283SOL     OW13747   2.284   1.083   4.344
 4283SOL    HW113748   2.333   1.080   4.257
 4283SOL    HW213749   2.186   1.090   4.328
 4284SOL     OW13750   6.706   1.966   3.124
 4284SOL    HW113751   6.644   2.039   3.155
 4284SOL    HW213752   6.794   2.006   3.097
 4285SOL     OW13753   1.083   5.973   4.773
 4285SOL    HW113754   1.039   5.890   4.739
 4285SOL    HW213755   1.180   5.955   4.789
 4286SOL     OW13756   4.256   5.391   6.336
 4286SOL    HW113757   4.234   5.309   6.283
 4286SOL    HW213758   4.354   5.407   6.332
 4287SOL     OW13759   3.917   5.618   5.356
 4287SOL    HW113760   3.917   5.693   5.289
 4287SOL    HW213761   3.954   5.535   5.313
 4288SOL     OW13762   1.048   5.889   3.335
 4288SOL    HW113763   1.110   5.951   3.286
 4288SOL    HW213764   1.064   5.795   3.303
 4289SOL     OW13765   0.184   4.092   0.265
 4289SOL    HW113766   0.280   4.106   0.287
 4289SOL    HW213767   0.176   4.037   0.182
 4290SOL     OW13768   2.111   1.629   3.384
 4290SOL    HW113769   2.159   1.716   3.391
 4290SOL    HW213770   2.160   1.559   3.437
 4291SOL     OW13771   0.074   4.354   1.430
 4291SOL    HW113772   0.106   4.259   1.425
 4291SOL    HW213773   0.093   4.390   1.521
 4292SOL     OW13774   5.838   5.545   5.697
 4292SOL    HW113775   5.776   5.476   5.659
 4292SOL    HW213776   5.932   5.511   5.692
 4293SOL     OW13777   0.209   2.153   6.825
 4293SOL    HW113778   0.167   2.110   6.905
 4293SOL    HW213779   0.214   2.088   6.750
 4294SOL     OW13780   4.947   1.558   6.185
 4294SOL    HW113781   4.884   1.612   6.129
 4294SOL    HW213782   5.036   1.551   6.139
 4295SOL     OW13783   3.598   6.344   5.675
 4295SOL    HW113784   3.654   6.332   5.757
 4295SOL    HW213785   3.514   6.393   5.699
 4296SOL     OW13786   2.576   1.406   2.643
 4296SOL    HW113787   2.637   1.485   2.654
 4296SOL    HW213788   2.568   1.384   2.546
 4297SOL     OW13789   5.463   0.121   0.436
 4297SOL    HW113790   5.471   0.067   0.352
 4297SOL    HW213791   5.553   0.140   0.474
 4298SOL     OW13792   2.000   5.116   1.708
 4298SOL    HW113793   1.969   5.101   1.614
 4298SOL    HW213794   1.923   5.104   1.771
 4299SOL     OW13795   1.341   5.249   5.203
 4299SOL    HW113796   1.379   5.227   5.293
 4299SOL    HW213797   1.281   5.175   5.173
 4300SOL     OW13798   6.306   6.804   5.359
 4300SOL    HW113799   6.234   6.819   5.427
 4300SOL    HW213800   6.278   6.730   5.297
 4301SOL     OW13801   3.133   0.872   0.607
 4301SOL    HW113802   3.119   0.792   0.549
 4301SOL    HW213803   3.078   0.948   0.573
 4302SOL     OW13804   0.894   0.362   6.783
 4302SOL    HW113805   0.993   0.352   6.768
 4302SOL    HW213806   0.845   0.328   6.702
 4303SOL     OW13807   6.761   4.220   1.471
 4303SOL    HW113808   6.860   4.202   1.472
 4303SOL    HW213809   6.715   4.153   1.530
 4304SOL     OW13810   3.247   3.531   5.487
 4304SOL    HW113811   3.304   3.453   5.514
 4304SOL    HW213812   3.221   3.521   5.391
 4305SOL     OW13813   6.961   1.251   5.115
 4305SOL    HW113814   6.895   1.220   5.184
 4305SOL    HW213815   6.920   1.245   5.024
 4306SOL     OW13816   6.288   5.688   5.557
 4306SOL    HW113817   6.324   5.747   5.629
 4306SOL    HW213818   6.294   5.735   5.469
 4307SOL     OW13819   5.376   3.382   0.160
 4307SOL    HW113820   5.396   3.477   0.135
 4307SOL    HW213821   5.438   3.353   0.232
 4308SOL     OW13822   3.432   6.747   5.322
 4308SOL    HW113823   3.408   6.705   5.410
 4308SOL    HW213824   3.351   6.756   5.266
 4309SOL     OW13825   1.604   0.766   1.558
 4309SOL    HW113826   1.699   0.735   1.549
 4309SOL    HW213827   1.603   0.865   1.570
 4310SOL     OW13828   1.714   0.544   2.747
 4310SOL    HW113829   1.639   0.530   2.683
 4310SOL    HW213830   1.684   0.524   2.840
 4311SOL     OW13831   1.445   5.417   4.538
 4311SOL    HW113832   1.449   5.353   4.615
 4311SOL    HW213833   1.364   5.399   4.483
 4312SOL     OW13834   1.234   5.785   1.460
 4312SOL    HW113835   1.333   5.776   1.443
 4312SOL    HW213836   1.190   5.818   1.376
 4313SOL     OW13837   5.045   0.792   1.414
 4313SOL    HW113838   4.998   0.843   1.342
 4313SOL    HW213839   4.999   0.807   1.502
 4314SOL     OW13840   5.999   3.255   1.370
 4314SOL    HW113841   5.971   3.229   1.278
 4314SOL    HW213842   5.921   3.294   1.419
 4315SOL     OW13843   2.492   1.377   2.398
 4315SOL    HW113844   2.410   1.330   2.432
 4315SOL    HW213845   2.515   1.342   2.308
 4316SOL     OW13846   0.623   1.065   2.656
 4316SOL    HW113847   0.627   1.136   2.585
 4316SOL    HW213848   0.696   1.081   2.723
 4317SOL     OW13849   3.856   0.384   3.025
 4317SOL    HW113850   3.881   0.438   3.106
 4317SOL    HW213851   3.786   0.433   2.973
 4318SOL     OW13852   6.678   2.591   5.031
 4318SOL    HW113853   6.609   2.661   5.051
 4318SOL    HW213854   6.767   2.634   5.018
 4319SOL     OW13855   3.121   2.588   6.033
 4319SOL    HW113856   3.145   2.623   6.124
 4319SOL    HW213857   3.167   2.641   5.963
 4320SOL     OW13858   0.189   6.094   3.479
 4320SOL    HW113859   0.185   6.014   3.420
 4320SOL    HW213860   0.282   6.132   3.479
 4321SOL     OW13861   0.686   0.656   4.783
 4321SOL    HW113862   0.656   0.740   4.829
 4321SOL    HW213863   0.738   0.679   4.701
 4322SOL     OW13864   5.651   1.355   1.082
 4322SOL    HW113865   5.556   1.384   1.077
 4322SOL    HW213866   5.656   1.266   1.127
 4323SOL     OW13867   0.020   1.949   3.925
 4323SOL    HW113868   7.020   1.925   3.832
 4323SOL    HW213869   0.087   1.883   3.960
 4324SOL     OW13870   5.613   2.799   5.659
 4324SOL    HW113871   5.622   2.820   5.756
 4324SOL    HW213872   5.516   2.781   5.637
 4325SOL     OW13873   1.598   2.300   6.552
 4325SOL    HW113874   1.500   2.302   6.531
 4325SOL    HW213875   1.618   2.365   6.625
 4326SOL     OW13876   6.489   2.470   4.863
 4326SOL    HW113877   6.520   2.430   4.776
 4326SOL    HW213878   6.566   2.515   4.908
 4327SOL     OW13879   4.814   1.175   2.924
 4327SOL    HW113880   4.791   1.255   2.868
 4327SOL    HW213881   4.912   1.159   2.919
 4328SOL     OW13882   5.705   5.057   0.035
 4328SOL    HW113883   5.627   5.046   0.098
 4328SOL    HW213884   5.790   5.048   0.086
 4329SOL     OW13885   5.016   2.222   0.239
 4329SOL    HW113886   4.997   2.185   0.148
 4329SOL    HW213887   4.931   2.226   0.291
 4330SOL     OW13888   0.966   0.946   6.519
 4330SOL    HW113889   0.996   0.996   6.438
 4330SOL    HW213890   1.040   0.886   6.551
 4331SOL     OW13891   5.350   2.143   6.726
 4331SOL    HW113892   5.417   2.189   6.668
 4331SOL    HW213893   5.308   2.209   6.788
 4332SOL     OW13894   5.633   3.408   1.876
 4332SOL    HW113895   5.651   3.436   1.971
 4332SOL    HW213896   5.534   3.401   1.862
 4333SOL     OW13897   6.211   1.364   5.446
 4333SOL    HW113898   6.251   1.380   5.536
 4333SOL    HW213899   6.235   1.439   5.385
 4334SOL     OW13900   4.198   0.152   1.776
 4334SOL    HW113901   4.289   0.133   1.813
 4334SOL    HW213902   4.188   0.251   1.762
 4335SOL     OW13903   3.773   4.278   5.703
 4335SOL    HW113904   3.780   4.317   5.794
 4335SOL    HW213905   3.836   4.324   5.641
 4336SOL     OW13906   0.898   6.743   6.032
 4336SOL    HW113907   0.845   6.676   5.980
 4336SOL    HW213908   0.912   6.709   6.125
 4337SOL     OW13909   0.283   5.835   0.359
 4337SOL    HW113910   0.339   5.861   0.438
 4337SOL    HW213911   0.327   5.761   0.309
 4338SOL     OW13912   5.490   6.404   3.282
 4338SOL    HW113913   5.412   6.467   3.288
 4338SOL    HW213914   5.496   6.351   3.366
 4339SOL     OW13915   6.358   1.233   6.417
 4339SOL    HW113916   6.323   1.151   6.462
 4339SOL    HW213917   6.458   1.226   6.409
 4340SOL     OW13918   4.471   3.490   1.705
 4340SOL    HW113919   4.405   3.415   1.714
 4340SOL    HW213920   4.492   3.504   1.608
 4341SOL     OW13921   1.154   3.575   0.760
 4341SOL    HW113922   1.157   3.575   0.660
 4341SOL    HW213923   1.221   3.640   0.796
 4342SOL     OW13924   0.392   1.849   3.127
 4342SOL    HW113925   0.354   1.909   3.197
 4342SOL    HW213926   0.481   1.815   3.157
 4343SOL     OW13927   2.739   2.057   0.814
 4343SOL    HW113928   2.654   2.081   0.860
 4343SOL    HW213929   2.773   1.970   0.851
 4344SOL     OW13930   1.840   3.658   2.094
 4344SOL    HW113931   1.832   3.665   1.994
 4344SOL    HW213932   1.934   3.677   2.121
 4345SOL     OW13933   2.857   1.355   6.023
 4345SOL    HW113934   2.832   1.373   6.118
 4345SOL    HW213935   2.953   1.378   6.009
 4346SOL     OW13936   6.871   3.568   1.221
 4346SOL    HW113937   6.785   3.521   1.204
 4346SOL    HW213938   6.947   3.506   1.205
 4347SOL     OW13939   4.970   5.616   2.661
 4347SOL    HW113940   5.048   5.618   2.599
 4347SOL    HW213941   4.886   5.636   2.610
 4348SOL     OW13942   1.194   3.620   6.945
 4348SOL    HW113943   1.176   3.533   6.991
 4348SOL    HW213944   1.275   3.612   6.888
 4349SOL     OW13945   6.793   1.000   1.624
 4349SOL    HW113946   6.886   0.972   1.602
 4349SOL    HW213947   6.765   0.958   1.710
 4350SOL     OW13948   4.101   0.514   2.874
 4350SOL    HW113949   4.170   0.554   2.814
 4350SOL    HW213950   4.136   0.512   2.968
 4351SOL     OW13951   2.926   6.744   6.912
 4351SOL    HW113952   2.987   6.822   6.902
 4351SOL    HW213953   2.831   6.777   6.918
 4352SOL     OW13954   6.914   1.951   2.488
 4352SOL    HW113955   6.874   2.003   2.413
 4352SOL    HW213956   6.871   1.977   2.574
 4353SOL     OW13957   3.105   5.817   1.391
 4353SOL    HW113958   3.048   5.742   1.427
 4353SOL    HW213959   3.100   5.817   1.291
 4354SOL     OW13960   2.891   0.704   1.062
 4354SOL    HW113961   2.900   0.792   1.108
 4354SOL    HW213962   2.813   0.655   1.100
 4355SOL     OW13963   4.779   0.044   0.062
 4355SOL    HW113964   4.764   0.017   0.157
 4355SOL    HW213965   4.723   0.123   0.040
 4356SOL     OW13966   3.543   4.073   0.414
 4356SOL    HW113967   3.609   4.104   0.482
 4356SOL    HW213968   3.457   4.123   0.426
 4357SOL     OW13969   5.665   0.839   0.134
 4357SOL    HW113970   5.618   0.927   0.127
 4357SOL    HW213971   5.754   0.845   0.088
 4358SOL     OW13972   5.931   0.789   1.108
 4358SOL    HW113973   5.951   0.883   1.135
 4358SOL    HW213974   6.011   0.731   1.127
 4359SOL     OW13975   6.022   3.637   4.512
 4359SOL    HW113976   6.009   3.706   4.441
 4359SOL    HW213977   6.054   3.681   4.596
 4360SOL     OW13978   1.853   3.857   0.878
 4360SOL    HW113979   1.921   3.817   0.816
 4360SOL    HW213980   1.891   3.862   0.970
 4361SOL     OW13981   6.190   2.331   2.360
 4361SOL    HW113982   6.250   2.274   2.304
 4361SOL    HW213983   6.101   2.340   2.316
 4362SOL     OW13984   5.268   3.867   2.813
 4362SOL    HW113985   5.343   3.884   2.877
 4362SOL    HW213986   5.232   3.774   2.828
 4363SOL     OW13987   5.164   0.252   6.423
 4363SOL    HW113988   5.201   0.266   6.331
 4363SOL    HW213989   5.064   0.260   6.421
 4364SOL     OW13990   3.760   3.689   4.576
 4364SOL    HW113991   3.826   3.622   4.608
 4364SOL    HW213992   3.749   3.761   4.645
 4365SOL     OW13993   4.321   1.915   0.568
 4365SOL    HW113994   4.415   1.946   0.554
 4365SOL    HW213995   4.294   1.932   0.662
 4366SOL     OW13996   5.460   5.015   0.165
 4366SOL    HW113997   5.428   5.089   0.106
 4366SOL    HW213998   5.433   5.033   0.259
 4367SOL     OW13999   6.945   0.245   0.996
 4367SOL    HW114000   6.903   0.287   0.916
 4367SOL    HW214001   6.874   0.199   1.050
 4368SOL     OW14002   4.355   4.544   2.218
 4368SOL    HW114003   4.310   4.463   2.255
 4368SOL    HW214004   4.446   4.520   2.186
 4369SOL     OW14005   3.001   5.143   1.557
 4369SOL    HW114006   2.988   5.227   1.608
 4369SOL    HW214007   2.960   5.066   1.607
 4370SOL     OW14008   5.062   4.846   2.075
 4370SOL    HW114009   5.088   4.756   2.038
 4370SOL    HW214010   4.998   4.890   2.011
 4371SOL     OW14011   1.217   1.805   2.803
 4371SOL    HW114012   1.194   1.708   2.803
 4371SOL    HW214013   1.182   1.849   2.886
 4372SOL     OW14014   5.029   0.149   3.574
 4372SOL    HW114015   4.980   0.062   3.582
 4372SOL    HW214016   5.114   0.134   3.523
 4373SOL     OW14017   6.738   1.528   6.142
 4373SOL    HW114018   6.831   1.516   6.108
 4373SOL    HW214019   6.735   1.607   6.203
 4374SOL     OW14020   3.457   1.126   0.527
 4374SOL    HW114021   3.390   1.116   0.453
 4374SOL    HW214022   3.409   1.127   0.615
 4375SOL     OW14023   3.362   5.803   4.142
 4375SOL    HW114024   3.430   5.729   4.144
 4375SOL    HW214025   3.370   5.853   4.056
 4376SOL     OW14026   0.141   2.040   4.367
 4376SOL    HW114027   0.134   2.103   4.444
 4376SOL    HW214028   0.198   2.080   4.295
 4377SOL     OW14029   6.430   4.858   6.439
 4377SOL    HW114030   6.530   4.856   6.440
 4377SOL    HW214031   6.397   4.814   6.355
 4378SOL     OW14032   2.963   1.798   3.900
 4378SOL    HW114033   2.950   1.804   3.999
 4378SOL    HW214034   3.057   1.769   3.881
 4379SOL     OW14035   3.667   1.980   6.294
 4379SOL    HW114036   3.686   2.063   6.347
 4379SOL    HW214037   3.673   2.000   6.197
 4380SOL     OW14038   0.224   2.228   3.162
 4380SOL    HW114039   0.303   2.231   3.100
 4380SOL    HW214040   0.157   2.295   3.132
 4381SOL     OW14041   1.284   5.669   6.986
 4381SOL    HW114042   1.188   5.662   7.011
 4381SOL    HW214043   1.336   5.598   0.009
 4382SOL     OW14044   0.836   5.542   4.351
 4382SOL    HW114045   0.786   5.458   4.328
 4382SOL    HW214046   0.856   5.543   4.449
 4383SOL     OW14047   6.943   4.281   0.682
 4383SOL    HW114048   0.003   4.300   0.634
 4383SOL    HW214049   6.947   4.190   0.723
 4384SOL     OW14050   4.892   6.937   3.495
 4384SOL    HW114051   4.908   6.980   3.406
 4384SOL    HW214052   4.911   6.839   3.488
 4385SOL     OW14053   4.554   1.378   5.560
 4385SOL    HW114054   4.459   1.374   5.592
 4385SOL    HW214055   4.569   1.307   5.492
 4386SOL     OW14056   1.776   3.414   4.429
 4386SOL    HW114057   1.853   3.476   4.413
 4386SOL    HW214058   1.790   3.330   4.377
 4387SOL     OW14059   5.602   1.932   1.097
 4387SOL    HW114060   5.649   1.873   1.031
 4387SOL    HW214061   5.577   1.879   1.178
 4388SOL     OW14062   5.227   3.488   6.935
 4388SOL    HW114063   5.133   3.513   6.911
 4388SOL    HW214064   5.268   3.562   6.988
 4389SOL     OW14065   2.171   1.543   0.167
 4389SOL    HW114066   2.156   1.609   0.093
 4389SOL    HW214067   2.242   1.478   0.139
 4390SOL     OW14068   0.058   2.022   0.886
 4390SOL    HW114069   7.017   2.086   0.847
 4390SOL    HW214070   0.031   1.928   0.862
 4391SOL     OW14071   0.597   5.968   0.944
 4391SOL    HW114072   0.668   5.955   1.013
 4391SOL    HW214073   0.583   6.066   0.930
 4392SOL     OW14074   1.223   2.860   6.152
 4392SOL    HW114075   1.162   2.935   6.180
 4392SOL    HW214076   1.291   2.895   6.088
 4393SOL     OW14077   5.998   0.230   2.404
 4393SOL    HW114078   5.941   0.198   2.328
 4393SOL    HW214079   5.982   0.328   2.418
 4394SOL     OW14080   0.437   0.448   2.396
 4394SOL    HW114081   0.498   0.371   2.375
 4394SOL    HW214082   0.398   0.436   2.487
 4395SOL     OW14083   1.725   3.970   2.289
 4395SOL    HW114084   1.645   3.918   2.259
 4395SOL    HW214085   1.765   4.017   2.211
 4396SOL     OW14086   2.989   1.040   2.746
 4396SOL    HW114087   2.927   1.118   2.738
 4396SOL    HW214088   3.075   1.070   2.788
 4397SOL     OW14089   3.414   1.362   4.856
 4397SOL    HW114090   3.382   1.319   4.940
 4397SOL    HW214091   3.336   1.376   4.795
 4398SOL     OW14092   2.605   3.368   5.739
 4398SOL    HW114093   2.566   3.279   5.716
 4398SOL    HW214094   2.643   3.411   5.657
 4399SOL     OW14095   2.731   6.734   1.269
 4399SOL    HW114096   2.797   6.672   1.311
 4399SOL    HW214097   2.765   6.828   1.275
 4400SOL     OW14098   1.876   6.044   4.809
 4400SOL    HW114099   1.875   6.103   4.729
 4400SOL    HW214100   1.969   6.015   4.828
 4401SOL     OW14101   2.372   0.000   6.515
 4401SOL    HW114102   2.382   0.077   6.451
 4401SOL    HW214103   2.366   0.036   6.608
 4402SOL     OW14104   1.753   0.838   2.884
 4402SOL    HW114105   1.763   0.748   2.841
 4402SOL    HW214106   1.813   0.843   2.964
 4403SOL     OW14107   0.210   5.469   2.393
 4403SOL    HW114108   0.122   5.421   2.394
 4403SOL    HW214109   0.210   5.539   2.464
 4404SOL     OW14110   0.742   6.952   6.215
 4404SOL    HW114111   0.724   6.919   6.122
 4404SOL    HW214112   0.669   6.922   6.276
 4405SOL     OW14113   1.441   5.132   2.497
 4405SOL    HW114114   1.405   5.153   2.588
 4405SOL    HW214115   1.417   5.206   2.434
 4406SOL     OW14116   6.615   4.814   2.190
 4406SOL    HW114117   6.686   4.750   2.219
 4406SOL    HW214118   6.541   4.763   2.144
 4407SOL     OW14119   6.209   6.872   1.033
 4407SOL    HW114120   6.240   6.784   0.998
 4407SOL    HW214121   6.151   6.917   0.964
 4408SOL     OW14122   4.437   0.905   0.914
 4408SOL    HW114123   4.415   0.940   1.005
 4408SOL    HW214124   4.535   0.911   0.899
 4409SOL     OW14125   2.796   0.721   4.305
 4409SOL    HW114126   2.735   0.678   4.372
 4409SOL    HW214127   2.779   0.682   4.215
 4410SOL     OW14128   0.599   0.445   0.878
 4410SOL    HW114129   0.649   0.530   0.890
 4410SOL    HW214130   0.503   0.459   0.898
 4411SOL     OW14131   4.541   4.712   5.262
 4411SOL    HW114132   4.598   4.782   5.306
 4411SOL    HW214133   4.598   4.639   5.227
 4412SOL     OW14134   4.411   6.286   2.042
 4412SOL    HW114135   4.418   6.316   2.137
 4412SOL    HW214136   4.317   6.295   2.010
 4413SOL     OW14137   4.646   5.895   3.790
 4413SOL    HW114138   4.650   5.797   3.806
 4413SOL    HW214139   4.678   5.943   3.872
 4414SOL     OW14140   5.513   3.937   1.503
 4414SOL    HW114141   5.505   3.922   1.404
 4414SOL    HW214142   5.436   3.992   1.535
 4415SOL     OW14143   1.642   4.280   1.097
 4415SOL    HW114144   1.590   4.259   1.014
 4415SOL    HW214145   1.722   4.334   1.073
 4416SOL     OW14146   5.017   2.829   4.561
 4416SOL    HW114147   4.983   2.757   4.622
 4416SOL    HW214148   5.101   2.798   4.517
 4417SOL     OW14149   0.105   4.303   1.922
 4417SOL    HW114150   0.017   4.286   1.879
 4417SOL    HW214151   0.178   4.261   1.867
 4418SOL     OW14152   5.744   1.264   5.530
 4418SOL    HW114153   5.747   1.249   5.628
 4418SOL    HW214154   5.818   1.327   5.504
 4419SOL     OW14155   6.544   6.064   6.706
 4419SOL    HW114156   6.525   6.159   6.732
 4419SOL    HW214157   6.634   6.039   6.740
 4420SOL     OW14158   4.023   1.331   0.694
 4420SOL    HW114159   4.020   1.403   0.624
 4420SOL    HW214160   3.932   1.290   0.701
 4421SOL     OW14161   2.126   2.715   0.442
 4421SOL    HW114162   2.075   2.775   0.504
 4421SOL    HW214163   2.061   2.662   0.387
 4422SOL     OW14164   0.444   3.125   5.980
 4422SOL    HW114165   0.379   3.126   5.904
 4422SOL    HW214166   0.497   3.210   5.979
 4423SOL     OW14167   5.786   4.333   4.684
 4423SOL    HW114168   5.837   4.247   4.686
 4423SOL    HW214169   5.846   4.407   4.654
 4424SOL     OW14170   4.652   5.929   2.493
 4424SOL    HW114171   4.659   5.846   2.548
 4424SOL    HW214172   4.743   5.970   2.483
 4425SOL     OW14173   0.908   6.281   1.244
 4425SOL    HW114174   0.964   6.204   1.214
 4425SOL    HW214175   0.963   6.342   1.301
 4426SOL     OW14176   0.309   0.219   4.424
 4426SOL    HW114177   0.220   0.173   4.431
 4426SOL    HW214178   0.365   0.174   4.354
 4427SOL     OW14179   2.987   5.751   2.248
 4427SOL    HW114180   2.942   5.689   2.312
 4427SOL    HW214181   3.018   5.700   2.168
 4428SOL     OW14182   6.169   5.536   3.752
 4428SOL    HW114183   6.180   5.548   3.654
 4428SOL    HW214184   6.179   5.625   3.798
 4429SOL     OW14185   2.449   6.384   3.067
 4429SOL    HW114186   2.368   6.440   3.047
 4429SOL    HW214187   2.530   6.443   3.069
 4430SOL     OW14188   6.319   3.501   4.668
 4430SOL    HW114189   6.224   3.473   4.676
 4430SOL    HW214190   6.331   3.558   4.586
 4431SOL     OW14191   4.375   6.776   4.828
 4431SOL    HW114192   4.416   6.768   4.919
 4431SOL    HW214193   4.432   6.727   4.761
 4432SOL     OW14194   0.999   3.183   6.485
 4432SOL    HW114195   0.940   3.261   6.504
 4432SOL    HW214196   1.041   3.152   6.571
 4433SOL     OW14197   0.858   0.681   4.554
 4433SOL    HW114198   0.882   0.599   4.501
 4433SOL    HW214199   0.937   0.743   4.557
 4434SOL     OW14200   6.988   0.962   2.429
 4434SOL    HW114201   6.931   1.033   2.388
 4434SOL    HW214202   0.059   0.983   2.413
 4435SOL     OW14203   2.504   4.446   0.812
 4435SOL    HW114204   2.523   4.530   0.863
 4435SOL    HW214205   2.539   4.455   0.719
 4436SOL     OW14206   4.697   2.049   1.663
 4436SOL    HW114207   4.614   2.058   1.608
 4436SOL    HW214208   4.674   2.062   1.760
 4437SOL     OW14209   6.467   4.599   7.025
 4437SOL    HW114210   6.546   4.633   0.050
 4437SOL    HW214211   6.490   4.512   6.981
 4438SOL     OW14212   4.160   1.382   4.677
 4438SOL    HW114213   4.073   1.415   4.715
 4438SOL    HW214214   4.184   1.437   4.597
 4439SOL     OW14215   2.505   5.483   2.275
 4439SOL    HW114216   2.556   5.556   2.321
 4439SOL    HW214217   2.438   5.524   2.213
 4440SOL     OW14218   1.800   5.164   5.360
 4440SOL    HW114219   1.857   5.178   5.280
 4440SOL    HW214220   1.848   5.196   5.442
 4441SOL     OW14221   6.748   1.806   1.171
 4441SOL    HW114222   6.846   1.823   1.154
 4441SOL    HW214223   6.698   1.892   1.161
 4442SOL     OW14224   2.126   5.031   1.327
 4442SOL    HW114225   2.174   4.954   1.285
 4442SOL    HW214226   2.192   5.090   1.374
 4443SOL     OW14227   0.666   5.737   5.831
 4443SOL    HW114228   0.616   5.656   5.864
 4443SOL    HW214229   0.602   5.813   5.819
 4444SOL     OW14230   5.774   5.501   0.193
 4444SOL    HW114231   5.776   5.565   0.270
 4444SOL    HW214232   5.703   5.529   0.128
 4445SOL     OW14233   2.230   4.162   0.239
 4445SOL    HW114234   2.314   4.196   0.282
 4445SOL    HW214235   2.250   4.078   0.189
 4446SOL     OW14236   4.755   2.077   2.222
 4446SOL    HW114237   4.680   2.143   2.213
 4446SOL    HW214238   4.831   2.104   2.163
 4447SOL     OW14239   4.718   5.718   5.022
 4447SOL    HW114240   4.664   5.778   5.080
 4447SOL    HW214241   4.754   5.642   5.077
 4448SOL     OW14242   3.210   6.598   2.665
 4448SOL    HW114243   3.148   6.595   2.743
 4448SOL    HW214244   3.304   6.607   2.698
 4449SOL     OW14245   3.882   1.448   5.478
 4449SOL    HW114246   3.932   1.494   5.551
 4449SOL    HW214247   3.938   1.374   5.441
 4450SOL     OW14248   2.099   6.071   0.378
 4450SOL    HW114249   2.051   6.048   0.294
 4450SOL    HW214250   2.180   6.126   0.357
 4451SOL     OW14251   4.824   5.740   3.457
 4451SOL    HW114252   4.773   5.687   3.388
 4451SOL    HW214253   4.763   5.808   3.498
 4452SOL     OW14254   5.382   4.552   3.752
 4452SOL    HW114255   5.349   4.464   3.718
 4452SOL    HW214256   5.331   4.578   3.833
 4453SOL     OW14257   0.642   4.950   1.076
 4453SOL    HW114258   0.702   4.874   1.099
 4453SOL    HW214259   0.608   4.939   0.983
 4454SOL     OW14260   0.389   1.962   0.363
 4454SOL    HW114261   0.436   1.883   0.403
 4454SOL    HW214262   0.447   2.002   0.292
 4455SOL     OW14263   1.331   0.265   4.176
 4455SOL    HW114264   1.293   0.252   4.268
 4455SOL    HW214265   1.420   0.221   4.171
 4456SOL     OW14266   1.749   6.066   4.248
 4456SOL    HW114267   1.837   6.104   4.223
 4456SOL    HW214268   1.677   6.108   4.192
 4457SOL     OW14269   1.327   1.542   4.743
 4457SOL    HW114270   1.236   1.576   4.765
 4457SOL    HW214271   1.392   1.619   4.741
 4458SOL     OW14272   1.600   2.833   6.341
 4458SOL    HW114273   1.539   2.912   6.346
 4458SOL    HW214274   1.636   2.812   6.432
 4459SOL     OW14275   0.449   3.855   3.055
 4459SOL    HW114276   0.411   3.827   3.143
 4459SOL    HW214277   0.378   3.900   3.001
 4460SOL     OW14278   6.837   2.955   5.034
 4460SOL    HW114279   6.922   2.919   5.071
 4460SOL    HW214280   6.848   2.974   4.936
 4461SOL     OW14281   1.895   0.786   0.497
 4461SOL    HW114282   1.848   0.800   0.585
 4461SOL    HW214283   1.868   0.858   0.433
 4462SOL     OW14284   6.480   4.162   2.138
 4462SOL    HW114285   6.437   4.081   2.099
 4462SOL    HW214286   6.579   4.147   2.146
 4463SOL     OW14287   5.567   2.047   7.002
 4463SOL    HW114288   5.496   2.098   0.025
 4463SOL    HW214289   5.652   2.050   0.028
 4464SOL     OW14290   0.552   3.667   1.149
 4464SOL    HW114291   0.629   3.658   1.212
 4464SOL    HW214292   0.474   3.708   1.197
 4465SOL     OW14293   4.311   5.280   1.834
 4465SOL    HW114294   4.369   5.208   1.796
 4465SOL    HW214295   4.223   5.241   1.862
 4466SOL     OW14296   0.234   3.130   2.913
 4466SOL    HW114297   0.288   3.104   2.833
 4466SOL    HW214298   0.175   3.053   2.940
 4467SOL     OW14299   5.357   4.549   1.620
 4467SOL    HW114300   5.406   4.489   1.557
 4467SOL    HW214301   5.342   4.638   1.576
 4468SOL     OW14302   1.854   3.229   0.691
 4468SOL    HW114303   1.946   3.206   0.657
 4468SOL    HW214304   1.829   3.166   0.765
 4469SOL     OW14305   1.878   6.224   1.425
 4469SOL    HW114306   1.830   6.146   1.465
 4469SOL    HW214307   1.976   6.207   1.427
 4470SOL     OW14308   0.863   6.876   2.327
 4470SOL    HW114309   0.917   6.948   2.370
 4470SOL    HW214310   0.864   6.889   2.227
 4471SOL     OW14311   0.944   0.625   6.887
 4471SOL    HW114312   0.929   0.536   6.843
 4471SOL    HW214313   0.857   0.663   6.916
 4472SOL     OW14314   1.444   2.714   1.135
 4472SOL    HW114315   1.432   2.704   1.036
 4472SOL    HW214316   1.443   2.624   1.178
 4473SOL     OW14317   0.495   2.635   5.136
 4473SOL    HW114318   0.543   2.585   5.208
 4473SOL    HW214319   0.436   2.704   5.177
 4474SOL     OW14320   2.376   6.024   0.689
 4474SOL    HW114321   2.463   5.997   0.648
 4474SOL    HW214322   2.384   6.023   0.789
 4475SOL     OW14323   0.738   3.658   6.952
 4475SOL    HW114324   0.778   3.582   7.003
 4475SOL    HW214325   0.810   3.707   6.903
 4476SOL     OW14326   5.262   0.587   3.706
 4476SOL    HW114327   5.271   0.488   3.720
 4476SOL    HW214328   5.338   0.619   3.649
 4477SOL     OW14329   6.902   1.108   4.415
 4477SOL    HW114330   6.934   1.156   4.332
 4477SOL    HW214331   6.939   1.015   4.415
 4478SOL     OW14332   1.631   0.778   2.193
 4478SOL    HW114333   1.687   0.727   2.128
 4478SOL    HW214334   1.611   0.720   2.272
 4479SOL     OW14335   2.370   2.529   6.638
 4479SOL    HW114336   2.435   2.586   6.689
 4479SOL    HW214337   2.420   2.473   6.571
 4480SOL     OW14338   0.057   6.612   3.396
 4480SOL    HW114339   0.030   6.708   3.400
 4480SOL    HW214340   0.012   6.562   3.470
 4481SOL     OW14341   2.216   4.124   6.073
 4481SOL    HW114342   2.178   4.040   6.112
 4481SOL    HW214343   2.171   4.144   5.986
 4482SOL     OW14344   2.743   0.217   1.232
 4482SOL    HW114345   2.802   0.204   1.312
 4482SOL    HW214346   2.775   0.295   1.178
 4483SOL     OW14347   0.879   3.356   0.927
 4483SOL    HW114348   0.820   3.275   0.937
 4483SOL    HW214349   0.823   3.439   0.934
 4484SOL     OW14350   3.681   0.896   0.530
 4484SOL    HW114351   3.649   0.803   0.548
 4484SOL    HW214352   3.602   0.958   0.529
 4485SOL     OW14353   0.461   3.447   5.021
 4485SOL    HW114354   0.496   3.353   5.012
 4485SOL    HW214355   0.398   3.451   5.098
 4486SOL     OW14356   5.144   4.596   3.574
 4486SOL    HW114357   5.145   4.694   3.556
 4486SOL    HW214358   5.194   4.549   3.501
 4487SOL     OW14359   0.375   2.912   6.557
 4487SOL    HW114360   0.421   2.891   6.471
 4487SOL    HW214361   0.439   2.958   6.618
 4488SOL     OW14362   6.280   4.801   3.754
 4488SOL    HW114363   6.212   4.870   3.728
 4488SOL    HW214364   6.252   4.712   3.717
 4489SOL     OW14365   3.455   6.198   6.652
 4489SOL    HW114366   3.486   6.119   6.705
 4489SOL    HW214367   3.366   6.229   6.687
 4490SOL     OW14368   5.462   1.436   1.850
 4490SOL    HW114369   5.437   1.460   1.943
 4490SOL    HW214370   5.562   1.424   1.844
 4491SOL     OW14371   0.257   4.015   2.950
 4491SOL    HW114372   0.182   3.973   2.898
 4491SOL    HW214373   0.233   4.109   2.973
 4492SOL     OW14374   6.002   1.446   2.571
 4492SOL    HW114375   5.980   1.516   2.502
 4492SOL    HW214376   5.966   1.475   2.660
 4493SOL     OW14377   5.233   1.508   6.154
 4493SOL    HW114378   5.243   1.408   6.148
 4493SOL    HW214379   5.316   1.551   6.118
 4494SOL     OW14380   1.843   1.169   2.510
 4494SOL    HW114381   1.797   1.135   2.592
 4494SOL    HW214382   1.859   1.267   2.518
 4495SOL     OW14383   4.454   6.005   0.861
 4495SOL    HW114384   4.538   6.015   0.915
 4495SOL    HW214385   4.477   6.001   0.764
 4496SOL     OW14386   2.306   5.589   6.041
 4496SOL    HW114387   2.366   5.562   5.966
 4496SOL    HW214388   2.219   5.540   6.034
 4497SOL     OW14389   4.266   7.019   5.696
 4497SOL    HW114390   4.212   6.968   5.763
 4497SOL    HW214391   4.237   0.089   5.695
 4498SOL     OW14392   1.499   4.807   4.286
 4498SOL    HW114393   1.573   4.842   4.229
 4498SOL    HW214394   1.478   4.874   4.358
 4499SOL     OW14395   5.874   1.719   2.057
 4499SOL    HW114396   5.889   1.790   2.125
 4499SOL    HW214397   5.791   1.669   2.079
 4500SOL     OW14398   3.633   6.672   6.932
 4500SOL    HW114399   3.619   6.635   7.023
 4500SOL    HW214400   3.546   6.683   6.885
 4501SOL     OW14401   6.454   0.298   2.860
 4501SOL    HW114402   6.406   0.384   2.878
 4501SOL    HW214403   6.505   0.306   2.775
 4502SOL     OW14404   1.432   3.698   6.480
 4502SOL    HW114405   1.342   3.740   6.479
 4502SOL    HW214406   1.482   3.725   6.397
 4503SOL     OW14407   3.687   1.327   2.355
 4503SOL    HW114408   3.602   1.377   2.371
 4503SOL    HW214409   3.735   1.367   2.277
 4504SOL     OW14410   1.491   2.380   4.036
 4504SOL    HW114411   1.473   2.413   3.942
 4504SOL    HW214412   1.419   2.316   4.062
 4505SOL     OW14413   6.383   3.052   3.345
 4505SOL    HW114414   6.464   3.100   3.311
 4505SOL    HW214415   6.300   3.098   3.312
 4506SOL     OW14416   4.183   4.059   0.257
 4506SOL    HW114417   4.087   4.085   0.266
 4506SOL    HW214418   4.224   4.109   0.180
 4507SOL     OW14419   6.022   2.515   3.133
 4507SOL    HW114420   5.978   2.505   3.222
 4507SOL    HW214421   6.099   2.578   3.140
 4508SOL     OW14422   6.307   5.102   0.451
 4508SOL    HW114423   6.357   5.100   0.364
 4508SOL    HW214424   6.229   5.040   0.445
 4509SOL     OW14425   5.061   2.242   2.253
 4509SOL    HW114426   5.048   2.316   2.319
 4509SOL    HW214427   5.062   2.154   2.302
 4510SOL     OW14428   4.560   1.458   4.219
 4510SOL    HW114429   4.656   1.430   4.220
 4510SOL    HW214430   4.531   1.484   4.311
 4511SOL     OW14431   0.372   4.431   6.730
 4511SOL    HW114432   0.301   4.500   6.738
 4511SOL    HW214433   0.352   4.355   6.792
 4512SOL     OW14434   3.001   3.217   5.898
 4512SOL    HW114435   3.035   3.150   5.833
 4512SOL    HW214436   2.960   3.170   5.976
 4513SOL     OW14437   0.408   0.784   1.039
 4513SOL    HW114438   0.459   0.779   1.125
 4513SOL    HW214439   0.465   0.749   0.965
 4514SOL     OW14440   4.477   4.688   6.245
 4514SOL    HW114441   4.468   4.771   6.301
 4514SOL    HW214442   4.387   4.647   6.232
 4515SOL     OW14443   4.668   0.069   6.031
 4515SOL    HW114444   4.590   0.009   6.011
 4515SOL    HW214445   4.647   0.126   6.110
 4516SOL     OW14446   3.664   2.008   5.321
 4516SOL    HW114447   3.607   2.089   5.301
 4516SOL    HW214448   3.649   1.939   5.251
 4517SOL     OW14449   3.736   0.571   4.582
 4517SOL    HW114450   3.764   0.641   4.517
 4517SOL    HW214451   3.762   0.481   4.546
 4518SOL     OW14452   6.783   0.423   0.786
 4518SOL    HW114453   6.837   0.437   0.703
 4518SOL    HW214454   6.691   0.393   0.761
 4519SOL     OW14455   5.252   6.946   6.283
 4519SOL    HW114456   5.327   6.884   6.264
 4519SOL    HW214457   5.272   0.010   6.244
 4520SOL     OW14458   4.661   5.254   5.339
 4520SOL    HW114459   4.681   5.156   5.339
 4520SOL    HW214460   4.566   5.269   5.309
 4521SOL     OW14461   4.676   2.482   4.142
 4521SOL    HW114462   4.686   2.484   4.241
 4521SOL    HW214463   4.762   2.508   4.099
 4522SOL     OW14464   5.589   3.839   3.353
 4522SOL    HW114465   5.670   3.823   3.410
 4522SOL    HW214466   5.509   3.850   3.411
 4523SOL     OW14467   0.101   3.049   6.648
 4523SOL    HW114468   0.165   2.999   6.589
 4523SOL    HW214469   0.147   3.076   6.733
 4524SOL     OW14470   2.166   3.941   1.951
 4524SOL    HW114471   2.227   4.009   1.912
 4524SOL    HW214472   2.215   3.887   2.020
 4525SOL     OW14473   3.731   1.818   5.935
 4525SOL    HW114474   3.686   1.747   5.989
 4525SOL    HW214475   3.811   1.781   5.889
 4526SOL     OW14476   1.884   0.350   5.328
 4526SOL    HW114477   1.843   0.351   5.419
 4526SOL    HW214478   1.848   0.273   5.276
 4527SOL     OW14479   0.979   2.187   2.510
 4527SOL    HW114480   1.051   2.222   2.569
 4527SOL    HW214481   0.930   2.263   2.468
 4528SOL     OW14482   5.291   1.463   4.849
 4528SOL    HW114483   5.239   1.413   4.918
 4528SOL    HW214484   5.371   1.409   4.822
 4529SOL     OW14485   2.141   1.749   3.756
 4529SOL    HW114486   2.070   1.711   3.697
 4529SOL    HW214487   2.142   1.848   3.746
 4530SOL     OW14488   4.164   4.727   6.056
 4530SOL    HW114489   4.181   4.654   6.122
 4530SOL    HW214490   4.196   4.699   5.966
 4531SOL     OW14491   1.656   0.346   5.038
 4531SOL    HW114492   1.703   0.435   5.040
 4531SOL    HW214493   1.712   0.278   5.085
 4532SOL     OW14494   5.555   1.133   1.957
 4532SOL    HW114495   5.589   1.173   1.872
 4532SOL    HW214496   5.526   1.038   1.939
 4533SOL     OW14497   2.871   6.320   1.269
 4533SOL    HW114498   2.946   6.258   1.245
 4533SOL    HW214499   2.900   6.378   1.345
 4534SOL     OW14500   5.656   0.904   4.643
 4534SOL    HW114501   5.643   0.805   4.637
 4534SOL    HW214502   5.744   0.929   4.603
 4535SOL     OW14503   1.325   1.083   0.018
 4535SOL    HW114504   1.320   1.058   6.947
 4535SOL    HW214505   1.237   1.063   0.062
 4536SOL     OW14506   3.844   0.690   5.676
 4536SOL    HW114507   3.943   0.690   5.695
 4536SOL    HW214508   3.830   0.702   5.578
 4537SOL     OW14509   3.248   3.321   3.233
 4537SOL    HW114510   3.276   3.269   3.314
 4537SOL    HW214511   3.153   3.298   3.210
 4538SOL     OW14512   1.220   2.687   0.098
 4538SOL    HW114513   1.149   2.688   0.168
 4538SOL    HW214514   1.287   2.615   0.119
 4539SOL     OW14515   1.174   4.995   4.342
 4539SOL    HW114516   1.259   5.038   4.309
 4539SOL    HW214517   1.099   5.061   4.336
 4540SOL     OW14518   1.803   2.105   0.874
 4540SOL    HW114519   1.732   2.150   0.928
 4540SOL    HW214520   1.765   2.078   0.786
 4541SOL     OW14521   4.094   3.132   0.156
 4541SOL    HW114522   4.192   3.117   0.166
 4541SOL    HW214523   4.051   3.135   0.246
 4542SOL     OW14524   0.293   1.511   0.772
 4542SOL    HW114525   0.300   1.480   0.867
 4542SOL    HW214526   0.197   1.511   0.744
 4543SOL     OW14527   4.224   1.269   1.081
 4543SOL    HW114528   4.179   1.318   1.155
 4543SOL    HW214529   4.230   1.327   1.000
 4544SOL     OW14530   4.929   6.346   0.253
 4544SOL    HW114531   4.905   6.365   0.158
 4544SOL    HW214532   4.906   6.252   0.276
 4545SOL     OW14533   3.103   3.130   5.380
 4545SOL    HW114534   3.075   3.202   5.444
 4545SOL    HW214535   3.028   3.108   5.319
 4546SOL     OW14536   4.791   7.017   6.434
 4546SOL    HW114537   4.837   7.024   6.522
 4546SOL    HW214538   4.858   7.000   6.362
 4547SOL     OW14539   6.589   1.352   0.206
 4547SOL    HW114540   6.664   1.412   0.176
 4547SOL    HW214541   6.541   1.316   0.126
 4548SOL     OW14542   2.946   1.379   2.130
 4548SOL    HW114543   3.021   1.442   2.148
 4548SOL    HW214544   2.983   1.289   2.108
 4549SOL     OW14545   6.220   4.602   3.576
 4549SOL    HW114546   6.306   4.626   3.531
 4549SOL    HW214547   6.155   4.568   3.508
 4550SOL     OW14548   2.534   5.407   6.500
 4550SOL    HW114549   2.488   5.323   6.472
 4550SOL    HW214550   2.559   5.460   6.419
 4551SOL     OW14551   3.476   2.924   5.916
 4551SOL    HW114552   3.519   2.844   5.874
 4551SOL    HW214553   3.396   2.895   5.969
 4552SOL     OW14554   4.980   0.862   0.046
 4552SOL    HW114555   4.985   0.947   7.020
 4552SOL    HW214556   4.980   0.785   7.009
 4553SOL     OW14557   6.994   6.995   0.196
 4553SOL    HW114558   6.968   6.986   0.100
 4553SOL    HW214559   6.920   6.960   0.254
 4554SOL     OW14560   5.525   6.578   2.905
 4554SOL    HW114561   5.570   6.594   2.817
 4554SOL    HW214562   5.524   6.480   2.924
 4555SOL     OW14563   0.629   0.057   2.489
 4555SOL    HW114564   0.697   7.010   2.499
 4555SOL    HW214565   0.560   0.049   2.561
 4556SOL     OW14566   5.212   4.683   4.496
 4556SOL    HW114567   5.200   4.674   4.595
 4556SOL    HW214568   5.242   4.776   4.475
 4557SOL     OW14569   6.855   5.442   4.899
 4557SOL    HW114570   6.798   5.403   4.971
 4557SOL    HW214571   6.904   5.368   4.852
 4558SOL     OW14572   0.856   4.411   4.544
 4558SOL    HW114573   0.883   4.506   4.561
 4558SOL    HW214574   0.801   4.378   4.620
 4559SOL     OW14575   0.362   2.929   4.282
 4559SOL    HW114576   0.364   2.848   4.224
 4559SOL    HW214577   0.305   2.999   4.239
 4560SOL     OW14578   6.337   4.491   3.137
 4560SOL    HW114579   6.362   4.527   3.047
 4560SOL    HW214580   6.420   4.470   3.189
 4561SOL     OW14581   4.716   2.779   4.238
 4561SOL    HW114582   4.678   2.699   4.193
 4561SOL    HW214583   4.693   2.778   4.335
 4562SOL     OW14584   4.675   1.020   0.891
 4562SOL    HW114585   4.624   1.104   0.870
 4562SOL    HW214586   4.765   1.043   0.927
 4563SOL     OW14587   1.071   4.162   1.840
 4563SOL    HW114588   1.133   4.128   1.911
 4563SOL    HW214589   1.016   4.086   1.806
 4564SOL     OW14590   2.200   3.925   2.294
 4564SOL    HW114591   2.151   3.842   2.266
 4564SOL    HW214592   2.195   3.935   2.393
 4565SOL     OW14593   2.244   0.119   5.801
 4565SOL    HW114594   2.330   0.136   5.850
 4565SOL    HW214595   2.231   0.190   5.732
 4566SOL     OW14596   6.840   4.966   3.212
 4566SOL    HW114597   6.869   4.905   3.138
 4566SOL    HW214598   6.769   4.921   3.266
 4567SOL     OW14599   0.372   0.229   0.345
 4567SOL    HW114600   0.296   0.241   0.408
 4567SOL    HW214601   0.351   0.156   0.281
 4568SOL     OW14602   0.748   3.988   3.807
 4568SOL    HW114603   0.794   3.934   3.736
 4568SOL    HW214604   0.711   4.072   3.767
 4569SOL     OW14605   0.945   2.935   3.317
 4569SOL    HW114606   0.916   2.989   3.396
 4569SOL    HW214607   0.885   2.856   3.307
 4570SOL     OW14608   5.027   5.901   1.215
 4570SOL    HW114609   5.056   5.993   1.189
 4570SOL    HW214610   5.095   5.835   1.183
 4571SOL     OW14611   2.011   3.028   5.669
 4571SOL    HW114612   2.034   3.119   5.634
 4571SOL    HW214613   1.953   3.037   5.750
 4572SOL     OW14614   4.438   3.112   1.732
 4572SOL    HW114615   4.506   3.126   1.660
 4572SOL    HW214616   4.485   3.086   1.817
 4573SOL     OW14617   2.055   5.059   0.752
 4573SOL    HW114618   1.978   5.082   0.692
 4573SOL    HW214619   2.021   5.011   0.833
 4574SOL     OW14620   5.186   0.506   1.637
 4574SOL    HW114621   5.155   0.434   1.699
 4574SOL    HW214622   5.147   0.492   1.546
 4575SOL     OW14623   0.049   1.335   5.406
 4575SOL    HW114624   0.127   1.375   5.357
 4575SOL    HW214625   7.001   1.316   5.342
 4576SOL     OW14626   3.252   3.496   0.316
 4576SOL    HW114627   3.294   3.487   0.406
 4576SOL    HW214628   3.294   3.430   0.253
 4577SOL     OW14629   0.801   1.484   1.479
 4577SOL    HW114630   0.853   1.569   1.479
 4577SOL    HW214631   0.858   1.409   1.513
 4578SOL     OW14632   1.475   0.856   2.913
 4578SOL    HW114633   1.445   0.949   2.892
 4578SOL    HW214634   1.574   0.857   2.932
 4579SOL     OW14635   4.406   0.948   3.090
 4579SOL    HW114636   4.475   0.959   3.019
 4579SOL    HW214637   4.419   1.019   3.159
 4580SOL     OW14638   0.758   0.579   1.997
 4580SOL    HW114639   0.724   0.644   1.928
 4580SOL    HW214640   0.685   0.559   2.062
 4581SOL     OW14641   2.867   0.230   1.487
 4581SOL    HW114642   2.912   0.319   1.489
 4581SOL    HW214643   2.768   0.242   1.500
 4582SOL     OW14644   6.226   0.642   4.019
 4582SOL    HW114645   6.137   0.687   4.013
 4582SOL    HW214646   6.213   0.548   4.051
 4583SOL     OW14647   1.927   0.065   0.125
 4583SOL    HW114648   1.926   6.996   0.158
 4583SOL    HW214649   1.982   0.121   0.187
 4584SOL     OW14650   0.305   1.098   4.584
 4584SOL    HW114651   0.257   1.167   4.637
 4584SOL    HW214652   0.243   1.022   4.564
 4585SOL     OW14653   0.955   2.998   3.047
 4585SOL    HW114654   0.923   3.089   3.020
 4585SOL    HW214655   0.965   2.995   3.147
 4586SOL     OW14656   6.757   4.786   5.600
 4586SOL    HW114657   6.723   4.849   5.669
 4586SOL    HW214658   6.809   4.837   5.531
 4587SOL     OW14659   4.545   3.426   6.306
 4587SOL    HW114660   4.549   3.334   6.345
 4587SOL    HW214661   4.511   3.421   6.212
 4588SOL     OW14662   2.937   4.256   6.647
 4588SOL    HW114663   2.879   4.257   6.565
 4588SOL    HW214664   2.879   4.262   6.729
 4589SOL     OW14665   5.406   6.110   2.034
 4589SOL    HW114666   5.323   6.083   2.084
 4589SOL    HW214667   5.483   6.111   2.097
 4590SOL     OW14668   2.474   5.180   1.765
 4590SOL    HW114669   2.411   5.128   1.823
 4590SOL    HW214670   2.567   5.170   1.801
 4591SOL     OW14671   1.992   0.904   4.787
 4591SOL    HW114672   1.940   0.913   4.872
 4591SOL    HW214673   2.090   0.915   4.807
 4592SOL     OW14674   2.966   2.237   3.634
 4592SOL    HW114675   3.043   2.296   3.611
 4592SOL    HW214676   2.984   2.191   3.721
 4593SOL     OW14677   1.401   5.694   4.467
 4593SOL    HW114678   1.460   5.774   4.479
 4593SOL    HW214679   1.430   5.620   4.528
 4594SOL     OW14680   1.253   6.169   3.899
 4594SOL    HW114681   1.231   6.109   3.822
 4594SOL    HW214682   1.338   6.217   3.880
 4595SOL     OW14683   6.033   2.066   6.840
 4595SOL    HW114684   6.056   2.163   6.831
 4595SOL    HW214685   6.107   2.010   6.804
 4596SOL     OW14686   0.897   1.469   2.352
 4596SOL    HW114687   0.926   1.461   2.447
 4596SOL    HW214688   0.966   1.427   2.293
 4597SOL     OW14689   2.179   5.695   0.709
 4597SOL    HW114690   2.220   5.782   0.737
 4597SOL    HW214691   2.183   5.687   0.609
 4598SOL     OW14692   0.574   2.796   0.006
 4598SOL    HW114693   0.524   2.717   6.996
 4598SOL    HW214694   0.536   2.823   0.095
 4599SOL     OW14695   3.113   6.332   2.959
 4599SOL    HW114696   3.203   6.351   2.999
 4599SOL    HW214697   3.125   6.281   2.873
 4600SOL     OW14698   1.019   6.332   6.155
 4600SOL    HW114699   1.091   6.265   6.138
 4600SOL    HW214700   0.931   6.285   6.167
 4601SOL     OW14701   1.358   0.865   5.628
 4601SOL    HW114702   1.378   0.838   5.534
 4601SOL    HW214703   1.412   0.810   5.691
 4602SOL     OW14704   4.266   0.837   6.522
 4602SOL    HW114705   4.343   0.796   6.571
 4602SOL    HW214706   4.244   0.925   6.562
 4603SOL     OW14707   3.872   0.000   0.763
 4603SOL    HW114708   3.804   6.952   0.760
 4603SOL    HW214709   3.924   0.002   0.678
 4604SOL     OW14710   0.855   6.586   3.077
 4604SOL    HW114711   0.875   6.614   2.983
 4604SOL    HW214712   0.848   6.487   3.082
 4605SOL     OW14713   4.473   1.114   1.839
 4605SOL    HW114714   4.463   1.037   1.902
 4605SOL    HW214715   4.393   1.173   1.844
 4606SOL     OW14716   6.883   6.821   4.551
 4606SOL    HW114717   6.911   6.898   4.607
 4606SOL    HW214718   6.786   6.828   4.530
 4607SOL     OW14719   3.164   2.049   1.001
 4607SOL    HW114720   3.181   2.147   1.012
 4607SOL    HW214721   3.239   1.997   1.043
 4608SOL     OW14722   0.347   2.566   5.457
 4608SOL    HW114723   0.338   2.534   5.552
 4608SOL    HW214724   0.423   2.631   5.452
 4609SOL     OW14725   6.205   5.067   6.205
 4609SOL    HW114726   6.168   4.975   6.192
 4609SOL    HW214727   6.209   5.113   6.116
 4610SOL     OW14728   5.265   4.712   6.297
 4610SOL    HW114729   5.339   4.683   6.237
 4610SOL    HW214730   5.288   4.691   6.392
 4611SOL     OW14731   0.082   0.810   6.740
 4611SOL    HW114732   0.038   0.861   6.666
 4611SOL    HW214733   0.013   0.771   6.800
 4612SOL     OW14734   2.628   1.403   3.057
 4612SOL    HW114735   2.594   1.335   2.992
 4612SOL    HW214736   2.653   1.358   3.143
 4613SOL     OW14737   1.552   5.065   3.230
 4613SOL    HW114738   1.623   5.009   3.187
 4613SOL    HW214739   1.507   5.122   3.161
 4614SOL     OW14740   0.406   4.426   3.202
 4614SOL    HW114741   0.467   4.500   3.175
 4614SOL    HW214742   0.361   4.450   3.287
 4615SOL     OW14743   1.339   4.478   0.056
 4615SOL    HW114744   1.315   4.397   0.004
 4615SOL    HW214745   1.392   4.452   0.137
 4616SOL     OW14746   0.980   3.950   6.423
 4616SOL    HW114747   0.949   3.969   6.330
 4616SOL    HW214748   0.904   3.961   6.487
 4617SOL     OW14749   0.174   4.163   4.154
 4617SOL    HW114750   0.137   4.254   4.177
 4617SOL    HW214751   0.108   4.093   4.182
 4618SOL     OW14752   2.323   3.987   5.622
 4618SOL    HW114753   2.337   3.922   5.697
 4618SOL    HW214754   2.411   4.010   5.582
 4619SOL     OW14755   4.438   5.577   6.920
 4619SOL    HW114756   4.348   5.562   6.878
 4619SOL    HW214757   4.474   5.666   6.891
 4620SOL     OW14758   1.350   4.723   1.478
 4620SOL    HW114759   1.301   4.786   1.418
 4620SOL    HW214760   1.294   4.642   1.494
 4621SOL     OW14761   2.789   0.172   2.636
 4621SOL    HW114762   2.811   0.144   2.543
 4621SOL    HW214763   2.734   0.101   2.680
 4622SOL     OW14764   5.759   0.116   0.473
 4622SOL    HW114765   5.793   0.196   0.424
 4622SOL    HW214766   5.810   0.035   0.444
 4623SOL     OW14767   3.232   4.869   3.067
 4623SOL    HW114768   3.236   4.925   3.150
 4623SOL    HW214769   3.148   4.815   3.067
 4624SOL     OW14770   5.148   1.888   0.804
 4624SOL    HW114771   5.186   1.802   0.770
 4624SOL    HW214772   5.070   1.869   0.862
 4625SOL     OW14773   1.078   6.517   2.136
 4625SOL    HW114774   1.133   6.499   2.055
 4625SOL    HW214775   1.132   6.567   2.204
 4626SOL     OW14776   4.161   3.579   1.765
 4626SOL    HW114777   4.198   3.487   1.752
 4626SOL    HW214778   4.223   3.645   1.724
 4627SOL     OW14779   5.857   6.275   4.762
 4627SOL    HW114780   5.909   6.335   4.823
 4627SOL    HW214781   5.916   6.244   4.687
 4628SOL     OW14782   6.719   4.736   2.900
 4628SOL    HW114783   6.675   4.826   2.894
 4628SOL    HW214784   6.814   4.748   2.929
 4629SOL     OW14785   1.232   5.207   0.943
 4629SOL    HW114786   1.315   5.220   0.890
 4629SOL    HW214787   1.198   5.114   0.929
 4630SOL     OW14788   1.990   3.709   1.443
 4630SOL    HW114789   1.901   3.753   1.457
 4630SOL    HW214790   1.976   3.615   1.413
 4631SOL     OW14791   6.563   1.557   2.759
 4631SOL    HW114792   6.533   1.472   2.715
 4631SOL    HW214793   6.653   1.542   2.801
 4632SOL     OW14794   3.261   5.123   3.734
 4632SOL    HW114795   3.186   5.062   3.709
 4632SOL    HW214796   3.290   5.105   3.828
 4633SOL     OW14797   5.456   3.059   3.971
 4633SOL    HW114798   5.495   3.150   3.984
 4633SOL    HW214799   5.404   3.057   3.886
 4634SOL     OW14800   3.511   3.028   4.999
 4634SOL    HW114801   3.493   3.009   4.903
 4634SOL    HW214802   3.609   3.040   5.013
 4635SOL     OW14803   4.158   6.553   2.197
 4635SOL    HW114804   4.097   6.594   2.129
 4635SOL    HW214805   4.247   6.599   2.194
 4636SOL     OW14806   1.498   5.674   6.447
 4636SOL    HW114807   1.437   5.595   6.438
 4636SOL    HW214808   1.443   5.758   6.447
 4637SOL     OW14809   2.021   2.563   3.324
 4637SOL    HW114810   2.046   2.489   3.262
 4637SOL    HW214811   2.103   2.615   3.349
 4638SOL     OW14812   3.952   4.764   0.371
 4638SOL    HW114813   3.917   4.685   0.320
 4638SOL    HW214814   4.027   4.734   0.430
 4639SOL     OW14815   4.118   2.089   2.024
 4639SOL    HW114816   4.021   2.113   2.034
 4639SOL    HW214817   4.128   1.990   2.027
 4640SOL     OW14818   6.776   2.872   1.282
 4640SOL    HW114819   6.765   2.773   1.281
 4640SOL    HW214820   6.831   2.900   1.204
 4641SOL     OW14821   0.975   5.987   5.091
 4641SOL    HW114822   0.966   5.902   5.040
 4641SOL    HW214823   1.062   5.987   5.141
 4642SOL     OW14824   6.132   1.453   5.832
 4642SOL    HW114825   6.169   1.368   5.794
 4642SOL    HW214826   6.033   1.456   5.820
 4643SOL     OW14827   0.710   1.980   6.797
 4643SOL    HW114828   0.662   2.053   6.847
 4643SOL    HW214829   0.648   1.940   6.729
 4644SOL     OW14830   1.417   1.425   1.353
 4644SOL    HW114831   1.391   1.368   1.431
 4644SOL    HW214832   1.367   1.396   1.272
 4645SOL     OW14833   5.774   2.487   5.109
 4645SOL    HW114834   5.688   2.491   5.057
 4645SOL    HW214835   5.818   2.577   5.108
 4646SOL     OW14836   1.489   4.195   2.637
 4646SOL    HW114837   1.581   4.216   2.671
 4646SOL    HW214838   1.423   4.257   2.679
 4647SOL     OW14839   2.137   6.478   2.398
 4647SOL    HW114840   2.178   6.477   2.307
 4647SOL    HW214841   2.038   6.465   2.390
 4648SOL     OW14842   2.485   1.066   4.776
 4648SOL    HW114843   2.530   1.153   4.796
 4648SOL    HW214844   2.528   1.023   4.697
 4649SOL     OW14845   5.172   2.353   0.729
 4649SOL    HW114846   5.138   2.410   0.803
 4649SOL    HW214847   5.261   2.387   0.698
 4650SOL     OW14848   3.947   5.287   0.785
 4650SOL    HW114849   3.927   5.321   0.877
 4650SOL    HW214850   4.046   5.295   0.768
 4651SOL     OW14851   1.216   3.887   6.834
 4651SOL    HW114852   1.201   3.794   6.866
 4651SOL    HW214853   1.173   3.899   6.744
 4652SOL     OW14854   0.014   0.423   5.498
 4652SOL    HW114855   7.022   0.325   5.489
 4652SOL    HW214856   0.007   0.467   5.408
 4653SOL     OW14857   0.058   6.376   0.763
 4653SOL    HW114858   0.018   6.285   0.768
 4653SOL    HW214859   0.150   6.375   0.802
 4654SOL     OW14860   0.431   1.157   5.291
 4654SOL    HW114861   0.433   1.139   5.193
 4654SOL    HW214862   0.502   1.103   5.337
 4655SOL     OW14863   5.093   4.594   2.925
 4655SOL    HW114864   5.090   4.568   2.828
 4655SOL    HW214865   5.120   4.515   2.980
 4656SOL     OW14866   5.873   0.558   1.361
 4656SOL    HW114867   5.875   0.621   1.284
 4656SOL    HW214868   5.934   0.481   1.343
 4657SOL     OW14869   3.673   1.529   2.750
 4657SOL    HW114870   3.690   1.617   2.704
 4657SOL    HW214871   3.754   1.472   2.744
 4658SOL     OW14872   1.051   1.822   0.121
 4658SOL    HW114873   1.009   1.886   0.057
 4658SOL    HW214874   1.072   1.869   0.207
 4659SOL     OW14875   2.519   4.907   0.478
 4659SOL    HW114876   2.545   4.969   0.404
 4659SOL    HW214877   2.457   4.955   0.541
 4660SOL     OW14878   0.572   4.968   4.336
 4660SOL    HW114879   0.559   5.065   4.360
 4660SOL    HW214880   0.581   4.960   4.237
 4661SOL     OW14881   1.179   0.897   6.001
 4661SOL    HW114882   1.183   0.831   6.076
 4661SOL    HW214883   1.230   0.980   6.026
 4662SOL     OW14884   3.034   0.551   5.826
 4662SOL    HW114885   3.104   0.506   5.881
 4662SOL    HW214886   3.036   0.650   5.844
 4663SOL     OW14887   0.815   0.744   1.392
 4663SOL    HW114888   0.814   0.831   1.441
 4663SOL    HW214889   0.904   0.733   1.347
 4664SOL     OW14890   5.960   5.885   5.205
 4664SOL    HW114891   5.967   5.885   5.305
 4664SOL    HW214892   6.035   5.832   5.166
 4665SOL     OW14893   6.798   0.772   2.137
 4665SOL    HW114894   6.883   0.722   2.149
 4665SOL    HW214895   6.791   0.844   2.207
 4666SOL     OW14896   1.850   2.680   5.980
 4666SOL    HW114897   1.847   2.650   6.075
 4666SOL    HW214898   1.908   2.619   5.927
 4667SOL     OW14899   5.906   2.955   1.182
 4667SOL    HW114900   5.831   3.021   1.180
 4667SOL    HW214901   5.944   2.945   1.090
 4668SOL     OW14902   4.683   1.423   5.818
 4668SOL    HW114903   4.706   1.520   5.813
 4668SOL    HW214904   4.620   1.399   5.744
 4669SOL     OW14905   5.666   0.030   5.892
 4669SOL    HW114906   5.612   0.007   5.973
 4669SOL    HW214907   5.759   0.054   5.920
 4670SOL     OW14908   0.360   3.488   6.752
 4670SOL    HW114909   0.345   3.529   6.841
 4670SOL    HW214910   0.407   3.553   6.692
 4671SOL     OW14911   6.907   2.561   1.989
 4671SOL    HW114912   6.915   2.488   2.057
 4671SOL    HW214913   6.967   2.542   1.912
 4672SOL     OW14914   3.297   3.518   0.580
 4672SOL    HW114915   3.214   3.467   0.600
 4672SOL    HW214916   3.370   3.491   0.643
 4673SOL     OW14917   5.439   0.740   0.842
 4673SOL    HW114918   5.396   0.685   0.915
 4673SOL    HW214919   5.367   0.780   0.785
 4674SOL     OW14920   1.406   2.704   0.869
 4674SOL    HW114921   1.324   2.754   0.898
 4674SOL    HW214922   1.405   2.693   0.770
 4675SOL     OW14923   1.924   6.015   0.180
 4675SOL    HW114924   1.963   5.932   0.141
 4675SOL    HW214925   1.927   6.088   0.112
 4676SOL     OW14926   0.912   5.534   4.607
 4676SOL    HW114927   0.876   5.539   4.700
 4676SOL    HW214928   0.935   5.625   4.575
 4677SOL     OW14929   4.160   0.011   6.730
 4677SOL    HW114930   4.186   6.963   6.793
 4677SOL    HW214931   4.075   7.012   6.683
 4678SOL     OW14932   2.533   4.890   0.160
 4678SOL    HW114933   2.454   4.836   0.188
 4678SOL    HW214934   2.538   4.892   0.060
 4679SOL     OW14935   2.021   6.868   5.213
 4679SOL    HW114936   2.086   6.943   5.203
 4679SOL    HW214937   1.929   6.901   5.191
 4680SOL     OW14938   0.655   5.100   6.664
 4680SOL    HW114939   0.673   5.103   6.566
 4680SOL    HW214940   0.576   5.041   6.682
 4681SOL     OW14941   6.510   5.700   5.257
 4681SOL    HW114942   6.545   5.727   5.347
 4681SOL    HW214943   6.553   5.755   5.186
 4682SOL     OW14944   3.071   0.504   1.038
 4682SOL    HW114945   3.026   0.585   1.002
 4682SOL    HW214946   3.170   0.521   1.044
 4683SOL     OW14947   0.284   4.850   3.732
 4683SOL    HW114948   0.215   4.792   3.689
 4683SOL    HW214949   0.240   4.906   3.803
 4684SOL     OW14950   1.874   1.347   4.817
 4684SOL    HW114951   1.788   1.317   4.775
 4684SOL    HW214952   1.890   1.294   4.900
 4685SOL     OW14953   5.149   4.192   4.632
 4685SOL    HW114954   5.201   4.259   4.577
 4685SOL    HW214955   5.060   4.230   4.655
 4686SOL     OW14956   4.891   5.592   6.778
 4686SOL    HW114957   4.909   5.644   6.862
 4686SOL    HW214958   4.959   5.616   6.709
 4687SOL     OW14959   4.908   0.024   4.252
 4687SOL    HW114960   4.921   6.952   4.232
 4687SOL    HW214961   4.885   0.035   4.348
 4688SOL     OW14962   6.825   1.316   0.672
 4688SOL    HW114963   6.730   1.326   0.643
 4688SOL    HW214964   6.829   1.314   0.772
 4689SOL     OW14965   2.018   5.672   4.264
 4689SOL    HW114966   1.979   5.609   4.198
 4689SOL    HW214967   1.946   5.709   4.323
 4690SOL     OW14968   2.192   1.862   1.327
 4690SOL    HW114969   2.196   1.772   1.282
 4690SOL    HW214970   2.110   1.910   1.296
 4691SOL     OW14971   3.577   4.417   0.159
 4691SOL    HW114972   3.551   4.472   0.079
 4691SOL    HW214973   3.581   4.320   0.132
 4692SOL     OW14974   1.277   5.412   3.542
 4692SOL    HW114975   1.241   5.445   3.630
 4692SOL    HW214976   1.363   5.365   3.558
 4693SOL     OW14977   1.019   1.025   1.927
 4693SOL    HW114978   0.958   0.950   1.954
 4693SOL    HW214979   1.105   1.017   1.976
 4694SOL     OW14980   1.198   1.058   5.305
 4694SOL    HW114981   1.137   1.123   5.350
 4694SOL    HW214982   1.288   1.062   5.348
 4695SOL     OW14983   3.286   3.735   2.914
 4695SOL    HW114984   3.367   3.690   2.876
 4695SOL    HW214985   3.241   3.673   2.978
 4696SOL     OW14986   6.684   3.583   0.825
 4696SOL    HW114987   6.627   3.586   0.907
 4696SOL    HW214988   6.763   3.525   0.841
 4697SOL     OW14989   1.010   5.870   6.684
 4697SOL    HW114990   0.932   5.818   6.719
 4697SOL    HW214991   1.093   5.816   6.694
 4698SOL     OW14992   6.384   3.385   1.694
 4698SOL    HW114993   6.362   3.289   1.712
 4698SOL    HW214994   6.303   3.430   1.656
 4699SOL     OW14995   6.872   6.775   3.207
 4699SOL    HW114996   6.919   6.862   3.221
 4699SOL    HW214997   6.779   6.782   3.243
 4700SOL     OW14998   5.044   6.714   6.453
 4700SOL    HW114999   5.136   6.753   6.444
 4700SOL    HW215000   4.994   6.761   6.526
 4701SOL     OW15001   1.857   0.557   6.888
 4701SOL    HW115002   1.821   0.486   6.828
 4701SOL    HW215003   1.782   0.598   6.940
 4702SOL     OW15004   2.683   2.863   0.918
 4702SOL    HW115005   2.646   2.778   0.957
 4702SOL    HW215006   2.767   2.842   0.867
 4703SOL     OW15007   0.917   6.907   2.019
 4703SOL    HW115008   0.917   6.872   1.925
 4703SOL    HW215009   0.901   7.005   2.018
 4704SOL     OW15010   4.872   6.744   6.251
 4704SOL    HW115011   4.883   6.843   6.242
 4704SOL    HW215012   4.939   6.708   6.316
 4705SOL     OW15013   3.813   3.098   4.917
 4705SOL    HW115014   3.793   3.027   4.985
 4705SOL    HW215015   3.769   3.075   4.830
 4706SOL     OW15016   5.589   3.863   6.775
 4706SOL    HW115017   5.567   3.904   6.863
 4706SOL    HW215018   5.509   3.815   6.739
 4707SOL     OW15019   2.678   5.558   1.079
 4707SOL    HW115020   2.645   5.624   1.012
 4707SOL    HW215021   2.774   5.575   1.100
 4708SOL     OW15022   1.889   3.219   2.373
 4708SOL    HW115023   1.817   3.187   2.435
 4708SOL    HW215024   1.855   3.295   2.318
 4709SOL     OW15025   2.851   4.495   0.460
 4709SOL    HW115026   2.795   4.577   0.450
 4709SOL    HW215027   2.835   4.454   0.549
 4710SOL     OW15028   4.876   3.056   1.029
 4710SOL    HW115029   4.783   3.047   0.993
 4710SOL    HW215030   4.885   3.145   1.073
 4711SOL     OW15031   2.580   6.947   3.429
 4711SOL    HW115032   2.504   6.893   3.394
 4711SOL    HW215033   2.601   6.919   3.522
 4712SOL     OW15034   1.449   3.645   6.778
 4712SOL    HW115035   1.516   3.572   6.760
 4712SOL    HW215036   1.405   3.670   6.692
 4713SOL     OW15037   0.906   5.215   0.928
 4713SOL    HW115038   0.979   5.170   0.980
 4713SOL    HW215039   0.915   5.193   0.831
 4714SOL     OW15040   4.035   2.572   1.411
 4714SOL    HW115041   4.048   2.563   1.510
 4714SOL    HW215042   4.113   2.621   1.371
 4715SOL     OW15043   4.873   3.944   5.029
 4715SOL    HW115044   4.802   4.007   5.062
 4715SOL    HW215045   4.836   3.851   5.025
 4716SOL     OW15046   2.677   5.355   6.719
 4716SOL    HW115047   2.765   5.314   6.695
 4716SOL    HW215048   2.621   5.366   6.637
 4717SOL     OW15049   2.308   5.260   4.566
 4717SOL    HW115050   2.290   5.247   4.469
 4717SOL    HW215051   2.276   5.350   4.595
 4718SOL     OW15052   4.724   0.531   0.220
 4718SOL    HW115053   4.683   0.612   0.262
 4718SOL    HW215054   4.669   0.501   0.143
 4719SOL     OW15055   4.237   3.292   1.720
 4719SOL    HW115056   4.153   3.258   1.764
 4719SOL    HW215057   4.309   3.223   1.728
 4720SOL     OW15058   2.940   1.299   3.357
 4720SOL    HW115059   2.966   1.385   3.400
 4720SOL    HW215060   2.846   1.276   3.383
 4721SOL     OW15061   1.681   1.360   1.552
 4721SOL    HW115062   1.723   1.352   1.642
 4721SOL    HW215063   1.710   1.282   1.495
 4722SOL     OW15064   3.067   0.241   2.287
 4722SOL    HW115065   3.100   0.326   2.247
 4722SOL    HW215066   3.120   0.219   2.369
 4723SOL     OW15067   2.954   6.905   5.139
 4723SOL    HW115068   2.925   6.810   5.152
 4723SOL    HW215069   2.950   6.928   5.042
 4724SOL     OW15070   4.454   5.043   0.769
 4724SOL    HW115071   4.504   4.972   0.819
 4724SOL    HW215072   4.417   5.110   0.833
 4725SOL     OW15073   6.014   5.470   2.371
 4725SOL    HW115074   5.994   5.409   2.448
 4725SOL    HW215075   5.992   5.564   2.396
 4726SOL     OW15076   0.511   6.547   4.740
 4726SOL    HW115077   0.559   6.603   4.808
 4726SOL    HW215078   0.556   6.558   4.651
 4727SOL     OW15079   5.876   6.539   1.691
 4727SOL    HW115080   5.779   6.542   1.668
 4727SOL    HW215081   5.911   6.633   1.699
 4728SOL     OW15082   6.207   0.750   6.927
 4728SOL    HW115083   6.287   0.692   6.908
 4728SOL    HW215084   6.161   0.716   7.009
 4729SOL     OW15085   3.331   0.611   0.993
 4729SOL    HW115086   3.327   0.623   0.894
 4729SOL    HW215087   3.417   0.649   1.027
 4730SOL     OW15088   2.003   0.601   6.025
 4730SOL    HW115089   2.057   0.621   5.943
 4730SOL    HW215090   1.961   0.511   6.015
 4731SOL     OW15091   4.562   2.002   6.126
 4731SOL    HW115092   4.603   1.964   6.043
 4731SOL    HW215093   4.560   1.932   6.197
 4732SOL     OW15094   0.508   0.438   0.262
 4732SOL    HW115095   0.471   0.353   0.299
 4732SOL    HW215096   0.600   0.421   0.226
 4733SOL     OW15097   6.131   3.567   3.440
 4733SOL    HW115098   6.220   3.588   3.399
 4733SOL    HW215099   6.120   3.468   3.447
 4734SOL     OW15100   6.339   4.522   5.568
 4734SOL    HW115101   6.436   4.538   5.590
 4734SOL    HW215102   6.325   4.425   5.550
 4735SOL     OW15103   0.263   4.080   3.915
 4735SOL    HW115104   0.327   4.003   3.917
 4735SOL    HW215105   0.244   4.110   4.009
 4736SOL     OW15106   1.614   0.118   2.216
 4736SOL    HW115107   1.580   0.196   2.164
 4736SOL    HW215108   1.646   0.047   2.152
 4737SOL     OW15109   3.569   5.139   1.858
 4737SOL    HW115110   3.513   5.057   1.866
 4737SOL    HW215111   3.536   5.208   1.923
 4738SOL     OW15112   0.326   6.884   2.303
 4738SOL    HW115113   0.233   6.849   2.309
 4738SOL    HW215114   0.355   6.918   2.393
 4739SOL     OW15115   3.635   0.086   1.761
 4739SOL    HW115116   3.735   0.081   1.758
 4739SOL    HW215117   3.606   0.180   1.774
 4740SOL     OW15118   0.436   1.989   4.273
 4740SOL    HW115119   0.521   1.935   4.272
 4740SOL    HW215120   0.448   2.068   4.333
 4741SOL     OW15121   4.046   3.724   2.676
 4741SOL    HW115122   4.010   3.817   2.670
 4741SOL    HW215123   4.097   3.702   2.593
 4742SOL     OW15124   4.872   0.839   1.665
 4742SOL    HW115125   4.819   0.921   1.688
 4742SOL    HW215126   4.941   0.824   1.735
 4743SOL     OW15127   1.539   5.540   1.018
 4743SOL    HW115128   1.567   5.456   1.066
 4743SOL    HW215129   1.498   5.516   0.930
 4744SOL     OW15130   1.448   5.625   1.317
 4744SOL    HW115131   1.523   5.576   1.362
 4744SOL    HW215132   1.485   5.697   1.258
 4745SOL     OW15133   1.611   2.843   0.494
 4745SOL    HW115134   1.695   2.874   0.450
 4745SOL    HW215135   1.532   2.870   0.438
 4746SOL     OW15136   5.240   5.543   4.270
 4746SOL    HW115137   5.235   5.510   4.365
 4746SOL    HW215138   5.273   5.469   4.211
 4747SOL     OW15139   3.620   0.457   0.213
 4747SOL    HW115140   3.709   0.460   0.167
 4747SOL    HW215141   3.548   0.473   0.146
 4748SOL     OW15142   1.773   0.127   2.671
 4748SOL    HW115143   1.829   0.128   2.754
 4748SOL    HW215144   1.747   0.220   2.647
 4749SOL     OW15145   2.536   1.757   1.151
 4749SOL    HW115146   2.520   1.758   1.052
 4749SOL    HW215147   2.506   1.844   1.190
 4750SOL     OW15148   4.698   3.176   6.282
 4750SOL    HW115149   4.630   3.115   6.243
 4750SOL    HW215150   4.739   3.231   6.210
 4751SOL     OW15151   4.863   1.144   2.205
 4751SOL    HW115152   4.943   1.180   2.156
 4751SOL    HW215153   4.784   1.204   2.187
 4752SOL     OW15154   5.507   1.289   6.484
 4752SOL    HW115155   5.475   1.366   6.539
 4752SOL    HW215156   5.579   1.240   6.535
 4753SOL     OW15157   2.836   6.388   5.515
 4753SOL    HW115158   2.877   6.409   5.604
 4753SOL    HW215159   2.761   6.452   5.497
 4754SOL     OW15160   5.209   4.149   6.775
 4754SOL    HW115161   5.146   4.182   6.705
 4754SOL    HW215162   5.297   4.196   6.766
 4755SOL     OW15163   0.897   1.061   1.347
 4755SOL    HW115164   0.948   0.996   1.290
 4755SOL    HW215165   0.907   1.037   1.443
 4756SOL     OW15166   0.034   3.824   5.645
 4756SOL    HW115167   0.016   3.898   5.580
 4756SOL    HW215168   0.081   3.749   5.598
 4757SOL     OW15169   1.850   2.926   0.379
 4757SOL    HW115170   1.904   2.930   0.463
 4757SOL    HW215171   1.905   2.886   0.306
 4758SOL     OW15172   1.932   4.959   2.781
 4758SOL    HW115173   1.848   5.013   2.780
 4758SOL    HW215174   1.986   4.980   2.700
 4759SOL     OW15175   0.698   6.433   2.317
 4759SOL    HW115176   0.600   6.449   2.328
 4759SOL    HW215177   0.726   6.461   2.225
 4760SOL     OW15178   1.615   6.594   1.697
 4760SOL    HW115179   1.684   6.601   1.769
 4760SOL    HW215180   1.647   6.531   1.627
 4761SOL     OW15181   5.123   6.301   1.704
 4761SOL    HW115182   5.217   6.290   1.736
 4761SOL    HW215183   5.107   6.397   1.679
 4762SOL     OW15184   1.070   1.121   2.707
 4762SOL    HW115185   1.163   1.157   2.711
 4762SOL    HW215186   1.006   1.189   2.743
 4763SOL     OW15187   5.727   5.178   1.598
 4763SOL    HW115188   5.684   5.164   1.509
 4763SOL    HW215189   5.695   5.263   1.638
 4764SOL     OW15190   4.672   2.939   6.850
 4764SOL    HW115191   4.627   2.978   6.770
 4764SOL    HW215192   4.715   2.852   6.826
 4765SOL     OW15193   4.006   1.336   5.957
 4765SOL    HW115194   4.104   1.354   5.964
 4765SOL    HW215195   3.987   1.241   5.979
 4766SOL     OW15196   0.923   1.141   4.518
 4766SOL    HW115197   0.917   1.198   4.600
 4766SOL    HW215198   0.864   1.180   4.447
 4767SOL     OW15199   2.099   4.725   3.715
 4767SOL    HW115200   2.105   4.824   3.701
 4767SOL    HW215201   2.009   4.702   3.751
 4768SOL     OW15202   4.552   1.544   6.094
 4768SOL    HW115203   4.641   1.591   6.088
 4768SOL    HW215204   4.500   1.561   6.011
 4769SOL     OW15205   2.390   3.111   0.896
 4769SOL    HW115206   2.409   3.057   0.978
 4769SOL    HW215207   2.444   3.077   0.820
 4770SOL     OW15208   6.892   1.585   3.445
 4770SOL    HW115209   6.838   1.592   3.361
 4770SOL    HW215210   6.857   1.649   3.512
 4771SOL     OW15211   2.723   0.394   4.130
 4771SOL    HW115212   2.704   0.395   4.229
 4771SOL    HW215213   2.807   0.446   4.112
 4772SOL     OW15214   2.644   4.654   3.144
 4772SOL    HW115215   2.594   4.739   3.160
 4772SOL    HW215216   2.647   4.635   3.046
 4773SOL     OW15217   2.987   5.207   4.444
 4773SOL    HW115218   3.045   5.135   4.405
 4773SOL    HW215219   2.982   5.195   4.543
 4774SOL     OW15220   0.974   4.476   0.763
 4774SOL    HW115221   0.891   4.524   0.792
 4774SOL    HW215222   0.960   4.377   0.774
 4775SOL     OW15223   5.993   5.161   4.618
 4775SOL    HW115224   5.908   5.197   4.655
 4775SOL    HW215225   6.045   5.117   4.691
 4776SOL     OW15226   6.491   1.850   5.166
 4776SOL    HW115227   6.574   1.799   5.186
 4776SOL    HW215228   6.511   1.948   5.162
 4777SOL     OW15229   1.268   6.910   3.650
 4777SOL    HW115230   1.299   6.819   3.676
 4777SOL    HW215231   1.338   6.954   3.592
 4778SOL     OW15232   1.952   0.339   0.130
 4778SOL    HW115233   1.915   0.423   0.089
 4778SOL    HW215234   1.970   0.272   0.058
 4779SOL     OW15235   4.913   1.140   4.680
 4779SOL    HW115236   4.943   1.077   4.609
 4779SOL    HW215237   4.851   1.093   4.743
 4780SOL     OW15238   4.952   3.100   4.726
 4780SOL    HW115239   4.937   3.021   4.666
 4780SOL    HW215240   5.024   3.157   4.688
 4781SOL     OW15241   2.009   5.210   2.024
 4781SOL    HW115242   1.940   5.217   2.096
 4781SOL    HW215243   1.966   5.180   1.939
 4782SOL     OW15244   1.230   6.097   2.978
 4782SOL    HW115245   1.173   6.177   2.964
 4782SOL    HW215246   1.306   6.097   2.914
 4783SOL     OW15247   0.747   3.509   6.624
 4783SOL    HW115248   0.718   3.442   6.692
 4783SOL    HW215249   0.681   3.584   6.620
 4784SOL     OW15250   5.599   3.245   0.089
 4784SOL    HW115251   5.504   3.275   0.090
 4784SOL    HW215252   5.611   3.170   0.153
 4785SOL     OW15253   6.927   0.104   3.954
 4785SOL    HW115254   6.908   0.185   4.009
 4785SOL    HW215255   6.944   0.026   4.014
 4786SOL     OW15256   1.175   5.739   0.415
 4786SOL    HW115257   1.164   5.780   0.325
 4786SOL    HW215258   1.185   5.640   0.405
 4787SOL     OW15259   4.644   0.999   5.136
 4787SOL    HW115260   4.703   0.981   5.215
 4787SOL    HW215261   4.681   1.077   5.084
 4788SOL     OW15262   6.882   5.632   0.986
 4788SOL    HW115263   6.980   5.617   0.978
 4788SOL    HW215264   6.836   5.601   0.903
 4789SOL     OW15265   5.910   0.996   2.846
 4789SOL    HW115266   5.975   1.057   2.891
 4789SOL    HW215267   5.930   0.902   2.870
 4790SOL     OW15268   6.900   2.407   4.938
 4790SOL    HW115269   6.955   2.483   4.972
 4790SOL    HW215270   6.805   2.420   4.967
 4791SOL     OW15271   0.505   0.695   6.818
 4791SOL    HW115272   0.472   0.741   6.901
 4791SOL    HW215273   0.585   0.639   6.840
 4792SOL     OW15274   0.450   3.928   1.466
 4792SOL    HW115275   0.422   3.848   1.414
 4792SOL    HW215276   0.452   4.008   1.406
 4793SOL     OW15277   1.199   3.723   5.463
 4793SOL    HW115278   1.271   3.784   5.430
 4793SOL    HW215279   1.130   3.712   5.391
 4794SOL     OW15280   5.220   1.556   6.423
 4794SOL    HW115281   5.189   1.649   6.402
 4794SOL    HW215282   5.234   1.506   6.338
 4795SOL     OW15283   6.938   0.759   6.956
 4795SOL    HW115284   6.953   0.706   0.014
 4795SOL    HW215285   6.886   0.842   6.979
 4796SOL     OW15286   5.890   0.627   5.827
 4796SOL    HW115287   5.810   0.674   5.789
 4796SOL    HW215288   5.903   0.541   5.779
 4797SOL     OW15289   2.396   4.663   5.527
 4797SOL    HW115290   2.427   4.704   5.442
 4797SOL    HW215291   2.469   4.666   5.595
 4798SOL     OW15292   3.023   6.161   0.283
 4798SOL    HW115293   3.059   6.254   0.291
 4798SOL    HW215294   2.966   6.153   0.201
 4799SOL     OW15295   3.889   3.146   1.085
 4799SOL    HW115296   3.911   3.153   0.988
 4799SOL    HW215297   3.905   3.052   1.116
 4800SOL     OW15298   1.131   4.625   0.212
 4800SOL    HW115299   1.101   4.652   0.121
 4800SOL    HW215300   1.188   4.543   0.206
 4801SOL     OW15301   4.843   2.922   3.251
 4801SOL    HW115302   4.911   2.916   3.323
 4801SOL    HW215303   4.800   2.833   3.237
 4802SOL     OW15304   6.829   0.608   5.270
 4802SOL    HW115305   6.911   0.555   5.248
 4802SOL    HW215306   6.843   0.703   5.243
 4803SOL     OW15307   5.061   3.363   5.685
 4803SOL    HW115308   5.050   3.462   5.674
 4803SOL    HW215309   5.119   3.345   5.765
 4804SOL     OW15310   5.450   2.628   0.522
 4804SOL    HW115311   5.458   2.529   0.529
 4804SOL    HW215312   5.539   2.667   0.497
 4805SOL     OW15313   5.679   1.088   6.584
 4805SOL    HW115314   5.635   1.030   6.653
 4805SOL    HW215315   5.771   1.112   6.615
 4806SOL     OW15316   0.994   2.233   3.423
 4806SOL    HW115317   0.901   2.266   3.409
 4806SOL    HW215318   1.050   2.253   3.342
 4807SOL     OW15319   0.791   3.984   0.073
 4807SOL    HW115320   0.782   3.891   0.108
 4807SOL    HW215321   0.888   4.009   0.068
 4808SOL     OW15322   3.545   6.187   2.417
 4808SOL    HW115323   3.536   6.108   2.478
 4808SOL    HW215324   3.455   6.225   2.398
 4809SOL     OW15325   2.616   3.747   0.229
 4809SOL    HW115326   2.550   3.760   0.155
 4809SOL    HW215327   2.683   3.821   0.228
 4810SOL     OW15328   1.926   5.328   4.681
 4810SOL    HW115329   2.007   5.299   4.732
 4810SOL    HW215330   1.889   5.251   4.629
 4811SOL     OW15331   3.262   3.543   4.464
 4811SOL    HW115332   3.298   3.626   4.420
 4811SOL    HW215333   3.185   3.508   4.411
 4812SOL     OW15334   2.823   6.617   1.694
 4812SOL    HW115335   2.780   6.659   1.614
 4812SOL    HW215336   2.880   6.685   1.741
 4813SOL     OW15337   0.720   2.572   4.731
 4813SOL    HW115338   0.681   2.644   4.788
 4813SOL    HW215339   0.820   2.578   4.734
 4814SOL     OW15340   6.004   1.893   0.751
 4814SOL    HW115341   6.063   1.859   0.824
 4814SOL    HW215342   6.007   1.993   0.749
 4815SOL     OW15343   6.710   4.363   2.564
 4815SOL    HW115344   6.743   4.457   2.572
 4815SOL    HW215345   6.747   4.321   2.481
 4816SOL     OW15346   2.533   0.377   2.725
 4816SOL    HW115347   2.459   0.366   2.792
 4816SOL    HW215348   2.551   0.289   2.682
 4817SOL     OW15349   3.664   2.433   0.178
 4817SOL    HW115350   3.731   2.419   0.105
 4817SOL    HW215351   3.594   2.361   0.172
 4818SOL     OW15352   5.013   6.702   4.472
 4818SOL    HW115353   5.047   6.642   4.400
 4818SOL    HW215354   5.077   6.701   4.549
 4819SOL     OW15355   3.583   0.832   0.096
 4819SOL    HW115356   3.518   0.891   0.145
 4819SOL    HW215357   3.670   0.880   0.085
 4820SOL     OW15358   6.802   5.070   1.595
 4820SOL    HW115359   6.703   5.059   1.584
 4820SOL    HW215360   6.821   5.156   1.643
 4821SOL     OW15361   0.019   6.389   1.362
 4821SOL    HW115362   6.994   6.324   1.418
 4821SOL    HW215363   6.981   6.445   1.309
 4822SOL     OW15364   0.665   4.240   1.511
 4822SOL    HW115365   0.639   4.206   1.602
 4822SOL    HW215366   0.670   4.340   1.514
 4823SOL     OW15367   0.159   1.897   2.988
 4823SOL    HW115368   0.110   1.817   3.022
 4823SOL    HW215369   0.252   1.896   3.023
 4824SOL     OW15370   5.701   2.314   2.031
 4824SOL    HW115371   5.609   2.345   2.006
 4824SOL    HW215372   5.710   2.313   2.130
 4825SOL     OW15373   1.324   3.351   4.424
 4825SOL    HW115374   1.391   3.298   4.371
 4825SOL    HW215375   1.311   3.440   4.380
 4826SOL     OW15376   6.581   6.877   0.712
 4826SOL    HW115377   6.667   6.901   0.665
 4826SOL    HW215378   6.582   6.915   0.804
 4827SOL     OW15379   4.884   1.940   0.043
 4827SOL    HW115380   4.805   1.909   7.016
 4827SOL    HW215381   4.891   1.887   0.128
 4828SOL     OW15382   5.624   3.440   6.598
 4828SOL    HW115383   5.530   3.408   6.609
 4828SOL    HW215384   5.645   3.507   6.670
 4829SOL     OW15385   3.195   0.467   5.598
 4829SOL    HW115386   3.095   0.470   5.603
 4829SOL    HW215387   3.233   0.463   5.690
 4830SOL     OW15388   5.003   4.755   4.930
 4830SOL    HW115389   4.996   4.851   4.955
 4830SOL    HW215390   5.057   4.706   4.999
 4831SOL     OW15391   6.398   2.040   6.900
 4831SOL    HW115392   6.494   2.069   6.902
 4831SOL    HW215393   6.372   2.016   6.806
 4832SOL     OW15394   1.265   2.870   6.506
 4832SOL    HW115395   1.267   2.777   6.471
 4832SOL    HW215396   1.172   2.894   6.533
 4833SOL     OW15397   6.487   2.490   3.507
 4833SOL    HW115398   6.546   2.419   3.546
 4833SOL    HW215399   6.427   2.449   3.439
 4834SOL     OW15400   5.848   0.325   3.304
 4834SOL    HW115401   5.849   0.228   3.281
 4834SOL    HW215402   5.773   0.344   3.367
 4835SOL     OW15403   1.938   1.561   6.448
 4835SOL    HW115404   1.859   1.514   6.488
 4835SOL    HW215405   1.908   1.614   6.368
 4836SOL     OW15406   5.859   3.566   2.661
 4836SOL    HW115407   5.846   3.611   2.572
 4836SOL    HW215408   5.956   3.552   2.678
 4837SOL     OW15409   0.679   5.113   1.290
 4837SOL    HW115410   0.665   5.061   1.205
 4837SOL    HW215411   0.771   5.097   1.324
 4838SOL     OW15412   2.599   5.892   2.271
 4838SOL    HW115413   2.513   5.907   2.222
 4838SOL    HW215414   2.675   5.889   2.206
 4839SOL     OW15415   0.973   0.262   6.237
 4839SOL    HW115416   0.999   0.332   6.303
 4839SOL    HW215417   1.030   0.270   6.155
 4840SOL     OW15418   6.773   6.032   6.138
 4840SOL    HW115419   6.685   6.076   6.151
 4840SOL    HW215420   6.787   5.965   6.211
 4841SOL     OW15421   1.726   5.923   1.007
 4841SOL    HW115422   1.792   5.994   1.032
 4841SOL    HW215423   1.727   5.908   0.909
 4842SOL     OW15424   3.235   6.449   0.900
 4842SOL    HW115425   3.139   6.476   0.910
 4842SOL    HW215426   3.240   6.354   0.871
 4843SOL     OW15427   1.653   3.751   6.964
 4843SOL    HW115428   1.614   3.780   0.026
 4843SOL    HW215429   1.587   3.692   6.916
 4844SOL     OW15430   0.795   1.707   5.404
 4844SOL    HW115431   0.791   1.668   5.496
 4844SOL    HW215432   0.783   1.634   5.337
 4845SOL     OW15433   5.660   6.217   3.200
 4845SOL    HW115434   5.619   6.126   3.191
 4845SOL    HW215435   5.593   6.280   3.240
 4846SOL     OW15436   6.852   5.132   6.279
 4846SOL    HW115437   6.816   5.108   6.369
 4846SOL    HW215438   6.931   5.073   6.259
 4847SOL     OW15439   4.908   2.531   4.463
 4847SOL    HW115440   4.816   2.490   4.464
 4847SOL    HW215441   4.902   2.625   4.429
 4848SOL     OW15442   2.780   3.351   1.753
 4848SOL    HW115443   2.832   3.356   1.668
 4848SOL    HW215444   2.821   3.284   1.814
 4849SOL     OW15445   2.291   6.295   6.055
 4849SOL    HW115446   2.342   6.219   6.096
 4849SOL    HW215447   2.274   6.274   5.958
 4850SOL     OW15448   3.556   6.862   2.876
 4850SOL    HW115449   3.565   6.938   2.812
 4850SOL    HW215450   3.546   6.898   2.969
 4851SOL     OW15451   5.070   1.239   5.913
 4851SOL    HW115452   5.121   1.168   5.963
 4851SOL    HW215453   5.018   1.197   5.839
 4852SOL     OW15454   1.994   1.912   1.883
 4852SOL    HW115455   2.051   1.992   1.864
 4852SOL    HW215456   1.951   1.922   1.973
 4853SOL     OW15457   3.735   1.407   2.081
 4853SOL    HW115458   3.809   1.347   2.050
 4853SOL    HW215459   3.733   1.490   2.025
 4854SOL     OW15460   3.921   0.158   5.981
 4854SOL    HW115461   3.942   0.061   5.972
 4854SOL    HW215462   3.872   0.175   6.066
 4855SOL     OW15463   0.160   2.610   2.256
 4855SOL    HW115464   0.096   2.556   2.309
 4855SOL    HW215465   0.176   2.698   2.302
 4856SOL     OW15466   0.420   4.297   2.403
 4856SOL    HW115467   0.437   4.207   2.364
 4856SOL    HW215468   0.444   4.297   2.500
 4857SOL     OW15469   0.197   1.091   5.445
 4857SOL    HW115470   0.118   1.151   5.431
 4857SOL    HW215471   0.259   1.098   5.367
 4858SOL     OW15472   1.721   0.782   3.838
 4858SOL    HW115473   1.705   0.702   3.896
 4858SOL    HW215474   1.808   0.825   3.864
 4859SOL     OW15475   4.028   6.300   6.129
 4859SOL    HW115476   4.116   6.255   6.143
 4859SOL    HW215477   3.995   6.338   6.215
 4860SOL     OW15478   3.562   4.592   0.539
 4860SOL    HW115479   3.488   4.561   0.479
 4860SOL    HW215480   3.618   4.513   0.565
 4861SOL     OW15481   3.896   4.285   6.452
 4861SOL    HW115482   3.878   4.218   6.524
 4861SOL    HW215483   3.982   4.332   6.471
 4862SOL     OW15484   1.635   0.217   0.184
 4862SOL    HW115485   1.634   0.315   0.205
 4862SOL    HW215486   1.717   0.195   0.131
 4863SOL     OW15487   5.166   3.795   6.167
 4863SOL    HW115488   5.129   3.837   6.250
 4863SOL    HW215489   5.110   3.822   6.089
 4864SOL     OW15490   3.272   1.526   4.184
 4864SOL    HW115491   3.237   1.541   4.092
 4864SOL    HW215492   3.258   1.608   4.240
 4865SOL     OW15493   1.546   6.478   5.388
 4865SOL    HW115494   1.455   6.450   5.358
 4865SOL    HW215495   1.541   6.509   5.483
 4866SOL     OW15496   0.069   4.453   5.735
 4866SOL    HW115497   0.078   4.452   5.635
 4866SOL    HW215498   7.012   4.503   5.760
 4867SOL     OW15499   4.173   1.249   3.109
 4867SOL    HW115500   4.166   1.232   3.207
 4867SOL    HW215501   4.163   1.347   3.091
 4868SOL     OW15502   6.933   4.904   0.405
 4868SOL    HW115503   7.012   4.960   0.378
 4868SOL    HW215504   6.888   4.946   0.484
 4869SOL     OW15505   0.269   1.782   0.697
 4869SOL    HW115506   0.341   1.833   0.745
 4869SOL    HW215507   0.253   1.695   0.743
 4870SOL     OW15508   0.377   0.270   1.096
 4870SOL    HW115509   0.435   0.189   1.101
 4870SOL    HW215510   0.285   0.247   1.126
 4871SOL     OW15511   0.668   1.790   3.248
 4871SOL    HW115512   0.741   1.842   3.293
 4871SOL    HW215513   0.662   1.699   3.288
 4872SOL     OW15514   5.482   0.182   3.328
 4872SOL    HW115515   5.474   0.267   3.276
 4872SOL    HW215516   5.567   0.135   3.303
 4873SOL     OW15517   7.008   5.577   3.973
 4873SOL    HW115518   0.001   5.479   3.973
 4873SOL    HW215519   6.929   5.596   3.914
 4874SOL     OW15520   5.535   3.936   2.138
 4874SOL    HW115521   5.570   3.906   2.226
 4874SOL    HW215522   5.608   3.981   2.086
 4875SOL     OW15523   6.214   6.187   5.033
 4875SOL    HW115524   6.284   6.116   5.041
 4875SOL    HW215525   6.124   6.147   5.049
 4876SOL     OW15526   6.677   1.398   2.365
 4876SOL    HW115527   6.729   1.315   2.385
 4876SOL    HW215528   6.736   1.478   2.379
 4877SOL     OW15529   0.175   1.472   6.828
 4877SOL    HW115530   0.095   1.421   6.860
 4877SOL    HW215531   0.186   1.555   6.884
 4878SOL     OW15532   6.156   4.364   3.350
 4878SOL    HW115533   6.197   4.440   3.300
 4878SOL    HW215534   6.211   4.343   3.431
 4879SOL     OW15535   5.137   0.367   2.984
 4879SOL    HW115536   5.091   0.399   3.067
 4879SOL    HW215537   5.170   0.445   2.932
 4880SOL     OW15538   6.970   3.155   5.909
 4880SOL    HW115539   6.880   3.161   5.952
 4880SOL    HW215540   7.012   3.067   5.933
 4881SOL     OW15541   0.536   3.920   1.826
 4881SOL    HW115542   0.586   4.006   1.821
 4881SOL    HW215543   0.438   3.936   1.813
 4882SOL     OW15544   5.114   1.696   4.088
 4882SOL    HW115545   5.193   1.636   4.074
 4882SOL    HW215546   5.139   1.790   4.065
 4883SOL     OW15547   5.983   4.176   6.788
 4883SOL    HW115548   6.023   4.225   6.710
 4883SOL    HW215549   6.035   4.093   6.805
 4884SOL     OW15550   2.381   1.676   1.960
 4884SOL    HW115551   2.427   1.600   1.913
 4884SOL    HW215552   2.422   1.763   1.932
 4885SOL     OW15553   0.764   5.301   6.793
 4885SOL    HW115554   0.737   5.314   6.889
 4885SOL    HW215555   0.731   5.212   6.761
 4886SOL     OW15556   2.904   0.739   2.204
 4886SOL    HW115557   2.808   0.714   2.191
 4886SOL    HW215558   2.922   0.827   2.159
 4887SOL     OW15559   4.609   5.253   0.662
 4887SOL    HW115560   4.580   5.165   0.698
 4887SOL    HW215561   4.532   5.316   0.661
 4888SOL     OW15562   4.623   0.557   2.730
 4888SOL    HW115563   4.710   0.544   2.681
 4888SOL    HW215564   4.613   0.653   2.754
 4889SOL     OW15565   5.761   3.740   3.901
 4889SOL    HW115566   5.860   3.754   3.907
 4889SOL    HW215567   5.726   3.788   3.820
 4890SOL     OW15568   6.489   1.963   4.694
 4890SOL    HW115569   6.548   2.001   4.765
 4890SOL    HW215570   6.546   1.928   4.619
 4891SOL     OW15571   2.540   6.084   0.366
 4891SOL    HW115572   2.589   6.168   0.389
 4891SOL    HW215573   2.563   6.013   0.433
 4892SOL     OW15574   5.566   5.033   2.144
 4892SOL    HW115575   5.625   5.008   2.067
 4892SOL    HW215576   5.606   4.998   2.229
 4893SOL     OW15577   1.230   2.751   1.564
 4893SOL    HW115578   1.231   2.671   1.624
 4893SOL    HW215579   1.199   2.724   1.473
 4894SOL     OW15580   4.915   6.049   0.499
 4894SOL    HW115581   4.844   5.980   0.495
 4894SOL    HW215582   4.886   6.124   0.558
 4895SOL     OW15583   6.726   3.843   5.033
 4895SOL    HW115584   6.701   3.806   5.123
 4895SOL    HW215585   6.655   3.907   5.003
 4896SOL     OW15586   2.761   5.461   4.681
 4896SOL    HW115587   2.681   5.469   4.740
 4896SOL    HW215588   2.797   5.367   4.688
 4897SOL     OW15589   2.170   1.542   5.224
 4897SOL    HW115590   2.203   1.522   5.316
 4897SOL    HW215591   2.247   1.542   5.160
 4898SOL     OW15592   4.214   1.916   4.259
 4898SOL    HW115593   4.201   1.949   4.165
 4898SOL    HW215594   4.125   1.898   4.300
 4899SOL     OW15595   6.503   6.372   1.509
 4899SOL    HW115596   6.559   6.293   1.485
 4899SOL    HW215597   6.495   6.378   1.609
 4900SOL     OW15598   3.723   6.305   5.919
 4900SOL    HW115599   3.655   6.304   5.992
 4900SOL    HW215600   3.795   6.240   5.939
 4901SOL     OW15601   2.066   1.073   6.805
 4901SOL    HW115602   2.070   1.149   6.870
 4901SOL    HW215603   2.003   1.003   6.839
 4902SOL     OW15604   2.999   0.265   5.407
 4902SOL    HW115605   2.958   0.356   5.395
 4902SOL    HW215606   2.933   0.195   5.379
 4903SOL     OW15607   4.911   4.059   2.534
 4903SOL    HW115608   4.851   4.107   2.598
 4903SOL    HW215609   5.006   4.067   2.565
 4904SOL     OW15610   1.867   0.615   2.114
 4904SOL    HW115611   1.943   0.635   2.176
 4904SOL    HW215612   1.840   0.520   2.123
 4905SOL     OW15613   2.834   1.009   2.188
 4905SOL    HW115614   2.830   0.953   2.271
 4905SOL    HW215615   2.817   1.104   2.212
 4906SOL     OW15616   5.199   3.320   5.039
 4906SOL    HW115617   5.238   3.303   4.949
 4906SOL    HW215618   5.139   3.401   5.034
 4907SOL     OW15619   3.271   2.025   0.433
 4907SOL    HW115620   3.195   2.004   0.372
 4907SOL    HW215621   3.289   2.123   0.431
 4908SOL     OW15622   3.289   6.615   6.386
 4908SOL    HW115623   3.280   6.652   6.293
 4908SOL    HW215624   3.384   6.622   6.416
 4909SOL     OW15625   4.990   5.183   4.398
 4909SOL    HW115626   5.065   5.230   4.445
 4909SOL    HW215627   4.907   5.188   4.453
 4910SOL     OW15628   3.998   1.744   0.091
 4910SOL    HW115629   3.976   1.826   0.037
 4910SOL    HW215630   3.975   1.760   0.187
 4911SOL     OW15631   6.542   4.392   3.326
 4911SOL    HW115632   6.527   4.478   3.373
 4911SOL    HW215633   6.630   4.354   3.352
 4912SOL     OW15634   5.924   2.673   3.931
 4912SOL    HW115635   5.963   2.753   3.887
 4912SOL    HW215636   5.996   2.606   3.949
 4913SOL     OW15637   0.748   3.892   5.159
 4913SOL    HW115638   0.711   3.892   5.066
 4913SOL    HW215639   0.716   3.810   5.207
 4914SOL     OW15640   3.975   6.602   3.522
 4914SOL    HW115641   3.972   6.509   3.557
 4914SOL    HW215642   4.017   6.662   3.590
 4915SOL     OW15643   4.049   6.095   5.456
 4915SOL    HW115644   4.064   6.111   5.358
 4915SOL    HW215645   4.017   6.179   5.499
 4916SOL     OW15646   5.387   2.575   3.733
 4916SOL    HW115647   5.473   2.613   3.768
 4916SOL    HW215648   5.311   2.608   3.788
 4917SOL     OW15649   4.158   6.772   6.410
 4917SOL    HW115650   4.064   6.750   6.436
 4917SOL    HW215651   4.212   6.790   6.492
 4918SOL     OW15652   5.498   5.742   3.730
 4918SOL    HW115653   5.466   5.828   3.770
 4918SOL    HW215654   5.575   5.760   3.669
 4919SOL     OW15655   4.033   3.787   1.999
 4919SOL    HW115656   4.124   3.796   1.960
 4919SOL    HW215657   3.975   3.863   1.968
 4920SOL     OW15658   6.126   0.746   6.094
 4920SOL    HW115659   6.027   0.737   6.107
 4920SOL    HW215660   6.144   0.813   6.022
 4921SOL     OW15661   0.018   0.219   2.718
 4921SOL    HW115662   6.957   0.268   2.719
 4921SOL    HW215663   0.017   0.149   2.647
 4922SOL     OW15664   4.195   0.733   6.097
 4922SOL    HW115665   4.106   0.698   6.069
 4922SOL    HW215666   4.185   0.823   6.138
 4923SOL     OW15667   4.066   1.437   1.746
 4923SOL    HW115668   3.975   1.410   1.717
 4923SOL    HW215669   4.064   1.529   1.784
 4924SOL     OW15670   2.615   1.290   5.114
 4924SOL    HW115671   2.549   1.291   5.189
 4924SOL    HW215672   2.700   1.333   5.145
 4925SOL     OW15673   4.791   6.385   4.012
 4925SOL    HW115674   4.875   6.332   4.025
 4925SOL    HW215675   4.732   6.374   4.092
 4926SOL     OW15676   5.128   2.632   1.663
 4926SOL    HW115677   5.103   2.655   1.569
 4926SOL    HW215678   5.050   2.649   1.723
 4927SOL     OW15679   2.171   1.374   0.439
 4927SOL    HW115680   2.174   1.400   0.535
 4927SOL    HW215681   2.107   1.434   0.390
 4928SOL     OW15682   0.306   0.990   0.859
 4928SOL    HW115683   0.337   0.907   0.905
 4928SOL    HW215684   0.256   1.048   0.923
 4929SOL     OW15685   6.713   6.640   4.924
 4929SOL    HW115686   6.781   6.713   4.933
 4929SOL    HW215687   6.741   6.577   4.852
 4930SOL     OW15688   4.048   5.665   2.621
 4930SOL    HW115689   4.083   5.576   2.650
 4930SOL    HW215690   4.048   5.728   2.698
 4931SOL     OW15691   6.037   0.308   1.274
 4931SOL    HW115692   6.110   0.240   1.288
 4931SOL    HW215693   6.021   0.320   1.176
 4932SOL     OW15694   3.479   3.696   3.090
 4932SOL    HW115695   3.521   3.760   3.154
 4932SOL    HW215696   3.385   3.724   3.072
 4933SOL     OW15697   1.835   6.866   4.964
 4933SOL    HW115698   1.843   6.769   4.940
 4933SOL    HW215699   1.745   6.900   4.938
 4934SOL     OW15700   2.977   6.893   2.802
 4934SOL    HW115701   3.014   6.808   2.840
 4934SOL    HW215702   2.897   6.921   2.854
 4935SOL     OW15703   6.146   0.297   4.993
 4935SOL    HW115704   6.167   0.331   5.084
 4935SOL    HW215705   6.108   0.204   5.000
 4936SOL     OW15706   4.238   2.887   0.496
 4936SOL    HW115707   4.246   2.867   0.398
 4936SOL    HW215708   4.229   2.801   0.547
 4937SOL     OW15709   3.761   2.609   5.373
 4937SOL    HW115710   3.668   2.625   5.341
 4937SOL    HW215711   3.820   2.683   5.341
 4938SOL     OW15712   3.258   4.309   6.834
 4938SOL    HW115713   3.347   4.312   6.881
 4938SOL    HW215714   3.189   4.351   6.893
 4939SOL     OW15715   4.433   3.667   6.397
 4939SOL    HW115716   4.458   3.577   6.360
 4939SOL    HW215717   4.334   3.671   6.409
 4940SOL     OW15718   1.771   6.040   3.897
 4940SOL    HW115719   1.698   5.991   3.852
 4940SOL    HW215720   1.738   6.079   3.983
 4941SOL     OW15721   5.999   1.012   1.531
 4941SOL    HW115722   6.064   0.944   1.564
 4941SOL    HW215723   6.042   1.103   1.536
 4942SOL     OW15724   5.479   2.277   5.569
 4942SOL    HW115725   5.396   2.327   5.596
 4942SOL    HW215726   5.538   2.338   5.516
 4943SOL     OW15727   5.610   2.758   1.179
 4943SOL    HW115728   5.588   2.792   1.087
 4943SOL    HW215729   5.605   2.658   1.179
 4944SOL     OW15730   2.112   3.691   2.173
 4944SOL    HW115731   2.157   3.640   2.100
 4944SOL    HW215732   2.101   3.632   2.253
 4945SOL     OW15733   0.076   5.811   4.459
 4945SOL    HW115734   0.127   5.897   4.456
 4945SOL    HW215735   0.088   5.762   4.373
 4946SOL     OW15736   6.854   4.480   1.972
 4946SOL    HW115737   6.886   4.393   1.932
 4946SOL    HW215738   6.754   4.483   1.968
 4947SOL     OW15739   6.035   0.804   0.570
 4947SOL    HW115740   5.947   0.806   0.522
 4947SOL    HW215741   6.033   0.871   0.644
 4948SOL     OW15742   2.532   1.718   2.467
 4948SOL    HW115743   2.474   1.787   2.423
 4948SOL    HW215744   2.490   1.628   2.456
 4949SOL     OW15745   5.289   2.188   5.130
 4949SOL    HW115746   5.304   2.215   5.035
 4949SOL    HW215747   5.278   2.269   5.187
 4950SOL     OW15748   3.045   5.854   4.389
 4950SOL    HW115749   2.999   5.831   4.303
 4950SOL    HW215750   2.980   5.851   4.464
 4951SOL     OW15751   4.280   2.337   4.033
 4951SOL    HW115752   4.271   2.261   3.970
 4951SOL    HW215753   4.325   2.305   4.117
 4952SOL     OW15754   6.630   4.305   4.091
 4952SOL    HW115755   6.553   4.241   4.089
 4952SOL    HW215756   6.628   4.363   4.009
 4953SOL     OW15757   1.112   4.516   2.005
 4953SOL    HW115758   1.194   4.463   1.984
 4953SOL    HW215759   1.110   4.598   1.948
 4954SOL     OW15760   6.680   6.446   6.463
 4954SOL    HW115761   6.601   6.479   6.514
 4954SOL    HW215762   6.762   6.451   6.520
 4955SOL     OW15763   1.700   0.279   1.665
 4955SOL    HW115764   1.748   0.328   1.738
 4955SOL    HW215765   1.655   0.346   1.605
 4956SOL     OW15766   5.919   6.462   3.537
 4956SOL    HW115767   5.894   6.559   3.543
 4956SOL    HW215768   5.915   6.433   3.442
 4957SOL     OW15769   1.388   5.943   4.066
 4957SOL    HW115770   1.313   5.995   4.025
 4957SOL    HW215771   1.394   5.963   4.164
 4958SOL     OW15772   6.748   6.814   0.021
 4958SOL    HW115773   6.811   6.868   6.990
 4958SOL    HW215774   6.671   6.871   0.048
 4959SOL     OW15775   0.544   2.088   0.184
 4959SOL    HW115776   0.546   2.165   0.120
 4959SOL    HW215777   0.633   2.082   0.231
 4960SOL     OW15778   3.110   0.016   5.522
 4960SOL    HW115779   3.058   0.101   5.513
 4960SOL    HW215780   3.125   7.003   5.431
 4961SOL     OW15781   5.412   0.437   5.130
 4961SOL    HW115782   5.390   0.530   5.159
 4961SOL    HW215783   5.394   0.373   5.204
 4962SOL     OW15784   6.586   2.547   2.243
 4962SOL    HW115785   6.543   2.571   2.156
 4962SOL    HW215786   6.566   2.452   2.266
 4963SOL     OW15787   0.383   4.361   1.136
 4963SOL    HW115788   0.427   4.287   1.187
 4963SOL    HW215789   0.290   4.335   1.112
 4964SOL     OW15790   2.699   6.554   3.054
 4964SOL    HW115791   2.756   6.472   3.056
 4964SOL    HW215792   2.758   6.635   3.048
 4965SOL     OW15793   0.016   5.988   4.998
 4965SOL    HW115794   7.007   5.939   5.078
 4965SOL    HW215795   0.114   5.971   4.988
 4966SOL     OW15796   5.026   5.591   5.164
 4966SOL    HW115797   4.965   5.668   5.185
 4966SOL    HW215798   5.120   5.618   5.184
 4967SOL     OW15799   5.728   1.577   6.487
 4967SOL    HW115800   5.731   1.601   6.584
 4967SOL    HW215801   5.787   1.497   6.471
 4968SOL     OW15802   5.173   4.084   6.468
 4968SOL    HW115803   5.266   4.053   6.489
 4968SOL    HW215804   5.145   4.047   6.379
 4969SOL     OW15805   1.753   1.779   1.380
 4969SOL    HW115806   1.830   1.779   1.444
 4969SOL    HW215807   1.709   1.689   1.381
 4970SOL     OW15808   1.694   2.387   5.841
 4970SOL    HW115809   1.763   2.381   5.913
 4970SOL    HW215810   1.737   2.418   5.756
 4971SOL     OW15811   6.186   5.259   3.758
 4971SOL    HW115812   6.198   5.355   3.735
 4971SOL    HW215813   6.197   5.246   3.856
 4972SOL     OW15814   1.801   2.144   4.660
 4972SOL    HW115815   1.718   2.200   4.663
 4972SOL    HW215816   1.881   2.203   4.649
 4973SOL     OW15817   4.837   5.619   3.039
 4973SOL    HW115818   4.930   5.656   3.037
 4973SOL    HW215819   4.813   5.592   3.132
 4974SOL     OW15820   3.920   6.696   6.515
 4974SOL    HW115821   3.827   6.730   6.501
 4974SOL    HW215822   3.916   6.606   6.559
 4975SOL     OW15823   4.100   6.062   0.536
 4975SOL    HW115824   4.126   6.133   0.600
 4975SOL    HW215825   4.181   6.014   0.503
 4976SOL     OW15826   2.264   0.802   4.672
 4976SOL    HW115827   2.222   0.891   4.689
 4976SOL    HW215828   2.282   0.791   4.574
 4977SOL     OW15829   3.413   3.089   1.080
 4977SOL    HW115830   3.497   3.137   1.055
 4977SOL    HW215831   3.434   2.995   1.105
 4978SOL     OW15832   6.410   4.201   6.653
 4978SOL    HW115833   6.378   4.107   6.640
 4978SOL    HW215834   6.487   4.202   6.716
 4979SOL     OW15835   2.500   2.540   3.728
 4979SOL    HW115836   2.563   2.501   3.795
 4979SOL    HW215837   2.473   2.470   3.662
 4980SOL     OW15838   2.261   4.833   3.457
 4980SOL    HW115839   2.244   4.833   3.359
 4980SOL    HW215840   2.179   4.802   3.505
 4981SOL     OW15841   5.404   5.563   5.333
 4981SOL    HW115842   5.319   5.558   5.385
 4981SOL    HW215843   5.475   5.607   5.388
 4982SOL     OW15844   2.184   1.480   6.740
 4982SOL    HW115845   2.283   1.494   6.743
 4982SOL    HW215846   2.154   1.481   6.645
 4983SOL     OW15847   6.906   2.468   4.368
 4983SOL    HW115848   6.931   2.500   4.459
 4983SOL    HW215849   6.837   2.530   4.329
 4984SOL     OW15850   5.126   5.245   3.361
 4984SOL    HW115851   5.105   5.240   3.459
 4984SOL    HW215852   5.082   5.325   3.321
 4985SOL     OW15853   5.958   3.557   1.997
 4985SOL    HW115854   6.038   3.513   1.956
 4985SOL    HW215855   5.876   3.506   1.974
 4986SOL     OW15856   4.435   5.224   3.071
 4986SOL    HW115857   4.361   5.156   3.071
 4986SOL    HW215858   4.523   5.178   3.060
 4987SOL     OW15859   1.084   3.027   0.456
 4987SOL    HW115860   1.044   3.098   0.515
 4987SOL    HW215861   1.063   3.048   0.361
 4988SOL     OW15862   2.150   2.664   5.228
 4988SOL    HW115863   2.118   2.744   5.279
 4988SOL    HW215864   2.235   2.686   5.181
 4989SOL     OW15865   0.179   1.141   1.067
 4989SOL    HW115866   0.228   1.111   1.150
 4989SOL    HW215867   0.215   1.229   1.037
 4990SOL     OW15868   1.414   2.159   6.951
 4990SOL    HW115869   1.321   2.136   6.922
 4990SOL    HW215870   1.476   2.147   6.873
 4991SOL     OW15871   2.902   1.781   5.455
 4991SOL    HW115872   2.974   1.748   5.393
 4991SOL    HW215873   2.944   1.830   5.532
 4992SOL     OW15874   4.030   6.715   4.854
 4992SOL    HW115875   3.980   6.785   4.905
 4992SOL    HW215876   4.078   6.757   4.778
 4993SOL     OW15877   1.395   6.386   4.212
 4993SOL    HW115878   1.318   6.322   4.212
 4993SOL    HW215879   1.448   6.372   4.296
 4994SOL     OW15880   0.224   6.413   3.285
 4994SOL    HW115881   0.252   6.458   3.200
 4994SOL    HW215882   0.160   6.472   3.334
 4995SOL     OW15883   5.891   3.216   5.664
 4995SOL    HW115884   5.921   3.123   5.640
 4995SOL    HW215885   5.794   3.226   5.643
 4996SOL     OW15886   0.652   1.746   3.770
 4996SOL    HW115887   0.572   1.792   3.732
 4996SOL    HW215888   0.627   1.702   3.857
 4997SOL     OW15889   0.138   2.600   4.050
 4997SOL    HW115890   0.235   2.622   4.066
 4997SOL    HW215891   0.131   2.506   4.018
 4998SOL     OW15892   1.029   5.989   5.830
 4998SOL    HW115893   0.964   5.972   5.756
 4998SOL    HW215894   1.028   5.913   5.895
 4999SOL     OW15895   5.849   4.781   1.050
 4999SOL    HW115896   5.788   4.777   0.971
 4999SOL    HW215897   5.818   4.851   1.114
 5000SOL     OW15898   6.285   5.507   4.437
 5000SOL    HW115899   6.239   5.474   4.519
 5000SOL    HW215900   6.320   5.429   4.385
 5001SOL     OW15901   4.987   3.472   5.355
 5001SOL    HW115902   4.997   3.508   5.448
 5001SOL    HW215903   5.018   3.376   5.354
 5002SOL     OW15904   1.378   2.149   1.953
 5002SOL    HW115905   1.293   2.116   1.994
 5002SOL    HW215906   1.417   2.076   1.896
 5003SOL     OW15907   6.741   5.496   4.308
 5003SOL    HW115908   6.758   5.590   4.277
 5003SOL    HW215909   6.702   5.498   4.400
 5004SOL     OW15910   1.688   4.092   6.171
 5004SOL    HW115911   1.772   4.142   6.148
 5004SOL    HW215912   1.712   4.005   6.214
 5005SOL     OW15913   4.944   2.387   0.565
 5005SOL    HW115914   5.002   2.383   0.646
 5005SOL    HW215915   4.860   2.437   0.586
 5006SOL     OW15916   4.967   5.045   2.252
 5006SOL    HW115917   4.902   5.007   2.318
 5006SOL    HW215918   4.987   4.977   2.182
 5007SOL     OW15919   4.388   0.618   5.182
 5007SOL    HW115920   4.358   0.524   5.196
 5007SOL    HW215921   4.309   0.675   5.161
 5008SOL     OW15922   6.320   1.768   3.913
 5008SOL    HW115923   6.327   1.815   3.825
 5008SOL    HW215924   6.334   1.670   3.900
 5009SOL     OW15925   2.491   6.530   1.626
 5009SOL    HW115926   2.468   6.545   1.530
 5009SOL    HW215927   2.590   6.514   1.634
 5010SOL     OW15928   3.226   3.565   6.000
 5010SOL    HW115929   3.200   3.478   6.040
 5010SOL    HW215930   3.299   3.606   6.055
 5011SOL     OW15931   1.494   1.500   3.724
 5011SOL    HW115932   1.515   1.403   3.736
 5011SOL    HW215933   1.577   1.554   3.734
 5012SOL     OW15934   6.020   3.094   7.023
 5012SOL    HW115935   5.959   3.172   7.006
 5012SOL    HW215936   5.981   3.036   0.069
 5013SOL     OW15937   4.924   1.851   5.502
 5013SOL    HW115938   4.872   1.766   5.512
 5013SOL    HW215939   5.020   1.830   5.485
 5014SOL     OW15940   6.900   4.839   6.826
 5014SOL    HW115941   6.817   4.801   6.786
 5014SOL    HW215942   6.878   4.881   6.914
 5015SOL     OW15943   4.661   1.770   3.709
 5015SOL    HW115944   4.743   1.717   3.728
 5015SOL    HW215945   4.588   1.742   3.771
 5016SOL     OW15946   2.754   5.974   1.599
 5016SOL    HW115947   2.703   6.052   1.636
 5016SOL    HW215948   2.691   5.897   1.585
 5017SOL     OW15949   1.135   1.917   1.889
 5017SOL    HW115950   1.164   1.934   1.795
 5017SOL    HW215951   1.040   1.888   1.891
 5018SOL     OW15952   6.396   5.318   4.288
 5018SOL    HW115953   6.439   5.264   4.216
 5018SOL    HW215954   6.385   5.261   4.370
 5019SOL     OW15955   3.175   5.682   5.219
 5019SOL    HW115956   3.202   5.621   5.294
 5019SOL    HW215957   3.204   5.642   5.132
 5020SOL     OW15958   4.613   4.687   0.138
 5020SOL    HW115959   4.647   4.767   0.187
 5020SOL    HW215960   4.664   4.606   0.167
 5021SOL     OW15961   1.656   4.674   5.812
 5021SOL    HW115962   1.689   4.767   5.800
 5021SOL    HW215963   1.706   4.612   5.751
 5022SOL     OW15964   1.914   4.157   6.969
 5022SOL    HW115965   1.909   4.257   6.973
 5022SOL    HW215966   1.927   4.121   0.036
 5023SOL     OW15967   0.297   2.983   4.871
 5023SOL    HW115968   0.376   2.943   4.918
 5023SOL    HW215969   0.249   2.911   4.822
 5024SOL     OW15970   4.853   3.872   5.345
 5024SOL    HW115971   4.825   3.888   5.440
 5024SOL    HW215972   4.801   3.931   5.284
 5025SOL     OW15973   5.827   0.683   4.442
 5025SOL    HW115974   5.922   0.657   4.425
 5025SOL    HW215975   5.816   0.781   4.431
 5026SOL     OW15976   0.823   5.577   2.991
 5026SOL    HW115977   0.729   5.585   3.024
 5026SOL    HW215978   0.874   5.658   3.018
 5027SOL     OW15979   1.118   5.600   3.341
 5027SOL    HW115980   1.132   5.545   3.423
 5027SOL    HW215981   1.168   5.559   3.264
 5028SOL     OW15982   1.121   6.367   3.302
 5028SOL    HW115983   1.116   6.452   3.250
 5028SOL    HW215984   1.094   6.384   3.397
 5029SOL     OW15985   5.906   0.618   4.055
 5029SOL    HW115986   5.887   0.710   4.089
 5029SOL    HW215987   5.988   0.582   4.099
 5030SOL     OW15988   1.526   6.316   0.250
 5030SOL    HW115989   1.477   6.261   0.317
 5030SOL    HW215990   1.530   6.267   0.163
 5031SOL     OW15991   5.630   0.326   6.651
 5031SOL    HW115992   5.583   0.407   6.686
 5031SOL    HW215993   5.728   0.334   6.669
 5032SOL     OW15994   1.327   5.291   2.293
 5032SOL    HW115995   1.300   5.233   2.216
 5032SOL    HW215996   1.416   5.333   2.275
 5033SOL     OW15997   0.482   4.634   4.619
 5033SOL    HW115998   0.422   4.703   4.577
 5033SOL    HW215999   0.515   4.668   4.707
 5034SOL     OW16000   0.506   3.347   6.361
 5034SOL    HW116001   0.463   3.316   6.445
 5034SOL    HW216002   0.448   3.324   6.283
 5035SOL     OW16003   6.877   3.987   1.336
 5035SOL    HW116004   6.801   3.925   1.356
 5035SOL    HW216005   6.846   4.060   1.275
 5036SOL     OW16006   1.078   1.903   3.025
 5036SOL    HW116007   1.060   1.999   3.044
 5036SOL    HW216008   1.108   1.857   3.109
 5037SOL     OW16009   5.103   4.516   1.976
 5037SOL    HW116010   5.015   4.525   2.023
 5037SOL    HW216011   5.089   4.526   1.877
 5038SOL     OW16012   3.114   5.672   5.867
 5038SOL    HW116013   3.191   5.725   5.831
 5038SOL    HW216014   3.071   5.621   5.792
 5039SOL     OW16015   1.077   2.384   3.642
 5039SOL    HW116016   1.039   2.324   3.572
 5039SOL    HW216017   1.157   2.432   3.605
 5040SOL     OW16018   2.840   3.448   5.894
 5040SOL    HW116019   2.890   3.361   5.895
 5040SOL    HW216020   2.752   3.435   5.849
 5041SOL     OW16021   6.925   5.646   0.538
 5041SOL    HW116022   6.906   5.611   0.446
 5041SOL    HW216023   7.024   5.645   0.554
 5042SOL     OW16024   5.659   1.764   6.121
 5042SOL    HW116025   5.746   1.719   6.141
 5042SOL    HW216026   5.622   1.802   6.206
 5043SOL     OW16027   5.391   6.033   3.394
 5043SOL    HW116028   5.469   6.019   3.455
 5043SOL    HW216029   5.410   5.991   3.305
 5044SOL     OW16030   6.307   3.980   1.776
 5044SOL    HW116031   6.218   3.987   1.729
 5044SOL    HW216032   6.380   3.994   1.709
 5045SOL     OW16033   5.315   2.931   5.388
 5045SOL    HW116034   5.305   2.894   5.295
 5045SOL    HW216035   5.411   2.922   5.417
 5046SOL     OW16036   4.362   2.941   5.886
 5046SOL    HW116037   4.315   2.958   5.973
 5046SOL    HW216038   4.296   2.916   5.816
 5047SOL     OW16039   0.468   1.910   2.556
 5047SOL    HW116040   0.392   1.895   2.620
 5047SOL    HW216041   0.432   1.924   2.464
 5048SOL     OW16042   6.150   3.403   0.964
 5048SOL    HW116043   6.100   3.475   0.915
 5048SOL    HW216044   6.102   3.316   0.953
 5049SOL     OW16045   0.493   1.176   1.936
 5049SOL    HW116046   0.519   1.082   1.957
 5049SOL    HW216047   0.472   1.184   1.839
 5050SOL     OW16048   1.817   4.486   0.614
 5050SOL    HW116049   1.788   4.427   0.539
 5050SOL    HW216050   1.744   4.552   0.635
 5051SOL     OW16051   2.428   4.005   6.182
 5051SOL    HW116052   2.354   4.069   6.163
 5051SOL    HW216053   2.515   4.044   6.152
 5052SOL     OW16054   6.242   2.682   0.941
 5052SOL    HW116055   6.268   2.589   0.918
 5052SOL    HW216056   6.317   2.744   0.919
 5053SOL     OW16057   1.365   4.015   1.568
 5053SOL    HW116058   1.384   4.091   1.630
 5053SOL    HW216059   1.301   3.952   1.611
 5054SOL     OW16060   4.205   5.879   5.130
 5054SOL    HW116061   4.107   5.859   5.117
 5054SOL    HW216062   4.220   5.977   5.117
 5055SOL     OW16063   0.676   0.444   3.616
 5055SOL    HW116064   0.701   0.510   3.687
 5055SOL    HW216065   0.726   0.466   3.532
 5056SOL     OW16066   3.411   2.043   6.094
 5056SOL    HW116067   3.387   2.034   6.191
 5056SOL    HW216068   3.328   2.057   6.040
 5057SOL     OW16069   0.465   4.265   2.672
 5057SOL    HW116070   0.492   4.184   2.724
 5057SOL    HW216071   0.455   4.343   2.733
 5058SOL     OW16072   3.921   1.889   0.459
 5058SOL    HW116073   3.872   1.817   0.508
 5058SOL    HW216074   3.909   1.976   0.507
 5059SOL     OW16075   5.716   2.349   2.381
 5059SOL    HW116076   5.788   2.415   2.358
 5059SOL    HW216077   5.669   2.380   2.464
 5060SOL     OW16078   6.175   3.038   5.475
 5060SOL    HW116079   6.246   3.099   5.511
 5060SOL    HW216080   6.216   2.950   5.453
 5061SOL     OW16081   3.977   2.480   5.586
 5061SOL    HW116082   4.020   2.569   5.596
 5061SOL    HW216083   4.003   2.421   5.663
 5062SOL     OW16084   5.623   1.014   3.137
 5062SOL    HW116085   5.574   1.056   3.214
 5062SOL    HW216086   5.664   1.085   3.081
 5063SOL     OW16087   0.535   1.657   1.504
 5063SOL    HW116088   0.440   1.632   1.487
 5063SOL    HW216089   0.585   1.578   1.539
 5064SOL     OW16090   6.356   5.067   1.167
 5064SOL    HW116091   6.426   5.138   1.161
 5064SOL    HW216092   6.317   5.051   1.076
 5065SOL     OW16093   2.038   1.982   2.598
 5065SOL    HW116094   2.077   1.930   2.675
 5065SOL    HW216095   2.112   2.022   2.544
 5066SOL     OW16096   1.449   5.034   3.887
 5066SOL    HW116097   1.509   4.998   3.816
 5066SOL    HW216098   1.397   5.112   3.851
 5067SOL     OW16099   5.231   2.639   0.864
 5067SOL    HW116100   5.223   2.692   0.780
 5067SOL    HW216101   5.236   2.701   0.942
 5068SOL     OW16102   1.590   0.078   1.261
 5068SOL    HW116103   1.554   0.089   1.353
 5068SOL    HW216104   1.690   0.075   1.265
 5069SOL     OW16105   4.244   4.379   5.958
 5069SOL    HW116106   4.250   4.468   5.913
 5069SOL    HW216107   4.212   4.391   6.052
 5070SOL     OW16108   6.821   3.714   5.981
 5070SOL    HW116109   6.848   3.680   6.071
 5070SOL    HW216110   6.811   3.813   5.984
 5071SOL     OW16111   2.453   6.870   2.403
 5071SOL    HW116112   2.392   6.801   2.442
 5071SOL    HW216113   2.458   6.949   2.463
 5072SOL     OW16114   0.930   1.783   2.501
 5072SOL    HW116115   0.892   1.774   2.593
 5072SOL    HW216116   1.029   1.795   2.508
 5073SOL     OW16117   1.753   1.299   3.451
 5073SOL    HW116118   1.673   1.356   3.435
 5073SOL    HW216119   1.797   1.277   3.364
 5074SOL     OW16120   3.824   1.824   0.986
 5074SOL    HW116121   3.865   1.762   0.919
 5074SOL    HW216122   3.760   1.886   0.939
 5075SOL     OW16123   5.966   2.160   0.546
 5075SOL    HW116124   6.006   2.080   0.500
 5075SOL    HW216125   6.009   2.172   0.635
 5076SOL     OW16126   6.904   1.056   5.752
 5076SOL    HW116127   7.001   1.046   5.774
 5076SOL    HW216128   6.874   1.148   5.777
 5077SOL     OW16129   7.005   4.681   4.035
 5077SOL    HW116130   0.045   4.746   4.073
 5077SOL    HW216131   0.026   4.597   4.011
 5078SOL     OW16132   6.175   2.271   3.123
 5078SOL    HW116133   6.115   2.193   3.108
 5078SOL    HW216134   6.125   2.356   3.105
 5079SOL     OW16135   1.876   4.032   5.274
 5079SOL    HW116136   1.968   4.062   5.249
 5079SOL    HW216137   1.873   3.932   5.278
 5080SOL     OW16138   6.764   5.507   0.033
 5080SOL    HW116139   6.683   5.451   0.050
 5080SOL    HW216140   6.783   5.507   6.960
 5081SOL     OW16141   3.133   4.729   5.457
 5081SOL    HW116142   3.205   4.662   5.439
 5081SOL    HW216143   3.067   4.728   5.382
 5082SOL     OW16144   6.228   0.202   2.585
 5082SOL    HW116145   6.138   0.198   2.542
 5082SOL    HW216146   6.218   0.199   2.685
 5083SOL     OW16147   0.706   6.868   3.459
 5083SOL    HW116148   0.770   6.929   3.505
 5083SOL    HW216149   0.703   6.890   3.361
 5084SOL     OW16150   3.213   5.085   5.732
 5084SOL    HW116151   3.245   5.169   5.687
 5084SOL    HW216152   3.250   5.005   5.684
 5085SOL     OW16153   6.836   4.115   5.118
 5085SOL    HW116154   6.849   4.016   5.112
 5085SOL    HW216155   6.750   4.134   5.165
 5086SOL     OW16156   1.320   4.747   2.287
 5086SOL    HW116157   1.305   4.672   2.351
 5086SOL    HW216158   1.390   4.720   2.221
 5087SOL     OW16159   6.974   5.947   1.675
 5087SOL    HW116160   6.884   5.923   1.639
 5087SOL    HW216161   0.018   5.897   1.623
 5088SOL     OW16162   4.326   4.887   1.904
 5088SOL    HW116163   4.307   4.791   1.885
 5088SOL    HW216164   4.367   4.896   1.995
 5089SOL     OW16165   5.106   6.388   5.521
 5089SOL    HW116166   5.181   6.454   5.526
 5089SOL    HW216167   5.118   6.318   5.592
 5090SOL     OW16168   2.300   6.800   4.204
 5090SOL    HW116169   2.248   6.825   4.122
 5090SOL    HW216170   2.240   6.750   4.267
 5091SOL     OW16171   6.153   6.001   6.011
 5091SOL    HW116172   6.134   5.922   5.952
 5091SOL    HW216173   6.251   6.022   6.008
 5092SOL     OW16174   3.480   2.913   4.422
 5092SOL    HW116175   3.506   2.859   4.342
 5092SOL    HW216176   3.406   2.976   4.396
 5093SOL     OW16177   3.484   2.058   3.535
 5093SOL    HW116178   3.565   2.095   3.580
 5093SOL    HW216179   3.511   2.006   3.454
 5094SOL     OW16180   2.115   5.721   5.079
 5094SOL    HW116181   2.213   5.713   5.098
 5094SOL    HW216182   2.066   5.645   5.121
 5095SOL     OW16183   6.004   1.695   3.360
 5095SOL    HW116184   6.090   1.646   3.349
 5095SOL    HW216185   5.935   1.654   3.300
 5096SOL     OW16186   5.904   2.933   5.880
 5096SOL    HW116187   5.978   2.907   5.941
 5096SOL    HW216188   5.936   2.930   5.785
 5097SOL     OW16189   0.863   1.306   5.667
 5097SOL    HW116190   0.765   1.327   5.677
 5097SOL    HW216191   0.894   1.254   5.746
 5098SOL     OW16192   3.167   2.312   1.092
 5098SOL    HW116193   3.168   2.385   1.160
 5098SOL    HW216194   3.082   2.318   1.039
 5099SOL     OW16195   2.336   5.543   2.553
 5099SOL    HW116196   2.383   5.547   2.641
 5099SOL    HW216197   2.352   5.628   2.503
 5100SOL     OW16198   5.778   3.561   1.687
 5100SOL    HW116199   5.746   3.654   1.708
 5100SOL    HW216200   5.735   3.497   1.750
 5101SOL     OW16201   3.089   1.341   5.075
 5101SOL    HW116202   3.163   1.370   5.135
 5101SOL    HW216203   3.074   1.411   5.005
 5102SOL     OW16204   5.516   4.253   5.490
 5102SOL    HW116205   5.596   4.234   5.434
 5102SOL    HW216206   5.500   4.351   5.495
 5103SOL     OW16207   0.649   0.579   5.822
 5103SOL    HW116208   0.672   0.483   5.804
 5103SOL    HW216209   0.652   0.630   5.736
 5104SOL     OW16210   3.937   3.725   3.789
 5104SOL    HW116211   3.983   3.637   3.803
 5104SOL    HW216212   3.846   3.710   3.751
 5105SOL     OW16213   4.404   3.191   6.927
 5105SOL    HW116214   4.488   3.229   6.966
 5105SOL    HW216215   4.397   3.095   6.953
 5106SOL     OW16216   3.800   1.236   1.377
 5106SOL    HW116217   3.889   1.274   1.351
 5106SOL    HW216218   3.732   1.260   1.307
 5107SOL     OW16219   6.037   5.220   6.778
 5107SOL    HW116220   6.086   5.137   6.806
 5107SOL    HW216221   5.961   5.237   6.841
 5108SOL     OW16222   4.056   4.174   1.180
 5108SOL    HW116223   4.144   4.181   1.131
 5108SOL    HW216224   4.060   4.229   1.264
 5109SOL     OW16225   2.112   2.437   2.491
 5109SOL    HW116226   2.048   2.428   2.414
 5109SOL    HW216227   2.165   2.353   2.499
 5110SOL     OW16228   3.662   6.139   4.735
 5110SOL    HW116229   3.746   6.192   4.726
 5110SOL    HW216230   3.582   6.200   4.731
 5111SOL     OW16231   2.204   5.056   5.513
 5111SOL    HW116232   2.181   4.975   5.566
 5111SOL    HW216233   2.232   5.130   5.574
 5112SOL     OW16234   1.074   4.584   2.623
 5112SOL    HW116235   0.992   4.539   2.587
 5112SOL    HW216236   1.146   4.583   2.553
 5113SOL     OW16237   2.400   3.876   0.842
 5113SOL    HW116238   2.348   3.962   0.849
 5113SOL    HW216239   2.341   3.805   0.803
 5114SOL     OW16240   4.756   4.606   1.768
 5114SOL    HW116241   4.755   4.512   1.802
 5114SOL    HW216242   4.737   4.669   1.843
 5115SOL     OW16243   1.374   4.608   0.496
 5115SOL    HW116244   1.311   4.618   0.573
 5115SOL    HW216245   1.403   4.698   0.465
 5116SOL     OW16246   0.338   6.269   5.609
 5116SOL    HW116247   0.318   6.327   5.688
 5116SOL    HW216248   0.311   6.175   5.629
 5117SOL     OW16249   7.005   3.407   3.596
 5117SOL    HW116250   6.927   3.360   3.555
 5117SOL    HW216251   0.036   3.447   3.524
 5118SOL     OW16252   4.209   5.066   7.006
 5118SOL    HW116253   4.155   4.983   7.023
 5118SOL    HW216254   4.161   5.145   0.019
 5119SOL     OW16255   5.275   1.652   0.802
 5119SOL    HW116256   5.338   1.683   0.873
 5119SOL    HW216257   5.321   1.584   0.744
 5120SOL     OW16258   5.972   6.448   6.038
 5120SOL    HW116259   6.009   6.418   6.126
 5120SOL    HW216260   5.872   6.456   6.045
 5121SOL     OW16261   1.320   3.389   0.361
 5121SOL    HW116262   1.266   3.465   0.397
 5121SOL    HW216263   1.377   3.352   0.434
 5122SOL     OW16264   4.849   4.716   3.340
 5122SOL    HW116265   4.903   4.801   3.343
 5122SOL    HW216266   4.819   4.693   3.432
 5123SOL     OW16267   5.048   2.471   1.034
 5123SOL    HW116268   5.075   2.377   1.054
 5123SOL    HW216269   5.125   2.521   0.995
 5124SOL     OW16270   0.417   5.705   4.338
 5124SOL    HW116271   0.446   5.639   4.268
 5124SOL    HW216272   0.337   5.756   4.305
 5125SOL     OW16273   5.698   2.278   3.526
 5125SOL    HW116274   5.640   2.302   3.604
 5125SOL    HW216275   5.767   2.212   3.554
 5126SOL     OW16276   1.878   1.285   1.733
 5126SOL    HW116277   1.927   1.325   1.656
 5126SOL    HW216278   1.915   1.194   1.753
 5127SOL     OW16279   1.723   7.011   6.984
 5127SOL    HW116280   1.798   7.013   0.024
 5127SOL    HW216281   1.636   7.012   0.008
 5128SOL     OW16282   4.151   6.741   0.985
 5128SOL    HW116283   4.228   6.697   1.032
 5128SOL    HW216284   4.168   6.839   0.977
 5129SOL     OW16285   6.110   5.716   0.405
 5129SOL    HW116286   6.012   5.699   0.404
 5129SOL    HW216287   6.140   5.731   0.499
 5130SOL     OW16288   6.445   5.492   2.116
 5130SOL    HW116289   6.446   5.574   2.058
 5130SOL    HW216290   6.532   5.484   2.164
 5131SOL     OW16291   2.432   2.477   2.371
 5131SOL    HW116292   2.432   2.385   2.330
 5131SOL    HW216293   2.410   2.545   2.301
 5132SOL     OW16294   2.349   6.134   5.476
 5132SOL    HW116295   2.362   6.038   5.500
 5132SOL    HW216296   2.384   6.151   5.384
 5133SOL     OW16297   3.725   6.608   4.791
 5133SOL    HW116298   3.773   6.686   4.830
 5133SOL    HW216299   3.638   6.637   4.752
 5134SOL     OW16300   0.017   3.320   6.649
 5134SOL    HW116301   6.952   3.304   6.609
 5134SOL    HW216302   0.072   3.237   6.641
 5135SOL     OW16303   6.802   1.755   4.288
 5135SOL    HW116304   6.713   1.767   4.244
 5135SOL    HW216305   6.831   1.842   4.328
 5136SOL     OW16306   3.225   1.902   6.539
 5136SOL    HW116307   3.133   1.905   6.580
 5136SOL    HW216308   3.250   1.807   6.521
 5137SOL     OW16309   3.731   3.329   6.951
 5137SOL    HW116310   3.718   3.322   0.024
 5137SOL    HW216311   3.675   3.405   6.915
 5138SOL     OW16312   2.374   3.074   5.995
 5138SOL    HW116313   2.414   3.038   5.911
 5138SOL    HW216314   2.444   3.122   6.048
 5139SOL     OW16315   1.157   6.408   3.958
 5139SOL    HW116316   1.192   6.315   3.952
 5139SOL    HW216317   1.076   6.418   3.900
 5140SOL     OW16318   3.182   3.084   1.766
 5140SOL    HW116319   3.195   3.164   1.709
 5140SOL    HW216320   3.256   3.019   1.751
 5141SOL     OW16321   1.010   3.834   5.612
 5141SOL    HW116322   1.062   3.889   5.678
 5141SOL    HW216323   1.073   3.792   5.547
 5142SOL     OW16324   5.759   3.171   1.869
 5142SOL    HW116325   5.782   3.180   1.966
 5142SOL    HW216326   5.707   3.252   1.840
 5143SOL     OW16327   6.872   4.603   5.778
 5143SOL    HW116328   6.796   4.616   5.842
 5143SOL    HW216329   6.854   4.656   5.695
 5144SOL     OW16330   1.677   1.718   4.928
 5144SOL    HW116331   1.725   1.744   4.844
 5144SOL    HW216332   1.744   1.710   5.002
 5145SOL     OW16333   3.859   5.735   5.836
 5145SOL    HW116334   3.917   5.670   5.884
 5145SOL    HW216335   3.797   5.780   5.901
 5146SOL     OW16336   3.019   4.558   1.075
 5146SOL    HW116337   2.977   4.606   0.998
 5146SOL    HW216338   2.964   4.574   1.157
 5147SOL     OW16339   6.991   5.178   6.581
 5147SOL    HW116340   0.010   5.121   6.512
 5147SOL    HW216341   6.967   5.122   6.661
 5148SOL     OW16342   0.385   0.749   1.590
 5148SOL    HW116343   0.334   0.721   1.509
 5148SOL    HW216344   0.482   0.753   1.568
 5149SOL     OW16345   6.654   0.261   5.939
 5149SOL    HW116346   6.664   0.305   6.028
 5149SOL    HW216347   6.734   0.204   5.920
 5150SOL     OW16348   2.601   5.506   5.489
 5150SOL    HW116349   2.676   5.445   5.463
 5150SOL    HW216350   2.547   5.463   5.561
 5151SOL     OW16351   4.055   0.434   5.522
 5151SOL    HW116352   3.970   0.386   5.541
 5151SOL    HW216353   4.111   0.436   5.604
 5152SOL     OW16354   0.118   4.836   6.696
 5152SOL    HW116355   0.161   4.752   6.729
 5152SOL    HW216356   0.031   4.849   6.743
 5153SOL     OW16357   2.142   2.491   0.907
 5153SOL    HW116358   2.084   2.547   0.847
 5153SOL    HW216359   2.203   2.551   0.959
 5154SOL     OW16360   1.663   4.675   4.642
 5154SOL    HW116361   1.699   4.588   4.674
 5154SOL    HW216362   1.581   4.659   4.587
 5155SOL     OW16363   4.148   0.325   2.368
 5155SOL    HW116364   4.132   0.411   2.320
 5155SOL    HW216365   4.243   0.321   2.398
 5156SOL     OW16366   5.208   3.329   5.902
 5156SOL    HW116367   5.267   3.255   5.871
 5156SOL    HW216368   5.248   3.372   5.983
 5157SOL     OW16369   5.938   2.018   3.900
 5157SOL    HW116370   6.001   1.959   3.950
 5157SOL    HW216371   5.899   1.967   3.823
 5158SOL     OW16372   3.657   0.609   1.327
 5158SOL    HW116373   3.597   0.529   1.326
 5158SOL    HW216374   3.652   0.654   1.416
 5159SOL     OW16375   2.134   3.575   4.760
 5159SOL    HW116376   2.057   3.546   4.817
 5159SOL    HW216377   2.188   3.643   4.808
 5160SOL     OW16378   2.697   2.441   3.916
 5160SOL    HW116379   2.692   2.346   3.886
 5160SOL    HW216380   2.772   2.452   3.981
 5161SOL     OW16381   1.818   3.456   6.776
 5161SOL    HW116382   1.728   3.413   6.775
 5161SOL    HW216383   1.886   3.393   6.738
 5162SOL     OW16384   6.739   5.598   4.726
 5162SOL    HW116385   6.679   5.544   4.666
 5162SOL    HW216386   6.796   5.536   4.780
 5163SOL     OW16387   5.245   3.845   0.835
 5163SOL    HW116388   5.205   3.778   0.897
 5163SOL    HW216389   5.174   3.910   0.806
 5164SOL     OW16390   6.504   6.110   4.772
 5164SOL    HW116391   6.474   6.072   4.860
 5164SOL    HW216392   6.545   6.200   4.787
 5165SOL     OW16393   5.730   3.711   4.984
 5165SOL    HW116394   5.740   3.806   4.953
 5165SOL    HW216395   5.662   3.664   4.929
 5166SOL     OW16396   1.284   6.786   2.711
 5166SOL    HW116397   1.234   6.833   2.638
 5166SOL    HW216398   1.314   6.853   2.779
 5167SOL     OW16399   1.897   0.387   5.621
 5167SOL    HW116400   1.818   0.370   5.679
 5167SOL    HW216401   1.972   0.327   5.649
 5168SOL     OW16402   3.362   2.110   2.612
 5168SOL    HW116403   3.319   2.088   2.525
 5168SOL    HW216404   3.302   2.171   2.665
 5169SOL     OW16405   3.854   5.224   6.483
 5169SOL    HW116406   3.922   5.296   6.472
 5169SOL    HW216407   3.790   5.227   6.406
 5170SOL     OW16408   4.041   5.436   4.164
 5170SOL    HW116409   4.040   5.352   4.218
 5170SOL    HW216410   4.135   5.457   4.137
 5171SOL     OW16411   2.649   4.720   5.232
 5171SOL    HW116412   2.568   4.666   5.205
 5171SOL    HW216413   2.725   4.697   5.171
 5172SOL     OW16414   1.809   4.256   6.419
 5172SOL    HW116415   1.775   4.162   6.427
 5172SOL    HW216416   1.893   4.266   6.473
 5173SOL     OW16417   0.339   2.514   4.707
 5173SOL    HW116418   0.330   2.613   4.718
 5173SOL    HW216419   0.385   2.475   4.787
 5174SOL     OW16420   2.533   4.914   6.907
 5174SOL    HW116421   2.475   4.985   6.867
 5174SOL    HW216422   2.629   4.939   6.897
 5175SOL     OW16423   0.047   5.595   6.699
 5175SOL    HW116424   0.068   5.691   6.717
 5175SOL    HW216425   0.084   5.538   6.773
 5176SOL     OW16426   5.626   3.685   6.022
 5176SOL    HW116427   5.566   3.735   6.085
 5176SOL    HW216428   5.587   3.689   5.930
 5177SOL     OW16429   5.166   5.013   5.540
 5177SOL    HW116430   5.102   5.073   5.491
 5177SOL    HW216431   5.216   5.066   5.609
 5178SOL     OW16432   3.057   4.080   0.735
 5178SOL    HW116433   3.095   3.990   0.715
 5178SOL    HW216434   3.130   4.148   0.737
 5179SOL     OW16435   3.316   6.510   5.193
 5179SOL    HW116436   3.350   6.555   5.111
 5179SOL    HW216437   3.363   6.422   5.205
 5180SOL     OW16438   4.402   1.775   0.097
 5180SOL    HW116439   4.337   1.724   0.040
 5180SOL    HW216440   4.495   1.760   0.063
 5181SOL     OW16441   3.202   6.052   2.303
 5181SOL    HW116442   3.117   6.061   2.250
 5181SOL    HW216443   3.195   5.974   2.364
 5182SOL     OW16444   4.763   4.223   1.192
 5182SOL    HW116445   4.665   4.218   1.212
 5182SOL    HW216446   4.776   4.260   1.100
 5183SOL     OW16447   3.470   0.508   3.845
 5183SOL    HW116448   3.570   0.504   3.844
 5183SOL    HW216449   3.440   0.601   3.867
 5184SOL     OW16450   0.569   2.521   3.378
 5184SOL    HW116451   0.638   2.578   3.333
 5184SOL    HW216452   0.478   2.558   3.359
 5185SOL     OW16453   4.027   6.838   1.509
 5185SOL    HW116454   3.975   6.860   1.427
 5185SOL    HW216455   4.091   6.912   1.529
 5186SOL     OW16456   5.451   4.332   6.827
 5186SOL    HW116457   5.494   4.337   6.736
 5186SOL    HW216458   5.521   4.333   6.897
 5187SOL     OW16459   4.655   2.743   4.498
 5187SOL    HW116460   4.635   2.832   4.539
 5187SOL    HW216461   4.613   2.671   4.554
 5188SOL     OW16462   0.401   1.061   3.807
 5188SOL    HW116463   0.351   0.974   3.808
 5188SOL    HW216464   0.495   1.046   3.838
 5189SOL     OW16465   4.447   5.682   5.736
 5189SOL    HW116466   4.368   5.716   5.685
 5189SOL    HW216467   4.517   5.754   5.741
 5190SOL     OW16468   2.355   2.601   1.927
 5190SOL    HW116469   2.384   2.636   2.016
 5190SOL    HW216470   2.289   2.663   1.886
 5191SOL     OW16471   4.803   0.582   2.510
 5191SOL    HW116472   4.768   0.675   2.502
 5191SOL    HW216473   4.900   0.584   2.534
 5192SOL     OW16474   6.371   4.080   1.357
 5192SOL    HW116475   6.309   4.018   1.406
 5192SOL    HW216476   6.329   4.171   1.352
 5193SOL     OW16477   3.705   4.901   2.198
 5193SOL    HW116478   3.642   4.979   2.190
 5193SOL    HW216479   3.686   4.835   2.126
 5194SOL     OW16480   5.026   0.580   0.627
 5194SOL    HW116481   5.047   0.581   0.529
 5194SOL    HW216482   4.927   0.576   0.640
 5195SOL     OW16483   0.724   6.139   4.943
 5195SOL    HW116484   0.725   6.039   4.936
 5195SOL    HW216485   0.631   6.170   4.965
 5196SOL     OW16486   0.083   4.012   3.520
 5196SOL    HW116487   0.117   3.967   3.603
 5196SOL    HW216488   0.029   3.947   3.466
 5197SOL     OW16489   3.966   5.764   5.113
 5197SOL    HW116490   3.948   5.685   5.054
 5197SOL    HW216491   3.888   5.826   5.111
 5198SOL     OW16492   4.356   0.984   5.616
 5198SOL    HW116493   4.306   1.006   5.700
 5198SOL    HW216494   4.307   1.019   5.537
 5199SOL     OW16495   0.592   5.592   1.505
 5199SOL    HW116496   0.667   5.592   1.572
 5199SOL    HW216497   0.618   5.536   1.426
 5200SOL     OW16498   6.147   6.833   5.058
 5200SOL    HW116499   6.198   6.873   5.134
 5200SOL    HW216500   6.065   6.787   5.093
 5201SOL     OW16501   6.583   4.114   5.244
 5201SOL    HW116502   6.528   4.194   5.266
 5201SOL    HW216503   6.608   4.066   5.328
 5202SOL     OW16504   3.555   2.194   5.946
 5202SOL    HW116505   3.553   2.143   5.859
 5202SOL    HW216506   3.503   2.144   6.015
 5203SOL     OW16507   0.867   0.478   6.484
 5203SOL    HW116508   0.833   0.538   6.412
 5203SOL    HW216509   0.963   0.454   6.466
 5204SOL     OW16510   1.796   0.589   1.671
 5204SOL    HW116511   1.843   0.676   1.681
 5204SOL    HW216512   1.796   0.562   1.574
 5205SOL     OW16513   6.617   0.104   2.376
 5205SOL    HW116514   6.715   0.126   2.381
 5205SOL    HW216515   6.600   0.053   2.291
 5206SOL     OW16516   1.040   5.140   4.751
 5206SOL    HW116517   1.027   5.213   4.818
 5206SOL    HW216518   0.987   5.060   4.777
 5207SOL     OW16519   4.645   0.583   4.803
 5207SOL    HW116520   4.603   0.644   4.870
 5207SOL    HW216521   4.647   0.490   4.839
 5208SOL     OW16522   6.580   1.714   0.161
 5208SOL    HW116523   6.611   1.718   0.256
 5208SOL    HW216524   6.502   1.651   0.155
 5209SOL     OW16525   5.150   6.097   2.194
 5209SOL    HW116526   5.074   6.076   2.257
 5209SOL    HW216527   5.174   6.194   2.203
 5210SOL     OW16528   5.907   4.346   1.249
 5210SOL    HW116529   5.929   4.443   1.252
 5210SOL    HW216530   5.871   4.317   1.337
 5211SOL     OW16531   5.739   3.013   5.165
 5211SOL    HW116532   5.775   2.920   5.157
 5211SOL    HW216533   5.654   3.021   5.113
 5212SOL     OW16534   6.772   3.441   6.774
 5212SOL    HW116535   6.844   3.385   6.735
 5212SOL    HW216536   6.699   3.382   6.809
 5213SOL     OW16537   3.659   3.251   3.340
 5213SOL    HW116538   3.642   3.289   3.249
 5213SOL    HW216539   3.704   3.163   3.332
 5214SOL     OW16540   5.220   3.100   6.185
 5214SOL    HW116541   5.193   3.196   6.179
 5214SOL    HW216542   5.310   3.088   6.144
 5215SOL     OW16543   0.104   5.170   4.829
 5215SOL    HW116544   0.183   5.231   4.829
 5215SOL    HW216545   0.102   5.119   4.915
 5216SOL     OW16546   6.397   4.498   0.736
 5216SOL    HW116547   6.311   4.523   0.692
 5216SOL    HW216548   6.454   4.579   0.747
 5217SOL     OW16549   3.298   6.933   2.418
 5217SOL    HW116550   3.387   6.970   2.390
 5217SOL    HW216551   3.303   6.908   2.515
 5218SOL     OW16552   6.174   0.116   0.485
 5218SOL    HW116553   6.198   0.175   0.408
 5218SOL    HW216554   6.180   0.168   0.570
 5219SOL     OW16555   4.180   1.710   4.993
 5219SOL    HW116556   4.277   1.725   5.012
 5219SOL    HW216557   4.168   1.618   4.955
 5220SOL     OW16558   1.917   4.801   4.572
 5220SOL    HW116559   1.833   4.757   4.603
 5220SOL    HW216560   1.967   4.837   4.651
 5221SOL     OW16561   4.695   6.004   0.962
 5221SOL    HW116562   4.706   6.070   1.037
 5221SOL    HW216563   4.726   5.914   0.993
 5222SOL     OW16564   6.702   3.450   2.277
 5222SOL    HW116565   6.748   3.361   2.271
 5222SOL    HW216566   6.605   3.439   2.255
 5223SOL     OW16567   0.071   2.563   0.759
 5223SOL    HW116568   6.998   2.571   0.769
 5223SOL    HW216569   0.106   2.492   0.820
 5224SOL     OW16570   1.683   1.233   4.626
 5224SOL    HW116571   1.628   1.316   4.628
 5224SOL    HW216572   1.744   1.235   4.547
 5225SOL     OW16573   6.779   2.105   6.183
 5225SOL    HW116574   6.798   2.062   6.094
 5225SOL    HW216575   6.680   2.116   6.195
 5226SOL     OW16576   0.287   6.661   4.022
 5226SOL    HW116577   0.206   6.611   3.991
 5226SOL    HW216578   0.274   6.759   4.003
 5227SOL     OW16579   1.556   2.767   6.033
 5227SOL    HW116580   1.641   2.754   5.982
 5227SOL    HW216581   1.576   2.767   6.131
 5228SOL     OW16582   1.086   2.243   5.340
 5228SOL    HW116583   1.094   2.144   5.345
 5228SOL    HW216584   1.174   2.282   5.312
 5229SOL     OW16585   3.753   1.299   6.656
 5229SOL    HW116586   3.730   1.279   6.751
 5229SOL    HW216587   3.695   1.372   6.622
 5230SOL     OW16588   6.859   0.345   2.168
 5230SOL    HW116589   6.864   0.291   2.252
 5230SOL    HW216590   6.836   0.285   2.091
 5231SOL     OW16591   5.998   3.140   1.738
 5231SOL    HW116592   6.017   3.042   1.729
 5231SOL    HW216593   5.901   3.153   1.759
 5232SOL     OW16594   2.062   1.648   5.752
 5232SOL    HW116595   2.156   1.681   5.757
 5232SOL    HW216596   2.007   1.692   5.823
 5233SOL     OW16597   2.759   0.136   3.495
 5233SOL    HW116598   2.757   0.209   3.427
 5233SOL    HW216599   2.684   0.072   3.478
 5234SOL     OW16600   2.961   2.537   6.733
 5234SOL    HW116601   2.943   2.579   6.645
 5234SOL    HW216602   2.925   2.443   6.733
 5235SOL     OW16603   2.299   2.930   1.461
 5235SOL    HW116604   2.226   2.899   1.399
 5235SOL    HW216605   2.336   3.016   1.428
 5236SOL     OW16606   2.869   4.957   2.404
 5236SOL    HW116607   2.808   4.962   2.325
 5236SOL    HW216608   2.946   5.019   2.390
 5237SOL     OW16609   1.753   1.646   1.931
 5237SOL    HW116610   1.803   1.689   2.006
 5237SOL    HW216611   1.743   1.711   1.856
 5238SOL     OW16612   5.838   0.691   3.010
 5238SOL    HW116613   5.855   0.593   3.021
 5238SOL    HW216614   5.925   0.738   2.999
 5239SOL     OW16615   2.817   4.250   0.197
 5239SOL    HW116616   2.880   4.195   0.143
 5239SOL    HW216617   2.864   4.283   0.279
 5240SOL     OW16618   1.896   4.317   5.743
 5240SOL    HW116619   1.963   4.253   5.782
 5240SOL    HW216620   1.879   4.292   5.648
 5241SOL     OW16621   2.293   5.915   3.616
 5241SOL    HW116622   2.238   5.909   3.699
 5241SOL    HW216623   2.275   5.835   3.558
 5242SOL     OW16624   4.359   6.215   5.533
 5242SOL    HW116625   4.447   6.255   5.560
 5242SOL    HW216626   4.315   6.175   5.614
 5243SOL     OW16627   2.086   6.084   3.867
 5243SOL    HW116628   2.097   5.989   3.837
 5243SOL    HW216629   1.988   6.104   3.879
 5244SOL     OW16630   4.956   1.324   6.316
 5244SOL    HW116631   4.860   1.298   6.308
 5244SOL    HW216632   4.973   1.407   6.263
 5245SOL     OW16633   3.234   3.999   2.273
 5245SOL    HW116634   3.250   3.901   2.261
 5245SOL    HW216635   3.167   4.030   2.205
 5246SOL     OW16636   6.389   3.163   5.923
 5246SOL    HW116637   6.416   3.234   5.859
 5246SOL    HW216638   6.375   3.203   6.014
 5247SOL     OW16639   4.727   0.987   5.886
 5247SOL    HW116640   4.681   1.015   5.802
 5247SOL    HW216641   4.747   1.068   5.942
 5248SOL     OW16642   4.597   0.998   2.899
 5248SOL    HW116643   4.644   0.924   2.851
 5248SOL    HW216644   4.648   1.083   2.888
 5249SOL     OW16645   0.100   5.823   1.496
 5249SOL    HW116646   0.196   5.801   1.477
 5249SOL    HW216647   0.048   5.825   1.411
 5250SOL     OW16648   1.799   5.074   0.585
 5250SOL    HW116649   1.707   5.042   0.607
 5250SOL    HW216650   1.835   5.020   0.509
 5251SOL     OW16651   0.958   4.950   6.748
 5251SOL    HW116652   1.029   5.000   6.699
 5251SOL    HW216653   0.874   5.003   6.750
 5252SOL     OW16654   3.701   5.693   3.043
 5252SOL    HW116655   3.768   5.763   3.067
 5252SOL    HW216656   3.611   5.736   3.029
 5253SOL     OW16657   0.241   5.873   4.922
 5253SOL    HW116658   0.316   5.816   4.955
 5253SOL    HW216659   0.202   5.833   4.839
 5254SOL     OW16660   4.728   6.436   2.212
 5254SOL    HW116661   4.668   6.438   2.292
 5254SOL    HW216662   4.793   6.512   2.217
 5255SOL     OW16663   0.315   1.456   6.576
 5255SOL    HW116664   0.408   1.419   6.582
 5255SOL    HW216665   0.269   1.448   6.664
 5256SOL     OW16666   4.319   2.210   2.838
 5256SOL    HW116667   4.351   2.300   2.868
 5256SOL    HW216668   4.278   2.162   2.915
 5257SOL     OW16669   5.156   1.394   6.919
 5257SOL    HW116670   5.245   1.413   6.878
 5257SOL    HW216671   5.085   1.400   6.848
 5258SOL     OW16672   5.511   1.637   5.176
 5258SOL    HW116673   5.563   1.721   5.190
 5258SOL    HW216674   5.433   1.656   5.116
 5259SOL     OW16675   4.933   5.800   4.034
 5259SOL    HW116676   4.838   5.828   4.050
 5259SOL    HW216677   4.952   5.717   4.087
 5260SOL     OW16678   1.514   6.310   1.650
 5260SOL    HW116679   1.580   6.326   1.576
 5260SOL    HW216680   1.490   6.397   1.693
 5261SOL     OW16681   5.972   4.773   6.961
 5261SOL    HW116682   5.886   4.775   7.011
 5261SOL    HW216683   6.036   4.712   7.008
 5262SOL     OW16684   2.144   2.194   1.458
 5262SOL    HW116685   2.070   2.152   1.510
 5262SOL    HW216686   2.228   2.191   1.512
 5263SOL     OW16687   0.720   5.941   3.254
 5263SOL    HW116688   0.624   5.959   3.235
 5263SOL    HW216689   0.757   6.014   3.311
 5264SOL     OW16690   6.908   2.451   2.296
 5264SOL    HW116691   6.825   2.469   2.348
 5264SOL    HW216692   6.984   2.433   2.359
 5265SOL     OW16693   0.396   5.835   6.157
 5265SOL    HW116694   0.477   5.889   6.134
 5265SOL    HW216695   0.404   5.745   6.114
 5266SOL     OW16696   1.653   6.887   6.413
 5266SOL    HW116697   1.658   6.791   6.388
 5266SOL    HW216698   1.665   6.944   6.332
 5267SOL     OW16699   6.177   1.276   5.098
 5267SOL    HW116700   6.277   1.271   5.099
 5267SOL    HW216701   6.139   1.192   5.058
 5268SOL     OW16702   5.896   6.715   6.050
 5268SOL    HW116703   5.849   6.735   5.964
 5268SOL    HW216704   5.934   6.623   6.047
 5269SOL     OW16705   1.118   0.564   4.484
 5269SOL    HW116706   1.210   0.530   4.466
 5269SOL    HW216707   1.121   0.630   4.559
 5270SOL     OW16708   0.892   1.594   6.997
 5270SOL    HW116709   0.903   1.639   6.908
 5270SOL    HW216710   0.956   1.634   0.037
 5271SOL     OW16711   1.658   5.736   6.094
 5271SOL    HW116712   1.561   5.713   6.101
 5271SOL    HW216713   1.704   5.718   6.181
 5272SOL     OW16714   4.259   0.399   6.210
 5272SOL    HW116715   4.337   0.461   6.225
 5272SOL    HW216716   4.205   0.393   6.294
 5273SOL     OW16717   2.195   1.223   3.522
 5273SOL    HW116718   2.223   1.318   3.532
 5273SOL    HW216719   2.112   1.207   3.576
 5274SOL     OW16720   5.530   4.084   1.064
 5274SOL    HW116721   5.532   4.039   0.974
 5274SOL    HW216722   5.623   4.110   1.090
 5275SOL     OW16723   5.523   0.737   6.239
 5275SOL    HW116724   5.510   0.814   6.302
 5275SOL    HW216725   5.578   0.667   6.284
 5276SOL     OW16726   3.751   6.829   1.314
 5276SOL    HW116727   3.763   6.730   1.321
 5276SOL    HW216728   3.826   6.868   1.260
 5277SOL     OW16729   1.944   3.673   1.784
 5277SOL    HW116730   1.965   3.761   1.740
 5277SOL    HW216731   1.856   3.639   1.749
 5278SOL     OW16732   3.888   3.496   2.712
 5278SOL    HW116733   3.967   3.558   2.703
 5278SOL    HW216734   3.818   3.522   2.645
 5279SOL     OW16735   1.357   6.439   2.941
 5279SOL    HW116736   1.432   6.392   2.896
 5279SOL    HW216737   1.382   6.535   2.957
 5280SOL     OW16738   3.757   0.424   3.948
 5280SOL    HW116739   3.779   0.366   4.027
 5280SOL    HW216740   3.793   0.382   3.865
 5281SOL     OW16741   6.413   2.857   4.102
 5281SOL    HW116742   6.495   2.800   4.098
 5281SOL    HW216743   6.437   2.948   4.134
 5282SOL     OW16744   4.761   2.384   1.481
 5282SOL    HW116745   4.706   2.318   1.429
 5282SOL    HW216746   4.857   2.375   1.456
 5283SOL     OW16747   5.003   4.825   5.290
 5283SOL    HW116748   5.035   4.733   5.265
 5283SOL    HW216749   4.906   4.822   5.312
 5284SOL     OW16750   5.052   2.739   4.251
 5284SOL    HW116751   5.110   2.772   4.326
 5284SOL    HW216752   4.977   2.803   4.235
 5285SOL     OW16753   4.365   6.250   2.320
 5285SOL    HW116754   4.406   6.159   2.330
 5285SOL    HW216755   4.266   6.240   2.305
 5286SOL     OW16756   1.695   4.841   2.460
 5286SOL    HW116757   1.785   4.851   2.417
 5286SOL    HW216758   1.684   4.910   2.532
 5287SOL     OW16759   1.309   0.666   2.488
 5287SOL    HW116760   1.240   0.729   2.454
 5287SOL    HW216761   1.304   0.662   2.588
 5288SOL     OW16762   3.921   0.311   0.769
 5288SOL    HW116763   3.877   0.354   0.690
 5288SOL    HW216764   3.854   0.255   0.818
 5289SOL     OW16765   1.999   6.579   1.452
 5289SOL    HW116766   1.903   6.601   1.439
 5289SOL    HW216767   2.027   6.603   1.545
 5290SOL     OW16768   5.920   6.202   6.556
 5290SOL    HW116769   5.899   6.139   6.632
 5290SOL    HW216770   5.835   6.243   6.523
 5291SOL     OW16771   1.084   5.851   0.188
 5291SOL    HW116772   1.014   5.922   0.177
 5291SOL    HW216773   1.067   5.778   0.122
 5292SOL     OW16774   5.827   1.608   1.186
 5292SOL    HW116775   5.905   1.555   1.217
 5292SOL    HW216776   5.745   1.551   1.186
 5293SOL     OW16777   1.614   1.057   4.200
 5293SOL    HW116778   1.624   1.121   4.276
 5293SOL    HW216779   1.635   0.965   4.231
 5294SOL     OW16780   3.616   2.066   6.730
 5294SOL    HW116781   3.604   2.035   6.824
 5294SOL    HW216782   3.532   2.110   6.698
 5295SOL     OW16783   0.019   1.872   3.560
 5295SOL    HW116784   0.091   1.806   3.540
 5295SOL    HW216785   0.051   1.964   3.536
 5296SOL     OW16786   0.031   2.677   6.626
 5296SOL    HW116787   0.087   2.663   6.707
 5296SOL    HW216788   6.979   2.736   6.648
 5297SOL     OW16789   1.155   2.098   2.114
 5297SOL    HW116790   1.145   2.025   2.046
 5297SOL    HW216791   1.134   2.062   2.205
 5298SOL     OW16792   1.370   4.412   1.978
 5298SOL    HW116793   1.406   4.440   2.067
 5298SOL    HW216794   1.402   4.475   1.908
 5299SOL     OW16795   3.834   6.890   0.037
 5299SOL    HW116796   3.855   6.859   6.970
 5299SOL    HW216797   3.735   6.885   0.053
 5300SOL     OW16798   6.492   4.907   4.147
 5300SOL    HW116799   6.455   4.829   4.097
 5300SOL    HW216800   6.517   4.979   4.082
 5301SOL     OW16801   5.915   0.428   6.722
 5301SOL    HW116802   5.986   0.358   6.712
 5301SOL    HW216803   5.907   0.453   6.818
 5302SOL     OW16804   6.791   4.334   3.397
 5302SOL    HW116805   6.848   4.299   3.322
 5302SOL    HW216806   6.811   4.282   3.480
 5303SOL     OW16807   2.052   4.615   3.162
 5303SOL    HW116808   1.953   4.607   3.148
 5303SOL    HW216809   2.094   4.524   3.158
 5304SOL     OW16810   4.414   1.972   5.784
 5304SOL    HW116811   4.417   1.924   5.697
 5304SOL    HW216812   4.330   1.947   5.833
 5305SOL     OW16813   3.639   2.037   4.958
 5305SOL    HW116814   3.541   2.053   4.971
 5305SOL    HW216815   3.655   1.994   4.869
 5306SOL     OW16816   2.543   6.876   2.795
 5306SOL    HW116817   2.528   6.783   2.762
 5306SOL    HW216818   2.487   6.892   2.876
 5307SOL     OW16819   5.041   6.467   6.791
 5307SOL    HW116820   5.041   6.438   6.695
 5307SOL    HW216821   5.076   6.560   6.798
 5308SOL     OW16822   7.019   1.660   1.682
 5308SOL    HW116823   7.006   1.659   1.583
 5308SOL    HW216824   0.065   1.594   1.707
 5309SOL     OW16825   3.824   3.392   5.275
 5309SOL    HW116826   3.804   3.437   5.188
 5309SOL    HW216827   3.912   3.346   5.270
 5310SOL     OW16828   4.673   2.766   0.466
 5310SOL    HW116829   4.640   2.744   0.374
 5310SOL    HW216830   4.684   2.681   0.518
 5311SOL     OW16831   6.744   6.516   0.595
 5311SOL    HW116832   6.833   6.553   0.620
 5311SOL    HW216833   6.713   6.453   0.667
 5312SOL     OW16834   0.408   3.493   2.017
 5312SOL    HW116835   0.375   3.438   1.940
 5312SOL    HW216836   0.506   3.510   2.006
 5313SOL     OW16837   0.031   6.791   6.691
 5313SOL    HW116838   6.968   6.767   6.653
 5313SOL    HW216839   0.033   6.889   6.713
 5314SOL     OW16840   3.960   4.803   1.043
 5314SOL    HW116841   4.053   4.801   1.006
 5314SOL    HW216842   3.934   4.711   1.072
 5315SOL     OW16843   5.398   1.260   2.144
 5315SOL    HW116844   5.373   1.356   2.134
 5315SOL    HW216845   5.453   1.232   2.065
 5316SOL     OW16846   5.258   5.301   4.803
 5316SOL    HW116847   5.352   5.278   4.826
 5316SOL    HW216848   5.197   5.228   4.835
 5317SOL     OW16849   6.440   5.289   1.615
 5317SOL    HW116850   6.511   5.337   1.563
 5317SOL    HW216851   6.456   5.191   1.609
 5318SOL     OW16852   6.823   2.661   3.599
 5318SOL    HW116853   6.874   2.651   3.514
 5318SOL    HW216854   6.728   2.685   3.578
 5319SOL     OW16855   3.191   6.297   2.674
 5319SOL    HW116856   3.118   6.298   2.606
 5319SOL    HW216857   3.249   6.378   2.662
 5320SOL     OW16858   6.123   2.131   0.136
 5320SOL    HW116859   6.218   2.157   0.149
 5320SOL    HW216860   6.085   2.098   0.222
 5321SOL     OW16861   2.676   4.488   0.216
 5321SOL    HW116862   2.727   4.405   0.195
 5321SOL    HW216863   2.719   4.533   0.295
 5322SOL     OW16864   2.547   6.666   0.380
 5322SOL    HW116865   2.531   6.617   0.466
 5322SOL    HW216866   2.524   6.605   0.304
 5323SOL     OW16867   6.313   3.420   0.442
 5323SOL    HW116868   6.227   3.470   0.455
 5323SOL    HW216869   6.353   3.399   0.531
 5324SOL     OW16870   3.898   3.592   1.753
 5324SOL    HW116871   3.848   3.561   1.834
 5324SOL    HW216872   3.995   3.598   1.774
 5325SOL     OW16873   3.375   6.451   5.797
 5325SOL    HW116874   3.301   6.426   5.735
 5325SOL    HW216875   3.346   6.437   5.892
 5326SOL     OW16876   5.948   0.832   3.323
 5326SOL    HW116877   5.940   0.866   3.229
 5326SOL    HW216878   5.990   0.741   3.322
 5327SOL     OW16879   6.151   7.012   4.097
 5327SOL    HW116880   6.086   6.962   4.040
 5327SOL    HW216881   6.191   6.949   4.164
 5328SOL     OW16882   2.424   4.982   6.196
 5328SOL    HW116883   2.399   4.925   6.274
 5328SOL    HW216884   2.390   4.940   6.112
 5329SOL     OW16885   6.978   6.883   6.369
 5329SOL    HW116886   6.995   6.894   6.467
 5329SOL    HW216887   0.029   6.922   6.317
 5330SOL     OW16888   4.490   4.512   1.251
 5330SOL    HW116889   4.535   4.525   1.340
 5330SOL    HW216890   4.504   4.418   1.221
 5331SOL     OW16891   5.754   1.384   6.722
 5331SOL    HW116892   5.776   1.311   6.788
 5331SOL    HW216893   5.804   1.366   6.637
 5332SOL     OW16894   6.236   2.808   6.993
 5332SOL    HW116895   6.306   2.849   6.934
 5332SOL    HW216896   6.270   2.720   0.002
 5333SOL     OW16897   0.817   6.783   4.169
 5333SOL    HW116898   0.743   6.743   4.115
 5333SOL    HW216899   0.905   6.765   4.126
 5334SOL     OW16900   3.669   6.115   1.317
 5334SOL    HW116901   3.670   6.015   1.312
 5334SOL    HW216902   3.711   6.154   1.235
 5335SOL     OW16903   0.312   4.922   1.464
 5335SOL    HW116904   0.234   4.959   1.514
 5335SOL    HW216905   0.315   4.822   1.476
 5336SOL     OW16906   1.254   3.498   5.593
 5336SOL    HW116907   1.238   3.573   5.530
 5336SOL    HW216908   1.332   3.443   5.561
 5337SOL     OW16909   6.493   1.663   1.015
 5337SOL    HW116910   6.552   1.741   1.037
 5337SOL    HW216911   6.420   1.657   1.084
 5338SOL     OW16912   0.276   3.357   1.646
 5338SOL    HW116913   0.348   3.425   1.660
 5338SOL    HW216914   0.195   3.381   1.699
 5339SOL     OW16915   4.898   3.598   3.069
 5339SOL    HW116916   4.994   3.572   3.072
 5339SOL    HW216917   4.843   3.532   3.120
 5340SOL     OW16918   4.833   3.449   1.107
 5340SOL    HW116919   4.921   3.465   1.152
 5340SOL    HW216920   4.849   3.425   1.011
 5341SOL     OW16921   4.870   4.991   3.357
 5341SOL    HW116922   4.793   4.993   3.419
 5341SOL    HW216923   4.893   5.084   3.329
 5342SOL     OW16924   6.177   5.063   5.115
 5342SOL    HW116925   6.187   5.132   5.187
 5342SOL    HW216926   6.139   4.980   5.155
 5343SOL     OW16927   3.463   3.546   6.819
 5343SOL    HW116928   3.378   3.568   6.773
 5343SOL    HW216929   3.492   3.622   6.877
 5344SOL     OW16930   5.813   1.453   0.067
 5344SOL    HW116931   5.804   1.363   0.026
 5344SOL    HW216932   5.753   1.518   0.020
 5345SOL     OW16933   3.674   1.361   6.917
 5345SOL    HW116934   3.583   1.323   6.906
 5345SOL    HW216935   3.668   1.453   6.956
 5346SOL     OW16936   2.124   5.868   2.796
 5346SOL    HW116937   2.124   5.768   2.801
 5346SOL    HW216938   2.192   5.904   2.860
 5347SOL     OW16939   6.041   1.850   5.272
 5347SOL    HW116940   6.033   1.770   5.331
 5347SOL    HW216941   5.969   1.916   5.295
 5348SOL     OW16942   4.705   2.440   5.043
 5348SOL    HW116943   4.622   2.468   5.092
 5348SOL    HW216944   4.717   2.341   5.052
 5349SOL     OW16945   0.946   4.265   0.339
 5349SOL    HW116946   0.987   4.325   0.408
 5349SOL    HW216947   1.011   4.253   0.263
 5350SOL     OW16948   0.993   6.704   6.682
 5350SOL    HW116949   1.056   6.780   6.666
 5350SOL    HW216950   0.954   6.673   6.595
 5351SOL     OW16951   0.669   5.733   3.776
 5351SOL    HW116952   0.748   5.754   3.717
 5351SOL    HW216953   0.643   5.638   3.762
 5352SOL     OW16954   0.348   2.477   5.754
 5352SOL    HW116955   0.263   2.489   5.805
 5352SOL    HW216956   0.406   2.410   5.801
 5353SOL     OW16957   2.395   0.187   3.192
 5353SOL    HW116958   2.334   0.117   3.228
 5353SOL    HW216959   2.381   0.272   3.242
 5354SOL     OW16960   3.615   6.035   2.035
 5354SOL    HW116961   3.663   5.980   2.103
 5354SOL    HW216962   3.519   6.042   2.059
 5355SOL     OW16963   5.406   4.497   5.278
 5355SOL    HW116964   5.454   4.517   5.363
 5355SOL    HW216965   5.402   4.580   5.222
 5356SOL     OW16966   0.304   6.715   1.406
 5356SOL    HW116967   0.316   6.631   1.355
 5356SOL    HW216968   0.393   6.751   1.434
 5357SOL     OW16969   6.547   3.260   2.459
 5357SOL    HW116970   6.522   3.302   2.371
 5357SOL    HW216971   6.504   3.170   2.466
 5358SOL     OW16972   6.339   0.508   6.717
 5358SOL    HW116973   6.394   0.479   6.638
 5358SOL    HW216974   6.305   0.427   6.765
 5359SOL     OW16975   3.277   2.316   0.356
 5359SOL    HW116976   3.196   2.374   0.340
 5359SOL    HW216977   3.315   2.336   0.446
 5360SOL     OW16978   5.391   5.331   2.753
 5360SOL    HW116979   5.293   5.338   2.772
 5360SOL    HW216980   5.425   5.242   2.784
 5361SOL     OW16981   1.800   3.984   2.919
 5361SOL    HW116982   1.889   4.028   2.924
 5361SOL    HW216983   1.800   3.918   2.843
 5362SOL     OW16984   5.668   1.431   3.886
 5362SOL    HW116985   5.577   1.404   3.853
 5362SOL    HW216986   5.735   1.416   3.814
 5363SOL     OW16987   6.028   4.686   5.300
 5363SOL    HW116988   6.108   4.640   5.259
 5363SOL    HW216989   5.992   4.629   5.374
 5364SOL     OW16990   4.586   2.388   1.697
 5364SOL    HW116991   4.644   2.339   1.762
 5364SOL    HW216992   4.625   2.380   1.605
 5365SOL     OW16993   3.407   3.252   6.213
 5365SOL    HW116994   3.319   3.299   6.202
 5365SOL    HW216995   3.391   3.160   6.247
 5366SOL     OW16996   0.436   4.346   3.768
 5366SOL    HW116997   0.366   4.282   3.800
 5366SOL    HW216998   0.403   4.440   3.780
 5367SOL     OW16999   6.323   6.248   1.354
 5367SOL    HW117000   6.391   6.296   1.410
 5367SOL    HW217001   6.252   6.312   1.326
 5368SOL     OW17002   6.801   5.922   5.399
 5368SOL    HW117003   6.814   6.021   5.394
 5368SOL    HW217004   6.791   5.885   5.307
 5369SOL     OW17005   3.610   0.021   2.635
 5369SOL    HW117006   3.566   7.011   2.552
 5369SOL    HW217007   3.703   0.048   2.614
 5370SOL     OW17008   2.903   2.416   0.685
 5370SOL    HW117009   2.831   2.452   0.745
 5370SOL    HW217010   2.861   2.363   0.611
 5371SOL     OW17011   6.351   5.330   3.521
 5371SOL    HW117012   6.404   5.246   3.534
 5371SOL    HW217013   6.254   5.307   3.517
 5372SOL     OW17014   0.545   0.209   4.216
 5372SOL    HW117015   0.596   0.208   4.302
 5372SOL    HW217016   0.608   0.202   4.140
 5373SOL     OW17017   4.281   6.617   0.597
 5373SOL    HW117018   4.366   6.596   0.644
 5373SOL    HW217019   4.302   6.654   0.506
 5374SOL     OW17020   1.632   4.001   1.208
 5374SOL    HW117021   1.535   3.989   1.230
 5374SOL    HW217022   1.645   4.090   1.163
 5375SOL     OW17023   2.907   5.200   5.114
 5375SOL    HW117024   2.865   5.112   5.093
 5375SOL    HW217025   3.006   5.192   5.109
 5376SOL     OW17026   0.113   6.858   2.049
 5376SOL    HW117027   0.181   6.788   2.026
 5376SOL    HW217028   0.130   6.940   1.993
 5377SOL     OW17029   1.093   2.498   2.332
 5377SOL    HW117030   1.015   2.504   2.270
 5377SOL    HW217031   1.060   2.501   2.427
 5378SOL     OW17032   5.214   0.129   3.342
 5378SOL    HW117033   5.173   0.205   3.292
 5378SOL    HW217034   5.310   0.150   3.361
 5379SOL     OW17035   3.190   2.032   4.345
 5379SOL    HW117036   3.279   1.995   4.317
 5379SOL    HW217037   3.175   2.012   4.442
 5380SOL     OW17038   4.772   6.713   1.381
 5380SOL    HW117039   4.683   6.685   1.417
 5380SOL    HW217040   4.826   6.632   1.358
 5381SOL     OW17041   2.863   1.930   2.625
 5381SOL    HW117042   2.912   1.844   2.640
 5381SOL    HW217043   2.928   2.006   2.623
 5382SOL     OW17044   4.816   0.851   2.480
 5382SOL    HW117045   4.820   0.948   2.503
 5382SOL    HW217046   4.894   0.827   2.422
 5383SOL     OW17047   2.574   4.015   5.461
 5383SOL    HW117048   2.547   4.017   5.365
 5383SOL    HW217049   2.662   4.060   5.472
 5384SOL     OW17050   4.938   6.473   6.122
 5384SOL    HW117051   5.036   6.473   6.146
 5384SOL    HW217052   4.926   6.435   6.031
 5385SOL     OW17053   3.692   4.164   0.609
 5385SOL    HW117054   3.661   4.219   0.686
 5385SOL    HW217055   3.787   4.138   0.623
 5386SOL     OW17056   4.476   4.540   3.592
 5386SOL    HW117057   4.456   4.585   3.679
 5386SOL    HW217058   4.397   4.550   3.531
 5387SOL     OW17059   1.015   2.567   5.126
 5387SOL    HW117060   1.111   2.546   5.112
 5387SOL    HW217061   0.958   2.496   5.086
 5388SOL     OW17062   6.458   6.637   3.088
 5388SOL    HW117063   6.384   6.667   3.029
 5388SOL    HW217064   6.429   6.556   3.139
 5389SOL     OW17065   5.946   1.582   4.796
 5389SOL    HW117066   5.971   1.516   4.725
 5389SOL    HW217067   5.889   1.537   4.865
 5390SOL     OW17068   5.769   3.432   3.134
 5390SOL    HW117069   5.727   3.391   3.054
 5390SOL    HW217070   5.731   3.390   3.217
 5391SOL     OW17071   4.367   2.974   0.807
 5391SOL    HW117072   4.268   2.980   0.795
 5391SOL    HW217073   4.411   2.969   0.717
 5392SOL     OW17074   5.078   0.877   4.244
 5392SOL    HW117075   5.161   0.820   4.250
 5392SOL    HW217076   5.065   0.906   4.149
 5393SOL     OW17077   4.778   2.655   3.156
 5393SOL    HW117078   4.734   2.575   3.115
 5393SOL    HW217079   4.862   2.627   3.202
 5394SOL     OW17080   0.227   3.191   3.326
 5394SOL    HW117081   0.261   3.246   3.250
 5394SOL    HW217082   0.234   3.094   3.303
 5395SOL     OW17083   0.062   0.794   1.768
 5395SOL    HW117084   7.012   0.832   1.822
 5395SOL    HW217085   0.149   0.826   1.806
 5396SOL     OW17086   3.995   2.738   0.135
 5396SOL    HW117087   3.941   2.716   0.216
 5396SOL    HW217088   4.036   2.654   0.099
 5397SOL     OW17089   0.887   6.645   2.477
 5397SOL    HW117090   0.891   6.718   2.409
 5397SOL    HW217091   0.805   6.590   2.462
 5398SOL     OW17092   5.882   2.414   3.367
 5398SOL    HW117093   5.944   2.345   3.331
 5398SOL    HW217094   5.817   2.372   3.430
 5399SOL     OW17095   2.497   2.913   0.394
 5399SOL    HW117096   2.565   2.979   0.426
 5399SOL    HW217097   2.519   2.885   0.301
 5400SOL     OW17098   5.269   2.814   0.630
 5400SOL    HW117099   5.325   2.742   0.590
 5400SOL    HW217100   5.222   2.864   0.557
 5401SOL     OW17101   5.067   4.162   1.017
 5401SOL    HW117102   5.010   4.198   1.091
 5401SOL    HW217103   5.101   4.238   0.961
 5402SOL     OW17104   2.191   6.130   1.661
 5402SOL    HW117105   2.273   6.081   1.629
 5402SOL    HW217106   2.165   6.199   1.594
 5403SOL     OW17107   6.135   2.508   5.124
 5403SOL    HW117108   6.088   2.448   5.188
 5403SOL    HW217109   6.087   2.507   5.036
 5404SOL     OW17110   4.890   6.530   0.807
 5404SOL    HW117111   4.959   6.458   0.800
 5404SOL    HW217112   4.886   6.582   0.722
 5405SOL     OW17113   6.650   4.685   5.924
 5405SOL    HW117114   6.553   4.683   5.899
 5405SOL    HW217115   6.663   4.750   5.999
 5406SOL     OW17116   1.960   1.124   5.598
 5406SOL    HW117117   1.965   1.025   5.583
 5406SOL    HW217118   1.870   1.157   5.569
 5407SOL     OW17119   2.186   1.583   2.734
 5407SOL    HW117120   2.185   1.534   2.647
 5407SOL    HW217121   2.101   1.567   2.783
 5408SOL     OW17122   2.162   2.453   4.559
 5408SOL    HW117123   2.140   2.424   4.466
 5408SOL    HW217124   2.082   2.500   4.599
 5409SOL     OW17125   6.610   4.875   3.298
 5409SOL    HW117126   6.560   4.915   3.221
 5409SOL    HW217127   6.548   4.865   3.376
 5410SOL     OW17128   5.746   2.184   0.403
 5410SOL    HW117129   5.821   2.179   0.470
 5410SOL    HW217130   5.756   2.266   0.348
 5411SOL     OW17131   3.285   5.854   1.732
 5411SOL    HW117132   3.227   5.900   1.799
 5411SOL    HW217133   3.352   5.797   1.779
 5412SOL     OW17134   2.113   1.804   6.246
 5412SOL    HW117135   2.189   1.748   6.280
 5412SOL    HW217136   2.063   1.752   6.176
 5413SOL     OW17137   0.099   5.680   5.739
 5413SOL    HW117138   0.177   5.631   5.699
 5413SOL    HW217139   0.014   5.646   5.699
 5414SOL     OW17140   5.656   5.843   5.970
 5414SOL    HW117141   5.701   5.881   6.051
 5414SOL    HW217142   5.609   5.916   5.920
 5415SOL     OW17143   1.804   1.038   0.078
 5415SOL    HW117144   1.706   1.044   0.099
 5415SOL    HW217145   1.829   1.110   0.013
 5416SOL     OW17146   3.590   5.679   6.225
 5416SOL    HW117147   3.553   5.589   6.201
 5416SOL    HW217148   3.550   5.709   6.311
 5417SOL     OW17149   5.497   0.169   2.130
 5417SOL    HW117150   5.480   0.082   2.175
 5417SOL    HW217151   5.570   0.157   2.062
 5418SOL     OW17152   0.505   3.027   5.345
 5418SOL    HW117153   0.563   3.011   5.425
 5418SOL    HW217154   0.421   3.073   5.373
 5419SOL     OW17155   3.757   2.229   6.430
 5419SOL    HW117156   3.849   2.266   6.429
 5419SOL    HW217157   3.722   2.228   6.523
 5420SOL     OW17158   2.260   1.573   1.240
 5420SOL    HW117159   2.359   1.565   1.231
 5420SOL    HW217160   2.216   1.521   1.167
 5421SOL     OW17161   4.160   5.197   1.377
 5421SOL    HW117162   4.145   5.238   1.287
 5421SOL    HW217163   4.245   5.232   1.416
 5422SOL     OW17164   2.105   6.859   2.809
 5422SOL    HW117165   2.189   6.867   2.863
 5422SOL    HW217166   2.074   6.764   2.809
 5423SOL     OW17167   4.394   6.678   2.192
 5423SOL    HW117168   4.457   6.626   2.135
 5423SOL    HW217169   4.408   6.776   2.177
 5424SOL     OW17170   3.466   3.317   5.057
 5424SOL    HW117171   3.484   3.219   5.055
 5424SOL    HW217172   3.439   3.344   5.150
 5425SOL     OW17173   1.172   5.478   5.236
 5425SOL    HW117174   1.223   5.393   5.224
 5425SOL    HW217175   1.079   5.458   5.267
 5426SOL     OW17176   1.576   4.354   0.124
 5426SOL    HW117177   1.582   4.268   0.175
 5426SOL    HW217178   1.589   4.336   0.027
 5427SOL     OW17179   4.870   2.191   0.963
 5427SOL    HW117180   4.795   2.234   1.014
 5427SOL    HW217181   4.954   2.198   1.016
 5428SOL     OW17182   4.343   5.420   2.890
 5428SOL    HW117183   4.370   5.341   2.944
 5428SOL    HW217184   4.387   5.502   2.926
 5429SOL     OW17185   2.454   6.690   3.277
 5429SOL    HW117186   2.397   6.609   3.265
 5429SOL    HW217187   2.548   6.663   3.296
 5430SOL     OW17188   1.029   4.796   5.183
 5430SOL    HW117189   1.023   4.741   5.266
 5430SOL    HW217190   1.118   4.783   5.140
 5431SOL     OW17191   5.330   4.210   1.229
 5431SOL    HW117192   5.284   4.282   1.177
 5431SOL    HW217193   5.387   4.156   1.168
 5432SOL     OW17194   1.279   4.992   5.746
 5432SOL    HW117195   1.322   4.917   5.796
 5432SOL    HW217196   1.306   4.988   5.649
 5433SOL     OW17197   2.525   6.879   1.112
 5433SOL    HW117198   2.587   6.842   1.182
 5433SOL    HW217199   2.465   6.807   1.079
 5434SOL     OW17200   4.989   5.626   4.233
 5434SOL    HW117201   5.074   5.583   4.262
 5434SOL    HW217202   4.916   5.602   4.297
 5435SOL     OW17203   6.833   3.549   7.013
 5435SOL    HW117204   6.812   3.643   0.013
 5435SOL    HW217205   6.804   3.533   6.918
 5436SOL     OW17206   1.394   4.652   1.131
 5436SOL    HW117207   1.394   4.582   1.060
 5436SOL    HW217208   1.451   4.623   1.207
 5437SOL     OW17209   3.545   6.560   6.405
 5437SOL    HW117210   3.604   6.557   6.324
 5437SOL    HW217211   3.586   6.504   6.478
 5438SOL     OW17212   5.214   6.446   2.764
 5438SOL    HW117213   5.207   6.533   2.812
 5438SOL    HW217214   5.301   6.401   2.788
 5439SOL     OW17215   1.172   3.850   1.661
 5439SOL    HW117216   1.186   3.776   1.594
 5439SOL    HW217217   1.234   3.837   1.738
 5440SOL     OW17218   6.328   6.525   3.395
 5440SOL    HW117219   6.281   6.603   3.354
 5440SOL    HW217220   6.348   6.545   3.491
 5441SOL     OW17221   5.402   0.727   4.911
 5441SOL    HW117222   5.489   0.750   4.955
 5441SOL    HW217223   5.331   0.789   4.943
 5442SOL     OW17224   2.852   0.220   6.856
 5442SOL    HW117225   2.776   0.198   6.917
 5442SOL    HW217226   2.863   0.147   6.789
 5443SOL     OW17227   5.740   1.300   3.271
 5443SOL    HW117228   5.643   1.322   3.279
 5443SOL    HW217229   5.761   1.218   3.324
 5444SOL     OW17230   1.582   1.573   6.319
 5444SOL    HW117231   1.483   1.557   6.324
 5444SOL    HW217232   1.631   1.486   6.324
 5445SOL     OW17233   5.788   6.633   4.824
 5445SOL    HW117234   5.831   6.609   4.911
 5445SOL    HW217235   5.773   6.551   4.769
 5446SOL     OW17236   2.268   4.352   6.962
 5446SOL    HW117237   2.175   4.385   6.979
 5446SOL    HW217238   2.333   4.409   7.012
 5447SOL     OW17239   6.299   2.131   1.717
 5447SOL    HW117240   6.379   2.173   1.759
 5447SOL    HW217241   6.256   2.068   1.781
 5448SOL     OW17242   6.160   4.933   1.707
 5448SOL    HW117243   6.150   5.027   1.740
 5448SOL    HW217244   6.211   4.932   1.621
 5449SOL     OW17245   2.492   0.212   2.068
 5449SOL    HW117246   2.505   0.117   2.039
 5449SOL    HW217247   2.578   0.262   2.057
 5450SOL     OW17248   4.474   5.069   1.690
 5450SOL    HW117249   4.408   5.002   1.725
 5450SOL    HW217250   4.549   5.080   1.756
 5451SOL     OW17251   0.598   5.500   3.653
 5451SOL    HW117252   0.693   5.479   3.676
 5451SOL    HW217253   0.561   5.427   3.594
 5452SOL     OW17254   2.057   4.078   2.953
 5452SOL    HW117255   2.078   4.175   2.948
 5452SOL    HW217256   2.038   4.053   3.048
 5453SOL     OW17257   5.818   5.217   4.215
 5453SOL    HW117258   5.843   5.206   4.119
 5453SOL    HW217259   5.838   5.133   4.265
 5454SOL     OW17260   6.332   3.551   1.972
 5454SOL    HW117261   6.289   3.612   1.906
 5454SOL    HW217262   6.363   3.468   1.926
 5455SOL     OW17263   2.320   2.773   3.133
 5455SOL    HW117264   2.361   2.685   3.112
 5455SOL    HW217265   2.317   2.786   3.232
 5456SOL     OW17266   5.146   2.890   0.393
 5456SOL    HW117267   5.133   2.814   0.329
 5456SOL    HW217268   5.204   2.960   0.351
 5457SOL     OW17269   6.364   1.691   0.482
 5457SOL    HW117270   6.398   1.597   0.480
 5457SOL    HW217271   6.323   1.713   0.394
 5458SOL     OW17272   6.074   4.736   5.861
 5458SOL    HW117273   6.154   4.686   5.828
 5458SOL    HW217274   6.021   4.678   5.923
 5459SOL     OW17275   2.427   3.746   5.400
 5459SOL    HW117276   2.459   3.838   5.422
 5459SOL    HW217277   2.337   3.752   5.356
 5460SOL     OW17278   0.244   1.010   1.827
 5460SOL    HW117279   0.295   1.056   1.754
 5460SOL    HW217280   0.158   1.058   1.842
 5461SOL     OW17281   5.456   0.941   6.434
 5461SOL    HW117282   5.405   0.923   6.518
 5461SOL    HW217283   5.546   0.976   6.456
 5462SOL     OW17284   4.889   5.139   6.374
 5462SOL    HW117285   4.926   5.118   6.284
 5462SOL    HW217286   4.826   5.216   6.366
 5463SOL     OW17287   2.097   5.199   0.019
 5463SOL    HW117288   2.061   5.286   7.010
 5463SOL    HW217289   2.148   5.154   6.972
 5464SOL     OW17290   2.227   5.858   4.215
 5464SOL    HW117291   2.154   5.789   4.213
 5464SOL    HW217292   2.220   5.911   4.299
 5465SOL     OW17293   0.853   1.068   4.948
 5465SOL    HW117294   0.885   1.094   4.857
 5465SOL    HW217295   0.798   1.142   4.987
 5466SOL     OW17296   5.245   2.262   4.846
 5466SOL    HW117297   5.163   2.318   4.860
 5466SOL    HW217298   5.221   2.181   4.792
 5467SOL     OW17299   5.678   3.880   3.677
 5467SOL    HW117300   5.595   3.930   3.703
 5467SOL    HW217301   5.747   3.946   3.648
 5468SOL     OW17302   0.627   2.892   1.289
 5468SOL    HW117303   0.680   2.847   1.361
 5468SOL    HW217304   0.679   2.969   1.253
 5469SOL     OW17305   4.626   1.344   3.410
 5469SOL    HW117306   4.663   1.377   3.324
 5469SOL    HW217307   4.699   1.340   3.479
 5470SOL     OW17308   2.942   4.782   3.838
 5470SOL    HW117309   2.868   4.727   3.798
 5470SOL    HW217310   2.977   4.846   3.769
 5471SOL     OW17311   5.277   0.314   3.782
 5471SOL    HW117312   5.225   0.238   3.821
 5471SOL    HW217313   5.374   0.293   3.784
 5472SOL     OW17314   2.496   3.906   6.781
 5472SOL    HW117315   2.547   3.958   6.849
 5472SOL    HW217316   2.519   3.809   6.789
 5473SOL     OW17317   2.754   4.724   2.282
 5473SOL    HW117318   2.838   4.735   2.335
 5473SOL    HW217319   2.777   4.698   2.188
 5474SOL     OW17320   1.036   4.840   1.742
 5474SOL    HW117321   1.026   4.913   1.810
 5474SOL    HW217322   1.092   4.872   1.666
 5475SOL     OW17323   0.658   0.994   5.430
 5475SOL    HW117324   0.652   0.960   5.337
 5475SOL    HW217325   0.751   0.983   5.464
 5476SOL     OW17326   2.535   0.965   5.352
 5476SOL    HW117327   2.460   1.012   5.307
 5476SOL    HW217328   2.582   1.028   5.414
 5477SOL     OW17329   2.093   3.819   3.305
 5477SOL    HW117330   2.005   3.854   3.271
 5477SOL    HW217331   2.164   3.887   3.288
 5478SOL     OW17332   6.658   3.514   5.357
 5478SOL    HW117333   6.659   3.444   5.428
 5478SOL    HW217334   6.612   3.479   5.275
 5479SOL     OW17335   5.109   3.757   4.400
 5479SOL    HW117336   5.050   3.776   4.478
 5479SOL    HW217337   5.150   3.842   4.367
 5480SOL     OW17338   1.591   3.280   5.811
 5480SOL    HW117339   1.507   3.246   5.769
 5480SOL    HW217340   1.661   3.209   5.808
 5481SOL     OW17341   4.410   1.379   0.335
 5481SOL    HW117342   4.352   1.460   0.341
 5481SOL    HW217343   4.436   1.363   0.240
 5482SOL     OW17344   5.274   4.794   2.273
 5482SOL    HW117345   5.196   4.855   2.257
 5482SOL    HW217346   5.242   4.700   2.275
 5483SOL     OW17347   5.662   2.181   0.706
 5483SOL    HW117348   5.690   2.276   0.725
 5483SOL    HW217349   5.706   2.149   0.622
 5484SOL     OW17350   6.107   0.732   5.497
 5484SOL    HW117351   6.130   0.635   5.505
 5484SOL    HW217352   6.057   0.762   5.578
 5485SOL     OW17353   2.677   0.817   4.013
 5485SOL    HW117354   2.604   0.754   3.987
 5485SOL    HW217355   2.757   0.802   3.956
 5486SOL     OW17356   0.090   0.109   3.777
 5486SOL    HW117357   0.148   0.187   3.804
 5486SOL    HW217358   0.015   0.100   3.842
 5487SOL     OW17359   4.529   5.370   1.181
 5487SOL    HW117360   4.577   5.388   1.267
 5487SOL    HW217361   4.453   5.434   1.170
 5488SOL     OW17362   5.233   0.657   6.374
 5488SOL    HW117363   5.303   0.729   6.375
 5488SOL    HW217364   5.144   0.698   6.357
 5489SOL     OW17365   6.702   3.936   2.558
 5489SOL    HW117366   6.750   4.010   2.604
 5489SOL    HW217367   6.609   3.966   2.534
 5490SOL     OW17368   2.992   1.581   6.628
 5490SOL    HW117369   2.971   1.488   6.658
 5490SOL    HW217370   3.089   1.588   6.606
 5491SOL     OW17371   6.749   6.291   2.653
 5491SOL    HW117372   6.840   6.258   2.630
 5491SOL    HW217373   6.693   6.297   2.570
 5492SOL     OW17374   0.988   1.312   4.788
 5492SOL    HW117375   1.003   1.382   4.718
 5492SOL    HW217376   1.019   1.347   4.877
 5493SOL     OW17377   4.240   1.601   0.290
 5493SOL    HW117378   4.219   1.692   0.326
 5493SOL    HW217379   4.288   1.610   0.202
 5494SOL     OW17380   5.207   3.389   2.507
 5494SOL    HW117381   5.181   3.422   2.597
 5494SOL    HW217382   5.231   3.292   2.513
 5495SOL     OW17383   3.614   2.853   3.867
 5495SOL    HW117384   3.713   2.863   3.880
 5495SOL    HW217385   3.593   2.855   3.770
 5496SOL     OW17386   4.483   5.173   2.200
 5496SOL    HW117387   4.437   5.132   2.279
 5496SOL    HW217388   4.430   5.251   2.168
 5497SOL     OW17389   5.273   0.410   7.020
 5497SOL    HW117390   5.311   0.374   0.080
 5497SOL    HW217391   5.262   0.335   6.955
 5498SOL     OW17392   4.133   1.927   4.557
 5498SOL    HW117393   4.151   2.025   4.567
 5498SOL    HW217394   4.219   1.877   4.560
 5499SOL     OW17395   0.259   0.528   4.974
 5499SOL    HW117396   0.214   0.441   4.955
 5499SOL    HW217397   0.306   0.524   5.062
 5500SOL     OW17398   1.919   6.080   0.713
 5500SOL    HW117399   1.827   6.043   0.697
 5500SOL    HW217400   1.933   6.161   0.656
 5501SOL     OW17401   2.652   0.680   2.055
 5501SOL    HW117402   2.724   0.698   1.987
 5501SOL    HW217403   2.570   0.647   2.009
 5502SOL     OW17404   4.777   3.670   0.671
 5502SOL    HW117405   4.801   3.573   0.673
 5502SOL    HW217406   4.860   3.725   0.675
 5503SOL     OW17407   6.853   0.054   3.521
 5503SOL    HW117408   6.789   0.022   3.451
 5503SOL    HW217409   6.894   7.001   3.568
 5504SOL     OW17410   3.073   2.174   4.762
 5504SOL    HW117411   3.086   2.245   4.830
 5504SOL    HW217412   2.975   2.161   4.746
 5505SOL     OW17413   3.165   4.740   0.847
 5505SOL    HW117414   3.188   4.782   0.759
 5505SOL    HW217415   3.088   4.677   0.834
 5506SOL     OW17416   0.374   0.257   5.752
 5506SOL    HW117417   0.437   0.328   5.720
 5506SOL    HW217418   0.423   0.192   5.811
 5507SOL     OW17419   2.910   5.640   5.260
 5507SOL    HW117420   2.862   5.719   5.223
 5507SOL    HW217421   3.008   5.647   5.239
 5508SOL     OW17422   1.410   0.868   5.076
 5508SOL    HW117423   1.311   0.866   5.068
 5508SOL    HW217424   1.448   0.781   5.044
 5509SOL     OW17425   6.545   0.045   6.063
 5509SOL    HW117426   6.574   0.117   6.001
 5509SOL    HW217427   6.625   0.008   6.112
 5510SOL     OW17428   0.040   6.928   5.908
 5510SOL    HW117429   0.133   6.893   5.902
 5510SOL    HW217430   7.002   6.860   5.870
 5511SOL     OW17431   0.493   2.572   1.230
 5511SOL    HW117432   0.554   2.503   1.268
 5511SOL    HW217433   0.434   2.608   1.302
 5512SOL     OW17434   6.130   0.970   0.181
 5512SOL    HW117435   6.199   0.949   0.251
 5512SOL    HW217436   6.175   1.008   0.100
 5513SOL     OW17437   3.109   6.028   4.704
 5513SOL    HW117438   3.023   5.997   4.664
 5513SOL    HW217439   3.092   6.108   4.762
 5514SOL     OW17440   6.114   6.092   3.575
 5514SOL    HW117441   6.173   6.169   3.599
 5514SOL    HW217442   6.029   6.097   3.627
 5515SOL     OW17443   0.029   3.968   3.221
 5515SOL    HW117444   6.964   3.960   3.262
 5515SOL    HW217445   0.042   3.894   3.154
 5516SOL     OW17446   1.382   2.455   0.420
 5516SOL    HW117447   1.462   2.452   0.360
 5516SOL    HW217448   1.399   2.400   0.501
 5517SOL     OW17449   3.086   1.185   1.995
 5517SOL    HW117450   3.079   1.107   1.932
 5517SOL    HW217451   3.123   1.264   1.946
 5518SOL     OW17452   5.672   3.878   5.395
 5518SOL    HW117453   5.590   3.922   5.358
 5518SOL    HW217454   5.683   3.788   5.352
 5519SOL     OW17455   5.900   4.629   2.505
 5519SOL    HW117456   5.995   4.627   2.535
 5519SOL    HW217457   5.857   4.714   2.534
 5520SOL     OW17458   1.426   2.440   1.224
 5520SOL    HW117459   1.440   2.363   1.162
 5520SOL    HW217460   1.381   2.408   1.307
 5521SOL     OW17461   5.164   4.954   6.159
 5521SOL    HW117462   5.095   5.013   6.117
 5521SOL    HW217463   5.127   4.863   6.173
 5522SOL     OW17464   1.608   2.018   2.137
 5522SOL    HW117465   1.557   1.958   2.199
 5522SOL    HW217466   1.552   2.096   2.112
 5523SOL     OW17467   3.332   6.594   1.513
 5523SOL    HW117468   3.417   6.543   1.528
 5523SOL    HW217469   3.275   6.587   1.595
 5524SOL     OW17470   6.224   6.672   5.702
 5524SOL    HW117471   6.153   6.603   5.691
 5524SOL    HW217472   6.189   6.761   5.671
 5525SOL     OW17473   6.819   6.030   3.393
 5525SOL    HW117474   6.886   6.100   3.368
 5525SOL    HW217475   6.769   6.060   3.475
 5526SOL     OW17476   5.384   2.588   4.499
 5526SOL    HW117477   5.330   2.599   4.583
 5526SOL    HW217478   5.469   2.541   4.520
 5527SOL     OW17479   2.143   3.062   0.184
 5527SOL    HW117480   2.088   2.979   0.182
 5527SOL    HW217481   2.176   3.079   0.277
 5528SOL     OW17482   6.744   2.729   2.393
 5528SOL    HW117483   6.674   2.797   2.413
 5528SOL    HW217484   6.716   2.675   2.313
 5529SOL     OW17485   1.020   0.844   3.645
 5529SOL    HW117486   1.003   0.810   3.738
 5529SOL    HW217487   1.049   0.768   3.587
 5530SOL     OW17488   6.432   2.977   6.866
 5530SOL    HW117489   6.462   2.976   6.962
 5530SOL    HW217490   6.360   3.045   6.855
 5531SOL     OW17491   1.990   2.837   0.162
 5531SOL    HW117492   1.923   2.843   0.087
 5531SOL    HW217493   2.038   2.750   0.157
 5532SOL     OW17494   2.712   2.669   1.336
 5532SOL    HW117495   2.798   2.663   1.286
 5532SOL    HW217496   2.712   2.751   1.392
 5533SOL     OW17497   3.524   0.357   1.356
 5533SOL    HW117498   3.466   0.306   1.292
 5533SOL    HW217499   3.597   0.297   1.389
 5534SOL     OW17500   0.934   3.483   5.119
 5534SOL    HW117501   0.863   3.526   5.063
 5534SOL    HW217502   0.893   3.409   5.173
 5535SOL     OW17503   5.046   4.277   3.421
 5535SOL    HW117504   5.045   4.337   3.340
 5535SOL    HW217505   5.134   4.232   3.428
 5536SOL     OW17506   2.565   0.919   4.308
 5536SOL    HW117507   2.550   0.934   4.210
 5536SOL    HW217508   2.582   0.821   4.323
 5537SOL     OW17509   3.823   0.585   4.202
 5537SOL    HW117510   3.850   0.490   4.217
 5537SOL    HW217511   3.877   0.646   4.260
 5538SOL     OW17512   5.345   2.227   2.213
 5538SOL    HW117513   5.403   2.297   2.256
 5538SOL    HW217514   5.251   2.237   2.245
 5539SOL     OW17515   2.019   0.419   6.635
 5539SOL    HW117516   1.956   0.365   6.580
 5539SOL    HW217517   2.044   0.367   6.718
 5540SOL     OW17518   5.435   0.037   5.110
 5540SOL    HW117519   5.338   0.016   5.100
 5540SOL    HW217520   5.490   6.983   5.087
 5541SOL     OW17521   4.569   2.231   6.723
 5541SOL    HW117522   4.473   2.261   6.722
 5541SOL    HW217523   4.606   2.242   6.815
 5542SOL     OW17524   4.707   4.440   6.556
 5542SOL    HW117525   4.615   4.452   6.518
 5542SOL    HW217526   4.765   4.396   6.488
 5543SOL     OW17527   0.652   0.380   6.606
 5543SOL    HW117528   0.726   0.446   6.590
 5543SOL    HW217529   0.685   0.288   6.585
 5544SOL     OW17530   3.574   5.347   0.392
 5544SOL    HW117531   3.569   5.349   0.492
 5544SOL    HW217532   3.642   5.413   0.361
 5545SOL     OW17533   5.899   1.622   2.383
 5545SOL    HW117534   5.891   1.720   2.363
 5545SOL    HW217535   5.808   1.585   2.405
 5546SOL     OW17536   0.267   5.475   4.190
 5546SOL    HW117537   0.354   5.492   4.144
 5546SOL    HW217538   0.249   5.377   4.191
 5547SOL     OW17539   5.330   1.699   4.973
 5547SOL    HW117540   5.324   1.776   4.910
 5547SOL    HW217541   5.322   1.613   4.922
 5548SOL     OW17542   0.710   3.583   4.990
 5548SOL    HW117543   0.689   3.669   4.944
 5548SOL    HW217544   0.630   3.553   5.042
 5549SOL     OW17545   3.708   2.746   0.711
 5549SOL    HW117546   3.670   2.838   0.727
 5549SOL    HW217547   3.805   2.753   0.690
 5550SOL     OW17548   2.674   4.142   1.657
 5550SOL    HW117549   2.688   4.060   1.714
 5550SOL    HW217550   2.736   4.139   1.579
 5551SOL     OW17551   1.720   4.590   2.522
 5551SOL    HW117552   1.731   4.596   2.621
 5551SOL    HW217553   1.688   4.678   2.487
 5552SOL     OW17554   0.899   0.251   0.341
 5552SOL    HW117555   0.969   0.183   0.318
 5552SOL    HW217556   0.825   0.206   0.390
 5553SOL     OW17557   5.441   6.969   6.927
 5553SOL    HW117558   5.357   7.014   6.898
 5553SOL    HW217559   5.484   7.022   7.000
 5554SOL     OW17560   6.779   2.591   1.326
 5554SOL    HW117561   6.756   2.631   1.414
 5554SOL    HW217562   6.711   2.521   1.302
 5555SOL     OW17563   1.588   5.386   2.355
 5555SOL    HW117564   1.604   5.409   2.451
 5555SOL    HW217565   1.672   5.402   2.302
 5556SOL     OW17566   0.137   1.225   4.767
 5556SOL    HW117567   0.150   1.316   4.728
 5556SOL    HW217568   0.052   1.185   4.732
 5557SOL     OW17569   3.768   6.203   2.629
 5557SOL    HW117570   3.799   6.298   2.623
 5557SOL    HW217571   3.690   6.190   2.568
 5558SOL     OW17572   4.770   3.523   6.471
 5558SOL    HW117573   4.725   3.498   6.386
 5558SOL    HW217574   4.735   3.611   6.504
 5559SOL     OW17575   3.723   0.568   2.292
 5559SOL    HW117576   3.655   0.626   2.248
 5559SOL    HW217577   3.677   0.505   2.355
 5560SOL     OW17578   0.171   5.694   3.709
 5560SOL    HW117579   0.118   5.737   3.636
 5560SOL    HW217580   0.108   5.659   3.779
 5561SOL     OW17581   3.424   0.508   3.498
 5561SOL    HW117582   3.524   0.510   3.496
 5561SOL    HW217583   3.391   0.414   3.486
 5562SOL     OW17584   3.998   3.200   0.843
 5562SOL    HW117585   4.054   3.273   0.881
 5562SOL    HW217586   4.055   3.120   0.825
 5563SOL     OW17587   2.342   4.787   2.521
 5563SOL    HW117588   2.348   4.692   2.490
 5563SOL    HW217589   2.367   4.848   2.446
 5564SOL     OW17590   4.937   0.404   6.329
 5564SOL    HW117591   5.007   0.461   6.286
 5564SOL    HW217592   4.892   0.348   6.260
 5565SOL     OW17593   3.977   0.981   5.874
 5565SOL    HW117594   3.942   0.919   5.944
 5565SOL    HW217595   3.901   1.015   5.818
 5566SOL     OW17596   1.342   5.238   5.790
 5566SOL    HW117597   1.309   5.147   5.765
 5566SOL    HW217598   1.272   5.285   5.844
 5567SOL     OW17599   0.456   4.968   0.032
 5567SOL    HW117600   0.414   5.047   7.012
 5567SOL    HW217601   0.488   4.994   0.122
 5568SOL     OW17602   4.686   4.953   1.490
 5568SOL    HW117603   4.590   4.934   1.470
 5568SOL    HW217604   4.693   5.000   1.578
 5569SOL     OW17605   2.325   2.296   2.641
 5569SOL    HW117606   2.264   2.272   2.717
 5569SOL    HW217607   2.335   2.396   2.636
 5570SOL     OW17608   6.677   3.772   1.337
 5570SOL    HW117609   6.599   3.731   1.384
 5570SOL    HW217610   6.737   3.699   1.302
 5571SOL     OW17611   6.707   4.258   0.904
 5571SOL    HW117612   6.707   4.291   0.810
 5571SOL    HW217613   6.684   4.334   0.966
 5572SOL     OW17614   1.571   4.049   5.082
 5572SOL    HW117615   1.507   4.011   5.015
 5572SOL    HW217616   1.617   3.974   5.131
 5573SOL     OW17617   3.480   5.518   3.910
 5573SOL    HW117618   3.522   5.429   3.926
 5573SOL    HW217619   3.531   5.588   3.960
 5574SOL     OW17620   0.823   2.004   6.166
 5574SOL    HW117621   0.859   2.056   6.243
 5574SOL    HW217622   0.837   1.906   6.181
 5575SOL     OW17623   6.687   0.578   1.920
 5575SOL    HW117624   6.739   0.643   1.975
 5575SOL    HW217625   6.590   0.601   1.925
 5576SOL     OW17626   1.626   4.978   3.660
 5576SOL    HW117627   1.653   4.898   3.713
 5576SOL    HW217628   1.683   5.056   3.687
 5577SOL     OW17629   2.278   2.627   6.133
 5577SOL    HW117630   2.250   2.714   6.092
 5577SOL    HW217631   2.309   2.644   6.227
 5578SOL     OW17632   3.840   3.901   4.261
 5578SOL    HW117633   3.901   3.826   4.237
 5578SOL    HW217634   3.823   3.900   4.360
 5579SOL     OW17635   6.259   2.966   1.860
 5579SOL    HW117636   6.340   2.930   1.815
 5579SOL    HW217637   6.284   3.005   1.948
 5580SOL     OW17638   5.199   1.789   5.448
 5580SOL    HW117639   5.209   1.689   5.455
 5580SOL    HW217640   5.288   1.830   5.430
 5581SOL     OW17641   1.301   1.828   6.413
 5581SOL    HW117642   1.268   1.922   6.406
 5581SOL    HW217643   1.396   1.828   6.445
 5582SOL     OW17644   2.941   2.387   6.015
 5582SOL    HW117645   2.943   2.366   5.917
 5582SOL    HW217646   3.013   2.452   6.037
 5583SOL     OW17647   5.810   0.147   0.767
 5583SOL    HW117648   5.833   0.244   0.761
 5583SOL    HW217649   5.802   0.109   0.675
 5584SOL     OW17650   2.151   3.078   4.624
 5584SOL    HW117651   2.174   3.012   4.696
 5584SOL    HW217652   2.150   3.170   4.663
 5585SOL     OW17653   5.425   4.798   1.492
 5585SOL    HW117654   5.511   4.801   1.543
 5585SOL    HW217655   5.409   4.887   1.449
 5586SOL     OW17656   1.133   5.403   1.117
 5586SOL    HW117657   1.178   5.352   1.044
 5586SOL    HW217658   1.084   5.481   1.078
 5587SOL     OW17659   6.170   0.553   5.775
 5587SOL    HW117660   6.082   0.584   5.812
 5587SOL    HW217661   6.231   0.528   5.850
 5588SOL     OW17662   3.437   6.702   0.740
 5588SOL    HW117663   3.364   6.733   0.801
 5588SOL    HW217664   3.436   6.602   0.736
 5589SOL     OW17665   6.621   4.427   6.110
 5589SOL    HW117666   6.627   4.428   6.210
 5589SOL    HW217667   6.646   4.517   6.075
 5590SOL     OW17668   5.971   5.513   3.214
 5590SOL    HW117669   5.915   5.467   3.145
 5590SOL    HW217670   5.976   5.457   3.297
 5591SOL     OW17671   5.411   1.132   1.695
 5591SOL    HW117672   5.497   1.183   1.694
 5591SOL    HW217673   5.336   1.194   1.721
 5592SOL     OW17674   0.119   4.702   3.564
 5592SOL    HW117675   0.101   4.780   3.504
 5592SOL    HW217676   0.041   4.640   3.563
 5593SOL     OW17677   1.041   4.039   0.667
 5593SOL    HW117678   0.961   3.993   0.630
 5593SOL    HW217679   1.013   4.109   0.732
 5594SOL     OW17680   5.832   1.513   5.864
 5594SOL    HW117681   5.851   1.438   5.927
 5594SOL    HW217682   5.739   1.503   5.827
 5595SOL     OW17683   0.536   2.400   0.569
 5595SOL    HW117684   0.623   2.415   0.615
 5595SOL    HW217685   0.524   2.303   0.549
 5596SOL     OW17686   3.293   6.292   3.449
 5596SOL    HW117687   3.255   6.331   3.365
 5596SOL    HW217688   3.378   6.339   3.472
 5597SOL     OW17689   5.223   2.938   1.627
 5597SOL    HW117690   5.193   2.856   1.578
 5597SOL    HW217691   5.283   2.912   1.702
 5598SOL     OW17692   4.414   0.709   4.718
 5598SOL    HW117693   4.491   0.648   4.734
 5598SOL    HW217694   4.379   0.695   4.625
 5599SOL     OW17695   0.882   1.387   3.574
 5599SOL    HW117696   0.855   1.382   3.671
 5599SOL    HW217697   0.883   1.482   3.545
 5600SOL     OW17698   2.418   2.800   5.510
 5600SOL    HW117699   2.429   2.762   5.419
 5600SOL    HW217700   2.496   2.775   5.567
 5601SOL     OW17701   2.782   0.861   6.574
 5601SOL    HW117702   2.738   0.932   6.629
 5601SOL    HW217703   2.766   0.879   6.477
 5602SOL     OW17704   1.741   0.694   6.643
 5602SOL    HW117705   1.814   0.699   6.711
 5602SOL    HW217706   1.664   0.750   6.674
 5603SOL     OW17707   6.315   4.224   5.519
 5603SOL    HW117708   6.354   4.248   5.430
 5603SOL    HW217709   6.386   4.182   5.576
 5604SOL     OW17710   5.478   1.336   6.195
 5604SOL    HW117711   5.462   1.308   6.290
 5604SOL    HW217712   5.562   1.294   6.161
 5605SOL     OW17713   0.205   1.956   6.615
 5605SOL    HW117714   0.276   2.002   6.563
 5605SOL    HW217715   0.245   1.881   6.668
 5606SOL     OW17716   5.568   0.047   3.045
 5606SOL    HW117717   5.583   7.013   2.966
 5606SOL    HW217718   5.489   0.106   3.028
 5607SOL     OW17719   5.410   0.308   1.080
 5607SOL    HW117720   5.362   0.395   1.065
 5607SOL    HW217721   5.497   0.309   1.029
 5608SOL     OW17722   4.114   6.162   5.194
 5608SOL    HW117723   4.023   6.190   5.162
 5608SOL    HW217724   4.168   6.243   5.214
 5609SOL     OW17725   1.174   5.653   5.758
 5609SOL    HW117726   1.200   5.562   5.791
 5609SOL    HW217727   1.131   5.645   5.668
 5610SOL     OW17728   4.467   0.170   6.382
 5610SOL    HW117729   4.412   0.086   6.388
 5610SOL    HW217730   4.419   0.244   6.429
 5611SOL     OW17731   1.989   4.220   3.914
 5611SOL    HW117732   2.044   4.242   3.994
 5611SOL    HW217733   1.970   4.304   3.862
 5612SOL     OW17734   3.469   6.665   4.752
 5612SOL    HW117735   3.440   6.693   4.843
 5612SOL    HW217736   3.403   6.698   4.684
 5613SOL     OW17737   3.169   5.592   1.666
 5613SOL    HW117738   3.127   5.598   1.575
 5613SOL    HW217739   3.208   5.680   1.691
 5614SOL     OW17740   5.488   1.611   4.404
 5614SOL    HW117741   5.434   1.527   4.409
 5614SOL    HW217742   5.426   1.688   4.387
 5615SOL     OW17743   1.535   1.565   2.067
 5615SOL    HW117744   1.615   1.614   2.032
 5615SOL    HW217745   1.466   1.558   1.994
 5616SOL     OW17746   1.819   6.598   4.901
 5616SOL    HW117747   1.886   6.567   4.968
 5616SOL    HW217748   1.854   6.579   4.809
 5617SOL     OW17749   0.547   1.057   5.673
 5617SOL    HW117750   0.484   0.980   5.679
 5617SOL    HW217751   0.610   1.042   5.596
 5618SOL     OW17752   6.104   5.145   2.725
 5618SOL    HW117753   6.050   5.087   2.787
 5618SOL    HW217754   6.042   5.189   2.660
 5619SOL     OW17755   2.196   3.768   5.232
 5619SOL    HW117756   2.264   3.822   5.181
 5619SOL    HW217757   2.154   3.824   5.303
 5620SOL     OW17758   4.630   1.748   6.984
 5620SOL    HW117759   4.712   1.700   7.017
 5620SOL    HW217760   4.624   1.739   6.885
 5621SOL     OW17761   2.648   2.131   6.579
 5621SOL    HW117762   2.708   2.051   6.589
 5621SOL    HW217763   2.562   2.104   6.537
 5622SOL     OW17764   5.611   0.692   5.134
 5622SOL    HW117765   5.665   0.687   5.218
 5622SOL    HW217766   5.515   0.709   5.157
 5623SOL     OW17767   0.023   6.474   6.933
 5623SOL    HW117768   0.038   6.376   6.923
 5623SOL    HW217769   0.043   6.502   0.001
 5624SOL     OW17770   0.337   4.228   1.763
 5624SOL    HW117771   0.353   4.304   1.701
 5624SOL    HW217772   0.327   4.143   1.711
 5625SOL     OW17773   6.281   1.855   5.438
 5625SOL    HW117774   6.211   1.854   5.510
 5625SOL    HW217775   6.265   1.933   5.378
 5626SOL     OW17776   5.453   6.967   4.738
 5626SOL    HW117777   5.494   0.027   4.769
 5626SOL    HW217778   5.526   6.901   4.716
 5627SOL     OW17779   0.725   0.273   1.017
 5627SOL    HW117780   0.669   0.341   0.969
 5627SOL    HW217781   0.737   0.302   1.112
 5628SOL     OW17782   1.632   1.361   4.275
 5628SOL    HW117783   1.721   1.330   4.306
 5628SOL    HW217784   1.631   1.461   4.274
 5629SOL     OW17785   3.610   2.914   3.334
 5629SOL    HW117786   3.650   2.843   3.277
 5629SOL    HW217787   3.560   2.980   3.277
 5630SOL     OW17788   6.481   4.196   1.118
 5630SOL    HW117789   6.446   4.166   1.207
 5630SOL    HW217790   6.505   4.292   1.123
 5631SOL     OW17791   5.636   1.099   6.219
 5631SOL    HW117792   5.582   1.104   6.303
 5631SOL    HW217793   5.733   1.102   6.242
 5632SOL     OW17794   3.052   2.168   0.715
 5632SOL    HW117795   3.006   2.256   0.713
 5632SOL    HW217796   2.989   2.098   0.749
 5633SOL     OW17797   6.987   2.831   5.550
 5633SOL    HW117798   7.024   2.738   5.546
 5633SOL    HW217799   6.887   2.827   5.542
 5634SOL     OW17800   5.024   6.435   4.301
 5634SOL    HW117801   5.116   6.400   4.283
 5634SOL    HW217802   4.966   6.362   4.335
 5635SOL     OW17803   3.357   1.540   6.042
 5635SOL    HW117804   3.417   1.553   5.963
 5635SOL    HW217805   3.354   1.625   6.095
 5636SOL     OW17806   4.287   6.590   4.468
 5636SOL    HW117807   4.348   6.596   4.547
 5636SOL    HW217808   4.205   6.538   4.494
 5637SOL     OW17809   6.124   0.260   3.442
 5637SOL    HW117810   6.123   0.259   3.342
 5637SOL    HW217811   6.214   0.233   3.476
 5638SOL     OW17812   0.185   3.546   0.378
 5638SOL    HW117813   0.094   3.542   0.335
 5638SOL    HW217814   0.191   3.626   0.437
 5639SOL     OW17815   4.394   6.928   6.904
 5639SOL    HW117816   4.445   6.954   6.823
 5639SOL    HW217817   4.357   7.009   6.949
 5640SOL     OW17818   1.259   0.344   3.008
 5640SOL    HW117819   1.261   0.434   3.052
 5640SOL    HW217820   1.348   0.325   2.967
 5641SOL     OW17821   6.611   5.431   4.539
 5641SOL    HW117822   6.630   5.336   4.563
 5641SOL    HW217823   6.513   5.448   4.549
 5642SOL     OW17824   1.604   1.421   0.073
 5642SOL    HW117825   1.561   1.502   0.033
 5642SOL    HW217826   1.539   1.375   0.133
 5643SOL     OW17827   5.284   2.066   6.033
 5643SOL    HW117828   5.308   2.070   5.936
 5643SOL    HW217829   5.329   2.142   6.081
 5644SOL     OW17830   2.607   0.936   5.962
 5644SOL    HW117831   2.647   0.868   5.899
 5644SOL    HW217832   2.680   0.992   6.000
 5645SOL     OW17833   5.713   3.676   4.644
 5645SOL    HW117834   5.747   3.770   4.642
 5645SOL    HW217835   5.750   3.625   4.567
 5646SOL     OW17836   0.796   3.989   2.874
 5646SOL    HW117837   0.784   4.083   2.906
 5646SOL    HW217838   0.797   3.988   2.774
 5647SOL     OW17839   5.467   5.882   2.625
 5647SOL    HW117840   5.452   5.818   2.700
 5647SOL    HW217841   5.504   5.968   2.662
 5648SOL     OW17842   5.087   6.069   3.173
 5648SOL    HW117843   5.011   6.005   3.160
 5648SOL    HW217844   5.051   6.161   3.190
 5649SOL     OW17845   0.885   6.996   4.888
 5649SOL    HW117846   0.828   6.970   4.965
 5649SOL    HW217847   0.911   6.914   4.836
 5650SOL     OW17848   7.004   4.014   6.004
 5650SOL    HW117849   0.039   4.002   5.925
 5650SOL    HW217850   6.909   4.012   5.974
 5651SOL     OW17851   2.707   1.215   0.586
 5651SOL    HW117852   2.749   1.255   0.505
 5651SOL    HW217853   2.608   1.206   0.571
 5652SOL     OW17854   0.546   5.580   3.048
 5652SOL    HW117855   0.558   5.577   3.148
 5652SOL    HW217856   0.532   5.488   3.013
 5653SOL     OW17857   6.856   0.295   3.113
 5653SOL    HW117858   6.846   0.299   3.213
 5653SOL    HW217859   6.844   0.201   3.082
 5654SOL     OW17860   3.489   6.052   5.650
 5654SOL    HW117861   3.400   6.097   5.645
 5654SOL    HW217862   3.562   6.120   5.648
 5655SOL     OW17863   5.303   3.022   4.827
 5655SOL    HW117864   5.280   3.118   4.813
 5655SOL    HW217865   5.220   2.970   4.848
 5656SOL     OW17866   0.188   3.780   0.519
 5656SOL    HW117867   0.117   3.774   0.589
 5656SOL    HW217868   0.172   3.861   0.463
 5657SOL     OW17869   5.438   6.199   4.895
 5657SOL    HW117870   5.527   6.165   4.865
 5657SOL    HW217871   5.370   6.127   4.887
 5658SOL     OW17872   2.424   2.701   6.363
 5658SOL    HW117873   2.491   2.676   6.293
 5658SOL    HW217874   2.435   2.642   6.442
 5659SOL     OW17875   2.622   4.069   7.021
 5659SOL    HW117876   2.692   4.010   6.980
 5659SOL    HW217877   2.663   4.121   0.070
 5660SOL     OW17878   3.755   0.163   4.819
 5660SOL    HW117879   3.787   0.155   4.724
 5660SOL    HW217880   3.739   0.072   4.857
 5661SOL     OW17881   1.036   5.731   5.962
 5661SOL    HW117882   1.100   5.695   5.895
 5661SOL    HW217883   0.997   5.656   6.016
 5662SOL     OW17884   3.129   6.140   0.734
 5662SOL    HW117885   3.106   6.055   0.685
 5662SOL    HW217886   3.067   6.151   0.812
 5663SOL     OW17887   2.162   2.862   6.468
 5663SOL    HW117888   2.124   2.861   6.376
 5663SOL    HW217889   2.241   2.801   6.473
 5664SOL     OW17890   4.947   4.942   4.283
 5664SOL    HW117891   4.926   4.872   4.352
 5664SOL    HW217892   4.988   5.022   4.327
 5665SOL     OW17893   1.669   1.791   0.855
 5665SOL    HW117894   1.586   1.758   0.811
 5665SOL    HW217895   1.705   1.720   0.916
 5666SOL     OW17896   5.720   2.882   4.824
 5666SOL    HW117897   5.758   2.839   4.742
 5666SOL    HW217898   5.623   2.857   4.833
 5667SOL     OW17899   3.112   4.874   4.030
 5667SOL    HW117900   3.054   4.809   3.981
 5667SOL    HW217901   3.084   4.878   4.126
 5668SOL     OW17902   4.708   4.463   3.910
 5668SOL    HW117903   4.689   4.422   3.999
 5668SOL    HW217904   4.787   4.417   3.869
 5669SOL     OW17905   5.676   4.190   5.746
 5669SOL    HW117906   5.586   4.188   5.790
 5669SOL    HW217907   5.667   4.153   5.653
 5670SOL     OW17908   1.083   2.485   4.085
 5670SOL    HW117909   1.171   2.526   4.061
 5670SOL    HW217910   1.098   2.403   4.140
 5671SOL     OW17911   6.828   5.649   3.174
 5671SOL    HW117912   6.759   5.712   3.209
 5671SOL    HW217913   6.784   5.563   3.147
 5672SOL     OW17914   5.145   3.246   4.587
 5672SOL    HW117915   5.056   3.287   4.567
 5672SOL    HW217916   5.206   3.259   4.509
 5673SOL     OW17917   0.401   2.579   0.432
 5673SOL    HW117918   0.313   2.601   0.474
 5673SOL    HW217919   0.450   2.514   0.490
 5674SOL     OW17920   2.771   5.434   5.129
 5674SOL    HW117921   2.835   5.357   5.123
 5674SOL    HW217922   2.819   5.515   5.163
 5675SOL     OW17923   3.295   2.056   0.707
 5675SOL    HW117924   3.205   2.081   0.743
 5675SOL    HW217925   3.285   2.028   0.611
 5676SOL     OW17926   3.751   1.373   1.695
 5676SOL    HW117927   3.776   1.420   1.610
 5676SOL    HW217928   3.780   1.277   1.690
 5677SOL     OW17929   0.743   1.577   6.094
 5677SOL    HW117930   0.654   1.622   6.090
 5677SOL    HW217931   0.816   1.646   6.087
 5678SOL     OW17932   3.869   2.142   2.505
 5678SOL    HW117933   3.789   2.084   2.492
 5678SOL    HW217934   3.921   2.146   2.420
 5679SOL     OW17935   7.021   3.974   5.350
 5679SOL    HW117936   0.033   4.058   5.312
 5679SOL    HW217937   0.053   3.897   5.322
 5680SOL     OW17938   0.523   5.491   4.962
 5680SOL    HW117939   0.469   5.551   4.904
 5680SOL    HW217940   0.545   5.407   4.912
 5681SOL     OW17941   1.562   3.456   3.352
 5681SOL    HW117942   1.569   3.400   3.269
 5681SOL    HW217943   1.474   3.505   3.350
 5682SOL     OW17944   1.875   4.833   1.228
 5682SOL    HW117945   1.804   4.875   1.285
 5682SOL    HW217946   1.949   4.801   1.287
 5683SOL     OW17947   6.858   0.105   5.870
 5683SOL    HW117948   6.941   0.053   5.851
 5683SOL    HW217949   6.816   0.133   5.784
 5684SOL     OW17950   2.200   2.875   4.798
 5684SOL    HW117951   2.120   2.819   4.818
 5684SOL    HW217952   2.283   2.821   4.812
 5685SOL     OW17953   2.163   1.200   2.004
 5685SOL    HW117954   2.091   1.204   1.935
 5685SOL    HW217955   2.253   1.197   1.959
 5686SOL     OW17956   5.305   6.024   5.677
 5686SOL    HW117957   5.233   6.093   5.673
 5686SOL    HW217958   5.392   6.067   5.700
 5687SOL     OW17959   1.943   6.680   6.261
 5687SOL    HW117960   1.958   6.772   6.224
 5687SOL    HW217961   2.010   6.661   6.332
 5688SOL     OW17962   1.677   1.818   3.083
 5688SOL    HW117963   1.680   1.886   3.011
 5688SOL    HW217964   1.740   1.843   3.156
 5689SOL     OW17965   0.168   2.421   1.295
 5689SOL    HW117966   0.107   2.500   1.295
 5689SOL    HW217967   0.149   2.364   1.215
 5690SOL     OW17968   3.389   5.223   0.209
 5690SOL    HW117969   3.300   5.215   0.254
 5690SOL    HW217970   3.458   5.246   0.277
 5691SOL     OW17971   4.520   2.438   3.834
 5691SOL    HW117972   4.617   2.461   3.835
 5691SOL    HW217973   4.479   2.461   3.923
 5692SOL     OW17974   6.256   4.998   1.446
 5692SOL    HW117975   6.311   4.990   1.363
 5692SOL    HW217976   6.200   5.081   1.441
 5693SOL     OW17977   3.459   0.246   2.143
 5693SOL    HW117978   3.416   0.330   2.178
 5693SOL    HW217979   3.554   0.267   2.118
 5694SOL     OW17980   0.479   0.422   1.327
 5694SOL    HW117981   0.431   0.366   1.259
 5694SOL    HW217982   0.430   0.418   1.414
 5695SOL     OW17983   2.091   1.209   2.269
 5695SOL    HW117984   2.138   1.196   2.181
 5695SOL    HW217985   2.035   1.292   2.265
 5696SOL     OW17986   0.498   6.548   4.164
 5696SOL    HW117987   0.413   6.568   4.116
 5696SOL    HW217988   0.550   6.479   4.113
 5697SOL     OW17989   6.274   1.702   0.215
 5697SOL    HW117990   6.276   1.767   0.139
 5697SOL    HW217991   6.180   1.673   0.233
 5698SOL     OW17992   3.254   2.108   3.945
 5698SOL    HW117993   3.343   2.099   3.990
 5698SOL    HW217994   3.258   2.062   3.856
 5699SOL     OW17995   2.164   3.118   2.781
 5699SOL    HW117996   2.150   3.190   2.714
 5699SOL    HW217997   2.189   3.033   2.734
 5700SOL     OW17998   6.023   0.236   2.784
 5700SOL    HW117999   6.062   0.216   2.874
 5700SOL    HW218000   5.990   0.331   2.782
 5701SOL     OW18001   1.293   0.635   0.907
 5701SOL    HW118002   1.220   0.602   0.967
 5701SOL    HW218003   1.378   0.642   0.959
 5702SOL     OW18004   1.568   6.260   4.875
 5702SOL    HW118005   1.656   6.213   4.875
 5702SOL    HW218006   1.504   6.210   4.932
 5703SOL     OW18007   0.292   2.941   6.136
 5703SOL    HW118008   0.332   2.857   6.098
 5703SOL    HW218009   0.322   3.019   6.081
 5704SOL     OW18010   4.018   5.680   4.293
 5704SOL    HW118011   4.092   5.690   4.360
 5704SOL    HW218012   4.021   5.587   4.255
 5705SOL     OW18013   5.764   0.636   5.385
 5705SOL    HW118014   5.827   0.571   5.427
 5705SOL    HW218015   5.814   0.720   5.361
 5706SOL     OW18016   5.277   2.035   1.028
 5706SOL    HW118017   5.259   2.034   0.930
 5706SOL    HW218018   5.363   1.986   1.047
 5707SOL     OW18019   5.882   5.468   1.119
 5707SOL    HW118020   5.842   5.382   1.151
 5707SOL    HW218021   5.932   5.512   1.194
 5708SOL     OW18022   5.380   6.178   1.773
 5708SOL    HW118023   5.370   6.093   1.721
 5708SOL    HW218024   5.387   6.157   1.871
 5709SOL     OW18025   0.234   2.865   2.347
 5709SOL    HW118026   0.218   2.873   2.248
 5709SOL    HW218027   0.308   2.927   2.374
 5710SOL     OW18028   5.021   1.556   0.869
 5710SOL    HW118029   5.109   1.604   0.864
 5710SOL    HW218030   4.958   1.597   0.803
 5711SOL     OW18031   4.508   1.808   2.045
 5711SOL    HW118032   4.459   1.768   2.122
 5711SOL    HW218033   4.589   1.753   2.024
 5712SOL     OW18034   6.134   5.954   6.824
 5712SOL    HW118035   6.187   6.030   6.863
 5712SOL    HW218036   6.036   5.973   6.835
 5713SOL     OW18037   1.246   1.389   0.786
 5713SOL    HW118038   1.229   1.441   0.869
 5713SOL    HW218039   1.284   1.299   0.810
 5714SOL     OW18040   5.904   0.412   0.708
 5714SOL    HW118041   5.899   0.498   0.758
 5714SOL    HW218042   5.879   0.427   0.613
 5715SOL     OW18043   6.996   6.950   1.199
 5715SOL    HW118044   0.029   6.951   1.279
 5715SOL    HW218045   0.026   6.937   1.117
 5716SOL     OW18046   0.746   4.881   5.127
 5716SOL    HW118047   0.843   4.901   5.140
 5716SOL    HW218048   0.736   4.814   5.053
 5717SOL     OW18049   0.269   5.158   3.691
 5717SOL    HW118050   0.336   5.195   3.628
 5717SOL    HW218051   0.199   5.108   3.640
 5718SOL     OW18052   1.076   3.993   0.035
 5718SOL    HW118053   1.093   4.081   0.078
 5718SOL    HW218054   1.153   3.968   7.003
 5719SOL     OW18055   2.674   3.107   0.499
 5719SOL    HW118056   2.620   3.191   0.505
 5719SOL    HW218057   2.746   3.119   0.431
 5720SOL     OW18058   2.838   5.170   6.423
 5720SOL    HW118059   2.932   5.169   6.389
 5720SOL    HW218060   2.806   5.264   6.429
 5721SOL     OW18061   1.071   2.903   0.762
 5721SOL    HW118062   1.080   2.994   0.722
 5721SOL    HW218063   0.999   2.852   0.715
 5722SOL     OW18064   1.455   0.349   5.915
 5722SOL    HW118065   1.383   0.371   5.849
 5722SOL    HW218066   1.436   0.394   6.002
 5723SOL     OW18067   4.189   3.173   0.490
 5723SOL    HW118068   4.104   3.175   0.438
 5723SOL    HW218069   4.190   3.092   0.549
 5724SOL     OW18070   5.815   2.074   5.824
 5724SOL    HW118071   5.754   2.153   5.813
 5724SOL    HW218072   5.759   1.992   5.841
 5725SOL     OW18073   6.932   4.460   4.775
 5725SOL    HW118074   6.876   4.467   4.693
 5725SOL    HW218075   7.022   4.500   4.759
 5726SOL     OW18076   4.600   4.455   2.148
 5726SOL    HW118077   4.617   4.406   2.063
 5726SOL    HW218078   4.678   4.514   2.168
 5727SOL     OW18079   1.256   2.814   5.657
 5727SOL    HW118080   1.257   2.908   5.691
 5727SOL    HW218081   1.275   2.751   5.732
 5728SOL     OW18082   2.925   6.644   5.267
 5728SOL    HW118083   2.875   6.593   5.196
 5728SOL    HW218084   2.968   6.579   5.330
 5729SOL     OW18085   2.424   1.869   4.896
 5729SOL    HW118086   2.424   1.904   4.989
 5729SOL    HW218087   2.514   1.887   4.854
 5730SOL     OW18088   6.300   4.283   4.810
 5730SOL    HW118089   6.276   4.356   4.747
 5730SOL    HW218090   6.395   4.294   4.840
 5731SOL     OW18091   0.823   6.199   2.701
 5731SOL    HW118092   0.775   6.208   2.613
 5731SOL    HW218093   0.909   6.150   2.687
 5732SOL     OW18094   5.742   0.367   3.659
 5732SOL    HW118095   5.699   0.438   3.603
 5732SOL    HW218096   5.672   0.316   3.708
 5733SOL     OW18097   2.753   0.922   5.169
 5733SOL    HW118098   2.808   0.841   5.188
 5733SOL    HW218099   2.686   0.933   5.242
 5734SOL     OW18100   1.556   6.809   3.676
 5734SOL    HW118101   1.521   6.796   3.769
 5734SOL    HW218102   1.552   6.906   3.652
 5735SOL     OW18103   3.109   0.939   1.339
 5735SOL    HW118104   3.143   1.004   1.408
 5735SOL    HW218105   3.020   0.969   1.306
 5736SOL     OW18106   1.931   5.400   0.861
 5736SOL    HW118107   2.030   5.417   0.856
 5736SOL    HW218108   1.889   5.464   0.924
 5737SOL     OW18109   5.881   3.816   6.994
 5737SOL    HW118110   5.913   3.867   0.049
 5737SOL    HW218111   5.947   3.827   6.920
 5738SOL     OW18112   0.531   5.125   4.623
 5738SOL    HW118113   0.582   5.040   4.605
 5738SOL    HW218114   0.573   5.173   4.700
 5739SOL     OW18115   0.711   3.140   0.965
 5739SOL    HW118116   0.730   3.132   1.063
 5739SOL    HW218117   0.685   3.050   0.929
 5740SOL     OW18118   4.485   4.832   6.940
 5740SOL    HW118119   4.413   4.884   6.986
 5740SOL    HW218120   4.541   4.784   7.007
 5741SOL     OW18121   0.279   2.988   2.080
 5741SOL    HW118122   0.261   2.936   1.996
 5741SOL    HW218123   0.244   3.081   2.070
 5742SOL     OW18124   0.441   5.422   3.872
 5742SOL    HW118125   0.478   5.484   3.803
 5742SOL    HW218126   0.448   5.327   3.840
 5743SOL     OW18127   1.322   6.325   5.731
 5743SOL    HW118128   1.375   6.288   5.808
 5743SOL    HW218129   1.225   6.301   5.743
 5744SOL     OW18130   6.393   0.616   1.906
 5744SOL    HW118131   6.404   0.650   1.999
 5744SOL    HW218132   6.297   0.592   1.891
 5745SOL     OW18133   0.272   3.608   3.101
 5745SOL    HW118134   0.340   3.602   3.027
 5745SOL    HW218135   0.206   3.681   3.080
 5746SOL     OW18136   6.523   4.398   6.851
 5746SOL    HW118137   6.593   4.327   6.860
 5746SOL    HW218138   6.506   4.415   6.754
 5747SOL     OW18139   0.356   5.846   3.878
 5747SOL    HW118140   0.334   5.758   3.835
 5747SOL    HW218141   0.307   5.919   3.831
 5748SOL     OW18142   1.580   0.549   4.012
 5748SOL    HW118143   1.593   0.471   3.951
 5748SOL    HW218144   1.490   0.544   4.054
 5749SOL     OW18145   0.959   0.975   3.055
 5749SOL    HW118146   0.897   0.900   3.075
 5749SOL    HW218147   1.043   0.964   3.108
 5750SOL     OW18148   5.799   6.783   2.320
 5750SOL    HW118149   5.825   6.695   2.361
 5750SOL    HW218150   5.868   6.810   2.254
 5751SOL     OW18151   0.509   2.492   6.193
 5751SOL    HW118152   0.451   2.571   6.212
 5751SOL    HW218153   0.602   2.512   6.222
 5752SOL     OW18154   1.400   1.402   6.769
 5752SOL    HW118155   1.384   1.351   6.854
 5752SOL    HW218156   1.451   1.486   6.789
 5753SOL     OW18157   4.770   1.742   0.245
 5753SOL    HW118158   4.677   1.717   0.275
 5753SOL    HW218159   4.802   1.677   0.177
 5754SOL     OW18160   6.171   5.922   0.886
 5754SOL    HW118161   6.156   5.971   0.972
 5754SOL    HW218162   6.268   5.924   0.862
 5755SOL     OW18163   3.491   3.755   1.549
 5755SOL    HW118164   3.543   3.693   1.490
 5755SOL    HW218165   3.474   3.710   1.637
 5756SOL     OW18166   6.797   6.644   4.157
 5756SOL    HW118167   6.817   6.598   4.070
 5756SOL    HW218168   6.735   6.588   4.211
 5757SOL     OW18169   6.492   6.424   2.163
 5757SOL    HW118170   6.502   6.508   2.109
 5757SOL    HW218171   6.566   6.361   2.140
 5758SOL     OW18172   2.897   1.161   5.543
 5758SOL    HW118173   2.888   1.258   5.566
 5758SOL    HW218174   2.933   1.152   5.450
 5759SOL     OW18175   0.925   1.067   6.198
 5759SOL    HW118176   0.839   1.093   6.242
 5759SOL    HW218177   0.942   0.969   6.213
 5760SOL     OW18178   6.902   5.941   1.071
 5760SOL    HW118179   6.962   5.906   1.144
 5760SOL    HW218180   6.863   5.864   1.021
 5761SOL     OW18181   4.351   0.912   3.915
 5761SOL    HW118182   4.448   0.892   3.903
 5761SOL    HW218183   4.312   0.937   3.826
 5762SOL     OW18184   5.086   5.987   1.647
 5762SOL    HW118185   5.007   5.946   1.692
 5762SOL    HW218186   5.099   6.080   1.681
 5763SOL     OW18187   3.322   0.668   0.736
 5763SOL    HW118188   3.353   0.581   0.697
 5763SOL    HW218189   3.245   0.703   0.682
 5764SOL     OW18190   3.932   2.995   6.094
 5764SOL    HW118191   3.860   2.950   6.147
 5764SOL    HW218192   3.909   3.091   6.080
 5765SOL     OW18193   6.474   5.573   6.669
 5765SOL    HW118194   6.421   5.654   6.643
 5765SOL    HW218195   6.550   5.601   6.729
 5766SOL     OW18196   2.672   1.221   3.336
 5766SOL    HW118197   2.574   1.235   3.329
 5766SOL    HW218198   2.691   1.123   3.343
 5767SOL     OW18199   5.380   6.350   0.099
 5767SOL    HW118200   5.291   6.392   0.085
 5767SOL    HW218201   5.439   6.369   0.020
 5768SOL     OW18202   6.448   6.706   2.379
 5768SOL    HW118203   6.356   6.687   2.415
 5768SOL    HW218204   6.439   6.756   2.292
 5769SOL     OW18205   0.683   4.011   3.446
 5769SOL    HW118206   0.654   4.051   3.359
 5769SOL    HW218207   0.651   4.069   3.521
 5770SOL     OW18208   5.151   2.032   1.804
 5770SOL    HW118209   5.137   2.077   1.892
 5770SOL    HW218210   5.095   2.077   1.734
 5771SOL     OW18211   0.992   0.768   1.750
 5771SOL    HW118212   1.091   0.777   1.760
 5771SOL    HW218213   0.948   0.793   1.836
 5772SOL     OW18214   6.298   5.190   5.685
 5772SOL    HW118215   6.357   5.111   5.697
 5772SOL    HW218216   6.225   5.167   5.620
 5773SOL     OW18217   5.193   5.780   4.517
 5773SOL    HW118218   5.134   5.839   4.462
 5773SOL    HW218219   5.236   5.834   4.589
 5774SOL     OW18220   1.830   5.226   2.259
 5774SOL    HW118221   1.802   5.141   2.305
 5774SOL    HW218222   1.877   5.285   2.325
 5775SOL     OW18223   1.036   0.769   0.481
 5775SOL    HW118224   1.030   0.673   0.455
 5775SOL    HW218225   0.983   0.824   0.416
 5776SOL     OW18226   5.181   1.021   6.067
 5776SOL    HW118227   5.128   1.021   6.151
 5776SOL    HW218228   5.278   1.015   6.089
 5777SOL     OW18229   5.671   6.084   4.733
 5777SOL    HW118230   5.700   5.989   4.725
 5777SOL    HW218231   5.742   6.137   4.779
 5778SOL     OW18232   2.891   0.168   4.096
 5778SOL    HW118233   2.819   0.237   4.107
 5778SOL    HW218234   2.911   0.155   3.999
 5779SOL     OW18235   3.930   0.272   1.950
 5779SOL    HW118236   3.907   0.203   1.882
 5779SOL    HW218237   3.952   0.358   1.903
 5780SOL     OW18238   6.174   4.507   0.476
 5780SOL    HW118239   6.126   4.420   0.475
 5780SOL    HW218240   6.256   4.500   0.418
 5781SOL     OW18241   3.995   4.027   5.335
 5781SOL    HW118242   3.906   4.069   5.319
 5781SOL    HW218243   4.020   3.970   5.257
 5782SOL     OW18244   4.788   1.895   2.794
 5782SOL    HW118245   4.730   1.957   2.741
 5782SOL    HW218246   4.850   1.947   2.852
 5783SOL     OW18247   3.466   5.855   2.967
 5783SOL    HW118248   3.520   5.891   3.043
 5783SOL    HW218249   3.369   5.861   2.989
 5784SOL     OW18250   1.326   6.303   1.069
 5784SOL    HW118251   1.229   6.301   1.044
 5784SOL    HW218252   1.374   6.370   1.011
 5785SOL     OW18253   2.164   1.885   6.683
 5785SOL    HW118254   2.190   1.978   6.658
 5785SOL    HW218255   2.068   1.869   6.661
 5786SOL     OW18256   1.813   1.723   6.263
 5786SOL    HW118257   1.777   1.786   6.193
 5786SOL    HW218258   1.739   1.666   6.298
 5787SOL     OW18259   0.876   2.298   5.481
 5787SOL    HW118260   0.803   2.301   5.413
 5787SOL    HW218261   0.962   2.273   5.438
 5788SOL     OW18262   0.533   2.179   2.014
 5788SOL    HW118263   0.608   2.134   1.965
 5788SOL    HW218264   0.516   2.131   2.099
 5789SOL     OW18265   2.661   6.882   0.238
 5789SOL    HW118266   2.647   6.962   0.297
 5789SOL    HW218267   2.663   6.799   0.294
 5790SOL     OW18268   6.862   6.480   2.391
 5790SOL    HW118269   6.907   6.416   2.454
 5790SOL    HW218270   6.787   6.525   2.439
 5791SOL     OW18271   4.287   0.615   1.209
 5791SOL    HW118272   4.278   0.667   1.294
 5791SOL    HW218273   4.243   0.526   1.219
 5792SOL     OW18274   4.423   2.474   2.655
 5792SOL    HW118275   4.417   2.467   2.754
 5792SOL    HW218276   4.419   2.383   2.615
 5793SOL     OW18277   4.280   2.135   0.270
 5793SOL    HW118278   4.243   2.051   0.311
 5793SOL    HW218279   4.365   2.115   0.222
 5794SOL     OW18280   2.852   6.148   0.082
 5794SOL    HW118281   2.882   6.226   0.028
 5794SOL    HW218282   2.797   6.087   0.025
 5795SOL     OW18283   1.421   1.028   1.471
 5795SOL    HW118284   1.367   1.101   1.513
 5795SOL    HW218285   1.515   1.061   1.456
 5796SOL     OW18286   4.841   0.462   5.714
 5796SOL    HW118287   4.746   0.477   5.742
 5796SOL    HW218288   4.842   0.425   5.621
 5797SOL     OW18289   6.015   1.603   0.167
 5797SOL    HW118290   5.932   1.551   0.147
 5797SOL    HW218291   6.018   1.685   0.109
 5798SOL     OW18292   2.304   2.450   4.835
 5798SOL    HW118293   2.401   2.428   4.836
 5798SOL    HW218294   2.268   2.434   4.743
 5799SOL     OW18295   2.980   0.163   3.850
 5799SOL    HW118296   3.028   0.238   3.805
 5799SOL    HW218297   2.969   0.087   3.786
 5800SOL     OW18298   1.382   6.080   1.603
 5800SOL    HW118299   1.446   6.003   1.594
 5800SOL    HW218300   1.433   6.165   1.609
 5801SOL     OW18301   1.606   2.142   3.084
 5801SOL    HW118302   1.646   2.234   3.087
 5801SOL    HW218303   1.506   2.150   3.090
 5802SOL     OW18304   0.081   6.987   3.140
 5802SOL    HW118305   0.163   0.015   3.120
 5802SOL    HW218306   0.001   0.005   3.099
 5803SOL     OW18307   0.832   6.555   4.531
 5803SOL    HW118308   0.811   6.572   4.627
 5803SOL    HW218309   0.762   6.597   4.473
 5804SOL     OW18310   6.144   2.207   3.473
 5804SOL    HW118311   6.179   2.278   3.412
 5804SOL    HW218312   6.149   2.119   3.427
 5805SOL     OW18313   0.959   2.288   1.479
 5805SOL    HW118314   0.888   2.218   1.482
 5805SOL    HW218315   0.938   2.361   1.544
 5806SOL     OW18316   6.662   4.467   1.417
 5806SOL    HW118317   6.714   4.382   1.413
 5806SOL    HW218318   6.723   4.545   1.405
 5807SOL     OW18319   1.010   0.909   2.547
 5807SOL    HW118320   1.027   0.994   2.598
 5807SOL    HW218321   1.062   0.910   2.462
 5808SOL     OW18322   6.651   6.360   6.016
 5808SOL    HW118323   6.604   6.402   5.938
 5808SOL    HW218324   6.743   6.333   5.989
 5809SOL     OW18325   0.144   3.643   4.549
 5809SOL    HW118326   0.130   3.564   4.608
 5809SOL    HW218327   0.240   3.668   4.547
 5810SOL     OW18328   0.997   6.587   5.592
 5810SOL    HW118329   0.933   6.579   5.516
 5810SOL    HW218330   1.032   6.496   5.615
 5811SOL     OW18331   3.273   4.995   6.828
 5811SOL    HW118332   3.215   5.060   6.778
 5811SOL    HW218333   3.226   4.908   6.837
 5812SOL     OW18334   6.535   2.760   6.353
 5812SOL    HW118335   6.498   2.843   6.311
 5812SOL    HW218336   6.508   2.680   6.299
 5813SOL     OW18337   6.310   5.514   1.171
 5813SOL    HW118338   6.272   5.533   1.080
 5813SOL    HW218339   6.261   5.438   1.212
 5814SOL     OW18340   5.352   2.029   2.656
 5814SOL    HW118341   5.358   1.964   2.731
 5814SOL    HW218342   5.444   2.047   2.619
 5815SOL     OW18343   6.387   3.686   4.484
 5815SOL    HW118344   6.467   3.628   4.483
 5815SOL    HW218345   6.347   3.691   4.392
 5816SOL     OW18346   0.201   4.612   0.841
 5816SOL    HW118347   0.186   4.693   0.897
 5816SOL    HW218348   0.120   4.553   0.844
 5817SOL     OW18349   6.079   2.885   4.320
 5817SOL    HW118350   6.085   2.930   4.409
 5817SOL    HW218351   6.157   2.824   4.307
 5818SOL     OW18352   2.528   0.247   4.030
 5818SOL    HW118353   2.498   0.170   4.086
 5818SOL    HW218354   2.592   0.303   4.083
 5819SOL     OW18355   4.320   4.039   1.059
 5819SOL    HW118356   4.369   3.971   1.114
 5819SOL    HW218357   4.370   4.126   1.061
 5820SOL     OW18358   1.098   6.260   2.313
 5820SOL    HW118359   1.069   6.310   2.394
 5820SOL    HW218360   1.143   6.322   2.249
 5821SOL     OW18361   5.786   6.509   2.411
 5821SOL    HW118362   5.754   6.457   2.331
 5821SOL    HW218363   5.803   6.446   2.487
 5822SOL     OW18364   0.934   4.256   2.982
 5822SOL    HW118365   0.973   4.301   3.062
 5822SOL    HW218366   0.998   4.187   2.948
 5823SOL     OW18367   2.609   6.516   5.203
 5823SOL    HW118368   2.514   6.489   5.184
 5823SOL    HW218369   2.619   6.534   5.301
 5824SOL     OW18370   2.788   5.491   2.927
 5824SOL    HW118371   2.847   5.418   2.962
 5824SOL    HW218372   2.752   5.464   2.838
 5825SOL     OW18373   3.812   2.118   4.653
 5825SOL    HW118374   3.772   2.039   4.699
 5825SOL    HW218375   3.894   2.148   4.701
 5826SOL     OW18376   1.390   6.107   5.018
 5826SOL    HW118377   1.450   6.079   5.093
 5826SOL    HW218378   1.317   6.166   5.054
 5827SOL     OW18379   2.112   3.981   3.831
 5827SOL    HW118380   2.071   4.068   3.859
 5827SOL    HW218381   2.128   3.924   3.912
 5828SOL     OW18382   4.622   0.078   4.836
 5828SOL    HW118383   4.586   0.021   4.763
 5828SOL    HW218384   4.556   0.081   4.911
 5829SOL     OW18385   2.288   1.371   3.092
 5829SOL    HW118386   2.358   1.416   3.037
 5829SOL    HW218387   2.208   1.431   3.101
 5830SOL     OW18388   4.747   5.145   4.538
 5830SOL    HW118389   4.775   5.071   4.598
 5830SOL    HW218390   4.660   5.122   4.494
 5831SOL     OW18391   2.243   1.784   4.706
 5831SOL    HW118392   2.229   1.842   4.626
 5831SOL    HW218393   2.282   1.839   4.780
 5832SOL     OW18394   2.454   5.038   3.560
 5832SOL    HW118395   2.480   5.127   3.523
 5832SOL    HW218396   2.385   4.996   3.500
 5833SOL     OW18397   2.617   4.732   1.098
 5833SOL    HW118398   2.563   4.752   1.179
 5833SOL    HW218399   2.635   4.633   1.093
 5834SOL     OW18400   5.639   1.871   5.863
 5834SOL    HW118401   5.543   1.885   5.837
 5834SOL    HW218402   5.643   1.826   5.952
 5835SOL     OW18403   3.630   1.134   3.803
 5835SOL    HW118404   3.728   1.153   3.795
 5835SOL    HW218405   3.594   1.107   3.714
 5836SOL     OW18406   4.985   4.857   1.289
 5836SOL    HW118407   4.959   4.945   1.330
 5836SOL    HW218408   4.907   4.795   1.290
 5837SOL     OW18409   1.993   4.601   0.155
 5837SOL    HW118410   2.034   4.533   0.216
 5837SOL    HW218411   2.066   4.645   0.102
 5838SOL     OW18412   2.765   3.508   0.286
 5838SOL    HW118413   2.686   3.560   0.252
 5838SOL    HW218414   2.815   3.565   0.352
 5839SOL     OW18415   2.703   1.514   1.067
 5839SOL    HW118416   2.655   1.601   1.061
 5839SOL    HW218417   2.695   1.465   0.980
 5840SOL     OW18418   6.578   3.673   2.550
 5840SOL    HW118419   6.605   3.728   2.472
 5840SOL    HW218420   6.634   3.590   2.554
 5841SOL     OW18421   5.501   2.551   0.820
 5841SOL    HW118422   5.415   2.553   0.870
 5841SOL    HW218423   5.484   2.533   0.723
 5842SOL     OW18424   4.049   2.165   2.728
 5842SOL    HW118425   4.043   2.188   2.631
 5842SOL    HW218426   4.143   2.180   2.760
 5843SOL     OW18427   3.304   2.639   1.034
 5843SOL    HW118428   3.251   2.629   1.118
 5843SOL    HW218429   3.274   2.572   0.967
 5844SOL     OW18430   6.791   5.201   5.481
 5844SOL    HW118431   6.803   5.277   5.417
 5844SOL    HW218432   6.695   5.173   5.481
 5845SOL     OW18433   2.153   6.314   2.906
 5845SOL    HW118434   2.055   6.306   2.889
 5845SOL    HW218435   2.178   6.256   2.984
 5846SOL     OW18436   0.611   4.378   4.932
 5846SOL    HW118437   0.527   4.334   4.965
 5846SOL    HW218438   0.687   4.353   4.991
 5847SOL     OW18439   1.902   4.335   6.167
 5847SOL    HW118440   1.893   4.292   6.257
 5847SOL    HW218441   1.999   4.353   6.148
 5848SOL     OW18442   3.181   6.565   1.732
 5848SOL    HW118443   3.215   6.530   1.819
 5848SOL    HW218444   3.120   6.642   1.749
 5849SOL     OW18445   3.303   5.619   6.954
 5849SOL    HW118446   3.371   5.548   6.939
 5849SOL    HW218447   3.328   5.701   6.904
 5850SOL     OW18448   5.061   2.083   1.401
 5850SOL    HW118449   5.018   2.126   1.481
 5850SOL    HW218450   5.160   2.084   1.413
 5851SOL     OW18451   1.208   3.117   5.583
 5851SOL    HW118452   1.133   3.179   5.607
 5851SOL    HW218453   1.202   3.093   5.486
 5852SOL     OW18454   4.602   5.000   3.040
 5852SOL    HW118455   4.675   5.009   2.972
 5852SOL    HW218456   4.619   4.919   3.096
 5853SOL     OW18457   4.346   4.461   0.337
 5853SOL    HW118458   4.403   4.392   0.382
 5853SOL    HW218459   4.261   4.419   0.307
 5854SOL     OW18460   2.739   4.459   5.358
 5854SOL    HW118461   2.651   4.492   5.323
 5854SOL    HW218462   2.814   4.505   5.310
 5855SOL     OW18463   1.483   1.764   4.677
 5855SOL    HW118464   1.481   1.787   4.580
 5855SOL    HW218465   1.569   1.795   4.717
 5856SOL     OW18466   0.541   0.708   2.460
 5856SOL    HW118467   0.514   0.613   2.448
 5856SOL    HW218468   0.641   0.713   2.470
 5857SOL     OW18469   6.245   5.746   6.661
 5857SOL    HW118470   6.210   5.802   6.736
 5857SOL    HW218471   6.175   5.680   6.634
 5858SOL     OW18472   3.159   1.578   2.205
 5858SOL    HW118473   3.250   1.538   2.217
 5858SOL    HW218474   3.168   1.677   2.194
 5859SOL     OW18475   5.679   4.780   1.606
 5859SOL    HW118476   5.669   4.696   1.661
 5859SOL    HW218477   5.749   4.838   1.647
 5860SOL     OW18478   1.539   3.507   1.926
 5860SOL    HW118479   1.531   3.456   2.011
 5860SOL    HW218480   1.451   3.508   1.879
 5861SOL     OW18481   5.742   0.231   4.718
 5861SOL    HW118482   5.738   0.204   4.622
 5861SOL    HW218483   5.813   0.301   4.730
 5862SOL     OW18484   7.025   4.688   1.925
 5862SOL    HW118485   6.971   4.609   1.955
 5862SOL    HW218486   6.965   4.752   1.878
 5863SOL     OW18487   4.133   6.856   5.887
 5863SOL    HW118488   4.202   6.784   5.879
 5863SOL    HW218489   4.080   6.841   5.971
 5864SOL     OW18490   3.935   3.118   3.448
 5864SOL    HW118491   3.916   3.114   3.350
 5864SOL    HW218492   4.034   3.116   3.463
 5865SOL     OW18493   6.796   6.488   1.593
 5865SOL    HW118494   6.715   6.531   1.554
 5865SOL    HW218495   6.822   6.409   1.537
 5866SOL     OW18496   3.637   3.235   3.869
 5866SOL    HW118497   3.648   3.193   3.778
 5866SOL    HW218498   3.658   3.332   3.863
 5867SOL     OW18499   4.967   1.366   1.061
 5867SOL    HW118500   4.943   1.444   1.004
 5867SOL    HW218501   4.891   1.343   1.121
 5868SOL     OW18502   1.398   1.215   1.043
 5868SOL    HW118503   1.397   1.128   0.993
 5868SOL    HW218504   1.330   1.212   1.116
 5869SOL     OW18505   2.068   5.534   3.734
 5869SOL    HW118506   2.091   5.441   3.706
 5869SOL    HW218507   1.979   5.534   3.781
 5870SOL     OW18508   4.341   6.625   3.648
 5870SOL    HW118509   4.408   6.679   3.597
 5870SOL    HW218510   4.302   6.555   3.588
 5871SOL     OW18511   4.113   3.254   3.711
 5871SOL    HW118512   4.059   3.175   3.741
 5871SOL    HW218513   4.208   3.227   3.700
 5872SOL     OW18514   3.298   5.471   1.354
 5872SOL    HW118515   3.204   5.467   1.386
 5872SOL    HW218516   3.337   5.379   1.353
 5873SOL     OW18517   4.180   6.918   1.963
 5873SOL    HW118518   4.252   6.895   2.028
 5873SOL    HW218519   4.205   6.885   1.872
 5874SOL     OW18520   0.185   4.247   4.728
 5874SOL    HW118521   0.261   4.213   4.674
 5874SOL    HW218522   0.103   4.192   4.709
 5875SOL     OW18523   4.073   2.362   0.932
 5875SOL    HW118524   4.091   2.431   1.002
 5875SOL    HW218525   4.157   2.311   0.912
 5876SOL     OW18526   3.032   3.329   2.942
 5876SOL    HW118527   2.976   3.412   2.950
 5876SOL    HW218528   2.997   3.259   3.004
 5877SOL     OW18529   5.014   4.176   1.844
 5877SOL    HW118530   5.048   4.133   1.928
 5877SOL    HW218531   4.993   4.105   1.776
 5878SOL     OW18532   0.719   3.841   1.567
 5878SOL    HW118533   0.753   3.774   1.501
 5878SOL    HW218534   0.640   3.889   1.528
 5879SOL     OW18535   1.969   4.420   4.757
 5879SOL    HW118536   2.028   4.447   4.833
 5879SOL    HW218537   1.873   4.437   4.781
 5880SOL     OW18538   2.952   4.883   6.596
 5880SOL    HW118539   2.977   4.973   6.633
 5880SOL    HW218540   2.961   4.885   6.497
 5881SOL     OW18541   1.823   6.733   3.688
 5881SOL    HW118542   1.730   6.765   3.707
 5881SOL    HW218543   1.822   6.668   3.612
 5882SOL     OW18544   4.548   0.437   2.955
 5882SOL    HW118545   4.573   0.475   2.865
 5882SOL    HW218546   4.484   0.500   3.000
 5883SOL     OW18547   1.735   3.142   5.507
 5883SOL    HW118548   1.760   3.106   5.416
 5883SOL    HW218549   1.714   3.065   5.567
 5884SOL     OW18550   7.000   0.615   3.288
 5884SOL    HW118551   6.926   0.635   3.352
 5884SOL    HW218552   0.062   0.639   3.329
 5885SOL     OW18553   5.479   6.393   0.350
 5885SOL    HW118554   5.396   6.385   0.405
 5885SOL    HW218555   5.461   6.360   0.257
 5886SOL     OW18556   5.954   1.360   6.071
 5886SOL    HW118557   5.909   1.274   6.045
 5886SOL    HW218558   6.046   1.341   6.105
 5887SOL     OW18559   3.481   6.550   2.704
 5887SOL    HW118560   3.519   6.473   2.757
 5887SOL    HW218561   3.534   6.563   2.620
 5888SOL     OW18562   6.728   6.162   2.035
 5888SOL    HW118563   6.791   6.173   2.112
 5888SOL    HW218564   6.744   6.236   1.969
 5889SOL     OW18565   2.845   6.660   0.333
 5889SOL    HW118566   2.829   6.701   0.423
 5889SOL    HW218567   2.851   6.733   0.265
 5890SOL     OW18568   3.891   5.606   6.149
 5890SOL    HW118569   3.901   5.543   6.073
 5890SOL    HW218570   3.794   5.615   6.172
 5891SOL     OW18571   1.592   3.220   6.408
 5891SOL    HW118572   1.532   3.153   6.365
 5891SOL    HW218573   1.541   3.302   6.430
 5892SOL     OW18574   2.729   5.873   2.002
 5892SOL    HW118575   2.788   5.931   1.946
 5892SOL    HW218576   2.735   5.779   1.970
 5893SOL     OW18577   1.404   2.907   2.900
 5893SOL    HW118578   1.489   2.941   2.940
 5893SOL    HW218579   1.370   2.973   2.834
 5894SOL     OW18580   1.412   3.501   3.671
 5894SOL    HW118581   1.360   3.419   3.645
 5894SOL    HW218582   1.419   3.562   3.593
 5895SOL     OW18583   5.545   4.630   2.631
 5895SOL    HW118584   5.506   4.608   2.720
 5895SOL    HW218585   5.603   4.555   2.600
 5896SOL     OW18586   4.857   1.972   5.737
 5896SOL    HW118587   4.937   2.032   5.740
 5896SOL    HW218588   4.852   1.929   5.647
 5897SOL     OW18589   4.521   4.298   1.065
 5897SOL    HW118590   4.427   4.326   1.050
 5897SOL    HW218591   4.575   4.317   0.982
 5898SOL     OW18592   1.898   6.254   2.986
 5898SOL    HW118593   1.817   6.196   2.975
 5898SOL    HW218594   1.911   6.274   3.083
 5899SOL     OW18595   5.061   0.609   3.377
 5899SOL    HW118596   5.119   0.681   3.339
 5899SOL    HW218597   5.050   0.623   3.475
 5900SOL     OW18598   3.879   4.864   1.882
 5900SOL    HW118599   3.790   4.828   1.912
 5900SOL    HW218600   3.951   4.828   1.942
 5901SOL     OW18601   2.930   6.141   4.225
 5901SOL    HW118602   2.943   6.141   4.324
 5901SOL    HW218603   2.901   6.232   4.195
 5902SOL     OW18604   6.079   2.712   0.565
 5902SOL    HW118605   5.999   2.770   0.551
 5902SOL    HW218606   6.160   2.768   0.578
 5903SOL     OW18607   0.427   2.086   6.522
 5903SOL    HW118608   0.427   2.140   6.438
 5903SOL    HW218609   0.474   1.999   6.506
 5904SOL     OW18610   1.541   3.412   2.184
 5904SOL    HW118611   1.631   3.425   2.226
 5904SOL    HW218612   1.513   3.316   2.197
 5905SOL     OW18613   0.071   3.533   2.035
 5905SOL    HW118614   0.151   3.522   2.094
 5905SOL    HW218615   0.007   3.597   2.078
 5906SOL     OW18616   6.841   0.968   3.291
 5906SOL    HW118617   6.800   0.883   3.259
 5906SOL    HW218618   6.787   1.046   3.258
 5907SOL     OW18619   2.091   1.177   3.042
 5907SOL    HW118620   2.113   1.081   3.029
 5907SOL    HW218621   2.176   1.230   3.048
 5908SOL     OW18622   0.647   3.135   5.708
 5908SOL    HW118623   0.743   3.156   5.726
 5908SOL    HW218624   0.590   3.190   5.769
 5909SOL     OW18625   6.618   4.705   6.766
 5909SOL    HW118626   6.616   4.634   6.696
 5909SOL    HW218627   6.566   4.784   6.735
 5910SOL     OW18628   1.282   1.364   3.357
 5910SOL    HW118629   1.269   1.459   3.385
 5910SOL    HW218630   1.249   1.303   3.429
 5911SOL     OW18631   6.799   6.252   0.325
 5911SOL    HW118632   6.760   6.205   0.404
 5911SOL    HW218633   6.764   6.210   0.241
 5912SOL     OW18634   0.613   0.955   3.019
 5912SOL    HW118635   0.652   0.895   2.950
 5912SOL    HW218636   0.573   1.035   2.975
 5913SOL     OW18637   6.482   2.824   1.425
 5913SOL    HW118638   6.413   2.797   1.359
 5913SOL    HW218639   6.537   2.899   1.388
 5914SOL     OW18640   1.448   0.203   0.540
 5914SOL    HW118641   1.393   0.284   0.516
 5914SOL    HW218642   1.511   0.227   0.614
 5915SOL     OW18643   3.665   0.198   5.389
 5915SOL    HW118644   3.600   0.150   5.330
 5915SOL    HW218645   3.659   0.161   5.482
 5916SOL     OW18646   1.256   0.182   2.373
 5916SOL    HW118647   1.165   0.163   2.409
 5916SOL    HW218648   1.275   0.280   2.379
 5917SOL     OW18649   3.074   3.140   0.857
 5917SOL    HW118650   3.087   3.089   0.942
 5917SOL    HW218651   3.009   3.214   0.872
 5918SOL     OW18652   3.561   6.806   4.084
 5918SOL    HW118653   3.502   6.886   4.082
 5918SOL    HW218654   3.505   6.723   4.084
 5919SOL     OW18655   3.163   4.124   4.929
 5919SOL    HW118656   3.183   4.221   4.943
 5919SOL    HW218657   3.248   4.074   4.916
 5920SOL     OW18658   1.018   0.631   5.756
 5920SOL    HW118659   1.030   0.731   5.750
 5920SOL    HW218660   1.085   0.587   5.696
 5921SOL     OW18661   2.504   5.488   0.829
 5921SOL    HW118662   2.552   5.435   0.899
 5921SOL    HW218663   2.564   5.560   0.795
 5922SOL     OW18664   5.045   2.455   2.436
 5922SOL    HW118665   4.996   2.522   2.491
 5922SOL    HW218666   5.098   2.503   2.366
 5923SOL     OW18667   5.602   0.874   2.885
 5923SOL    HW118668   5.591   0.820   2.968
 5923SOL    HW218669   5.673   0.943   2.899
 5924SOL     OW18670   6.845   6.681   3.534
 5924SOL    HW118671   6.878   6.754   3.594
 5924SOL    HW218672   6.757   6.647   3.567
 5925SOL     OW18673   4.919   1.110   0.956
 5925SOL    HW118674   4.989   1.168   0.998
 5925SOL    HW218675   4.949   1.082   0.865
 5926SOL     OW18676   5.313   3.193   2.954
 5926SOL    HW118677   5.231   3.251   2.947
 5926SOL    HW218678   5.289   3.099   2.929
 5927SOL     OW18679   0.727   6.552   1.314
 5927SOL    HW118680   0.667   6.611   1.368
 5927SOL    HW218681   0.688   6.460   1.310
 5928SOL     OW18682   2.998   0.135   0.222
 5928SOL    HW118683   3.009   0.087   0.310
 5928SOL    HW218684   2.908   0.178   0.220
 5929SOL     OW18685   1.365   0.696   1.674
 5929SOL    HW118686   1.380   0.631   1.749
 5929SOL    HW218687   1.451   0.716   1.629
 5930SOL     OW18688   1.075   4.336   1.565
 5930SOL    HW118689   1.083   4.255   1.622
 5930SOL    HW218690   1.062   4.416   1.623
 5931SOL     OW18691   4.690   5.942   4.072
 5931SOL    HW118692   4.721   6.028   4.111
 5931SOL    HW218693   4.593   5.929   4.092
 5932SOL     OW18694   3.936   5.808   0.412
 5932SOL    HW118695   3.859   5.838   0.355
 5932SOL    HW218696   4.019   5.856   0.384
 5933SOL     OW18697   6.774   5.766   4.278
 5933SOL    HW118698   6.844   5.805   4.218
 5933SOL    HW218699   6.803   5.777   4.373
 5934SOL     OW18700   3.263   4.090   0.145
 5934SOL    HW118701   3.223   4.179   0.167
 5934SOL    HW218702   3.197   4.018   0.167
 5935SOL     OW18703   1.297   0.309   5.580
 5935SOL    HW118704   1.250   0.397   5.583
 5935SOL    HW218705   1.378   0.316   5.521
 5936SOL     OW18706   3.540   2.808   2.077
 5936SOL    HW118707   3.568   2.756   2.158
 5936SOL    HW218708   3.601   2.887   2.066
 5937SOL     OW18709   0.678   3.018   0.505
 5937SOL    HW118710   0.631   2.942   0.550
 5937SOL    HW218711   0.740   3.062   0.570
 5938SOL     OW18712   1.179   3.220   4.629
 5938SOL    HW118713   1.210   3.273   4.550
 5938SOL    HW218714   1.162   3.282   4.706
 5939SOL     OW18715   4.897   0.762   5.826
 5939SOL    HW118716   4.842   0.680   5.806
 5939SOL    HW218717   4.837   0.841   5.832
 5940SOL     OW18718   5.225   4.949   1.111
 5940SOL    HW118719   5.291   4.953   1.185
 5940SOL    HW218720   5.133   4.966   1.147
 5941SOL     OW18721   0.836   1.651   3.515
 5941SOL    HW118722   0.923   1.694   3.493
 5941SOL    HW218723   0.784   1.711   3.576
 5942SOL     OW18724   4.987   2.196   6.247
 5942SOL    HW118725   4.937   2.110   6.251
 5942SOL    HW218726   5.077   2.181   6.205
 5943SOL     OW18727   2.122   4.694   1.889
 5943SOL    HW118728   2.207   4.676   1.938
 5943SOL    HW218729   2.143   4.721   1.794
 5944SOL     OW18730   6.515   3.733   5.952
 5944SOL    HW118731   6.418   3.754   5.958
 5944SOL    HW218732   6.565   3.817   5.929
 5945SOL     OW18733   0.125   6.475   4.241
 5945SOL    HW118734   0.131   6.513   4.149
 5945SOL    HW218735   0.063   6.531   4.296
 5946SOL     OW18736   2.968   2.819   6.947
 5946SOL    HW118737   3.017   2.906   6.954
 5946SOL    HW218738   2.959   2.793   6.851
 5947SOL     OW18739   3.270   3.269   4.791
 5947SOL    HW118740   3.235   3.178   4.810
 5947SOL    HW218741   3.215   3.337   4.839
 5948SOL     OW18742   4.713   4.079   1.541
 5948SOL    HW118743   4.769   4.018   1.484
 5948SOL    HW218744   4.657   4.023   1.603
 5949SOL     OW18745   0.988   4.252   4.064
 5949SOL    HW118746   0.910   4.234   4.003
 5949SOL    HW218747   0.954   4.266   4.157
 5950SOL     OW18748   2.491   6.914   4.881
 5950SOL    HW118749   2.523   6.917   4.976
 5950SOL    HW218750   2.392   6.899   4.880
 5951SOL     OW18751   6.828   2.825   6.273
 5951SOL    HW118752   6.808   2.846   6.177
 5951SOL    HW218753   6.747   2.782   6.315
 5952SOL     OW18754   3.755   4.201   1.721
 5952SOL    HW118755   3.740   4.102   1.723
 5952SOL    HW218756   3.666   4.248   1.717
 5953SOL     OW18757   6.776   2.521   0.016
 5953SOL    HW118758   6.799   2.544   6.947
 5953SOL    HW218759   6.855   2.541   0.075
 5954SOL     OW18760   1.931   5.050   3.972
 5954SOL    HW118761   1.833   5.043   3.989
 5954SOL    HW218762   1.949   5.033   3.875
 5955SOL     OW18763   3.912   2.958   0.352
 5955SOL    HW118764   3.842   2.918   0.293
 5955SOL    HW218765   3.869   3.005   0.429
 5956SOL     OW18766   4.330   2.505   6.334
 5956SOL    HW118767   4.382   2.497   6.419
 5956SOL    HW218768   4.385   2.552   6.265
 5957SOL     OW18769   6.765   2.064   3.750
 5957SOL    HW118770   6.712   1.991   3.792
 5957SOL    HW218771   6.799   2.126   3.821
 5958SOL     OW18772   2.598   6.079   2.483
 5958SOL    HW118773   2.505   6.073   2.518
 5958SOL    HW218774   2.607   6.021   2.402
 5959SOL     OW18775   5.076   4.001   2.940
 5959SOL    HW118776   5.083   4.092   2.900
 5959SOL    HW218777   5.148   3.942   2.902
 5960SOL     OW18778   5.971   0.260   6.422
 5960SOL    HW118779   5.876   0.240   6.449
 5960SOL    HW218780   5.971   0.330   6.350
 5961SOL     OW18781   2.772   2.051   4.088
 5961SOL    HW118782   2.677   2.022   4.099
 5961SOL    HW218783   2.777   2.123   4.019
 5962SOL     OW18784   4.855   4.498   0.507
 5962SOL    HW118785   4.864   4.597   0.512
 5962SOL    HW218786   4.862   4.468   0.412
 5963SOL     OW18787   1.586   4.073   0.218
 5963SOL    HW118788   1.554   3.980   0.201
 5963SOL    HW218789   1.686   4.074   0.220
 5964SOL     OW18790   1.634   0.038   2.938
 5964SOL    HW118791   1.621   0.000   2.846
 5964SOL    HW218792   1.729   0.069   2.948
 5965SOL     OW18793   2.376   0.680   1.266
 5965SOL    HW118794   2.286   0.687   1.310
 5965SOL    HW218795   2.378   0.739   1.186
 5966SOL     OW18796   2.962   1.577   4.791
 5966SOL    HW118797   2.919   1.487   4.789
 5966SOL    HW218798   2.994   1.597   4.883
 5967SOL     OW18799   4.484   2.491   5.206
 5967SOL    HW118800   4.441   2.577   5.232
 5967SOL    HW218801   4.451   2.417   5.265
 5968SOL     OW18802   6.424   1.924   3.322
 5968SOL    HW118803   6.328   1.943   3.346
 5968SOL    HW218804   6.439   1.826   3.320
 5969SOL     OW18805   5.118   6.698   1.345
 5969SOL    HW118806   5.211   6.732   1.351
 5969SOL    HW218807   5.081   6.715   1.253
 5970SOL     OW18808   6.226   2.581   0.352
 5970SOL    HW118809   6.194   2.561   0.260
 5970SOL    HW218810   6.159   2.639   0.399
 5971SOL     OW18811   6.430   5.491   3.903
 5971SOL    HW118812   6.471   5.428   3.837
 5971SOL    HW218813   6.336   5.511   3.876
 5972SOL     OW18814   5.696   4.977   0.681
 5972SOL    HW118815   5.675   4.919   0.760
 5972SOL    HW218816   5.624   5.045   0.669
 5973SOL     OW18817   3.726   0.859   2.417
 5973SOL    HW118818   3.670   0.923   2.470
 5973SOL    HW218819   3.823   0.876   2.437
 5974SOL     OW18820   5.518   1.163   4.642
 5974SOL    HW118821   5.581   1.086   4.636
 5974SOL    HW218822   5.533   1.212   4.727
 5975SOL     OW18823   3.731   4.911   0.942
 5975SOL    HW118824   3.760   4.910   0.846
 5975SOL    HW218825   3.807   4.883   1.000
 5976SOL     OW18826   1.676   3.273   6.066
 5976SOL    HW118827   1.656   3.294   5.971
 5976SOL    HW218828   1.766   3.307   6.090
 5977SOL     OW18829   0.392   5.425   1.303
 5977SOL    HW118830   0.361   5.360   1.234
 5977SOL    HW218831   0.492   5.425   1.307
 5978SOL     OW18832   2.960   3.694   5.984
 5978SOL    HW118833   2.921   3.610   5.945
 5978SOL    HW218834   3.050   3.674   6.022
 5979SOL     OW18835   5.884   0.368   1.045
 5979SOL    HW118836   5.789   0.350   1.021
 5979SOL    HW218837   5.944   0.318   0.983
 5980SOL     OW18838   3.471   2.830   1.185
 5980SOL    HW118839   3.434   2.770   1.114
 5980SOL    HW218840   3.434   2.803   1.274
 5981SOL     OW18841   3.151   2.794   0.734
 5981SOL    HW118842   3.153   2.835   0.644
 5981SOL    HW218843   3.168   2.695   0.726
 5982SOL     OW18844   5.664   2.501   1.080
 5982SOL    HW118845   5.720   2.466   1.155
 5982SOL    HW218846   5.624   2.424   1.030
 5983SOL     OW18847   6.825   1.488   3.746
 5983SOL    HW118848   6.732   1.493   3.709
 5983SOL    HW218849   6.876   1.569   3.716
 5984SOL     OW18850   6.023   6.450   2.722
 5984SOL    HW118851   6.114   6.408   2.724
 5984SOL    HW218852   5.972   6.423   2.804
 5985SOL     OW18853   6.323   4.685   2.750
 5985SOL    HW118854   6.231   4.647   2.755
 5985SOL    HW218855   6.318   4.783   2.729
 5986SOL     OW18856   3.846   3.007   2.795
 5986SOL    HW118857   3.833   3.106   2.804
 5986SOL    HW218858   3.881   2.986   2.704
 5987SOL     OW18859   6.990   6.162   4.416
 5987SOL    HW118860   0.058   6.128   4.405
 5987SOL    HW218861   6.978   6.244   4.360
 5988SOL     OW18862   1.315   2.159   0.184
 5988SOL    HW118863   1.350   2.149   0.090
 5988SOL    HW218864   1.391   2.160   0.248
 5989SOL     OW18865   2.376   6.420   5.559
 5989SOL    HW118866   2.280   6.435   5.536
 5989SOL    HW218867   2.400   6.324   5.545
 5990SOL     OW18868   2.403   3.929   1.702
 5990SOL    HW118869   2.383   4.014   1.750
 5990SOL    HW218870   2.456   3.949   1.620
 5991SOL     OW18871   5.295   1.461   0.574
 5991SOL    HW118872   5.379   1.417   0.545
 5991SOL    HW218873   5.248   1.403   0.641
 5992SOL     OW18874   2.535   4.719   3.496
 5992SOL    HW118875   2.448   4.768   3.506
 5992SOL    HW218876   2.574   4.701   3.587
 5993SOL     OW18877   5.564   2.592   0.150
 5993SOL    HW118878   5.484   2.652   0.136
 5993SOL    HW218879   5.622   2.631   0.221
 5994SOL     OW18880   0.184   4.714   0.588
 5994SOL    HW118881   0.204   4.654   0.666
 5994SOL    HW218882   0.096   4.689   0.549
 5995SOL     OW18883   5.568   3.427   0.740
 5995SOL    HW118884   5.497   3.493   0.715
 5995SOL    HW218885   5.647   3.439   0.678
 5996SOL     OW18886   2.364   0.543   2.158
 5996SOL    HW118887   2.317   0.458   2.182
 5996SOL    HW218888   2.341   0.614   2.224
 5997SOL     OW18889   6.400   0.185   4.609
 5997SOL    HW118890   6.390   0.207   4.512
 5997SOL    HW218891   6.484   0.227   4.644
 5998SOL     OW18892   5.908   6.148   5.988
 5998SOL    HW118893   5.952   6.236   5.976
 5998SOL    HW218894   5.976   6.075   5.980
 5999SOL     OW18895   5.388   3.414   1.120
 5999SOL    HW118896   5.457   3.486   1.129
 5999SOL    HW218897   5.408   3.357   1.041
 6000SOL     OW18898   1.134   4.590   1.730
 6000SOL    HW118899   1.233   4.583   1.719
 6000SOL    HW218900   1.108   4.686   1.738
 6001SOL     OW18901   7.007   6.005   5.579
 6001SOL    HW118902   6.940   5.945   5.536
 6001SOL    HW218903   6.961   6.069   5.640
 6002SOL     OW18904   5.521   4.267   5.174
 6002SOL    HW118905   5.458   4.241   5.101
 6002SOL    HW218906   5.483   4.345   5.224
 6003SOL     OW18907   2.732   1.577   5.413
 6003SOL    HW118908   2.807   1.643   5.410
 6003SOL    HW218909   2.658   1.608   5.353
 6004SOL     OW18910   5.763   3.261   5.262
 6004SOL    HW118911   5.771   3.178   5.207
 6004SOL    HW218912   5.851   3.279   5.308
 6005SOL     OW18913   3.958   4.135   0.639
 6005SOL    HW118914   4.039   4.140   0.580
 6005SOL    HW218915   3.978   4.178   0.727
 6006SOL     OW18916   3.141   6.159   6.508
 6006SOL    HW118917   3.091   6.157   6.594
 6006SOL    HW218918   3.101   6.091   6.446
 6007SOL     OW18919   2.712   6.593   4.614
 6007SOL    HW118920   2.665   6.543   4.687
 6007SOL    HW218921   2.808   6.608   4.641
 6008SOL     OW18922   2.239   3.991   6.700
 6008SOL    HW118923   2.223   4.031   6.791
 6008SOL    HW218924   2.324   3.938   6.702
 6009SOL     OW18925   2.686   5.609   3.152
 6009SOL    HW118926   2.742   5.561   3.219
 6009SOL    HW218927   2.718   5.587   3.060
 6010SOL     OW18928   7.000   5.145   5.661
 6010SOL    HW118929   0.027   5.087   5.599
 6010SOL    HW218930   6.932   5.197   5.609
 6011SOL     OW18931   5.517   1.642   2.853
 6011SOL    HW118932   5.433   1.592   2.834
 6011SOL    HW218933   5.503   1.740   2.835
 6012SOL     OW18934   6.691   0.976   6.062
 6012SOL    HW118935   6.744   1.059   6.046
 6012SOL    HW218936   6.635   0.956   5.981
 6013SOL     OW18937   5.677   1.506   2.462
 6013SOL    HW118938   5.588   1.490   2.505
 6013SOL    HW218939   5.706   1.422   2.416
 6014SOL     OW18940   3.828   3.279   4.050
 6014SOL    HW118941   3.782   3.254   4.135
 6014SOL    HW218942   3.775   3.243   3.972
 6015SOL     OW18943   6.457   0.115   3.728
 6015SOL    HW118944   6.457   0.213   3.709
 6015SOL    HW218945   6.525   0.095   3.799
 6016SOL     OW18946   4.448   2.247   4.765
 6016SOL    HW118947   4.433   2.310   4.841
 6016SOL    HW218948   4.395   2.163   4.780
 6017SOL     OW18949   1.536   1.715   5.216
 6017SOL    HW118950   1.515   1.792   5.156
 6017SOL    HW218951   1.615   1.738   5.273
 6018SOL     OW18952   2.274   1.490   3.575
 6018SOL    HW118953   2.267   1.482   3.674
 6018SOL    HW218954   2.316   1.577   3.551
 6019SOL     OW18955   6.738   4.004   5.927
 6019SOL    HW118956   6.728   4.025   5.830
 6019SOL    HW218957   6.747   4.089   5.979
 6020SOL     OW18958   0.754   5.465   5.114
 6020SOL    HW118959   0.763   5.547   5.171
 6020SOL    HW218960   0.691   5.484   5.039
 6021SOL     OW18961   5.036   0.341   3.259
 6021SOL    HW118962   4.945   0.336   3.218
 6021SOL    HW218963   5.038   0.416   3.325
 6022SOL     OW18964   6.772   3.063   1.775
 6022SOL    HW118965   6.691   3.009   1.799
 6022SOL    HW218966   6.840   3.005   1.732
 6023SOL     OW18967   4.439   6.683   2.486
 6023SOL    HW118968   4.409   6.734   2.405
 6023SOL    HW218969   4.480   6.596   2.458
 6024SOL     OW18970   0.606   6.354   0.091
 6024SOL    HW118971   0.629   6.395   0.180
 6024SOL    HW218972   0.537   6.410   0.046
 6025SOL     OW18973   3.304   0.470   5.852
 6025SOL    HW118974   3.316   0.538   5.924
 6025SOL    HW218975   3.314   0.378   5.892
 6026SOL     OW18976   5.696   5.848   3.592
 6026SOL    HW118977   5.705   5.948   3.600
 6026SOL    HW218978   5.726   5.819   3.501
 6027SOL     OW18979   5.970   4.549   6.026
 6027SOL    HW118980   5.943   4.454   6.007
 6027SOL    HW218981   5.945   4.573   6.119
 6028SOL     OW18982   5.985   5.741   6.168
 6028SOL    HW118983   6.055   5.724   6.099
 6028SOL    HW218984   5.990   5.673   6.240
 6029SOL     OW18985   2.785   1.903   2.898
 6029SOL    HW118986   2.765   1.921   2.802
 6029SOL    HW218987   2.728   1.829   2.931
 6030SOL     OW18988   5.655   3.158   4.391
 6030SOL    HW118989   5.728   3.140   4.456
 6030SOL    HW218990   5.607   3.073   4.370
 6031SOL     OW18991   6.976   6.883   3.705
 6031SOL    HW118992   0.011   6.803   3.708
 6031SOL    HW218993   0.000   6.964   3.733
 6032SOL     OW18994   3.159   6.860   3.412
 6032SOL    HW118995   3.114   6.933   3.362
 6032SOL    HW218996   3.253   6.851   3.379
 6033SOL     OW18997   0.884   1.494   2.708
 6033SOL    HW118998   0.847   1.564   2.768
 6033SOL    HW218999   0.983   1.486   2.723
 6034SOL     OW19000   0.713   0.807   0.459
 6034SOL    HW119001   0.804   0.849   0.457
 6034SOL    HW219002   0.689   0.783   0.553
 6035SOL     OW19003   2.018   0.975   2.551
 6035SOL    HW119004   1.957   1.053   2.537
 6035SOL    HW219005   1.962   0.894   2.573
 6036SOL     OW19006   6.847   3.427   0.475
 6036SOL    HW119007   6.913   3.457   0.405
 6036SOL    HW219008   6.757   3.466   0.454
 6037SOL     OW19009   4.698   0.616   6.396
 6037SOL    HW119010   4.732   0.553   6.466
 6037SOL    HW219011   4.629   0.570   6.340
 6038SOL     OW19012   1.763   1.416   6.600
 6038SOL    HW119013   1.825   1.349   6.640
 6038SOL    HW219014   1.675   1.372   6.578
 6039SOL     OW19015   3.565   2.902   4.145
 6039SOL    HW119016   3.531   2.994   4.127
 6039SOL    HW219017   3.596   2.860   4.060
 6040SOL     OW19018   0.259   1.742   0.203
 6040SOL    HW119019   0.328   1.708   0.266
 6040SOL    HW219020   0.276   1.839   0.184
 6041SOL     OW19021   1.069   2.945   5.092
 6041SOL    HW119022   1.121   3.003   5.030
 6041SOL    HW219023   1.054   2.856   5.050
 6042SOL     OW19024   2.323   6.341   4.035
 6042SOL    HW119025   2.295   6.273   3.967
 6042SOL    HW219026   2.412   6.316   4.073
 6043SOL     OW19027   2.359   5.886   2.147
 6043SOL    HW119028   2.382   5.887   2.050
 6043SOL    HW219029   2.286   5.951   2.165
 6044SOL     OW19030   6.974   3.242   0.639
 6044SOL    HW119031   6.953   3.321   0.582
 6044SOL    HW219032   0.044   3.216   0.625
 6045SOL     OW19033   5.101   1.295   4.354
 6045SOL    HW119034   5.091   1.307   4.256
 6045SOL    HW219035   5.076   1.201   4.379
 6046SOL     OW19036   3.761   3.735   2.890
 6046SOL    HW119037   3.780   3.659   2.828
 6046SOL    HW219038   3.708   3.805   2.842
 6047SOL     OW19039   0.099   1.338   0.163
 6047SOL    HW119040   0.074   1.382   0.077
 6047SOL    HW219041   0.166   1.266   0.146
 6048SOL     OW19042   5.819   5.405   3.002
 6048SOL    HW119043   5.735   5.385   3.052
 6048SOL    HW219044   5.870   5.320   2.987
 6049SOL     OW19045   4.981   5.141   6.101
 6049SOL    HW119046   4.915   5.095   6.041
 6049SOL    HW219047   4.992   5.236   6.071
 6050SOL     OW19048   2.577   5.342   3.209
 6050SOL    HW119049   2.672   5.310   3.201
 6050SOL    HW219050   2.571   5.436   3.175
 6051SOL     OW19051   0.772   1.152   2.229
 6051SOL    HW119052   0.859   1.168   2.276
 6051SOL    HW219053   0.710   1.228   2.247
 6052SOL     OW19054   5.684   5.877   6.949
 6052SOL    HW119055   5.588   5.887   6.923
 6052SOL    HW219056   5.720   5.794   6.906
 6053SOL     OW19057   3.693   2.400   5.844
 6053SOL    HW119058   3.664   2.312   5.882
 6053SOL    HW219059   3.690   2.396   5.744
 6054SOL     OW19060   4.130   3.633   0.210
 6054SOL    HW119061   4.168   3.542   0.193
 6054SOL    HW219062   4.077   3.632   0.295
 6055SOL     OW19063   2.999   4.846   1.588
 6055SOL    HW119064   3.015   4.847   1.489
 6055SOL    HW219065   3.086   4.863   1.635
 6056SOL     OW19066   5.033   6.123   2.834
 6056SOL    HW119067   5.036   6.025   2.814
 6056SOL    HW219068   5.029   6.138   2.932
 6057SOL     OW19069   5.724   1.254   4.098
 6057SOL    HW119070   5.707   1.320   4.024
 6057SOL    HW219071   5.700   1.295   4.186
 6058SOL     OW19072   0.098   2.365   5.859
 6058SOL    HW119073   0.050   2.355   5.947
 6058SOL    HW219074   0.129   2.275   5.828
 6059SOL     OW19075   3.984   2.000   6.995
 6059SOL    HW119076   3.970   2.067   6.922
 6059SOL    HW219077   4.080   1.999   7.022
 6060SOL     OW19078   1.701   2.831   1.057
 6060SOL    HW119079   1.675   2.859   0.965
 6060SOL    HW219080   1.624   2.785   1.101
 6061SOL     OW19081   2.603   4.513   6.497
 6061SOL    HW119082   2.519   4.480   6.540
 6061SOL    HW219083   2.657   4.564   6.565
 6062SOL     OW19084   2.315   2.003   5.978
 6062SOL    HW119085   2.313   1.903   5.980
 6062SOL    HW219086   2.390   2.033   5.919
 6063SOL     OW19087   4.719   4.108   6.244
 6063SOL    HW119088   4.668   4.163   6.177
 6063SOL    HW219089   4.753   4.025   6.200
 6064SOL     OW19090   5.709   6.219   0.771
 6064SOL    HW119091   5.647   6.242   0.846
 6064SOL    HW219092   5.657   6.213   0.686
 6065SOL     OW19093   2.047   5.864   1.497
 6065SOL    HW119094   2.131   5.907   1.462
 6065SOL    HW219095   2.063   5.766   1.508
 6066SOL     OW19096   6.278   5.906   2.150
 6066SOL    HW119097   6.243   5.853   2.227
 6066SOL    HW219098   6.213   5.901   2.074
 6067SOL     OW19099   0.249   5.238   5.424
 6067SOL    HW119100   0.218   5.143   5.410
 6067SOL    HW219101   0.307   5.266   5.347
 6068SOL     OW19102   4.170   1.660   4.180
 6068SOL    HW119103   4.162   1.751   4.219
 6068SOL    HW219104   4.187   1.667   4.082
 6069SOL     OW19105   0.271   5.069   5.083
 6069SOL    HW119106   0.327   5.128   5.024
 6069SOL    HW219107   0.330   5.021   5.147
 6070SOL     OW19108   2.939   0.855   0.818
 6070SOL    HW119109   2.899   0.810   0.738
 6070SOL    HW219110   2.926   0.798   0.899
 6071SOL     OW19111   5.564   0.289   6.181
 6071SOL    HW119112   5.609   0.266   6.268
 6071SOL    HW219113   5.632   0.287   6.108
 6072SOL     OW19114   6.835   2.959   0.505
 6072SOL    HW119115   6.803   3.039   0.456
 6072SOL    HW219116   6.786   2.952   0.592
 6073SOL     OW19117   4.914   3.980   0.854
 6073SOL    HW119118   4.916   4.025   0.764
 6073SOL    HW219119   4.976   4.026   0.916
 6074SOL     OW19120   1.309   6.172   2.640
 6074SOL    HW119121   1.222   6.124   2.630
 6074SOL    HW219122   1.303   6.261   2.593
 6075SOL     OW19123   6.341   6.962   6.818
 6075SOL    HW119124   6.433   6.970   6.856
 6075SOL    HW219125   6.337   6.882   6.758
 6076SOL     OW19126   0.454   6.685   3.780
 6076SOL    HW119127   0.460   6.590   3.750
 6076SOL    HW219128   0.430   6.688   3.877
 6077SOL     OW19129   5.161   6.191   2.585
 6077SOL    HW119130   5.118   6.279   2.566
 6077SOL    HW219131   5.143   6.165   2.680
 6078SOL     OW19132   5.199   4.375   6.966
 6078SOL    HW119133   5.139   4.435   6.915
 6078SOL    HW219134   5.286   4.364   6.917
 6079SOL     OW19135   3.308   1.776   0.320
 6079SOL    HW119136   3.285   1.850   0.383
 6079SOL    HW219137   3.344   1.814   0.235
 6080SOL     OW19138   0.259   3.121   5.418
 6080SOL    HW119139   0.180   3.114   5.479
 6080SOL    HW219140   0.265   3.214   5.381
 6081SOL     OW19141   2.186   3.990   4.238
 6081SOL    HW119142   2.250   4.020   4.309
 6081SOL    HW219143   2.108   4.053   4.235
 6082SOL     OW19144   5.016   1.129   1.550
 6082SOL    HW119145   5.066   1.193   1.608
 6082SOL    HW219146   5.080   1.078   1.492
 6083SOL     OW19147   5.410   6.607   6.465
 6083SOL    HW119148   5.506   6.623   6.484
 6083SOL    HW219149   5.390   6.631   6.370
 6084SOL     OW19150   6.330   5.460   3.293
 6084SOL    HW119151   6.243   5.499   3.320
 6084SOL    HW219152   6.365   5.400   3.366
 6085SOL     OW19153   0.518   6.748   1.062
 6085SOL    HW119154   0.440   6.692   1.092
 6085SOL    HW219155   0.531   6.736   0.964
 6086SOL     OW19156   3.815   3.327   0.657
 6086SOL    HW119157   3.753   3.373   0.721
 6086SOL    HW219158   3.877   3.268   0.708
 6087SOL     OW19159   4.199   0.166   0.788
 6087SOL    HW119160   4.196   0.181   0.689
 6087SOL    HW219161   4.163   0.247   0.835
 6088SOL     OW19162   4.287   5.776   1.927
 6088SOL    HW119163   4.375   5.768   1.974
 6088SOL    HW219164   4.261   5.688   1.889
 6089SOL     OW19165   6.123   4.709   3.313
 6089SOL    HW119166   6.033   4.702   3.357
 6089SOL    HW219167   6.116   4.680   3.218
 6090SOL     OW19168   3.813   5.998   5.072
 6090SOL    HW119169   3.795   6.089   5.110
 6090SOL    HW219170   3.747   5.980   4.998
 6091SOL     OW19171   0.993   2.504   2.861
 6091SOL    HW119172   1.056   2.558   2.917
 6091SOL    HW219173   0.962   2.424   2.913
 6092SOL     OW19174   2.056   6.802   1.252
 6092SOL    HW119175   2.095   6.768   1.337
 6092SOL    HW219176   2.120   6.866   1.209
 6093SOL     OW19177   3.099   2.818   1.594
 6093SOL    HW119178   3.057   2.903   1.625
 6093SOL    HW219179   3.032   2.743   1.601
 6094SOL     OW19180   1.216   0.089   5.736
 6094SOL    HW119181   1.245   0.170   5.685
 6094SOL    HW219182   1.286   0.064   5.803
 6095SOL     OW19183   5.355   5.192   2.137
 6095SOL    HW119184   5.421   5.117   2.129
 6095SOL    HW219185   5.392   5.274   2.093
 6096SOL     OW19186   4.897   6.041   2.512
 6096SOL    HW119187   4.937   6.105   2.578
 6096SOL    HW219188   4.888   6.087   2.423
 6097SOL     OW19189   2.519   5.219   2.269
 6097SOL    HW119190   2.437   5.177   2.230
 6097SOL    HW219191   2.499   5.314   2.294
 6098SOL     OW19192   5.693   1.129   5.307
 6098SOL    HW119193   5.664   1.199   5.241
 6098SOL    HW219194   5.692   1.168   5.399
 6099SOL     OW19195   3.850   6.814   5.397
 6099SOL    HW119196   3.853   6.914   5.407
 6099SOL    HW219197   3.909   6.773   5.466
 6100SOL     OW19198   0.192   5.843   5.399
 6100SOL    HW119199   0.259   5.916   5.400
 6100SOL    HW219200   0.117   5.865   5.461
 6101SOL     OW19201   0.704   2.762   1.505
 6101SOL    HW119202   0.708   2.791   1.601
 6101SOL    HW219203   0.608   2.747   1.479
 6102SOL     OW19204   3.146   0.092   2.771
 6102SOL    HW119205   3.086   0.152   2.822
 6102SOL    HW219206   3.123   7.022   2.790
 6103SOL     OW19207   5.382   1.032   2.297
 6103SOL    HW119208   5.380   1.120   2.250
 6103SOL    HW219209   5.289   1.006   2.324
 6104SOL     OW19210   6.598   0.451   4.879
 6104SOL    HW119211   6.504   0.417   4.885
 6104SOL    HW219212   6.597   0.549   4.860
 6105SOL     OW19213   3.954   4.476   5.597
 6105SOL    HW119214   4.009   4.416   5.656
 6105SOL    HW219215   3.969   4.452   5.501
 6106SOL     OW19216   6.330   3.805   4.770
 6106SOL    HW119217   6.373   3.756   4.694
 6106SOL    HW219218   6.237   3.771   4.784
 6107SOL     OW19219   5.777   4.677   4.981
 6107SOL    HW119220   5.706   4.663   4.912
 6107SOL    HW219221   5.860   4.628   4.954
 6108SOL     OW19222   3.256   1.087   6.094
 6108SOL    HW119223   3.213   0.998   6.108
 6108SOL    HW219224   3.276   1.100   5.997
 6109SOL     OW19225   0.058   6.526   3.963
 6109SOL    HW119226   7.003   6.564   3.918
 6109SOL    HW219227   0.082   6.439   3.921
 6110SOL     OW19228   1.268   1.754   3.764
 6110SOL    HW119229   1.355   1.802   3.773
 6110SOL    HW219230   1.281   1.671   3.710
 6111SOL     OW19231   2.532   2.982   0.714
 6111SOL    HW119232   2.596   3.026   0.651
 6111SOL    HW219233   2.584   2.933   0.784
 6112SOL     OW19234   4.706   6.264   3.620
 6112SOL    HW119235   4.788   6.298   3.574
 6112SOL    HW219236   4.718   6.167   3.642
 6113SOL     OW19237   3.026   5.530   0.875
 6113SOL    HW119238   3.038   5.629   0.864
 6113SOL    HW219239   3.116   5.486   0.872
 6114SOL     OW19240   4.774   3.408   1.773
 6114SOL    HW119241   4.829   3.381   1.694
 6114SOL    HW219242   4.678   3.414   1.747
 6115SOL     OW19243   6.494   0.693   5.256
 6115SOL    HW119244   6.548   0.746   5.190
 6115SOL    HW219245   6.443   0.756   5.315
 6116SOL     OW19246   6.336   3.438   0.057
 6116SOL    HW119247   6.394   3.376   0.110
 6116SOL    HW219248   6.243   3.400   0.051
 6117SOL     OW19249   2.143   2.458   1.355
 6117SOL    HW119250   2.175   2.434   1.263
 6117SOL    HW219251   2.129   2.374   1.408
 6118SOL     OW19252   5.894   0.979   1.863
 6118SOL    HW119253   5.988   0.948   1.849
 6118SOL    HW219254   5.838   0.952   1.784
 6119SOL     OW19255   0.381   1.303   6.333
 6119SOL    HW119256   0.423   1.314   6.423
 6119SOL    HW219257   0.367   1.206   6.315
 6120SOL     OW19258   2.921   0.760   3.877
 6120SOL    HW119259   2.980   0.698   3.826
 6120SOL    HW219260   2.949   0.762   3.973
 6121SOL     OW19261   2.465   1.569   5.040
 6121SOL    HW119262   2.487   1.594   4.946
 6121SOL    HW219263   2.459   1.469   5.047
 6122SOL     OW19264   4.788   4.670   4.797
 6122SOL    HW119265   4.845   4.730   4.853
 6122SOL    HW219266   4.708   4.642   4.850
 6123SOL     OW19267   6.552   1.323   5.142
 6123SOL    HW119268   6.639   1.300   5.099
 6123SOL    HW219269   6.533   1.420   5.128
 6124SOL     OW19270   2.548   6.594   4.051
 6124SOL    HW119271   2.553   6.499   4.023
 6124SOL    HW219272   2.495   6.602   4.136
 6125SOL     OW19273   3.622   1.327   5.133
 6125SOL    HW119274   3.539   1.275   5.113
 6125SOL    HW219275   3.686   1.269   5.184
 6126SOL     OW19276   5.871   2.703   6.561
 6126SOL    HW119277   5.795   2.768   6.552
 6126SOL    HW219278   5.903   2.702   6.656
 6127SOL     OW19279   6.128   1.983   2.723
 6127SOL    HW119280   6.201   2.018   2.781
 6127SOL    HW219281   6.080   2.059   2.679
 6128SOL     OW19282   5.952   5.789   5.689
 6128SOL    HW119283   5.894   5.707   5.680
 6128SOL    HW219284   6.029   5.768   5.748
 6129SOL     OW19285   2.269   5.652   3.005
 6129SOL    HW119286   2.231   5.625   3.093
 6129SOL    HW219287   2.211   5.617   2.931
 6130SOL     OW19288   5.810   3.320   0.341
 6130SOL    HW119289   5.721   3.286   0.310
 6130SOL    HW219290   5.863   3.245   0.379
 6131SOL     OW19291   6.516   2.637   3.100
 6131SOL    HW119292   6.468   2.725   3.110
 6131SOL    HW219293   6.498   2.600   3.008
 6132SOL     OW19294   4.407   6.348   6.309
 6132SOL    HW119295   4.340   6.317   6.376
 6132SOL    HW219296   4.497   6.310   6.332
 6133SOL     OW19297   0.598   2.198   3.265
 6133SOL    HW119298   0.582   2.219   3.362
 6133SOL    HW219299   0.538   2.255   3.209
 6134SOL     OW19300   0.120   6.555   5.492
 6134SOL    HW119301   0.198   6.567   5.431
 6134SOL    HW219302   0.089   6.460   5.488
 6135SOL     OW19303   6.081   6.459   0.371
 6135SOL    HW119304   6.153   6.434   0.436
 6135SOL    HW219305   6.058   6.380   0.314
 6136SOL     OW19306   1.190   2.033   3.513
 6136SOL    HW119307   1.258   2.101   3.485
 6136SOL    HW219308   1.099   2.075   3.510
 6137SOL     OW19309   6.584   5.101   0.967
 6137SOL    HW119310   6.536   5.098   0.879
 6137SOL    HW219311   6.610   5.008   0.994
 6138SOL     OW19312   5.592   0.829   1.910
 6138SOL    HW119313   5.670   0.797   1.857
 6138SOL    HW219314   5.508   0.815   1.858
 6139SOL     OW19315   1.622   2.189   4.954
 6139SOL    HW119316   1.575   2.225   4.873
 6139SOL    HW219317   1.718   2.217   4.952
 6140SOL     OW19318   2.074   0.440   3.369
 6140SOL    HW119319   2.044   0.493   3.448
 6140SOL    HW219320   2.098   0.347   3.398
 6141SOL     OW19321   0.960   0.703   0.210
 6141SOL    HW119322   1.032   0.663   0.154
 6141SOL    HW219323   0.916   0.631   0.264
 6142SOL     OW19324   0.310   0.430   1.534
 6142SOL    HW119325   0.275   0.340   1.508
 6142SOL    HW219326   0.267   0.500   1.477
 6143SOL     OW19327   0.865   3.238   5.447
 6143SOL    HW119328   0.864   3.249   5.546
 6143SOL    HW219329   0.942   3.180   5.420
 6144SOL     OW19330   3.392   5.524   2.730
 6144SOL    HW119331   3.438   5.601   2.685
 6144SOL    HW219332   3.455   5.481   2.795
 6145SOL     OW19333   4.846   3.229   4.046
 6145SOL    HW119334   4.829   3.130   4.046
 6145SOL    HW219335   4.938   3.247   4.011
 6146SOL     OW19336   5.932   0.469   5.602
 6146SOL    HW119337   6.009   0.442   5.660
 6146SOL    HW219338   5.865   0.395   5.598
 6147SOL     OW19339   1.219   1.981   5.808
 6147SOL    HW119340   1.316   1.958   5.815
 6147SOL    HW219341   1.209   2.080   5.794
 6148SOL     OW19342   3.886   4.896   0.088
 6148SOL    HW119343   3.966   4.866   0.036
 6148SOL    HW219344   3.907   4.891   0.186
 6149SOL     OW19345   3.782   1.903   1.423
 6149SOL    HW119346   3.760   1.880   1.518
 6149SOL    HW219347   3.754   1.997   1.404
 6150SOL     OW19348   0.329   4.847   4.441
 6150SOL    HW119349   0.420   4.873   4.407
 6150SOL    HW219350   0.299   4.913   4.509
 6151SOL     OW19351   3.921   5.199   2.933
 6151SOL    HW119352   3.862   5.279   2.928
 6151SOL    HW219353   3.869   5.121   2.968
 6152SOL     OW19354   0.842   3.577   2.920
 6152SOL    HW119355   0.770   3.636   2.956
 6152SOL    HW219356   0.930   3.604   2.958
 6153SOL     OW19357   4.972   6.396   1.045
 6153SOL    HW119358   4.962   6.493   1.021
 6153SOL    HW219359   4.905   6.342   0.995
 6154SOL     OW19360   4.570   4.418   2.615
 6154SOL    HW119361   4.582   4.351   2.688
 6154SOL    HW219362   4.607   4.381   2.530
 6155SOL     OW19363   1.813   1.224   3.927
 6155SOL    HW119364   1.867   1.300   3.962
 6155SOL    HW219365   1.719   1.231   3.962
 6156SOL     OW19366   4.789   4.046   2.065
 6156SOL    HW119367   4.850   4.092   2.130
 6156SOL    HW219368   4.696   4.078   2.078
 6157SOL     OW19369   0.746   3.132   1.244
 6157SOL    HW119370   0.701   3.219   1.265
 6157SOL    HW219371   0.836   3.131   1.287
 6158SOL     OW19372   2.907   1.067   5.816
 6158SOL    HW119373   2.974   1.133   5.849
 6158SOL    HW219374   2.892   1.081   5.718
 6159SOL     OW19375   5.841   2.445   0.366
 6159SOL    HW119376   5.882   2.417   0.279
 6159SOL    HW219377   5.914   2.472   0.429
 6160SOL     OW19378   0.585   6.953   1.209
 6160SOL    HW119379   0.549   6.887   1.144
 6160SOL    HW219380   0.681   6.970   1.188
 6161SOL     OW19381   4.971   4.029   6.657
 6161SOL    HW119382   4.878   4.041   6.622
 6161SOL    HW219383   5.037   4.048   6.584
 6162SOL     OW19384   6.324   5.824   1.191
 6162SOL    HW119385   6.314   5.725   1.201
 6162SOL    HW219386   6.405   5.855   1.240
 6163SOL     OW19387   6.390   6.101   3.280
 6163SOL    HW119388   6.317   6.152   3.234
 6163SOL    HW219389   6.427   6.156   3.355
 6164SOL     OW19390   3.331   3.905   4.265
 6164SOL    HW119391   3.353   3.854   4.183
 6164SOL    HW219392   3.241   3.947   4.255
 6165SOL     OW19393   3.951   1.037   6.823
 6165SOL    HW119394   3.961   0.937   6.826
 6165SOL    HW219395   3.874   1.061   6.763
 6166SOL     OW19396   3.342   1.346   5.685
 6166SOL    HW119397   3.407   1.308   5.619
 6166SOL    HW219398   3.390   1.409   5.746
 6167SOL     OW19399   1.561   3.480   2.962
 6167SOL    HW119400   1.522   3.482   2.870
 6167SOL    HW219401   1.559   3.573   3.000
 6168SOL     OW19402   0.419   3.691   4.510
 6168SOL    HW119403   0.479   3.611   4.496
 6168SOL    HW219404   0.451   3.766   4.453
 6169SOL     OW19405   2.731   0.553   0.190
 6169SOL    HW119406   2.783   0.469   0.177
 6169SOL    HW219407   2.746   0.614   0.112
 6170SOL     OW19408   2.841   4.612   1.264
 6170SOL    HW119409   2.807   4.704   1.279
 6170SOL    HW219410   2.767   4.554   1.230
 6171SOL     OW19411   2.330   4.365   1.743
 6171SOL    HW119412   2.236   4.379   1.774
 6171SOL    HW219413   2.332   4.354   1.644
 6172SOL     OW19414   2.875   5.427   1.610
 6172SOL    HW119415   2.860   5.443   1.707
 6172SOL    HW219416   2.812   5.356   1.578
 6173SOL     OW19417   1.302   5.655   2.151
 6173SOL    HW119418   1.375   5.594   2.120
 6173SOL    HW219419   1.342   5.729   2.206
 6174SOL     OW19420   5.787   4.343   1.502
 6174SOL    HW119421   5.689   4.358   1.486
 6174SOL    HW219422   5.803   4.248   1.527
 6175SOL     OW19423   4.826   0.254   3.877
 6175SOL    HW119424   4.764   0.176   3.877
 6175SOL    HW219425   4.782   0.332   3.920
 6176SOL     OW19426   4.983   3.068   0.084
 6176SOL    HW119427   5.078   3.089   0.061
 6176SOL    HW219428   4.925   3.146   0.060
 6177SOL     OW19429   6.526   2.987   2.520
 6177SOL    HW119430   6.474   2.954   2.599
 6177SOL    HW219431   6.623   2.991   2.544
 6178SOL     OW19432   5.799   3.539   1.306
 6178SOL    HW119433   5.778   3.480   1.384
 6178SOL    HW219434   5.895   3.525   1.280
 6179SOL     OW19435   0.379   1.944   5.136
 6179SOL    HW119436   0.370   1.900   5.047
 6179SOL    HW219437   0.390   1.873   5.207
 6180SOL     OW19438   3.542   0.113   5.992
 6180SOL    HW119439   3.554   0.113   5.892
 6180SOL    HW219440   3.584   0.195   6.030
 6181SOL     OW19441   4.286   5.898   6.891
 6181SOL    HW119442   4.238   5.822   6.935
 6181SOL    HW219443   4.222   5.948   6.833
 6182SOL     OW19444   4.887   7.021   5.886
 6182SOL    HW119445   4.875   0.020   5.790
 6182SOL    HW219446   4.801   0.006   5.935
 6183SOL     OW19447   3.663   0.324   2.509
 6183SOL    HW119448   3.661   0.289   2.603
 6183SOL    HW219449   3.744   0.289   2.462
 6184SOL     OW19450   6.099   7.005   6.382
 6184SOL    HW119451   6.117   6.969   6.291
 6184SOL    HW219452   6.064   0.073   6.375
 6185SOL     OW19453   1.905   2.953   6.528
 6185SOL    HW119454   1.836   2.888   6.559
 6185SOL    HW219455   1.988   2.905   6.502
 6186SOL     OW19456   4.948   0.599   4.276
 6186SOL    HW119457   4.931   0.653   4.193
 6186SOL    HW219458   5.022   0.642   4.329
 6187SOL     OW19459   3.169   5.210   5.063
 6187SOL    HW119460   3.194   5.241   4.972
 6187SOL    HW219461   3.220   5.126   5.085
 6188SOL     OW19462   2.904   6.977   1.335
 6188SOL    HW119463   2.843   7.023   1.400
 6188SOL    HW219464   2.962   0.018   1.289
 6189SOL     OW19465   4.951   4.817   3.102
 6189SOL    HW119466   4.875   4.823   3.166
 6189SOL    HW219467   4.949   4.727   3.057
 6190SOL     OW19468   4.993   2.561   5.925
 6190SOL    HW119469   5.005   2.629   5.997
 6190SOL    HW219470   4.944   2.603   5.848
 6191SOL     OW19471   6.604   1.807   6.557
 6191SOL    HW119472   6.552   1.762   6.485
 6191SOL    HW219473   6.566   1.783   6.646
 6192SOL     OW19474   3.361   2.330   0.655
 6192SOL    HW119475   3.456   2.323   0.626
 6192SOL    HW219476   3.326   2.240   0.679
 6193SOL     OW19477   6.275   0.188   1.380
 6193SOL    HW119478   6.371   0.200   1.354
 6193SOL    HW219479   6.261   0.219   1.474
 6194SOL     OW19480   2.173   0.804   0.503
 6194SOL    HW119481   2.204   0.725   0.451
 6194SOL    HW219482   2.073   0.807   0.503
 6195SOL     OW19483   2.263   6.742   5.553
 6195SOL    HW119484   2.224   6.655   5.524
 6195SOL    HW219485   2.200   6.788   5.615
 6196SOL     OW19486   0.559   1.781   5.793
 6196SOL    HW119487   0.478   1.731   5.760
 6196SOL    HW219488   0.572   1.862   5.737
 6197SOL     OW19489   2.417   2.996   1.163
 6197SOL    HW119490   2.423   2.896   1.152
 6197SOL    HW219491   2.494   3.027   1.219
 6198SOL     OW19492   3.423   5.200   2.408
 6198SOL    HW119493   3.400   5.292   2.442
 6198SOL    HW219494   3.393   5.132   2.474
 6199SOL     OW19495   0.709   0.633   6.300
 6199SOL    HW119496   0.663   0.546   6.319
 6199SOL    HW219497   0.640   0.705   6.285
 6200SOL     OW19498   3.955   0.620   6.009
 6200SOL    HW119499   3.967   0.532   6.057
 6200SOL    HW219500   3.883   0.611   5.941
 6201SOL     OW19501   1.903   4.720   3.971
 6201SOL    HW119502   1.873   4.697   4.063
 6201SOL    HW219503   2.002   4.736   3.971
 6202SOL     OW19504   2.623   2.443   1.474
 6202SOL    HW119505   2.560   2.477   1.543
 6202SOL    HW219506   2.656   2.519   1.417
 6203SOL     OW19507   5.560   2.016   4.557
 6203SOL    HW119508   5.593   2.055   4.471
 6203SOL    HW219509   5.575   1.917   4.557
 6204SOL     OW19510   1.521   6.488   6.128
 6204SOL    HW119511   1.579   6.537   6.193
 6204SOL    HW219512   1.464   6.554   6.078
 6205SOL     OW19513   5.437   5.988   6.896
 6205SOL    HW119514   5.341   6.013   6.906
 6205SOL    HW219515   5.491   6.070   6.878
 6206SOL     OW19516   5.454   6.817   3.521
 6206SOL    HW119517   5.379   6.812   3.456
 6206SOL    HW219518   5.478   6.725   3.552
 6207SOL     OW19519   2.306   4.227   4.357
 6207SOL    HW119520   2.373   4.298   4.383
 6207SOL    HW219521   2.260   4.193   4.439
 6208SOL     OW19522   5.677   5.671   5.410
 6208SOL    HW119523   5.753   5.648   5.349
 6208SOL    HW219524   5.670   5.603   5.482
 6209SOL     OW19525   2.651   4.834   0.828
 6209SOL    HW119526   2.557   4.836   0.793
 6209SOL    HW219527   2.653   4.784   0.915
 6210SOL     OW19528   6.737   5.163   2.921
 6210SOL    HW119529   6.666   5.096   2.900
 6210SOL    HW219530   6.694   5.252   2.939
 6211SOL     OW19531   2.472   0.645   5.073
 6211SOL    HW119532   2.391   0.679   5.122
 6211SOL    HW219533   2.517   0.721   5.027
 6212SOL     OW19534   6.681   0.422   3.674
 6212SOL    HW119535   6.730   0.337   3.696
 6212SOL    HW219536   6.585   0.413   3.700
 6213SOL     OW19537   6.673   0.406   0.351
 6213SOL    HW119538   6.768   0.374   0.349
 6213SOL    HW219539   6.669   0.500   0.317
 6214SOL     OW19540   5.454   4.731   2.025
 6214SOL    HW119541   5.400   4.743   2.108
 6214SOL    HW219542   5.493   4.820   1.998
 6215SOL     OW19543   2.502   4.746   1.358
 6215SOL    HW119544   2.501   4.839   1.394
 6215SOL    HW219545   2.523   4.682   1.433
 6216SOL     OW19546   6.760   2.030   2.232
 6216SOL    HW119547   6.662   2.043   2.252
 6216SOL    HW219548   6.776   2.043   2.134
 6217SOL     OW19549   5.174   1.787   1.173
 6217SOL    HW119550   5.112   1.799   1.250
 6217SOL    HW219551   5.170   1.867   1.114
 6218SOL     OW19552   4.321   5.038   3.968
 6218SOL    HW119553   4.256   5.041   3.892
 6218SOL    HW219554   4.374   5.122   3.971
 6219SOL     OW19555   6.893   1.257   4.637
 6219SOL    HW119556   6.875   1.347   4.598
 6219SOL    HW219557   6.914   1.193   4.563
 6220SOL     OW19558   1.805   3.410   5.580
 6220SOL    HW119559   1.714   3.450   5.579
 6220SOL    HW219560   1.801   3.318   5.541
 6221SOL     OW19561   4.328   4.936   4.558
 6221SOL    HW119562   4.290   5.022   4.592
 6221SOL    HW219563   4.404   4.955   4.496
 6222SOL     OW19564   0.295   1.484   1.459
 6222SOL    HW119565   0.219   1.424   1.434
 6222SOL    HW219566   0.379   1.451   1.416
 6223SOL     OW19567   4.927   4.128   4.348
 6223SOL    HW119568   4.857   4.191   4.381
 6223SOL    HW219569   4.897   4.034   4.365
 6224SOL     OW19570   2.685   0.221   4.649
 6224SOL    HW119571   2.720   0.186   4.735
 6224SOL    HW219572   2.619   0.294   4.667
 6225SOL     OW19573   3.924   2.292   0.074
 6225SOL    HW119574   3.893   2.252   0.160
 6225SOL    HW219575   3.909   2.228   7.025
 6226SOL     OW19576   6.974   6.644   4.367
 6226SOL    HW119577   6.945   6.709   4.438
 6226SOL    HW219578   6.919   6.658   4.285
 6227SOL     OW19579   2.933   4.065   0.021
 6227SOL    HW119580   2.894   4.044   6.957
 6227SOL    HW219581   2.978   3.984   0.057
 6228SOL     OW19582   6.910   2.201   2.814
 6228SOL    HW119583   6.858   2.137   2.757
 6228SOL    HW219584   7.002   2.212   2.778
 6229SOL     OW19585   1.743   2.208   1.963
 6229SOL    HW119586   1.727   2.110   1.977
 6229SOL    HW219587   1.684   2.241   1.889
 6230SOL     OW19588   1.985   2.013   4.144
 6230SOL    HW119589   2.041   1.931   4.132
 6230SOL    HW219590   1.912   1.994   4.209
 6231SOL     OW19591   6.947   5.360   1.333
 6231SOL    HW119592   6.852   5.389   1.339
 6231SOL    HW219593   6.995   5.385   1.417
 6232SOL     OW19594   0.900   1.261   0.159
 6232SOL    HW119595   0.812   1.309   0.154
 6232SOL    HW219596   0.949   1.271   0.073
 6233SOL     OW19597   4.507   1.062   6.555
 6233SOL    HW119598   4.498   0.963   6.567
 6233SOL    HW219599   4.491   1.108   6.643
 6234SOL     OW19600   1.889   2.595   3.714
 6234SOL    HW119601   1.942   2.677   3.693
 6234SOL    HW219602   1.791   2.616   3.706
 6235SOL     OW19603   2.300   6.033   2.588
 6235SOL    HW119604   2.262   6.113   2.543
 6235SOL    HW219605   2.239   6.004   2.662
 6236SOL     OW19606   6.996   3.803   0.205
 6236SOL    HW119607   0.064   3.831   0.185
 6236SOL    HW219608   6.934   3.845   0.139
 6237SOL     OW19609   3.879   6.150   6.621
 6237SOL    HW119610   3.890   6.106   6.532
 6237SOL    HW219611   3.851   6.081   6.688
 6238SOL     OW19612   5.365   3.840   0.556
 6238SOL    HW119613   5.306   3.891   0.618
 6238SOL    HW219614   5.420   3.904   0.502
 6239SOL     OW19615   2.311   6.902   3.314
 6239SOL    HW119616   2.335   6.806   3.301
 6239SOL    HW219617   2.271   6.915   3.405
 6240SOL     OW19618   2.046   3.529   0.070
 6240SOL    HW119619   2.127   3.568   0.114
 6240SOL    HW219620   2.010   3.594   0.003
 6241SOL     OW19621   5.085   7.004   1.727
 6241SOL    HW119622   5.160   6.977   1.666
 6241SOL    HW219623   5.005   0.003   1.672
 6242SOL     OW19624   4.013   2.210   3.168
 6242SOL    HW119625   4.018   2.170   3.076
 6242SOL    HW219626   3.917   2.222   3.194
 6243SOL     OW19627   5.937   5.591   2.852
 6243SOL    HW119628   5.884   5.520   2.898
 6243SOL    HW219629   6.030   5.592   2.889
 6244SOL     OW19630   1.874   1.794   2.482
 6244SOL    HW119631   1.912   1.744   2.405
 6244SOL    HW219632   1.941   1.860   2.516
 6245SOL     OW19633   2.072   3.840   0.674
 6245SOL    HW119634   2.165   3.821   0.643
 6245SOL    HW219635   2.019   3.881   0.600
 6246SOL     OW19636   4.324   0.132   0.057
 6246SOL    HW119637   4.248   0.097   0.113
 6246SOL    HW219638   4.295   0.217   0.013
 6247SOL     OW19639   6.973   6.655   2.973
 6247SOL    HW119640   6.934   6.688   3.059
 6247SOL    HW219641   0.039   6.620   2.989
 6248SOL     OW19642   1.105   5.822   1.172
 6248SOL    HW119643   1.191   5.782   1.139
 6248SOL    HW219644   1.031   5.755   1.162
 6249SOL     OW19645   6.590   3.634   6.521
 6249SOL    HW119646   6.494   3.641   6.548
 6249SOL    HW219647   6.608   3.543   6.484
 6250SOL     OW19648   6.328   4.780   5.548
 6250SOL    HW119649   6.408   4.800   5.492
 6250SOL    HW219650   6.311   4.681   5.547
 6251SOL     OW19651   4.726   1.718   1.039
 6251SOL    HW119652   4.714   1.745   1.135
 6251SOL    HW219653   4.764   1.626   1.035
 6252SOL     OW19654   2.112   6.360   5.251
 6252SOL    HW119655   2.088   6.454   5.224
 6252SOL    HW219656   2.052   6.296   5.204
 6253SOL     OW19657   2.931   4.150   1.525
 6253SOL    HW119658   2.996   4.170   1.598
 6253SOL    HW219659   2.947   4.058   1.489
 6254SOL     OW19660   5.399   0.334   0.222
 6254SOL    HW119661   5.409   0.292   0.313
 6254SOL    HW219662   5.488   0.368   0.192
 6255SOL     OW19663   6.764   2.827   3.358
 6255SOL    HW119664   6.679   2.827   3.410
 6255SOL    HW219665   6.840   2.854   3.417
 6256SOL     OW19666   3.892   5.369   3.964
 6256SOL    HW119667   3.955   5.417   4.025
 6256SOL    HW219668   3.934   5.284   3.932
 6257SOL     OW19669   4.412   2.919   6.972
 6257SOL    HW119670   4.363   2.891   6.890
 6257SOL    HW219671   4.510   2.918   6.954
 6258SOL     OW19672   4.450   2.463   2.919
 6258SOL    HW119673   4.411   2.539   2.971
 6258SOL    HW219674   4.526   2.424   2.970
 6259SOL     OW19675   3.031   2.040   1.440
 6259SOL    HW119676   3.126   2.066   1.426
 6259SOL    HW219677   2.997   2.082   1.524
 6260SOL     OW19678   3.250   4.408   1.151
 6260SOL    HW119679   3.285   4.327   1.103
 6260SOL    HW219680   3.163   4.436   1.111
 6261SOL     OW19681   4.553   7.004   6.705
 6261SOL    HW119682   4.625   6.936   6.691
 6261SOL    HW219683   4.566   0.054   6.641
 6262SOL     OW19684   0.604   6.052   5.346
 6262SOL    HW119685   0.689   6.096   5.318
 6262SOL    HW219686   0.535   6.121   5.365
 6263SOL     OW19687   5.987   1.046   1.213
 6263SOL    HW119688   5.992   1.060   1.312
 6263SOL    HW219689   6.079   1.050   1.174
 6264SOL     OW19690   2.177   1.824   0.399
 6264SOL    HW119691   2.084   1.805   0.430
 6264SOL    HW219692   2.237   1.748   0.425
 6265SOL     OW19693   5.746   3.693   0.585
 6265SOL    HW119694   5.751   3.739   0.674
 6265SOL    HW219695   5.775   3.757   0.514
 6266SOL     OW19696   2.624   0.516   2.285
 6266SOL    HW119697   2.684   0.438   2.264
 6266SOL    HW219698   2.575   0.543   2.202
 6267SOL     OW19699   2.575   0.257   7.019
 6267SOL    HW119700   2.504   0.265   0.063
 6267SOL    HW219701   2.533   0.260   6.928
 6268SOL     OW19702   2.318   5.931   3.013
 6268SOL    HW119703   2.310   5.832   3.019
 6268SOL    HW219704   2.405   5.955   2.969
 6269SOL     OW19705   6.070   4.424   0.026
 6269SOL    HW119706   5.987   4.381   0.061
 6269SOL    HW219707   6.136   4.353   0.000
 6270SOL     OW19708   0.630   1.130   3.970
 6270SOL    HW119709   0.624   1.194   4.046
 6270SOL    HW219710   0.629   1.036   4.005
 6271SOL     OW19711   6.214   1.590   1.177
 6271SOL    HW119712   6.151   1.571   1.252
 6271SOL    HW219713   6.220   1.509   1.119
 6272SOL     OW19714   1.876   2.322   3.698
 6272SOL    HW119715   1.886   2.422   3.703
 6272SOL    HW219716   1.915   2.280   3.779
 6273SOL     OW19717   4.437   0.736   2.318
 6273SOL    HW119718   4.525   0.718   2.273
 6273SOL    HW219719   4.412   0.657   2.374
 6274SOL     OW19720   2.615   6.539   6.731
 6274SOL    HW119721   2.565   6.467   6.780
 6274SOL    HW219722   2.581   6.629   6.761
 6275SOL     OW19723   3.172   0.947   4.430
 6275SOL    HW119724   3.199   1.017   4.364
 6275SOL    HW219725   3.133   0.869   4.381
 6276SOL     OW19726   1.316   5.532   3.838
 6276SOL    HW119727   1.320   5.566   3.932
 6276SOL    HW219728   1.391   5.571   3.785
 6277SOL     OW19729   5.584   3.289   3.922
 6277SOL    HW119730   5.652   3.261   3.854
 6277SOL    HW219731   5.607   3.381   3.956
 6278SOL     OW19732   4.597   0.613   3.755
 6278SOL    HW119733   4.574   0.552   3.831
 6278SOL    HW219734   4.624   0.559   3.676
 6279SOL     OW19735   4.846   2.093   6.650
 6279SOL    HW119736   4.782   2.128   6.581
 6279SOL    HW219737   4.834   2.143   6.736
 6280SOL     OW19738   1.214   5.448   5.958
 6280SOL    HW119739   1.133   5.456   6.016
 6280SOL    HW219740   1.281   5.516   5.986
 6281SOL     OW19741   3.077   6.738   4.456
 6281SOL    HW119742   3.163   6.707   4.497
 6281SOL    HW219743   3.076   6.838   4.453
 6282SOL     OW19744   0.691   0.202   3.950
 6282SOL    HW119745   0.777   0.151   3.940
 6282SOL    HW219746   0.703   0.294   3.913
 6283SOL     OW19747   1.270   3.275   5.179
 6283SOL    HW119748   1.186   3.279   5.233
 6283SOL    HW219749   1.342   3.230   5.232
 6284SOL     OW19750   2.682   4.714   6.276
 6284SOL    HW119751   2.661   4.805   6.311
 6284SOL    HW219752   2.659   4.645   6.345
 6285SOL     OW19753   1.801   4.575   2.794
 6285SOL    HW119754   1.883   4.633   2.795
 6285SOL    HW219755   1.777   4.548   2.887
 6286SOL     OW19756   6.241   6.143   4.662
 6286SOL    HW119757   6.335   6.118   4.686
 6286SOL    HW219758   6.179   6.072   4.695
 6287SOL     OW19759   3.397   4.954   2.566
 6287SOL    HW119760   3.339   4.943   2.647
 6287SOL    HW219761   3.493   4.959   2.593
 6288SOL     OW19762   5.676   3.127   1.001
 6288SOL    HW119763   5.632   3.056   0.947
 6288SOL    HW219764   5.729   3.187   0.941
 6289SOL     OW19765   1.059   6.458   2.595
 6289SOL    HW119766   1.065   6.491   2.689
 6289SOL    HW219767   1.019   6.530   2.538
 6290SOL     OW19768   6.010   4.149   3.439
 6290SOL    HW119769   6.079   4.124   3.371
 6290SOL    HW219770   5.980   4.243   3.423
 6291SOL     OW19771   3.802   3.933   3.292
 6291SOL    HW119772   3.872   3.931   3.364
 6291SOL    HW219773   3.847   3.937   3.202
 6292SOL     OW19774   0.032   1.365   2.139
 6292SOL    HW119775   6.999   1.431   2.092
 6292SOL    HW219776   0.128   1.386   2.120
 6293SOL     OW19777   5.652   5.217   6.861
 6293SOL    HW119778   5.567   5.264   6.887
 6293SOL    HW219779   5.668   5.141   6.924
 6294SOL     OW19780   3.878   5.979   1.935
 6294SOL    HW119781   3.960   6.029   1.963
 6294SOL    HW219782   3.809   5.987   2.006
 6295SOL     OW19783   0.146   5.884   5.919
 6295SOL    HW119784   0.121   5.809   5.857
 6295SOL    HW219785   0.093   5.876   6.004
 6296SOL     OW19786   6.710   1.224   3.212
 6296SOL    HW119787   6.631   1.226   3.151
 6296SOL    HW219788   6.680   1.229   3.307
 6297SOL     OW19789   5.531   0.825   5.868
 6297SOL    HW119790   5.476   0.813   5.785
 6297SOL    HW219791   5.531   0.740   5.921
 6298SOL     OW19792   6.341   2.004   4.150
 6298SOL    HW119793   6.293   1.995   4.062
 6298SOL    HW219794   6.276   1.995   4.225
 6299SOL     OW19795   6.719   3.145   0.717
 6299SOL    HW119796   6.815   3.167   0.698
 6299SOL    HW219797   6.705   3.046   0.708
 6300SOL     OW19798   5.485   1.445   3.312
 6300SOL    HW119799   5.455   1.493   3.230
 6300SOL    HW219800   5.484   1.508   3.389
 6301SOL     OW19801   3.586   0.759   0.785
 6301SOL    HW119802   3.581   0.741   0.883
 6301SOL    HW219803   3.496   0.747   0.744
 6302SOL     OW19804   6.479   0.718   2.599
 6302SOL    HW119805   6.468   0.816   2.586
 6302SOL    HW219806   6.401   0.670   2.558
 6303SOL     OW19807   2.390   5.921   4.887
 6303SOL    HW119808   2.407   5.841   4.831
 6303SOL    HW219809   2.379   5.893   4.983
 6304SOL     OW19810   4.024   0.881   4.619
 6304SOL    HW119811   4.094   0.953   4.622
 6304SOL    HW219812   4.014   0.841   4.710
 6305SOL     OW19813   5.545   0.849   2.417
 6305SOL    HW119814   5.490   0.926   2.385
 6305SOL    HW219815   5.502   0.809   2.497
 6306SOL     OW19816   5.836   2.721   4.220
 6306SOL    HW119817   5.869   2.718   4.125
 6306SOL    HW219818   5.903   2.768   4.277
 6307SOL     OW19819   2.000   4.690   0.540
 6307SOL    HW119820   1.943   4.608   0.539
 6307SOL    HW219821   2.090   4.669   0.578
 6308SOL     OW19822   3.981   2.645   6.240
 6308SOL    HW119823   3.916   2.572   6.257
 6308SOL    HW219824   3.995   2.698   6.324
 6309SOL     OW19825   5.738   2.178   5.162
 6309SOL    HW119826   5.679   2.254   5.136
 6309SOL    HW219827   5.808   2.165   5.092
 6310SOL     OW19828   0.104   5.418   4.651
 6310SOL    HW119829   0.155   5.403   4.567
 6310SOL    HW219830   0.020   5.364   4.650
 6311SOL     OW19831   6.227   6.888   4.326
 6311SOL    HW119832   6.258   6.794   4.308
 6311SOL    HW219833   6.232   6.906   4.424
 6312SOL     OW19834   5.343   4.118   5.658
 6312SOL    HW119835   5.251   4.156   5.656
 6312SOL    HW219836   5.404   4.174   5.602
 6313SOL     OW19837   2.449   5.094   3.985
 6313SOL    HW119838   2.374   5.153   3.954
 6313SOL    HW219839   2.520   5.150   4.027
 6314SOL     OW19840   1.362   0.569   3.549
 6314SOL    HW119841   1.409   0.645   3.593
 6314SOL    HW219842   1.276   0.602   3.509
 6315SOL     OW19843   1.888   4.071   0.202
 6315SOL    HW119844   1.940   4.120   0.273
 6315SOL    HW219845   1.876   3.976   0.229
 6316SOL     OW19846   4.244   0.988   5.373
 6316SOL    HW119847   4.278   0.986   5.279
 6316SOL    HW219848   4.236   0.895   5.408
 6317SOL     OW19849   6.186   5.030   4.807
 6317SOL    HW119850   6.200   5.078   4.894
 6317SOL    HW219851   6.271   4.983   4.781
 6318SOL     OW19852   1.811   1.980   4.400
 6318SOL    HW119853   1.800   2.042   4.478
 6318SOL    HW219854   1.882   1.913   4.420
 6319SOL     OW19855   0.985   2.110   2.790
 6319SOL    HW119856   1.082   2.095   2.806
 6319SOL    HW219857   0.971   2.143   2.696
 6320SOL     OW19858   0.390   2.322   2.628
 6320SOL    HW119859   0.366   2.293   2.536
 6320SOL    HW219860   0.467   2.268   2.661
 6321SOL     OW19861   2.664   3.764   5.904
 6321SOL    HW119862   2.759   3.793   5.912
 6321SOL    HW219863   2.658   3.683   5.846
 6322SOL     OW19864   2.460   0.560   0.182
 6322SOL    HW119865   2.559   0.571   0.193
 6322SOL    HW219866   2.437   0.567   0.085
 6323SOL     OW19867   3.885   1.544   1.519
 6323SOL    HW119868   3.976   1.555   1.479
 6323SOL    HW219869   3.878   1.599   1.602
 6324SOL     OW19870   3.581   1.614   6.954
 6324SOL    HW119871   3.594   1.712   6.937
 6324SOL    HW219872   3.569   1.567   6.867
 6325SOL     OW19873   1.548   3.008   2.603
 6325SOL    HW119874   1.620   2.983   2.668
 6325SOL    HW219875   1.588   3.049   2.522
 6326SOL     OW19876   4.523   6.625   1.461
 6326SOL    HW119877   4.491   6.550   1.402
 6326SOL    HW219878   4.456   6.699   1.460
 6327SOL     OW19879   3.762   5.681   5.583
 6327SOL    HW119880   3.826   5.661   5.509
 6327SOL    HW219881   3.814   5.697   5.667
 6328SOL     OW19882   2.519   4.663   6.831
 6328SOL    HW119883   2.590   4.656   6.760
 6328SOL    HW219884   2.515   4.757   6.864
 6329SOL     OW19885   0.433   1.708   2.849
 6329SOL    HW119886   0.425   1.766   2.930
 6329SOL    HW219887   0.359   1.730   2.785
 6330SOL     OW19888   3.546   0.204   0.293
 6330SOL    HW119889   3.575   0.298   0.276
 6330SOL    HW219890   3.560   0.182   0.390
 6331SOL     OW19891   4.946   3.255   1.961
 6331SOL    HW119892   4.908   3.305   1.883
 6331SOL    HW219893   4.873   3.200   2.004
 6332SOL     OW19894   5.170   6.364   2.120
 6332SOL    HW119895   5.263   6.381   2.087
 6332SOL    HW219896   5.105   6.411   2.060
 6333SOL     OW19897   2.185   5.050   3.233
 6333SOL    HW119898   2.146   5.033   3.143
 6333SOL    HW219899   2.113   5.042   3.302
 6334SOL     OW19900   2.744   1.613   2.774
 6334SOL    HW119901   2.668   1.674   2.751
 6334SOL    HW219902   2.751   1.605   2.873
 6335SOL     OW19903   6.829   1.441   0.174
 6335SOL    HW119904   6.847   1.530   0.215
 6335SOL    HW219905   6.908   1.381   0.190
 6336SOL     OW19906   1.147   3.363   4.881
 6336SOL    HW119907   1.063   3.413   4.860
 6336SOL    HW219908   1.147   3.338   4.978
 6337SOL     OW19909   0.287   4.905   4.848
 6337SOL    HW119910   0.208   4.846   4.833
 6337SOL    HW219911   0.273   4.961   4.929
 6338SOL     OW19912   3.714   1.134   4.332
 6338SOL    HW119913   3.763   1.161   4.415
 6338SOL    HW219914   3.713   1.210   4.268
 6339SOL     OW19915   0.224   2.802   4.659
 6339SOL    HW119916   0.282   2.877   4.626
 6339SOL    HW219917   0.165   2.770   4.584
 6340SOL     OW19918   2.670   5.983   4.451
 6340SOL    HW119919   2.714   5.945   4.370
 6340SOL    HW219920   2.584   5.935   4.468
 6341SOL     OW19921   6.538   5.511   2.400
 6341SOL    HW119922   6.440   5.531   2.393
 6341SOL    HW219923   6.581   5.578   2.460
 6342SOL     OW19924   1.177   3.617   0.478
 6342SOL    HW119925   1.226   3.704   0.476
 6342SOL    HW219926   1.078   3.634   0.480
 6343SOL     OW19927   4.716   1.304   0.455
 6343SOL    HW119928   4.728   1.383   0.515
 6343SOL    HW219929   4.618   1.287   0.441
 6344SOL     OW19930   6.307   4.682   4.551
 6344SOL    HW119931   6.244   4.633   4.612
 6344SOL    HW219932   6.373   4.618   4.512
 6345SOL     OW19933   2.039   2.455   1.685
 6345SOL    HW119934   2.011   2.468   1.780
 6345SOL    HW219935   2.119   2.512   1.666
 6346SOL     OW19936   0.655   5.307   4.284
 6346SOL    HW119937   0.594   5.243   4.237
 6346SOL    HW219938   0.644   5.398   4.245
 6347SOL     OW19939   3.325   0.186   0.722
 6347SOL    HW119940   3.321   0.111   0.657
 6347SOL    HW219941   3.370   0.156   0.806
 6348SOL     OW19942   0.565   2.379   3.899
 6348SOL    HW119943   0.578   2.395   3.997
 6348SOL    HW219944   0.472   2.406   3.873
 6349SOL     OW19945   1.196   0.855   0.685
 6349SOL    HW119946   1.127   0.804   0.633
 6349SOL    HW219947   1.270   0.882   0.623
 6350SOL     OW19948   0.109   5.854   3.363
 6350SOL    HW119949   0.150   5.763   3.362
 6350SOL    HW219950   0.044   5.862   3.287
 6351SOL     OW19951   6.976   2.088   3.069
 6351SOL    HW119952   6.975   2.151   2.992
 6351SOL    HW219953   0.017   2.015   3.053
 6352SOL     OW19954   0.304   4.778   2.330
 6352SOL    HW119955   0.204   4.773   2.337
 6352SOL    HW219956   0.331   4.767   2.234
 6353SOL     OW19957   0.500   6.486   1.636
 6353SOL    HW119958   0.446   6.443   1.564
 6353SOL    HW219959   0.442   6.547   1.690
 6354SOL     OW19960   0.309   6.729   4.309
 6354SOL    HW119961   0.233   6.663   4.310
 6354SOL    HW219962   0.339   6.743   4.215
 6355SOL     OW19963   1.610   2.314   1.712
 6355SOL    HW119964   1.581   2.377   1.785
 6355SOL    HW219965   1.531   2.291   1.655
 6356SOL     OW19966   3.542   3.611   1.109
 6356SOL    HW119967   3.577   3.590   1.200
 6356SOL    HW219968   3.588   3.553   1.042
 6357SOL     OW19969   5.769   2.104   1.327
 6357SOL    HW119970   5.808   2.195   1.344
 6357SOL    HW219971   5.711   2.108   1.245
 6358SOL     OW19972   1.362   2.818   5.101
 6358SOL    HW119973   1.346   2.899   5.044
 6358SOL    HW219974   1.280   2.800   5.156
 6359SOL     OW19975   6.735   1.341   6.399
 6359SOL    HW119976   6.822   1.371   6.437
 6359SOL    HW219977   6.717   1.390   6.313
 6360SOL     OW19978   2.518   5.573   4.149
 6360SOL    HW119979   2.552   5.519   4.226
 6360SOL    HW219980   2.422   5.549   4.132
 6361SOL     OW19981   2.987   6.692   5.841
 6361SOL    HW119982   2.890   6.679   5.820
 6361SOL    HW219983   3.004   6.666   5.936
 6362SOL     OW19984   6.514   4.854   6.145
 6362SOL    HW119985   6.538   4.949   6.127
 6362SOL    HW219986   6.420   4.837   6.115
 6363SOL     OW19987   0.565   5.483   4.101
 6363SOL    HW119988   0.631   5.548   4.064
 6363SOL    HW219989   0.499   5.459   4.030
 6364SOL     OW19990   2.226   2.156   6.686
 6364SOL    HW119991   2.239   2.227   6.756
 6364SOL    HW219992   2.303   2.158   6.622
 6365SOL     OW19993   4.114   5.188   2.425
 6365SOL    HW119994   4.085   5.125   2.353
 6365SOL    HW219995   4.066   5.167   2.509
 6366SOL     OW19996   0.859   4.455   5.604
 6366SOL    HW119997   0.788   4.503   5.655
 6366SOL    HW219998   0.817   4.389   5.542
 6367SOL     OW19999   5.754   6.112   2.579
 6367SOL    HW120000   5.703   6.194   2.608
 6367SOL    HW220001   5.850   6.136   2.565
 6368SOL     OW20002   3.138   0.834   3.099
 6368SOL    HW120003   3.087   0.818   3.014
 6368SOL    HW220004   3.196   0.755   3.119
 6369SOL     OW20005   2.428   5.882   5.160
 6369SOL    HW120006   2.442   5.978   5.185
 6369SOL    HW220007   2.367   5.839   5.227
 6370SOL     OW20008   5.346   2.899   2.131
 6370SOL    HW120009   5.382   2.965   2.196
 6370SOL    HW220010   5.260   2.934   2.093
 6371SOL     OW20011   4.441   1.174   3.749
 6371SOL    HW120012   4.488   1.121   3.819
 6371SOL    HW220013   4.352   1.132   3.730
 6372SOL     OW20014   2.783   0.234   2.303
 6372SOL    HW120015   2.879   0.263   2.308
 6372SOL    HW220016   2.773   0.144   2.345
 6373SOL     OW20017   3.535   4.848   0.255
 6373SOL    HW120018   3.590   4.822   0.334
 6373SOL    HW220019   3.589   4.838   0.172
 6374SOL     OW20020   2.948   3.280   3.331
 6374SOL    HW120021   2.872   3.275   3.395
 6374SOL    HW220022   3.031   3.245   3.374
 6375SOL     OW20023   2.051   5.786   2.169
 6375SOL    HW120024   2.019   5.706   2.118
 6375SOL    HW220025   2.047   5.766   2.267
 6376SOL     OW20026   1.153   1.833   5.380
 6376SOL    HW120027   1.218   1.904   5.350
 6376SOL    HW220028   1.183   1.798   5.469
 6377SOL     OW20029   1.066   1.928   3.866
 6377SOL    HW120030   1.088   2.025   3.854
 6377SOL    HW220031   1.121   1.873   3.803
 6378SOL     OW20032   4.023   5.460   3.368
 6378SOL    HW120033   3.935   5.508   3.360
 6378SOL    HW220034   4.054   5.432   3.278
 6379SOL     OW20035   2.357   4.714   2.033
 6379SOL    HW120036   2.363   4.614   2.044
 6379SOL    HW220037   2.447   4.751   2.013
 6380SOL     OW20038   1.330   1.107   6.000
 6380SOL    HW120039   1.271   1.179   5.964
 6380SOL    HW220040   1.418   1.109   5.952
 6381SOL     OW20041   3.500   3.507   2.123
 6381SOL    HW120042   3.423   3.445   2.136
 6381SOL    HW220043   3.479   3.571   2.049
 6382SOL     OW20044   1.249   4.837   4.585
 6382SOL    HW120045   1.340   4.856   4.622
 6382SOL    HW220046   1.228   4.903   4.513
 6383SOL     OW20047   3.395   1.591   3.716
 6383SOL    HW120048   3.381   1.496   3.689
 6383SOL    HW220049   3.486   1.600   3.757
 6384SOL     OW20050   6.852   4.543   2.280
 6384SOL    HW120051   6.893   4.478   2.217
 6384SOL    HW220052   6.918   4.615   2.301
 6385SOL     OW20053   1.428   5.695   5.591
 6385SOL    HW120054   1.333   5.700   5.620
 6385SOL    HW220055   1.440   5.748   5.507
 6386SOL     OW20056   2.243   5.241   2.673
 6386SOL    HW120057   2.222   5.264   2.768
 6386SOL    HW220058   2.335   5.203   2.668
 6387SOL     OW20059   6.050   1.045   5.042
 6387SOL    HW120060   6.005   1.030   4.955
 6387SOL    HW220061   6.061   0.958   5.090
 6388SOL     OW20062   1.939   5.303   3.355
 6388SOL    HW120063   1.847   5.331   3.381
 6388SOL    HW220064   1.936   5.215   3.308
 6389SOL     OW20065   1.394   4.276   1.260
 6389SOL    HW120066   1.483   4.281   1.214
 6389SOL    HW220067   1.364   4.180   1.265
 6390SOL     OW20068   0.981   2.611   4.306
 6390SOL    HW120069   0.963   2.543   4.378
 6390SOL    HW220070   0.996   2.564   4.219
 6391SOL     OW20071   3.881   0.494   0.089
 6391SOL    HW120072   3.935   0.578   0.101
 6391SOL    HW220073   3.940   0.414   0.106
 6392SOL     OW20074   1.159   5.812   4.368
 6392SOL    HW120075   1.244   5.762   4.377
 6392SOL    HW220076   1.177   5.910   4.372
 6393SOL     OW20077   4.834   1.581   0.021
 6393SOL    HW120078   4.926   1.554   0.046
 6393SOL    HW220079   4.810   1.543   6.957
 6394SOL     OW20080   3.227   4.973   1.738
 6394SOL    HW120081   3.243   5.062   1.696
 6394SOL    HW220082   3.283   4.965   1.821
 6395SOL     OW20083   5.771   2.311   6.893
 6395SOL    HW120084   5.694   2.346   6.946
 6395SOL    HW220085   5.762   2.212   6.882
 6396SOL     OW20086   6.535   3.490   6.143
 6396SOL    HW120087   6.521   3.558   6.071
 6396SOL    HW220088   6.617   3.437   6.124
 6397SOL     OW20089   5.927   0.943   0.787
 6397SOL    HW120090   5.852   0.902   0.839
 6397SOL    HW220091   5.914   1.042   0.783
 6398SOL     OW20092   3.955   1.073   1.536
 6398SOL    HW120093   3.980   1.000   1.473
 6398SOL    HW220094   3.889   1.134   1.491
 6399SOL     OW20095   1.525   6.548   6.793
 6399SOL    HW120096   1.480   6.626   6.836
 6399SOL    HW220097   1.464   6.509   6.723
 6400SOL     OW20098   2.734   4.956   5.047
 6400SOL    HW120099   2.745   4.965   5.146
 6400SOL    HW220100   2.668   4.885   5.027
 6401SOL     OW20101   0.754   4.659   4.926
 6401SOL    HW120102   0.656   4.646   4.942
 6401SOL    HW220103   0.804   4.577   4.956
 6402SOL     OW20104   1.941   3.142   3.458
 6402SOL    HW120105   1.871   3.141   3.386
 6402SOL    HW220106   2.031   3.128   3.417
 6403SOL     OW20107   1.269   6.416   1.916
 6403SOL    HW120108   1.289   6.513   1.905
 6403SOL    HW220109   1.186   6.393   1.865
 6404SOL     OW20110   5.083   1.012   2.370
 6404SOL    HW120111   5.049   1.014   2.464
 6404SOL    HW220112   5.015   1.053   2.309
 6405SOL     OW20113   3.531   0.569   1.716
 6405SOL    HW120114   3.588   0.648   1.736
 6405SOL    HW220115   3.492   0.578   1.624
 6406SOL     OW20116   2.626   1.986   3.355
 6406SOL    HW120117   2.606   1.998   3.452
 6406SOL    HW220118   2.660   2.073   3.317
 6407SOL     OW20119   4.513   6.138   6.518
 6407SOL    HW120120   4.572   6.208   6.556
 6407SOL    HW220121   4.568   6.060   6.486
 6408SOL     OW20122   5.770   2.413   0.793
 6408SOL    HW120123   5.845   2.409   0.859
 6408SOL    HW220124   5.715   2.495   0.810
 6409SOL     OW20125   0.691   5.327   1.761
 6409SOL    HW120126   0.784   5.338   1.725
 6409SOL    HW220127   0.634   5.402   1.729
 6410SOL     OW20128   0.623   0.933   2.264
 6410SOL    HW120129   0.604   0.927   2.362
 6410SOL    HW220130   0.672   1.018   2.244
 6411SOL     OW20131   1.259   1.229   3.581
 6411SOL    HW120132   1.195   1.264   3.649
 6411SOL    HW220133   1.349   1.219   3.622
 6412SOL     OW20134   5.648   2.348   4.259
 6412SOL    HW120135   5.554   2.331   4.288
 6412SOL    HW220136   5.650   2.368   4.161
 6413SOL     OW20137   0.530   4.933   0.733
 6413SOL    HW120138   0.556   4.894   0.645
 6413SOL    HW220139   0.566   5.026   0.740
 6414SOL     OW20140   6.068   0.600   3.264
 6414SOL    HW120141   6.021   0.551   3.190
 6414SOL    HW220142   6.166   0.589   3.254
 6415SOL     OW20143   1.663   1.588   2.295
 6415SOL    HW120144   1.724   1.662   2.267
 6415SOL    HW220145   1.601   1.566   2.220
 6416SOL     OW20146   2.631   6.463   6.464
 6416SOL    HW120147   2.618   6.518   6.546
 6416SOL    HW220148   2.564   6.388   6.462
 6417SOL     OW20149   0.582   5.963   4.256
 6417SOL    HW120150   0.504   5.909   4.286
 6417SOL    HW220151   0.599   5.944   4.159
 6418SOL     OW20152   6.844   5.278   2.179
 6418SOL    HW120153   6.798   5.342   2.117
 6418SOL    HW220154   6.776   5.230   2.234
 6419SOL     OW20155   2.106   3.177   0.634
 6419SOL    HW120156   2.118   3.253   0.570
 6419SOL    HW220157   2.113   3.211   0.728
 6420SOL     OW20158   0.536   3.026   6.771
 6420SOL    HW120159   0.631   3.031   6.740
 6420SOL    HW220160   0.534   3.024   6.871
 6421SOL     OW20161   5.489   2.053   0.361
 6421SOL    HW120162   5.564   2.113   0.387
 6421SOL    HW220163   5.457   2.002   0.441
 6422SOL     OW20164   5.981   2.611   2.512
 6422SOL    HW120165   5.939   2.701   2.519
 6422SOL    HW220166   6.032   2.591   2.597
 6423SOL     OW20167   5.283   4.108   0.363
 6423SOL    HW120168   5.318   4.194   0.401
 6423SOL    HW220169   5.247   4.125   0.271
 6424SOL     OW20170   6.474   4.361   5.293
 6424SOL    HW120171   6.460   4.427   5.220
 6424SOL    HW220172   6.562   4.377   5.337
 6425SOL     OW20173   0.498   5.400   0.966
 6425SOL    HW120174   0.425   5.350   1.013
 6425SOL    HW220175   0.459   5.474   0.912
 6426SOL     OW20176   6.375   2.874   3.111
 6426SOL    HW120177   6.391   2.935   3.189
 6426SOL    HW220178   6.411   2.917   3.028
 6427SOL     OW20179   0.363   3.395   5.804
 6427SOL    HW120180   0.347   3.305   5.763
 6427SOL    HW220181   0.454   3.398   5.843
 6428SOL     OW20182   6.467   3.446   4.196
 6428SOL    HW120183   6.367   3.445   4.198
 6428SOL    HW220184   6.502   3.443   4.290
 6429SOL     OW20185   1.298   1.221   5.085
 6429SOL    HW120186   1.226   1.290   5.100
 6429SOL    HW220187   1.286   1.146   5.151
 6430SOL     OW20188   6.112   3.306   0.158
 6430SOL    HW120189   6.078   3.223   0.114
 6430SOL    HW220190   6.065   3.319   0.245
 6431SOL     OW20191   6.272   1.386   2.868
 6431SOL    HW120192   6.237   1.394   2.774
 6431SOL    HW220193   6.203   1.345   2.926
 6432SOL     OW20194   6.170   3.981   0.604
 6432SOL    HW120195   6.265   4.013   0.610
 6432SOL    HW220196   6.117   4.018   0.680
 6433SOL     OW20197   2.260   3.718   1.622
 6433SOL    HW120198   2.313   3.802   1.634
 6433SOL    HW220199   2.182   3.736   1.561
 6434SOL     OW20200   1.353   5.381   0.460
 6434SOL    HW120201   1.415   5.344   0.391
 6434SOL    HW220202   1.403   5.397   0.545
 6435SOL     OW20203   5.113   3.615   0.943
 6435SOL    HW120204   5.107   3.591   1.040
 6435SOL    HW220205   5.048   3.560   0.891
 6436SOL     OW20206   2.234   2.620   1.558
 6436SOL    HW120207   2.191   2.551   1.500
 6436SOL    HW220208   2.207   2.711   1.527
 6437SOL     OW20209   0.032   0.704   0.948
 6437SOL    HW120210   0.123   0.666   0.933
 6437SOL    HW220211   0.007   0.763   0.872
 6438SOL     OW20212   1.077   3.634   4.588
 6438SOL    HW120213   1.132   3.647   4.670
 6438SOL    HW220214   1.137   3.609   4.512
 6439SOL     OW20215   0.451   6.451   2.399
 6439SOL    HW120216   0.352   6.444   2.390
 6439SOL    HW220217   0.474   6.500   2.484
 6440SOL     OW20218   0.583   0.656   2.194
 6440SOL    HW120219   0.547   0.627   2.283
 6440SOL    HW220220   0.602   0.754   2.197
 6441SOL     OW20221   4.525   1.434   2.497
 6441SOL    HW120222   4.595   1.502   2.479
 6441SOL    HW220223   4.491   1.444   2.590
 6442SOL     OW20224   2.882   0.714   3.426
 6442SOL    HW120225   2.906   0.797   3.376
 6442SOL    HW220226   2.786   0.690   3.409
 6443SOL     OW20227   2.382   0.866   1.070
 6443SOL    HW120228   2.285   0.888   1.068
 6443SOL    HW220229   2.414   0.843   0.978
 6444SOL     OW20230   1.003   1.596   3.028
 6444SOL    HW120231   1.052   1.647   3.099
 6444SOL    HW220232   0.977   1.659   2.954
 6445SOL     OW20233   3.162   4.064   6.004
 6445SOL    HW120234   3.111   3.995   5.952
 6445SOL    HW220235   3.151   4.047   6.102
 6446SOL     OW20236   7.022   1.212   0.506
 6446SOL    HW120237   0.039   1.288   0.457
 6446SOL    HW220238   6.935   1.243   0.545
 6447SOL     OW20239   1.503   0.784   3.664
 6447SOL    HW120240   1.546   0.771   3.574
 6447SOL    HW220241   1.574   0.795   3.733
 6448SOL     OW20242   6.677   2.363   2.862
 6448SOL    HW120243   6.764   2.326   2.830
 6448SOL    HW220244   6.642   2.306   2.936
 6449SOL     OW20245   3.950   2.756   0.568
 6449SOL    HW120246   3.969   2.799   0.480
 6449SOL    HW220247   4.028   2.700   0.595
 6450SOL     OW20248   6.655   2.883   0.702
 6450SOL    HW120249   6.677   2.796   0.658
 6450SOL    HW220250   6.559   2.882   0.731
 6451SOL     OW20251   2.497   6.925   4.019
 6451SOL    HW120252   2.442   6.891   3.942
 6451SOL    HW220253   2.461   6.887   4.104
 6452SOL     OW20254   3.609   5.948   4.913
 6452SOL    HW120255   3.517   5.913   4.894
 6452SOL    HW220256   3.621   6.036   4.867
 6453SOL     OW20257   1.794   5.219   6.538
 6453SOL    HW120258   1.801   5.120   6.553
 6453SOL    HW220259   1.773   5.265   6.624
 6454SOL     OW20260   3.488   0.497   4.685
 6454SOL    HW120261   3.568   0.535   4.638
 6454SOL    HW220262   3.433   0.572   4.722
 6455SOL     OW20263   6.308   3.366   6.696
 6455SOL    HW120264   6.282   3.287   6.753
 6455SOL    HW220265   6.264   3.448   6.732
 6456SOL     OW20266   6.711   1.635   4.686
 6456SOL    HW120267   6.648   1.585   4.746
 6456SOL    HW220268   6.660   1.702   4.633
 6457SOL     OW20269   5.935   2.469   2.269
 6457SOL    HW120270   5.963   2.531   2.342
 6457SOL    HW220271   5.894   2.522   2.194
 6458SOL     OW20272   0.941   6.118   3.399
 6458SOL    HW120273   0.957   6.125   3.498
 6458SOL    HW220274   0.976   6.031   3.366
 6459SOL     OW20275   5.610   4.052   0.699
 6459SOL    HW120276   5.625   3.967   0.749
 6459SOL    HW220277   5.642   4.129   0.754
 6460SOL     OW20278   3.621   4.977   1.654
 6460SOL    HW120279   3.589   5.048   1.717
 6460SOL    HW220280   3.611   5.009   1.560
 6461SOL     OW20281   3.246   6.136   5.633
 6461SOL    HW120282   3.214   6.062   5.575
 6461SOL    HW220283   3.216   6.224   5.594
 6462SOL     OW20284   2.111   3.658   3.010
 6462SOL    HW120285   2.148   3.751   3.009
 6462SOL    HW220286   2.011   3.661   3.010
 6463SOL     OW20287   1.508   3.655   5.598
 6463SOL    HW120288   1.452   3.724   5.644
 6463SOL    HW220289   1.458   3.618   5.520
 6464SOL     OW20290   1.561   5.143   2.011
 6464SOL    HW120291   1.472   5.103   1.987
 6464SOL    HW220292   1.597   5.099   2.093
 6465SOL     OW20293   6.127   0.601   2.697
 6465SOL    HW120294   6.035   0.560   2.697
 6465SOL    HW220295   6.179   0.566   2.619
 6466SOL     OW20296   6.619   1.832   4.511
 6466SOL    HW120297   6.570   1.806   4.427
 6466SOL    HW220298   6.712   1.860   4.488
 6467SOL     OW20299   3.586   0.677   6.355
 6467SOL    HW120300   3.607   0.773   6.336
 6467SOL    HW220301   3.505   0.671   6.413
 6468SOL     OW20302   5.815   4.203   2.235
 6468SOL    HW120303   5.893   4.141   2.223
 6468SOL    HW220304   5.762   4.176   2.315
 6469SOL     OW20305   5.919   1.669   5.456
 6469SOL    HW120306   5.934   1.703   5.549
 6469SOL    HW220307   5.939   1.571   5.454
 6470SOL     OW20308   6.432   5.861   4.560
 6470SOL    HW120309   6.361   5.838   4.627
 6470SOL    HW220310   6.395   5.848   4.468
 6471SOL     OW20311   6.605   5.962   5.133
 6471SOL    HW120312   6.691   5.925   5.099
 6471SOL    HW220313   6.623   6.040   5.193
 6472SOL     OW20314   1.693   6.438   1.453
 6472SOL    HW120315   1.638   6.436   1.369
 6472SOL    HW220316   1.769   6.373   1.444
 6473SOL     OW20317   2.262   0.457   5.247
 6473SOL    HW120318   2.196   0.467   5.172
 6473SOL    HW220319   2.304   0.546   5.265
 6474SOL     OW20320   2.169   3.285   6.261
 6474SOL    HW120321   2.098   3.243   6.317
 6474SOL    HW220322   2.220   3.214   6.212
 6475SOL     OW20323   4.294   5.418   3.752
 6475SOL    HW120324   4.378   5.375   3.718
 6475SOL    HW220325   4.229   5.428   3.676
 6476SOL     OW20326   5.243   5.134   2.370
 6476SOL    HW120327   5.149   5.098   2.372
 6476SOL    HW220328   5.272   5.148   2.276
 6477SOL     OW20329   6.286   6.422   0.039
 6477SOL    HW120330   6.290   6.517   0.008
 6477SOL    HW220331   6.254   6.363   6.990
 6478SOL     OW20332   4.708   5.761   1.394
 6478SOL    HW120333   4.641   5.831   1.369
 6478SOL    HW220334   4.782   5.804   1.447
 6479SOL     OW20335   3.531   6.017   2.619
 6479SOL    HW120336   3.457   6.036   2.683
 6479SOL    HW220337   3.522   5.923   2.585
 6480SOL     OW20338   2.848   0.953   1.193
 6480SOL    HW120339   2.776   0.908   1.246
 6480SOL    HW220340   2.816   1.044   1.165
 6481SOL     OW20341   4.366   0.665   0.834
 6481SOL    HW120342   4.279   0.661   0.884
 6481SOL    HW220343   4.416   0.747   0.861
 6482SOL     OW20344   6.808   6.975   6.110
 6482SOL    HW120345   6.832   6.995   6.015
 6482SOL    HW220346   6.857   6.893   6.141
 6483SOL     OW20347   2.085   5.506   1.879
 6483SOL    HW120348   2.122   5.425   1.835
 6483SOL    HW220349   2.045   5.567   1.810
 6484SOL     OW20350   4.868   6.712   2.997
 6484SOL    HW120351   4.933   6.738   3.068
 6484SOL    HW220352   4.873   6.777   2.921
 6485SOL     OW20353   0.685   3.003   3.044
 6485SOL    HW120354   0.783   2.986   3.040
 6485SOL    HW220355   0.637   2.917   3.062
 6486SOL     OW20356   1.541   2.621   3.440
 6486SOL    HW120357   1.625   2.573   3.468
 6486SOL    HW220358   1.565   2.714   3.411
 6487SOL     OW20359   5.986   5.243   3.377
 6487SOL    HW120360   6.017   5.208   3.465
 6487SOL    HW220361   5.963   5.166   3.317
 6488SOL     OW20362   3.132   5.471   4.891
 6488SOL    HW120363   3.180   5.499   4.808
 6488SOL    HW220364   3.194   5.479   4.969
 6489SOL     OW20365   2.618   1.750   6.946
 6489SOL    HW120366   2.656   1.663   6.974
 6489SOL    HW220367   2.691   1.818   6.939
 6490SOL     OW20368   4.804   2.036   0.743
 6490SOL    HW120369   4.888   2.010   0.696
 6490SOL    HW220370   4.827   2.087   0.826
 6491SOL     OW20371   5.049   0.813   5.576
 6491SOL    HW120372   5.099   0.728   5.557
 6491SOL    HW220373   5.077   0.849   5.664
 6492SOL     OW20374   6.389   5.869   5.717
 6492SOL    HW120375   6.353   5.956   5.683
 6492SOL    HW220376   6.442   5.885   5.800
 6493SOL     OW20377   1.058   6.937   5.283
 6493SOL    HW120378   1.068   6.909   5.378
 6493SOL    HW220379   1.142   6.984   5.253
 6494SOL     OW20380   0.629   1.524   3.375
 6494SOL    HW120381   0.692   1.550   3.449
 6494SOL    HW220382   0.651   1.432   3.342
 6495SOL     OW20383   5.701   4.519   1.710
 6495SOL    HW120384   5.632   4.488   1.775
 6495SOL    HW220385   5.717   4.448   1.642
 6496SOL     OW20386   0.417   6.334   2.984
 6496SOL    HW120387   0.391   6.293   2.897
 6496SOL    HW220388   0.496   6.286   3.021
 6497SOL     OW20389   0.573   6.699   0.527
 6497SOL    HW120390   0.482   6.682   0.488
 6497SOL    HW220391   0.643   6.656   0.470
 6498SOL     OW20392   1.366   4.443   3.846
 6498SOL    HW120393   1.300   4.417   3.775
 6498SOL    HW220394   1.335   4.408   3.934
 6499SOL     OW20395   6.207   1.501   3.363
 6499SOL    HW120396   6.183   1.478   3.457
 6499SOL    HW220397   6.219   1.417   3.310
 6500SOL     OW20398   6.128   4.939   2.368
 6500SOL    HW120399   6.140   4.853   2.318
 6500SOL    HW220400   6.209   4.997   2.353
 6501SOL     OW20401   6.690   4.028   0.699
 6501SOL    HW120402   6.755   4.004   0.627
 6501SOL    HW220403   6.737   4.081   0.769
 6502SOL     OW20404   1.008   5.003   1.101
 6502SOL    HW120405   1.095   4.955   1.099
 6502SOL    HW220406   1.012   5.077   1.169
 6503SOL     OW20407   4.634   0.103   4.182
 6503SOL    HW120408   4.679   0.165   4.247
 6503SOL    HW220409   4.625   0.012   4.224
 6504SOL     OW20410   1.738   1.566   0.994
 6504SOL    HW120411   1.794   1.485   0.976
 6504SOL    HW220412   1.650   1.537   1.032
 6505SOL     OW20413   5.830   5.548   0.635
 6505SOL    HW120414   5.888   5.496   0.572
 6505SOL    HW220415   5.808   5.637   0.595
 6506SOL     OW20416   1.896   1.338   0.977
 6506SOL    HW120417   1.967   1.406   0.959
 6506SOL    HW220418   1.911   1.259   0.916
 6507SOL     OW20419   2.993   0.976   1.845
 6507SOL    HW120420   2.946   0.988   1.757
 6507SOL    HW220421   2.993   0.880   1.870
 6508SOL     OW20422   1.835   1.832   2.128
 6508SOL    HW120423   1.902   1.862   2.196
 6508SOL    HW220424   1.756   1.894   2.129
 6509SOL     OW20425   1.249   2.752   4.272
 6509SOL    HW120426   1.159   2.708   4.268
 6509SOL    HW220427   1.300   2.730   4.188
 6510SOL     OW20428   6.126   4.828   6.505
 6510SOL    HW120429   6.100   4.758   6.572
 6510SOL    HW220430   6.225   4.840   6.507
 6511SOL     OW20431   6.859   6.740   5.840
 6511SOL    HW120432   6.789   6.799   5.799
 6511SOL    HW220433   6.823   6.699   5.924
 6512SOL     OW20434   5.222   6.244   3.465
 6512SOL    HW120435   5.266   6.155   3.455
 6512SOL    HW220436   5.204   6.283   3.374
 6513SOL     OW20437   1.002   6.925   3.539
 6513SOL    HW120438   1.090   6.968   3.560
 6513SOL    HW220439   1.006   6.828   3.562
 6514SOL     OW20440   3.143   0.332   3.692
 6514SOL    HW120441   3.099   0.416   3.660
 6514SOL    HW220442   3.224   0.313   3.636
 6515SOL     OW20443   0.803   0.539   3.363
 6515SOL    HW120444   0.850   0.454   3.339
 6515SOL    HW220445   0.789   0.594   3.280
 6516SOL     OW20446   1.571   1.175   5.871
 6516SOL    HW120447   1.583   1.145   5.777
 6516SOL    HW220448   1.586   1.274   5.877
 6517SOL     OW20449   2.513   2.095   0.961
 6517SOL    HW120450   2.497   2.071   1.057
 6517SOL    HW220451   2.445   2.163   0.932
 6518SOL     OW20452   5.567   6.336   0.958
 6518SOL    HW120453   5.613   6.407   0.904
 6518SOL    HW220454   5.480   6.372   0.992
 6519SOL     OW20455   1.197   1.915   4.114
 6519SOL    HW120456   1.164   1.902   4.020
 6519SOL    HW220457   1.129   1.968   4.166
 6520SOL     OW20458   5.569   5.433   1.299
 6520SOL    HW120459   5.658   5.414   1.340
 6520SOL    HW220460   5.571   5.412   1.202
 6521SOL     OW20461   1.543   2.192   5.475
 6521SOL    HW120462   1.587   2.144   5.551
 6521SOL    HW220463   1.502   2.277   5.508
 6522SOL     OW20464   2.736   5.094   4.334
 6522SOL    HW120465   2.736   4.995   4.336
 6522SOL    HW220466   2.779   5.129   4.417
 6523SOL     OW20467   1.589   2.383   0.253
 6523SOL    HW120468   1.627   2.458   0.309
 6523SOL    HW220469   1.634   2.297   0.278
 6524SOL     OW20470   4.242   2.788   5.658
 6524SOL    HW120471   4.297   2.706   5.675
 6524SOL    HW220472   4.145   2.764   5.656
 6525SOL     OW20473   0.345   2.444   4.447
 6525SOL    HW120474   0.330   2.461   4.544
 6525SOL    HW220475   0.439   2.470   4.423
 6526SOL     OW20476   1.868   5.580   4.038
 6526SOL    HW120477   1.865   5.626   3.950
 6526SOL    HW220478   1.817   5.634   4.105
 6527SOL     OW20479   2.648   1.383   3.971
 6527SOL    HW120480   2.658   1.289   3.938
 6527SOL    HW220481   2.575   1.388   4.039
 6528SOL     OW20482   0.715   0.064   2.903
 6528SOL    HW120483   0.722   0.015   2.990
 6528SOL    HW220484   0.807   0.089   2.872
 6529SOL     OW20485   6.788   3.007   2.609
 6529SOL    HW120486   6.858   3.001   2.538
 6529SOL    HW220487   6.804   2.936   2.678
 6530SOL     OW20488   0.582   1.796   0.470
 6530SOL    HW120489   0.591   1.698   0.451
 6530SOL    HW220490   0.660   1.828   0.523
 6531SOL     OW20491   5.024   2.376   4.959
 6531SOL    HW120492   4.932   2.353   4.992
 6531SOL    HW220493   5.056   2.459   5.004
 6532SOL     OW20494   0.924   2.044   7.001
 6532SOL    HW120495   0.873   2.013   6.921
 6532SOL    HW220496   0.879   2.125   0.014
 6533SOL     OW20497   4.555   0.530   1.139
 6533SOL    HW120498   4.468   0.550   1.184
 6533SOL    HW220499   4.619   0.606   1.155
 6534SOL     OW20500   2.282   2.677   6.997
 6534SOL    HW120501   2.259   2.659   0.067
 6534SOL    HW220502   2.258   2.771   6.974
 6535SOL     OW20503   2.039   3.428   5.239
 6535SOL    HW120504   2.008   3.355   5.177
 6535SOL    HW220505   2.109   3.482   5.193
 6536SOL     OW20506   6.660   2.001   6.859
 6536SOL    HW120507   6.721   2.063   6.907
 6536SOL    HW220508   6.671   2.013   6.760
 6537SOL     OW20509   1.119   0.716   6.583
 6537SOL    HW120510   1.029   0.696   6.622
 6537SOL    HW220511   1.182   0.640   6.603
 6538SOL     OW20512   2.639   2.771   5.660
 6538SOL    HW120513   2.728   2.817   5.656
 6538SOL    HW220514   2.653   2.672   5.655
 6539SOL     OW20515   3.269   1.629   6.564
 6539SOL    HW120516   3.290   1.657   6.657
 6539SOL    HW220517   3.321   1.547   6.540
 6540SOL     OW20518   3.887   1.869   3.939
 6540SOL    HW120519   3.799   1.853   3.984
 6540SOL    HW220520   3.873   1.877   3.840
 6541SOL     OW20521   2.901   2.483   5.514
 6541SOL    HW120522   2.868   2.411   5.454
 6541SOL    HW220523   2.922   2.565   5.460
 6542SOL     OW20524   5.492   4.274   2.872
 6542SOL    HW120525   5.585   4.237   2.873
 6542SOL    HW220526   5.452   4.262   2.781
 6543SOL     OW20527   1.071   6.257   5.740
 6543SOL    HW120528   1.037   6.193   5.810
 6543SOL    HW220529   1.013   6.252   5.659
 6544SOL     OW20530   0.297   6.436   2.685
 6544SOL    HW120531   0.355   6.515   2.665
 6544SOL    HW220532   0.204   6.467   2.706
 6545SOL     OW20533   6.273   3.241   6.411
 6545SOL    HW120534   6.251   3.178   6.486
 6545SOL    HW220535   6.198   3.307   6.400
 6546SOL     OW20536   3.022   4.695   6.111
 6546SOL    HW120537   2.985   4.648   6.031
 6546SOL    HW220538   3.098   4.754   6.083
 6547SOL     OW20539   4.996   0.550   6.611
 6547SOL    HW120540   5.012   0.461   6.568
 6547SOL    HW220541   4.998   0.621   6.542
 6548SOL     OW20542   5.028   3.939   5.664
 6548SOL    HW120543   5.048   4.037   5.656
 6548SOL    HW220544   5.114   3.889   5.668
 6549SOL     OW20545   2.729   2.252   2.755
 6549SOL    HW120546   2.725   2.222   2.660
 6549SOL    HW220547   2.821   2.240   2.791
 6550SOL     OW20548   0.838   5.717   2.705
 6550SOL    HW120549   0.922   5.766   2.682
 6550SOL    HW220550   0.860   5.631   2.750
 6551SOL     OW20551   3.028   5.178   2.221
 6551SOL    HW120552   3.009   5.234   2.140
 6551SOL    HW220553   3.060   5.088   2.192
 6552SOL     OW20554   4.226   5.039   6.053
 6552SOL    HW120555   4.212   4.940   6.049
 6552SOL    HW220556   4.176   5.077   6.131
 6553SOL     OW20557   0.048   3.382   3.319
 6553SOL    HW120558   0.104   3.462   3.341
 6553SOL    HW220559   0.104   3.299   3.323
 6554SOL     OW20560   6.914   3.728   4.619
 6554SOL    HW120561   7.002   3.696   4.585
 6554SOL    HW220562   6.869   3.654   4.669
 6555SOL     OW20563   0.679   1.237   1.353
 6555SOL    HW120564   0.717   1.327   1.375
 6555SOL    HW220565   0.751   1.168   1.359
 6556SOL     OW20566   3.624   0.174   3.490
 6556SOL    HW120567   3.723   0.186   3.482
 6556SOL    HW220568   3.592   0.212   3.576
 6557SOL     OW20569   5.488   5.911   0.551
 6557SOL    HW120570   5.521   6.005   0.537
 6557SOL    HW220571   5.547   5.865   0.617
 6558SOL     OW20572   6.939   6.050   5.901
 6558SOL    HW120573   6.913   6.041   5.997
 6558SOL    HW220574   7.011   5.984   5.880
 6559SOL     OW20575   3.135   3.401   1.375
 6559SOL    HW120576   3.144   3.382   1.277
 6559SOL    HW220577   3.186   3.332   1.427
 6560SOL     OW20578   4.456   1.557   1.076
 6560SOL    HW120579   4.412   1.524   0.993
 6560SOL    HW220580   4.474   1.655   1.067
 6561SOL     OW20581   4.079   3.832   4.447
 6561SOL    HW120582   4.080   3.745   4.497
 6561SOL    HW220583   4.077   3.813   4.349
 6562SOL     OW20584   6.833   4.560   5.197
 6562SOL    HW120585   6.736   4.576   5.178
 6562SOL    HW220586   6.868   4.490   5.135
 6563SOL     OW20587   0.636   5.433   2.494
 6563SOL    HW120588   0.604   5.458   2.403
 6563SOL    HW220589   0.560   5.398   2.548
 6564SOL     OW20590   1.350   5.146   2.758
 6564SOL    HW120591   1.279   5.113   2.821
 6564SOL    HW220592   1.367   5.242   2.776
 6565SOL     OW20593   6.828   3.204   5.177
 6565SOL    HW120594   6.835   3.125   5.117
 6565SOL    HW220595   6.763   3.186   5.250
 6566SOL     OW20596   4.299   1.281   0.571
 6566SOL    HW120597   4.330   1.292   0.476
 6566SOL    HW220598   4.200   1.274   0.573
 6567SOL     OW20599   6.593   2.767   1.079
 6567SOL    HW120600   6.658   2.825   1.128
 6567SOL    HW220601   6.570   2.688   1.135
 6568SOL     OW20602   4.626   3.675   1.106
 6568SOL    HW120603   4.675   3.748   1.059
 6568SOL    HW220604   4.672   3.588   1.089
 6569SOL     OW20605   1.043   4.645   5.917
 6569SOL    HW120606   0.945   4.653   5.900
 6569SOL    HW220607   1.080   4.735   5.940
 6570SOL     OW20608   6.613   4.090   1.801
 6570SOL    HW120609   6.604   4.054   1.709
 6570SOL    HW220610   6.638   4.016   1.864
 6571SOL     OW20611   2.106   6.352   3.729
 6571SOL    HW120612   2.182   6.288   3.710
 6571SOL    HW220613   2.089   6.354   3.827
 6572SOL     OW20614   1.720   3.843   6.289
 6572SOL    HW120615   1.795   3.811   6.347
 6572SOL    HW220616   1.722   3.792   6.202
 6573SOL     OW20617   1.696   1.762   1.680
 6573SOL    HW120618   1.639   1.680   1.690
 6573SOL    HW220619   1.787   1.736   1.648
 6574SOL     OW20620   2.212   4.544   4.576
 6574SOL    HW120621   2.129   4.536   4.632
 6574SOL    HW220622   2.191   4.596   4.493
 6575SOL     OW20623   1.952   1.586   2.888
 6575SOL    HW120624   1.899   1.666   2.859
 6575SOL    HW220625   1.986   1.600   2.981
 6576SOL     OW20626   0.662   6.349   3.966
 6576SOL    HW120627   0.629   6.305   4.049
 6576SOL    HW220628   0.638   6.293   3.887
 6577SOL     OW20629   0.181   3.784   5.296
 6577SOL    HW120630   0.274   3.822   5.299
 6577SOL    HW220631   0.168   3.735   5.210
 6578SOL     OW20632   6.761   5.640   3.767
 6578SOL    HW120633   6.712   5.727   3.778
 6578SOL    HW220634   6.728   5.594   3.685
 6579SOL     OW20635   7.011   4.233   3.888
 6579SOL    HW120636   0.068   4.205   3.937
 6579SOL    HW220637   7.022   4.327   3.855
 6580SOL     OW20638   5.311   3.062   0.262
 6580SOL    HW120639   5.283   3.101   0.174
 6580SOL    HW220640   5.409   3.078   0.276
 6581SOL     OW20641   2.738   2.202   5.932
 6581SOL    HW120642   2.658   2.258   5.950
 6581SOL    HW220643   2.821   2.250   5.961
 6582SOL     OW20644   6.838   0.368   2.700
 6582SOL    HW120645   6.757   0.318   2.730
 6582SOL    HW220646   6.812   0.461   2.674
 6583SOL     OW20647   6.604   1.413   5.933
 6583SOL    HW120648   6.598   1.489   5.868
 6583SOL    HW220649   6.648   1.445   6.018
 6584SOL     OW20650   5.688   2.690   0.408
 6584SOL    HW120651   5.744   2.609   0.391
 6584SOL    HW220652   5.746   2.764   0.442
 6585SOL     OW20653   2.607   0.964   1.798
 6585SOL    HW120654   2.659   1.031   1.851
 6585SOL    HW220655   2.511   0.965   1.828
 6586SOL     OW20656   5.980   1.815   7.017
 6586SOL    HW120657   5.962   1.783   6.924
 6586SOL    HW220658   5.948   1.909   0.001
 6587SOL     OW20659   2.234   6.279   1.908
 6587SOL    HW120660   2.204   6.225   1.987
 6587SOL    HW220661   2.229   6.223   1.825
 6588SOL     OW20662   3.034   2.458   0.345
 6588SOL    HW120663   3.000   2.546   0.380
 6588SOL    HW220664   3.000   2.444   0.252
 6589SOL     OW20665   4.806   1.704   5.943
 6589SOL    HW120666   4.898   1.743   5.947
 6589SOL    HW220667   4.741   1.776   5.920
 6590SOL     OW20668   5.941   1.410   5.424
 6590SOL    HW120669   5.934   1.385   5.327
 6590SOL    HW220670   6.035   1.396   5.455
 6591SOL     OW20671   5.334   0.158   2.978
 6591SOL    HW120672   5.261   0.206   3.027
 6591SOL    HW220673   5.351   0.204   2.891
 6592SOL     OW20674   6.482   5.490   5.047
 6592SOL    HW120675   6.490   5.548   5.128
 6592SOL    HW220676   6.562   5.430   5.041
 6593SOL     OW20677   5.150   0.865   2.728
 6593SOL    HW120678   5.074   0.907   2.776
 6593SOL    HW220679   5.118   0.784   2.678
 6594SOL     OW20680   5.548   1.089   6.912
 6594SOL    HW120681   5.577   1.002   6.871
 6594SOL    HW220682   5.487   1.072   6.989
 6595SOL     OW20683   3.304   2.783   6.675
 6595SOL    HW120684   3.231   2.849   6.694
 6595SOL    HW220685   3.282   2.695   6.718
 6596SOL     OW20686   3.112   6.460   5.354
 6596SOL    HW120687   3.193   6.475   5.296
 6596SOL    HW220688   3.080   6.366   5.343
 6597SOL     OW20689   0.008   4.161   6.639
 6597SOL    HW120690   0.068   4.096   6.593
 6597SOL    HW220691   7.014   4.130   6.732
 6598SOL     OW20692   2.485   6.093   4.700
 6598SOL    HW120693   2.478   6.037   4.782
 6598SOL    HW220694   2.581   6.112   4.680
 6599SOL     OW20695   4.397   3.189   6.427
 6599SOL    HW120696   4.409   3.248   6.507
 6599SOL    HW220697   4.350   3.240   6.355
 6600SOL     OW20698   4.290   5.140   4.732
 6600SOL    HW120699   4.323   5.232   4.711
 6600SOL    HW220700   4.366   5.084   4.765
 6601SOL     OW20701   0.292   0.697   1.870
 6601SOL    HW120702   0.308   0.721   1.774
 6601SOL    HW220703   0.343   0.615   1.893
 6602SOL     OW20704   6.729   1.329   1.383
 6602SOL    HW120705   6.643   1.312   1.432
 6602SOL    HW220706   6.805   1.297   1.439
 6603SOL     OW20707   2.739   1.597   2.017
 6603SOL    HW120708   2.737   1.538   2.097
 6603SOL    HW220709   2.757   1.542   1.935
 6604SOL     OW20710   4.295   5.979   4.514
 6604SOL    HW120711   4.286   5.912   4.441
 6604SOL    HW220712   4.334   5.935   4.595
 6605SOL     OW20713   5.005   6.593   0.336
 6605SOL    HW120714   4.970   6.502   0.311
 6605SOL    HW220715   5.001   6.604   0.435
 6606SOL     OW20716   0.278   2.474   2.814
 6606SOL    HW120717   0.295   2.421   2.897
 6606SOL    HW220718   0.337   2.440   2.741
 6607SOL     OW20719   1.215   3.342   2.662
 6607SOL    HW120720   1.185   3.407   2.732
 6607SOL    HW220721   1.152   3.347   2.584
 6608SOL     OW20722   5.064   4.423   4.982
 6608SOL    HW120723   5.089   4.329   5.007
 6608SOL    HW220724   4.977   4.422   4.932
 6609SOL     OW20725   5.351   2.162   0.132
 6609SOL    HW120726   5.275   2.098   0.127
 6609SOL    HW220727   5.404   2.145   0.215
 6610SOL     OW20728   3.754   1.243   0.744
 6610SOL    HW120729   3.736   1.245   0.646
 6610SOL    HW220730   3.687   1.301   0.791
 6611SOL     OW20731   5.411   3.481   3.188
 6611SOL    HW120732   5.487   3.536   3.154
 6611SOL    HW220733   5.422   3.387   3.156
 6612SOL     OW20734   0.968   6.003   6.440
 6612SOL    HW120735   0.968   5.980   6.537
 6612SOL    HW220736   0.968   6.103   6.430
 6613SOL     OW20737   5.664   4.739   0.848
 6613SOL    HW120738   5.674   4.658   0.905
 6613SOL    HW220739   5.581   4.730   0.793
 6614SOL     OW20740   5.588   4.483   5.897
 6614SOL    HW120741   5.667   4.475   5.836
 6614SOL    HW220742   5.604   4.430   5.980
 6615SOL     OW20743   0.278   3.477   5.259
 6615SOL    HW120744   0.312   3.420   5.334
 6615SOL    HW220745   0.260   3.570   5.293
 6616SOL     OW20746   4.622   1.015   3.882
 6616SOL    HW120747   4.675   1.045   3.961
 6616SOL    HW220748   4.679   0.957   3.824
 6617SOL     OW20749   4.415   0.096   5.024
 6617SOL    HW120750   4.334   0.142   4.987
 6617SOL    HW220751   4.386   0.013   5.073
 6618SOL     OW20752   6.906   4.792   1.055
 6618SOL    HW120753   6.974   4.735   1.100
 6618SOL    HW220754   6.938   4.887   1.053
 6619SOL     OW20755   0.141   6.136   1.474
 6619SOL    HW120756   0.064   6.111   1.533
 6619SOL    HW220757   0.213   6.178   1.529
 6620SOL     OW20758   4.590   3.176   5.342
 6620SOL    HW120759   4.557   3.270   5.330
 6620SOL    HW220760   4.687   3.178   5.364
 6621SOL     OW20761   2.409   3.281   0.243
 6621SOL    HW120762   2.381   3.192   0.278
 6621SOL    HW220763   2.466   3.269   0.162
 6622SOL     OW20764   6.180   5.456   0.748
 6622SOL    HW120765   6.144   5.535   0.797
 6622SOL    HW220766   6.115   5.428   0.677
 6623SOL     OW20767   3.586   4.115   2.536
 6623SOL    HW120768   3.489   4.097   2.549
 6623SOL    HW220769   3.625   4.154   2.619
 6624SOL     OW20770   4.292   5.053   4.235
 6624SOL    HW120771   4.214   5.106   4.268
 6624SOL    HW220772   4.285   5.044   4.135
 6625SOL     OW20773   5.957   6.954   0.020
 6625SOL    HW120774   6.042   6.917   0.058
 6625SOL    HW220775   5.882   6.890   0.039
 6626SOL     OW20776   3.051   4.952   3.639
 6626SOL    HW120777   3.110   4.908   3.571
 6626SOL    HW220778   2.979   5.003   3.593
 6627SOL     OW20779   1.884   6.840   1.825
 6627SOL    HW120780   1.847   6.932   1.812
 6627SOL    HW220781   1.942   6.816   1.747
 6628SOL     OW20782   4.233   5.916   3.779
 6628SOL    HW120783   4.265   5.824   3.760
 6628SOL    HW220784   4.186   5.952   3.698
 6629SOL     OW20785   3.105   3.881   0.135
 6629SOL    HW120786   3.160   3.863   0.217
 6629SOL    HW220787   3.113   3.804   0.072
 6630SOL     OW20788   3.678   1.025   6.599
 6630SOL    HW120789   3.579   1.019   6.596
 6630SOL    HW220790   3.705   1.117   6.627
 6631SOL     OW20791   3.944   0.150   1.437
 6631SOL    HW120792   4.023   0.090   1.427
 6631SOL    HW220793   3.974   0.246   1.435
 6632SOL     OW20794   6.270   2.660   2.378
 6632SOL    HW120795   6.294   2.581   2.435
 6632SOL    HW220796   6.173   2.682   2.391
 6633SOL     OW20797   0.805   6.183   1.981
 6633SOL    HW120798   0.714   6.141   1.979
 6633SOL    HW220799   0.848   6.168   2.070
 6634SOL     OW20800   6.629   2.444   5.964
 6634SOL    HW120801   6.662   2.523   5.913
 6634SOL    HW220802   6.643   2.361   5.910
 6635SOL     OW20803   4.390   4.969   3.334
 6635SOL    HW120804   4.367   4.887   3.386
 6635SOL    HW220805   4.435   4.943   3.248
 6636SOL     OW20806   1.844   3.465   3.775
 6636SOL    HW120807   1.883   3.444   3.865
 6636SOL    HW220808   1.905   3.430   3.704
 6637SOL     OW20809   6.286   2.715   1.243
 6637SOL    HW120810   6.250   2.690   1.154
 6637SOL    HW220811   6.296   2.633   1.299
 6638SOL     OW20812   1.884   0.631   6.401
 6638SOL    HW120813   1.806   0.643   6.339
 6638SOL    HW220814   1.861   0.667   6.491
 6639SOL     OW20815   4.140   5.749   6.181
 6639SOL    HW120816   4.196   5.723   6.103
 6639SOL    HW220817   4.050   5.705   6.173
 6640SOL     OW20818   5.756   2.883   3.272
 6640SOL    HW120819   5.683   2.949   3.251
 6640SOL    HW220820   5.721   2.790   3.257
 6641SOL     OW20821   2.113   5.424   6.809
 6641SOL    HW120822   2.177   5.447   6.735
 6641SOL    HW220823   2.041   5.364   6.774
 6642SOL     OW20824   6.799   6.022   6.437
 6642SOL    HW120825   6.709   6.061   6.417
 6642SOL    HW220826   6.793   5.922   6.440
 6643SOL     OW20827   4.028   5.209   6.765
 6643SOL    HW120828   3.963   5.149   6.813
 6643SOL    HW220829   4.085   5.154   6.704
 6644SOL     OW20830   0.881   4.017   2.100
 6644SOL    HW120831   0.788   4.039   2.072
 6644SOL    HW220832   0.927   4.100   2.132
 6645SOL     OW20833   6.200   4.497   5.136
 6645SOL    HW120834   6.300   4.504   5.136
 6645SOL    HW220835   6.173   4.412   5.182
 6646SOL     OW20836   1.219   5.980   3.686
 6646SOL    HW120837   1.264   5.972   3.598
 6646SOL    HW220838   1.199   5.890   3.723
 6647SOL     OW20839   4.063   1.800   2.091
 6647SOL    HW120840   4.139   1.755   2.137
 6647SOL    HW220841   3.987   1.813   2.156
 6648SOL     OW20842   4.084   5.618   1.586
 6648SOL    HW120843   4.018   5.682   1.625
 6648SOL    HW220844   4.151   5.668   1.532
 6649SOL     OW20845   4.478   1.460   6.334
 6649SOL    HW120846   4.481   1.507   6.246
 6649SOL    HW220847   4.456   1.526   6.406
 6650SOL     OW20848   3.124   0.767   4.080
 6650SOL    HW120849   3.143   0.722   4.168
 6650SOL    HW220850   3.129   0.866   4.091
 6651SOL     OW20851   0.541   1.850   0.795
 6651SOL    HW120852   0.581   1.758   0.806
 6651SOL    HW220853   0.615   1.917   0.785
 6652SOL     OW20854   0.766   5.194   3.268
 6652SOL    HW120855   0.733   5.123   3.331
 6652SOL    HW220856   0.827   5.256   3.318
 6653SOL     OW20857   3.480   3.602   3.569
 6653SOL    HW120858   3.449   3.584   3.476
 6653SOL    HW220859   3.513   3.696   3.576
 6654SOL     OW20860   1.587   3.716   1.105
 6654SOL    HW120861   1.639   3.795   1.138
 6654SOL    HW220862   1.489   3.736   1.111
 6655SOL     OW20863   1.606   0.753   0.198
 6655SOL    HW120864   1.617   0.737   0.296
 6655SOL    HW220865   1.572   0.846   0.183
 6656SOL     OW20866   0.290   2.617   1.998
 6656SOL    HW120867   0.326   2.694   1.946
 6656SOL    HW220868   0.263   2.648   2.090
 6657SOL     OW20869   3.250   4.982   5.416
 6657SOL    HW120870   3.199   4.906   5.456
 6657SOL    HW220871   3.218   4.999   5.323
 6658SOL     OW20872   6.394   6.810   6.577
 6658SOL    HW120873   6.471   6.797   6.639
 6658SOL    HW220874   6.427   6.810   6.482
 6659SOL     OW20875   1.468   2.824   6.699
 6659SOL    HW120876   1.421   2.758   6.758
 6659SOL    HW220877   1.406   2.853   6.625
 6660SOL     OW20878   1.015   6.302   2.876
 6660SOL    HW120879   0.945   6.264   2.816
 6660SOL    HW220880   1.031   6.398   2.852
 6661SOL     OW20881   6.839   6.604   3.889
 6661SOL    HW120882   6.776   6.532   3.860
 6661SOL    HW220883   6.806   6.692   3.857
 6662SOL     OW20884   1.329   3.816   5.733
 6662SOL    HW120885   1.305   3.913   5.744
 6662SOL    HW220886   1.286   3.763   5.805
 6663SOL     OW20887   0.552   4.983   2.368
 6663SOL    HW120888   0.471   5.028   2.328
 6663SOL    HW220889   0.597   5.046   2.431
 6664SOL     OW20890   0.142   2.041   2.315
 6664SOL    HW120891   0.129   1.996   2.227
 6664SOL    HW220892   0.064   2.102   2.333
 6665SOL     OW20893   2.255   0.278   2.227
 6665SOL    HW120894   2.339   0.248   2.183
 6665SOL    HW220895   2.274   0.302   2.322
 6666SOL     OW20896   5.052   1.423   0.445
 6666SOL    HW120897   5.149   1.417   0.470
 6666SOL    HW220898   5.045   1.446   0.347
 6667SOL     OW20899   5.993   4.859   4.772
 6667SOL    HW120900   6.043   4.795   4.831
 6667SOL    HW220901   6.043   4.946   4.767
 6668SOL     OW20902   6.894   6.561   1.215
 6668SOL    HW120903   6.894   6.551   1.116
 6668SOL    HW220904   6.869   6.655   1.240
 6669SOL     OW20905   0.934   5.019   2.839
 6669SOL    HW120906   0.857   5.073   2.872
 6669SOL    HW220907   0.905   4.925   2.822
 6670SOL     OW20908   4.330   4.458   6.968
 6670SOL    HW120909   4.274   4.514   6.907
 6670SOL    HW220910   4.352   4.511   0.025
 6671SOL     OW20911   0.597   2.870   5.640
 6671SOL    HW120912   0.505   2.847   5.672
 6671SOL    HW220913   0.627   2.956   5.682
 6672SOL     OW20914   0.281   0.542   5.525
 6672SOL    HW120915   0.208   0.479   5.500
 6672SOL    HW220916   0.244   0.635   5.533
 6673SOL     OW20917   4.806   5.770   1.088
 6673SOL    HW120918   4.895   5.790   1.129
 6673SOL    HW220919   4.738   5.755   1.160
 6674SOL     OW20920   0.868   6.796   5.721
 6674SOL    HW120921   0.778   6.775   5.758
 6674SOL    HW220922   0.906   6.714   5.678
 6675SOL     OW20923   0.000   6.350   0.458
 6675SOL    HW120924   6.954   6.329   0.392
 6675SOL    HW220925   7.005   6.437   0.503
 6676SOL     OW20926   0.277   1.790   1.107
 6676SOL    HW120927   0.312   1.869   1.159
 6676SOL    HW220928   0.314   1.706   1.147
 6677SOL     OW20929   0.257   4.883   0.386
 6677SOL    HW120930   0.233   4.831   0.468
 6677SOL    HW220931   0.350   4.860   0.357
 6678SOL     OW20932   0.956   3.150   4.490
 6678SOL    HW120933   0.951   3.135   4.391
 6678SOL    HW220934   1.050   3.141   4.521
 6679SOL     OW20935   1.712   1.006   4.976
 6679SOL    HW120936   1.666   1.035   4.892
 6679SOL    HW220937   1.656   0.938   5.023
 6680SOL     OW20938   2.694   0.895   6.323
 6680SOL    HW120939   2.678   0.965   6.254
 6680SOL    HW220940   2.662   0.806   6.289
 6681SOL     OW20941   5.299   5.741   6.524
 6681SOL    HW120942   5.351   5.718   6.607
 6681SOL    HW220943   5.340   5.821   6.481
 6682SOL     OW20944   6.836   5.321   1.715
 6682SOL    HW120945   6.852   5.298   1.811
 6682SOL    HW220946   6.751   5.373   1.707
 6683SOL     OW20947   4.866   1.887   4.613
 6683SOL    HW120948   4.824   1.951   4.677
 6683SOL    HW220949   4.954   1.857   4.648
 6684SOL     OW20950   1.477   1.570   2.751
 6684SOL    HW120951   1.432   1.537   2.834
 6684SOL    HW220952   1.547   1.637   2.776
 6685SOL     OW20953   5.690   2.901   6.848
 6685SOL    HW120954   5.747   2.847   6.910
 6685SOL    HW220955   5.628   2.841   6.798
 6686SOL     OW20956   5.984   3.934   4.067
 6686SOL    HW120957   6.048   3.897   4.000
 6686SOL    HW220958   5.909   3.980   4.019
 6687SOL     OW20959   0.348   0.608   0.385
 6687SOL    HW120960   0.393   0.534   0.334
 6687SOL    HW220961   0.265   0.636   0.338
 6688SOL     OW20962   0.638   4.920   2.654
 6688SOL    HW120963   0.691   4.990   2.606
 6688SOL    HW220964   0.698   4.869   2.715
 6689SOL     OW20965   4.932   4.487   0.025
 6689SOL    HW120966   4.882   4.511   6.967
 6689SOL    HW220967   5.024   4.526   0.021
 6690SOL     OW20968   0.723   1.621   0.766
 6690SOL    HW120969   0.735   1.591   0.671
 6690SOL    HW220970   0.810   1.612   0.814
 6691SOL     OW20971   1.457   5.209   0.789
 6691SOL    HW120972   1.551   5.244   0.797
 6691SOL    HW220973   1.440   5.178   0.696
 6692SOL     OW20974   4.381   4.051   6.298
 6692SOL    HW120975   4.407   4.036   6.394
 6692SOL    HW220976   4.400   3.967   6.246
 6693SOL     OW20977   4.321   3.682   5.744
 6693SOL    HW120978   4.339   3.586   5.767
 6693SOL    HW220979   4.223   3.698   5.741
 6694SOL     OW20980   2.694   5.922   7.003
 6694SOL    HW120981   2.628   5.987   0.016
 6694SOL    HW220982   2.714   5.850   0.045
 6695SOL     OW20983   1.500   1.637   6.937
 6695SOL    HW120984   1.441   1.712   6.967
 6695SOL    HW220985   1.544   1.663   6.851
 6696SOL     OW20986   1.823   3.142   1.321
 6696SOL    HW120987   1.754   3.190   1.268
 6696SOL    HW220988   1.799   3.045   1.328
 6697SOL     OW20989   5.229   3.281   4.323
 6697SOL    HW120990   5.240   3.193   4.276
 6697SOL    HW220991   5.295   3.346   4.285
 6698SOL     OW20992   2.655   4.074   6.586
 6698SOL    HW120993   2.569   4.056   6.633
 6698SOL    HW220994   2.647   4.158   6.532
 6699SOL     OW20995   1.536   3.377   6.719
 6699SOL    HW120996   1.440   3.384   6.694
 6699SOL    HW220997   1.573   3.290   6.688
 6700SOL     OW20998   0.544   6.556   6.464
 6700SOL    HW120999   0.456   6.523   6.498
 6700SOL    HW221000   0.590   6.483   6.415
 6701SOL     OW21001   0.692   2.281   0.961
 6701SOL    HW121002   0.633   2.204   0.985
 6701SOL    HW221003   0.636   2.364   0.951
 6702SOL     OW21004   1.811   3.401   0.495
 6702SOL    HW121005   1.782   3.349   0.415
 6702SOL    HW221006   1.822   3.340   0.573
 6703SOL     OW21007   0.153   2.379   6.650
 6703SOL    HW121008   0.197   2.320   6.719
 6703SOL    HW221009   0.222   2.439   6.609
 6704SOL     OW21010   4.844   3.137   3.060
 6704SOL    HW121011   4.854   3.047   3.103
 6704SOL    HW221012   4.808   3.202   3.126
 6705SOL     OW21013   5.901   1.273   1.036
 6705SOL    HW121014   5.809   1.312   1.027
 6705SOL    HW221015   5.923   1.263   1.133
 6706SOL     OW21016   1.246   6.040   6.870
 6706SOL    HW121017   1.187   5.977   6.819
 6706SOL    HW221018   1.260   6.005   6.963
 6707SOL     OW21019   0.988   5.136   2.611
 6707SOL    HW121020   0.966   5.102   2.702
 6707SOL    HW221021   1.058   5.207   2.618
 6708SOL     OW21022   1.876   6.134   1.178
 6708SOL    HW121023   1.841   6.202   1.114
 6708SOL    HW221024   1.916   6.180   1.257
 6709SOL     OW21025   5.690   1.764   3.519
 6709SOL    HW121026   5.599   1.724   3.517
 6709SOL    HW221027   5.740   1.738   3.436
 6710SOL     OW21028   1.719   2.030   0.636
 6710SOL    HW121029   1.752   1.970   0.563
 6710SOL    HW221030   1.619   2.033   0.634
 6711SOL     OW21031   5.464   3.588   6.279
 6711SOL    HW121032   5.495   3.507   6.230
 6711SOL    HW221033   5.430   3.562   6.370
 6712SOL     OW21034   3.485   6.545   1.044
 6712SOL    HW121035   3.495   6.500   1.132
 6712SOL    HW221036   3.400   6.514   1.000
 6713SOL     OW21037   1.449   1.906   3.535
 6713SOL    HW121038   1.505   1.954   3.467
 6713SOL    HW221039   1.355   1.941   3.531
 6714SOL     OW21040   6.729   0.272   5.061
 6714SOL    HW121041   6.699   0.304   5.151
 6714SOL    HW221042   6.685   0.327   4.990
 6715SOL     OW21043   6.068   2.164   0.806
 6715SOL    HW121044   6.043   2.147   0.901
 6715SOL    HW221045   6.167   2.153   0.795
 6716SOL     OW21046   3.481   6.257   0.936
 6716SOL    HW121047   3.485   6.158   0.944
 6716SOL    HW221048   3.434   6.295   1.015
 6717SOL     OW21049   4.150   1.189   6.981
 6717SOL    HW121050   4.111   1.214   0.044
 6717SOL    HW221051   4.098   1.114   6.941
 6718SOL     OW21052   3.833   0.499   6.674
 6718SOL    HW121053   3.853   0.596   6.690
 6718SOL    HW221054   3.782   0.490   6.589
 6719SOL     OW21055   0.613   2.014   5.614
 6719SOL    HW121056   0.564   2.100   5.599
 6719SOL    HW221057   0.698   2.015   5.561
 6720SOL     OW21058   1.658   5.019   1.289
 6720SOL    HW121059   1.687   5.039   1.196
 6720SOL    HW221060   1.559   5.031   1.297
 6721SOL     OW21061   6.958   6.032   3.037
 6721SOL    HW121062   6.963   6.132   3.044
 6721SOL    HW221063   6.869   6.006   2.998
 6722SOL     OW21064   4.604   4.791   6.697
 6722SOL    HW121065   4.694   4.755   6.720
 6722SOL    HW221066   4.555   4.814   6.781
 6723SOL     OW21067   3.977   1.116   2.707
 6723SOL    HW121068   4.029   1.083   2.786
 6723SOL    HW221069   3.883   1.084   2.712
 6724SOL     OW21070   3.632   4.425   5.309
 6724SOL    HW121071   3.558   4.358   5.298
 6724SOL    HW221072   3.704   4.406   5.242
 6725SOL     OW21073   0.281   5.265   1.077
 6725SOL    HW121074   0.184   5.258   1.054
 6725SOL    HW221075   0.317   5.174   1.098
 6726SOL     OW21076   2.265   2.946   1.734
 6726SOL    HW121077   2.275   2.940   1.635
 6726SOL    HW221078   2.282   3.040   1.764
 6727SOL     OW21079   3.350   4.124   0.725
 6727SOL    HW121080   3.358   4.156   0.631
 6727SOL    HW221081   3.351   4.024   0.726
 6728SOL     OW21082   4.461   1.542   4.466
 6728SOL    HW121083   4.513   1.557   4.550
 6728SOL    HW221084   4.366   1.571   4.479
 6729SOL     OW21085   4.940   6.079   3.446
 6729SOL    HW121086   4.924   6.176   3.462
 6729SOL    HW221087   5.033   6.065   3.413
 6730SOL     OW21088   1.382   6.993   2.272
 6730SOL    HW121089   1.327   0.050   2.284
 6730SOL    HW221090   1.479   7.018   2.267
 6731SOL     OW21091   2.019   3.936   1.734
 6731SOL    HW121092   2.060   3.948   1.825
 6731SOL    HW221093   2.018   4.024   1.687
 6732SOL     OW21094   3.133   5.545   0.442
 6732SOL    HW121095   3.068   5.497   0.500
 6732SOL    HW221096   3.174   5.620   0.493
 6733SOL     OW21097   6.202   5.770   4.708
 6733SOL    HW121098   6.154   5.754   4.622
 6733SOL    HW221099   6.140   5.813   4.774
 6734SOL     OW21100   2.461   3.455   6.324
 6734SOL    HW121101   2.461   3.490   6.418
 6734SOL    HW221102   2.416   3.521   6.265
 6735SOL     OW21103   0.848   6.642   6.453
 6735SOL    HW121104   0.768   6.691   6.419
 6735SOL    HW221105   0.903   6.609   6.376
 6736SOL     OW21106   2.565   4.523   2.201
 6736SOL    HW121107   2.526   4.497   2.113
 6736SOL    HW221108   2.659   4.555   2.188
 6737SOL     OW21109   1.741   6.939   0.932
 6737SOL    HW121110   1.741   0.008   0.965
 6737SOL    HW221111   1.776   6.879   1.004
 6738SOL     OW21112   4.782   1.661   1.305
 6738SOL    HW121113   4.701   1.610   1.333
 6738SOL    HW221114   4.863   1.621   1.349
 6739SOL     OW21115   4.398   6.509   5.653
 6739SOL    HW121116   4.473   6.464   5.604
 6739SOL    HW221117   4.331   6.542   5.587
 6740SOL     OW21118   5.807   2.542   5.652
 6740SOL    HW121119   5.888   2.581   5.610
 6740SOL    HW221120   5.725   2.577   5.607
 6741SOL     OW21121   7.019   0.298   6.055
 6741SOL    HW121122   0.053   0.321   5.978
 6741SOL    HW221123   6.940   0.247   6.021
 6742SOL     OW21124   6.341   5.714   4.932
 6742SOL    HW121125   6.292   5.694   4.847
 6742SOL    HW221126   6.375   5.628   4.972
 6743SOL     OW21127   5.874   2.331   1.572
 6743SOL    HW121128   5.884   2.410   1.633
 6743SOL    HW221129   5.815   2.263   1.614
 6744SOL     OW21130   4.623   6.872   4.259
 6744SOL    HW121131   4.685   6.811   4.210
 6744SOL    HW221132   4.600   6.832   4.347
 6745SOL     OW21133   0.618   3.445   3.064
 6745SOL    HW121134   0.610   3.351   3.096
 6745SOL    HW221135   0.714   3.464   3.042
 6746SOL     OW21136   6.132   1.132   0.550
 6746SOL    HW121137   6.055   1.147   0.611
 6746SOL    HW221138   6.105   1.150   0.456
 6747SOL     OW21139   4.776   5.427   0.022
 6747SOL    HW121140   4.765   5.362   6.973
 6747SOL    HW221141   4.739   5.516   7.019
 6748SOL     OW21142   0.190   6.449   2.316
 6748SOL    HW121143   0.145   6.399   2.390
 6748SOL    HW221144   0.120   6.490   2.257
 6749SOL     OW21145   2.956   5.605   1.119
 6749SOL    HW121146   3.001   5.578   1.033
 6749SOL    HW221147   2.946   5.705   1.120
 6750SOL     OW21148   2.259   2.985   5.345
 6750SOL    HW121149   2.308   2.960   5.429
 6750SOL    HW221150   2.324   3.022   5.279
 6751SOL     OW21151   3.977   2.363   5.843
 6751SOL    HW121152   4.018   2.364   5.934
 6751SOL    HW221153   3.881   2.391   5.850
 6752SOL     OW21154   6.900   1.803   6.986
 6752SOL    HW121155   6.914   1.767   0.053
 6752SOL    HW221156   6.802   1.805   6.965
 6753SOL     OW21157   6.518   1.341   6.657
 6753SOL    HW121158   6.593   1.404   6.635
 6753SOL    HW221159   6.437   1.367   6.606
 6754SOL     OW21160   4.759   0.412   6.561
 6754SOL    HW121161   4.807   0.375   6.481
 6754SOL    HW221162   4.825   0.449   6.626
 6755SOL     OW21163   5.427   1.681   3.465
 6755SOL    HW121164   5.361   1.741   3.420
 6755SOL    HW221165   5.383   1.636   3.543
 6756SOL     OW21166   4.759   4.676   3.571
 6756SOL    HW121167   4.661   4.656   3.573
 6756SOL    HW221168   4.803   4.642   3.654
 6757SOL     OW21169   5.987   4.604   1.244
 6757SOL    HW121170   5.974   4.632   1.149
 6757SOL    HW221171   6.060   4.659   1.285
 6758SOL     OW21172   6.520   1.845   2.740
 6758SOL    HW121173   6.495   1.900   2.661
 6758SOL    HW221174   6.535   1.750   2.711
 6759SOL     OW21175   1.166   5.197   3.362
 6759SOL    HW121176   1.255   5.200   3.408
 6759SOL    HW221177   1.156   5.110   3.315
 6760SOL     OW21178   6.926   3.665   5.047
 6760SOL    HW121179   6.852   3.727   5.023
 6760SOL    HW221180   6.932   3.657   5.146
 6761SOL     OW21181   6.090   2.829   6.059
 6761SOL    HW121182   6.032   2.749   6.069
 6761SOL    HW221183   6.179   2.801   6.021
 6762SOL     OW21184   0.393   3.859   3.837
 6762SOL    HW121185   0.475   3.826   3.883
 6762SOL    HW221186   0.372   3.800   3.759
 6763SOL     OW21187   6.577   6.651   5.441
 6763SOL    HW121188   6.480   6.676   5.442
 6763SOL    HW221189   6.603   6.624   5.348
 6764SOL     OW21190   1.919   3.668   6.916
 6764SOL    HW121191   1.828   3.702   6.938
 6764SOL    HW221192   1.912   3.587   6.859
 6765SOL     OW21193   4.709   4.845   2.313
 6765SOL    HW121194   4.672   4.770   2.369
 6765SOL    HW221195   4.724   4.925   2.371
 6766SOL     OW21196   2.449   2.300   6.164
 6766SOL    HW121197   2.454   2.323   6.067
 6766SOL    HW221198   2.486   2.208   6.178
 6767SOL     OW21199   0.439   2.744   5.995
 6767SOL    HW121200   0.413   2.659   5.948
 6767SOL    HW221201   0.486   2.804   5.931
 6768SOL     OW21202   6.892   0.820   6.145
 6768SOL    HW121203   6.809   0.860   6.106
 6768SOL    HW221204   6.914   0.735   6.098
 6769SOL     OW21205   0.950   2.335   6.057
 6769SOL    HW121206   0.986   2.252   6.100
 6769SOL    HW221207   0.878   2.310   5.992
 6770SOL     OW21208   0.165   1.437   3.406
 6770SOL    HW121209   0.079   1.488   3.399
 6770SOL    HW221210   0.241   1.501   3.403
 6771SOL     OW21211   6.388   2.017   2.543
 6771SOL    HW121212   6.392   2.117   2.547
 6771SOL    HW221213   6.292   1.987   2.546
 6772SOL     OW21214   1.136   0.630   2.078
 6772SOL    HW121215   1.148   0.541   2.033
 6772SOL    HW221216   1.072   0.620   2.154
 6773SOL     OW21217   1.786   1.096   2.755
 6773SOL    HW121218   1.787   1.177   2.814
 6773SOL    HW221219   1.772   1.015   2.811
 6774SOL     OW21220   4.104   1.087   5.090
 6774SOL    HW121221   4.113   1.159   5.021
 6774SOL    HW221222   4.194   1.045   5.106
 6775SOL     OW21223   1.575   2.288   4.660
 6775SOL    HW121224   1.533   2.237   4.585
 6775SOL    HW221225   1.546   2.383   4.657
 6776SOL     OW21226   3.589   3.856   3.629
 6776SOL    HW121227   3.668   3.900   3.586
 6776SOL    HW221228   3.573   3.896   3.719
 6777SOL     OW21229   0.233   0.067   6.089
 6777SOL    HW121230   0.134   0.077   6.097
 6777SOL    HW221231   0.254   0.013   6.008
 6778SOL     OW21232   6.806   5.838   2.351
 6778SOL    HW121233   6.748   5.775   2.403
 6778SOL    HW221234   6.763   5.859   2.263
 6779SOL     OW21235   4.850   4.347   6.294
 6779SOL    HW121236   4.920   4.376   6.229
 6779SOL    HW221237   4.811   4.260   6.264
 6780SOL     OW21238   4.839   1.102   2.560
 6780SOL    HW121239   4.873   1.188   2.597
 6780SOL    HW221240   4.745   1.114   2.527
 6781SOL     OW21241   5.595   3.669   3.121
 6781SOL    HW121242   5.687   3.635   3.105
 6781SOL    HW221243   5.594   3.724   3.205
 6782SOL     OW21244   0.229   1.679   2.634
 6782SOL    HW121245   0.259   1.584   2.632
 6782SOL    HW221246   0.198   1.706   2.543
 6783SOL     OW21247   0.480   6.575   6.758
 6783SOL    HW121248   0.386   6.606   6.770
 6783SOL    HW221249   0.491   6.535   6.668
 6784SOL     OW21250   1.084   4.782   6.968
 6784SOL    HW121251   1.017   4.709   6.975
 6784SOL    HW221252   1.047   4.857   6.912
 6785SOL     OW21253   5.458   4.492   1.877
 6785SOL    HW121254   5.449   4.577   1.929
 6785SOL    HW221255   5.438   4.509   1.781
 6786SOL     OW21256   6.319   1.573   5.310
 6786SOL    HW121257   6.300   1.659   5.357
 6786SOL    HW221258   6.403   1.582   5.257
 6787SOL     OW21259   4.124   2.197   1.285
 6787SOL    HW121260   4.050   2.242   1.234
 6787SOL    HW221261   4.084   2.134   1.352
 6788SOL     OW21262   1.463   4.176   0.906
 6788SOL    HW121263   1.454   4.078   0.923
 6788SOL    HW221264   1.462   4.193   0.807
 6789SOL     OW21265   6.595   3.315   1.945
 6789SOL    HW121266   6.646   3.231   1.929
 6789SOL    HW221267   6.577   3.360   1.857
 6790SOL     OW21268   0.378   5.401   0.426
 6790SOL    HW121269   0.286   5.406   0.389
 6790SOL    HW221270   0.377   5.428   0.522
 6791SOL     OW21271   1.981   6.385   3.324
 6791SOL    HW121272   1.966   6.318   3.397
 6791SOL    HW221273   2.079   6.404   3.316
 6792SOL     OW21274   3.547   5.917   6.715
 6792SOL    HW121275   3.524   5.860   6.636
 6792SOL    HW221276   3.646   5.919   6.726
 6793SOL     OW21277   2.203   4.080   6.969
 6793SOL    HW121278   2.154   4.044   0.023
 6793SOL    HW221279   2.229   4.175   6.986
 6794SOL     OW21280   4.797   2.170   4.354
 6794SOL    HW121281   4.745   2.173   4.269
 6794SOL    HW221282   4.734   2.166   4.431
 6795SOL     OW21283   0.328   1.076   2.346
 6795SOL    HW121284   0.388   1.078   2.266
 6795SOL    HW221285   0.316   0.982   2.376
 6796SOL     OW21286   6.928   3.066   2.067
 6796SOL    HW121287   6.945   2.970   2.093
 6796SOL    HW221288   7.013   3.118   2.076
 6797SOL     OW21289   1.444   3.618   0.686
 6797SOL    HW121290   1.541   3.638   0.695
 6797SOL    HW221291   1.429   3.520   0.701
 6798SOL     OW21292   4.897   1.668   1.702
 6798SOL    HW121293   4.945   1.738   1.755
 6798SOL    HW221294   4.915   1.578   1.743
 6799SOL     OW21295   5.221   6.935   2.921
 6799SOL    HW121296   5.271   7.018   2.947
 6799SOL    HW221297   5.205   6.936   2.823
 6800SOL     OW21298   6.448   2.631   1.997
 6800SOL    HW121299   6.511   2.706   1.978
 6800SOL    HW221300   6.363   2.667   2.036
 6801SOL     OW21301   2.215   5.061   5.250
 6801SOL    HW121302   2.128   5.053   5.202
 6801SOL    HW221303   2.201   5.043   5.347
 6802SOL     OW21304   2.680   4.414   1.701
 6802SOL    HW121305   2.694   4.315   1.693
 6802SOL    HW221306   2.746   4.451   1.767
 6803SOL     OW21307   6.447   5.166   6.266
 6803SOL    HW121308   6.474   5.142   6.359
 6803SOL    HW221309   6.349   5.146   6.254
 6804SOL     OW21310   3.403   4.936   1.943
 6804SOL    HW121311   3.493   4.902   1.969
 6804SOL    HW221312   3.334   4.905   2.009
 6805SOL     OW21313   0.622   3.777   3.968
 6805SOL    HW121314   0.669   3.843   3.909
 6805SOL    HW221315   0.640   3.799   4.064
 6806SOL     OW21316   6.249   3.652   1.714
 6806SOL    HW121317   6.167   3.620   1.667
 6806SOL    HW221318   6.250   3.751   1.717
 6807SOL     OW21319   3.823   2.888   2.275
 6807SOL    HW121320   3.742   2.936   2.241
 6807SOL    HW221321   3.898   2.896   2.209
 6808SOL     OW21322   3.572   6.305   3.802
 6808SOL    HW121323   3.542   6.245   3.728
 6808SOL    HW221324   3.625   6.381   3.764
 6809SOL     OW21325   5.829   2.893   0.573
 6809SOL    HW121326   5.855   2.832   0.648
 6809SOL    HW221327   5.747   2.945   0.600
 6810SOL     OW21328   3.166   7.023   4.486
 6810SOL    HW121329   3.081   0.030   4.444
 6810SOL    HW221330   3.244   0.037   4.437
 6811SOL     OW21331   6.394   1.404   1.325
 6811SOL    HW121332   6.422   1.351   1.405
 6811SOL    HW221333   6.377   1.499   1.353
 6812SOL     OW21334   3.312   4.526   5.353
 6812SOL    HW121335   3.401   4.485   5.333
 6812SOL    HW221336   3.241   4.456   5.349
 6813SOL     OW21337   0.127   4.027   2.192
 6813SOL    HW121338   0.111   4.075   2.278
 6813SOL    HW221339   0.039   4.008   2.148
 6814SOL     OW21340   4.251   2.391   1.726
 6814SOL    HW121341   4.155   2.419   1.734
 6814SOL    HW221342   4.309   2.465   1.760
 6815SOL     OW21343   1.413   5.901   0.355
 6815SOL    HW121344   1.462   5.957   0.421
 6815SOL    HW221345   1.336   5.856   0.400
 6816SOL     OW21346   5.845   6.657   3.777
 6816SOL    HW121347   5.749   6.678   3.763
 6816SOL    HW221348   5.900   6.740   3.767
 6817SOL     OW21349   5.958   0.639   1.614
 6817SOL    HW121350   5.917   0.594   1.534
 6817SOL    HW221351   6.027   0.705   1.584
 6818SOL     OW21352   6.734   0.224   5.654
 6818SOL    HW121353   6.763   0.283   5.580
 6818SOL    HW221354   6.651   0.261   5.696
 6819SOL     OW21355   5.981   4.129   0.057
 6819SOL    HW121356   6.076   4.107   0.037
 6819SOL    HW221357   5.931   4.142   6.997
 6820SOL     OW21358   2.165   4.487   1.263
 6820SOL    HW121359   2.118   4.575   1.267
 6820SOL    HW221360   2.110   4.422   1.212
 6821SOL     OW21361   2.911   2.793   5.909
 6821SOL    HW121362   2.879   2.832   5.823
 6821SOL    HW221363   2.933   2.696   5.896
 6822SOL     OW21364   6.709   4.199   4.787
 6822SOL    HW121365   6.645   4.129   4.818
 6822SOL    HW221366   6.786   4.156   4.739
 6823SOL     OW21367   6.731   3.032   5.631
 6823SOL    HW121368   6.726   2.953   5.570
 6823SOL    HW221369   6.712   3.116   5.580
 6824SOL     OW21370   0.608   0.481   4.034
 6824SOL    HW121371   0.637   0.563   3.984
 6824SOL    HW221372   0.511   0.488   4.056
 6825SOL     OW21373   4.944   4.896   1.665
 6825SOL    HW121374   4.866   4.876   1.606
 6825SOL    HW221375   5.012   4.949   1.614
 6826SOL     OW21376   5.713   0.820   3.869
 6826SOL    HW121377   5.776   0.855   3.800
 6826SOL    HW221378   5.693   0.891   3.936
 6827SOL     OW21379   5.171   5.005   5.117
 6827SOL    HW121380   5.134   5.052   5.037
 6827SOL    HW221381   5.108   4.931   5.143
 6828SOL     OW21382   2.301   2.568   2.635
 6828SOL    HW121383   2.222   2.539   2.581
 6828SOL    HW221384   2.375   2.594   2.574
 6829SOL     OW21385   5.784   6.635   4.077
 6829SOL    HW121386   5.789   6.536   4.087
 6829SOL    HW221387   5.737   6.658   3.992
 6830SOL     OW21388   3.666   6.409   2.264
 6830SOL    HW121389   3.615   6.358   2.333
 6830SOL    HW221390   3.609   6.421   2.182
 6831SOL     OW21391   2.480   0.878   0.002
 6831SOL    HW121392   2.540   0.798   0.007
 6831SOL    HW221393   2.418   0.869   6.949
 6832SOL     OW21394   3.120   3.746   0.413
 6832SOL    HW121395   3.150   3.656   0.381
 6832SOL    HW221396   3.201   3.803   0.432
 6833SOL     OW21397   4.719   4.885   0.289
 6833SOL    HW121398   4.751   4.853   0.378
 6833SOL    HW221399   4.759   4.974   0.268
 6834SOL     OW21400   6.529   5.451   5.424
 6834SOL    HW121401   6.463   5.522   5.397
 6834SOL    HW221402   6.485   5.361   5.418
 6835SOL     OW21403   3.885   0.137   2.626
 6835SOL    HW121404   3.913   0.228   2.657
 6835SOL    HW221405   3.905   0.127   2.528
 6836SOL     OW21406   0.612   4.713   6.736
 6836SOL    HW121407   0.539   4.677   6.794
 6836SOL    HW221408   0.587   4.699   6.640
 6837SOL     OW21409   6.677   2.672   1.542
 6837SOL    HW121410   6.690   2.671   1.641
 6837SOL    HW221411   6.597   2.727   1.519
 6838SOL     OW21412   2.009   4.430   6.970
 6838SOL    HW121413   1.970   4.452   6.881
 6838SOL    HW221414   1.972   4.493   0.013
 6839SOL     OW21415   5.942   2.110   5.599
 6839SOL    HW121416   5.889   2.076   5.522
 6839SOL    HW221417   5.915   2.061   5.682
 6840SOL     OW21418   3.495   6.978   4.593
 6840SOL    HW121419   3.502   6.914   4.517
 6840SOL    HW221420   3.486   0.045   4.558
 6841SOL     OW21421   4.588   6.022   0.611
 6841SOL    HW121422   4.644   6.093   0.569
 6841SOL    HW221423   4.627   5.933   0.590
 6842SOL     OW21424   1.111   3.511   3.555
 6842SOL    HW121425   1.063   3.577   3.497
 6842SOL    HW221426   1.101   3.537   3.651
 6843SOL     OW21427   4.863   3.004   1.738
 6843SOL    HW121428   4.765   3.014   1.753
 6843SOL    HW221429   4.902   2.945   1.809
 6844SOL     OW21430   3.533   6.811   4.375
 6844SOL    HW121431   3.448   6.823   4.323
 6844SOL    HW221432   3.581   6.730   4.341
 6845SOL     OW21433   3.441   3.979   6.997
 6845SOL    HW121434   3.394   4.031   0.043
 6845SOL    HW221435   3.448   3.883   7.025
 6846SOL     OW21436   3.899   2.964   4.050
 6846SOL    HW121437   3.958   2.898   4.096
 6846SOL    HW221438   3.874   3.037   4.114
 6847SOL     OW21439   5.141   3.663   2.283
 6847SOL    HW121440   5.161   3.743   2.226
 6847SOL    HW221441   5.076   3.689   2.354
 6848SOL     OW21442   0.711   5.872   4.924
 6848SOL    HW121443   0.775   5.804   4.960
 6848SOL    HW221444   0.638   5.886   4.990
 6849SOL     OW21445   3.128   0.038   4.764
 6849SOL    HW121446   3.220   0.018   4.798
 6849SOL    HW221447   3.127   0.027   4.665
 6850SOL     OW21448   6.711   3.754   1.925
 6850SOL    HW121449   6.646   3.788   1.993
 6850SOL    HW221450   6.662   3.727   1.842
 6851SOL     OW21451   1.705   5.570   0.277
 6851SOL    HW121452   1.799   5.537   0.285
 6851SOL    HW221453   1.703   5.669   0.290
 6852SOL     OW21454   5.810   4.859   1.999
 6852SOL    HW121455   5.823   4.777   1.944
 6852SOL    HW221456   5.820   4.836   2.096
 6853SOL     OW21457   6.288   4.104   4.506
 6853SOL    HW121458   6.326   4.191   4.474
 6853SOL    HW221459   6.249   4.054   4.429
 6854SOL     OW21460   5.936   1.099   6.657
 6854SOL    HW121461   6.018   1.043   6.669
 6854SOL    HW221462   5.961   1.196   6.666
 6855SOL     OW21463   3.018   6.791   1.826
 6855SOL    HW121464   3.090   6.824   1.887
 6855SOL    HW221465   3.029   6.831   1.736
 6856SOL     OW21466   0.345   5.655   5.558
 6856SOL    HW121467   0.337   5.662   5.459
 6856SOL    HW221468   0.370   5.561   5.583
 6857SOL     OW21469   5.019   0.352   0.027
 6857SOL    HW121470   5.110   0.394   0.032
 6857SOL    HW221471   5.023   0.259   0.061
 6858SOL     OW21472   3.680   2.989   6.597
 6858SOL    HW121473   3.615   3.064   6.609
 6858SOL    HW221474   3.670   2.923   6.671
 6859SOL     OW21475   4.381   0.748   0.576
 6859SOL    HW121476   4.465   0.800   0.562
 6859SOL    HW221477   4.373   0.723   0.672
 6860SOL     OW21478   4.890   3.316   0.057
 6860SOL    HW121479   4.875   3.376   7.005
 6860SOL    HW221480   4.931   3.369   0.132
 6861SOL     OW21481   6.153   3.858   0.144
 6861SOL    HW121482   6.110   3.883   0.231
 6861SOL    HW221483   6.122   3.767   0.117
 6862SOL     OW21484   2.441   4.588   4.794
 6862SOL    HW121485   2.372   4.568   4.864
 6862SOL    HW221486   2.399   4.641   4.720
 6863SOL     OW21487   1.021   3.526   3.835
 6863SOL    HW121488   0.931   3.523   3.879
 6863SOL    HW221489   1.045   3.622   3.818
 6864SOL     OW21490   3.462   5.424   6.184
 6864SOL    HW121491   3.450   5.336   6.230
 6864SOL    HW221492   3.440   5.414   6.087
 6865SOL     OW21493   1.071   2.604   4.689
 6865SOL    HW121494   1.119   2.678   4.643
 6865SOL    HW221495   1.030   2.639   4.773
 6866SOL     OW21496   1.006   3.866   2.414
 6866SOL    HW121497   0.963   3.948   2.450
 6866SOL    HW221498   0.949   3.829   2.340
 6867SOL     OW21499   2.274   5.611   3.280
 6867SOL    HW121500   2.367   5.641   3.257
 6867SOL    HW221501   2.249   5.646   3.370
 6868SOL     OW21502   2.082   5.753   4.769
 6868SOL    HW121503   2.089   5.852   4.754
 6868SOL    HW221504   2.091   5.733   4.867
 6869SOL     OW21505   0.357   2.858   5.183
 6869SOL    HW121506   0.411   2.933   5.220
 6869SOL    HW221507   0.261   2.886   5.177
 6870SOL     OW21508   5.188   3.700   3.018
 6870SOL    HW121509   5.180   3.751   3.104
 6870SOL    HW221510   5.264   3.636   3.024
 6871SOL     OW21511   4.625   5.713   1.709
 6871SOL    HW121512   4.589   5.653   1.638
 6871SOL    HW221513   4.711   5.676   1.743
 6872SOL     OW21514   3.530   4.309   0.812
 6872SOL    HW121515   3.489   4.400   0.822
 6872SOL    HW221516   3.460   4.244   0.784
 6873SOL     OW21517   5.533   4.612   4.782
 6873SOL    HW121518   5.495   4.686   4.838
 6873SOL    HW221519   5.467   4.536   4.779
 6874SOL     OW21520   1.003   2.148   6.339
 6874SOL    HW121521   1.090   2.153   6.291
 6874SOL    HW221522   1.017   2.108   6.430
 6875SOL     OW21523   3.930   0.491   4.781
 6875SOL    HW121524   3.905   0.410   4.727
 6875SOL    HW221525   3.878   0.491   4.866
 6876SOL     OW21526   3.234   6.398   4.724
 6876SOL    HW121527   3.182   6.363   4.647
 6876SOL    HW221528   3.220   6.340   4.804
 6877SOL     OW21529   2.183   3.564   6.742
 6877SOL    HW121530   2.183   3.486   6.680
 6877SOL    HW221531   2.266   3.562   6.798
 6878SOL     OW21532   1.446   1.329   4.881
 6878SOL    HW121533   1.384   1.375   4.817
 6878SOL    HW221534   1.393   1.291   4.957
 6879SOL     OW21535   6.338   0.862   5.399
 6879SOL    HW121536   6.256   0.823   5.441
 6879SOL    HW221537   6.319   0.954   5.367
 6880SOL     OW21538   1.708   4.395   4.710
 6880SOL    HW121539   1.699   4.344   4.796
 6880SOL    HW221540   1.712   4.331   4.633
 6881SOL     OW21541   5.076   5.556   1.463
 6881SOL    HW121542   5.157   5.531   1.410
 6881SOL    HW221543   5.019   5.618   1.410
 6882SOL     OW21544   2.280   5.823   5.883
 6882SOL    HW121545   2.329   5.746   5.922
 6882SOL    HW221546   2.186   5.825   5.918
 6883SOL     OW21547   3.283   6.026   2.045
 6883SOL    HW121548   3.300   6.117   2.008
 6883SOL    HW221549   3.255   6.033   2.141
 6884SOL     OW21550   2.119   4.477   2.645
 6884SOL    HW121551   2.211   4.476   2.605
 6884SOL    HW221552   2.095   4.570   2.671
 6885SOL     OW21553   4.327   4.768   4.862
 6885SOL    HW121554   4.235   4.806   4.871
 6885SOL    HW221555   4.330   4.678   4.905
 6886SOL     OW21556   5.424   0.809   1.516
 6886SOL    HW121557   5.428   0.712   1.491
 6886SOL    HW221558   5.516   0.847   1.518
 6887SOL     OW21559   5.997   1.268   4.846
 6887SOL    HW121560   6.031   1.344   4.900
 6887SOL    HW221561   5.972   1.192   4.906
 6888SOL     OW21562   6.279   6.921   3.759
 6888SOL    HW121563   6.338   7.001   3.754
 6888SOL    HW221564   6.295   6.873   3.846
 6889SOL     OW21565   2.388   3.734   6.237
 6889SOL    HW121566   2.336   3.684   6.167
 6889SOL    HW221567   2.404   3.828   6.207
 6890SOL     OW21568   1.216   0.411   1.604
 6890SOL    HW121569   1.194   0.323   1.560
 6890SOL    HW221570   1.134   0.468   1.607
 6891SOL     OW21571   4.168   5.404   6.027
 6891SOL    HW121572   4.242   5.470   6.043
 6891SOL    HW221573   4.167   5.337   6.101
 6892SOL     OW21574   3.570   1.703   4.383
 6892SOL    HW121575   3.520   1.778   4.340
 6892SOL    HW221576   3.525   1.677   4.469
 6893SOL     OW21577   5.184   0.050   1.368
 6893SOL    HW121578   5.168   0.003   1.281
 6893SOL    HW221579   5.226   0.139   1.351
 6894SOL     OW21580   5.770   5.002   6.005
 6894SOL    HW121581   5.732   4.911   5.985
 6894SOL    HW221582   5.746   5.028   6.098
 6895SOL     OW21583   4.197   5.342   5.496
 6895SOL    HW121584   4.236   5.356   5.587
 6895SOL    HW221585   4.268   5.353   5.427
 6896SOL     OW21586   5.088   1.770   2.556
 6896SOL    HW121587   5.108   1.799   2.649
 6896SOL    HW221588   5.158   1.707   2.524
 6897SOL     OW21589   3.914   0.599   1.192
 6897SOL    HW121590   3.837   0.642   1.239
 6897SOL    HW221591   3.947   0.659   1.119
 6898SOL     OW21592   3.740   1.720   2.180
 6898SOL    HW121593   3.777   1.636   2.141
 6898SOL    HW221594   3.654   1.701   2.226
 6899SOL     OW21595   5.374   5.617   5.937
 6899SOL    HW121596   5.329   5.706   5.930
 6899SOL    HW221597   5.456   5.616   5.880
 6900SOL     OW21598   4.320   6.998   6.283
 6900SOL    HW121599   4.282   0.023   6.205
 6900SOL    HW221600   4.257   6.926   6.310
 6901SOL     OW21601   2.294   0.986   0.169
 6901SOL    HW121602   2.374   0.974   0.110
 6901SOL    HW221603   2.222   0.924   0.140
 6902SOL     OW21604   6.875   5.745   2.790
 6902SOL    HW121605   6.813   5.808   2.837
 6902SOL    HW221606   6.924   5.794   2.718
 6903SOL     OW21607   5.234   4.463   0.242
 6903SOL    HW121608   5.183   4.377   0.227
 6903SOL    HW221609   5.324   4.455   0.199
 6904SOL     OW21610   0.572   0.636   2.791
 6904SOL    HW121611   0.561   0.549   2.744
 6904SOL    HW221612   0.482   0.674   2.813
 6905SOL     OW21613   3.466   5.262   1.096
 6905SOL    HW121614   3.478   5.221   1.006
 6905SOL    HW221615   3.379   5.232   1.134
 6906SOL     OW21616   6.337   5.834   3.020
 6906SOL    HW121617   6.414   5.781   3.057
 6906SOL    HW221618   6.257   5.822   3.079
 6907SOL     OW21619   3.355   0.513   1.506
 6907SOL    HW121620   3.412   0.449   1.453
 6907SOL    HW221621   3.301   0.569   1.444
 6908SOL     OW21622   5.337   6.533   6.716
 6908SOL    HW121623   5.349   6.567   6.623
 6908SOL    HW221624   5.285   6.600   6.770
 6909SOL     OW21625   2.254   2.090   0.334
 6909SOL    HW121626   2.253   2.074   0.235
 6909SOL    HW221627   2.256   2.003   0.383
 6910SOL     OW21628   5.392   1.425   1.006
 6910SOL    HW121629   5.377   1.371   0.923
 6910SOL    HW221630   5.305   1.440   1.052
 6911SOL     OW21631   4.211   0.181   4.860
 6911SOL    HW121632   4.246   0.256   4.806
 6911SOL    HW221633   4.144   0.215   4.926
 6912SOL     OW21634   4.083   5.042   1.815
 6912SOL    HW121635   3.991   5.004   1.828
 6912SOL    HW221636   4.145   5.003   1.883
 6913SOL     OW21637   4.924   5.831   5.233
 6913SOL    HW121638   4.973   5.908   5.193
 6913SOL    HW221639   4.866   5.863   5.308
 6914SOL     OW21640   6.642   4.780   0.097
 6914SOL    HW121641   6.592   4.847   0.042
 6914SOL    HW221642   6.740   4.793   0.084
 6915SOL     OW21643   0.063   6.697   0.991
 6915SOL    HW121644   0.082   6.795   0.979
 6915SOL    HW221645   7.001   6.674   0.950
 6916SOL     OW21646   5.758   0.848   5.737
 6916SOL    HW121647   5.712   0.856   5.648
 6916SOL    HW221648   5.696   0.876   5.810
 6917SOL     OW21649   4.573   6.818   5.407
 6917SOL    HW121650   4.597   6.803   5.503
 6917SOL    HW221651   4.653   6.851   5.357
 6918SOL     OW21652   2.128   2.820   3.396
 6918SOL    HW121653   2.080   2.812   3.484
 6918SOL    HW221654   2.222   2.789   3.406
 6919SOL     OW21655   1.345   5.762   3.467
 6919SOL    HW121656   1.389   5.835   3.415
 6919SOL    HW221657   1.277   5.717   3.409
 6920SOL     OW21658   5.540   6.109   3.772
 6920SOL    HW121659   5.448   6.073   3.756
 6920SOL    HW221660   5.549   6.197   3.725
 6921SOL     OW21661   1.545   5.334   3.643
 6921SOL    HW121662   1.519   5.414   3.697
 6921SOL    HW221663   1.621   5.286   3.687
 6922SOL     OW21664   2.057   6.387   0.889
 6922SOL    HW121665   2.138   6.348   0.935
 6922SOL    HW221666   1.974   6.352   0.932
 6923SOL     OW21667   4.757   5.503   3.599
 6923SOL    HW121668   4.790   5.596   3.583
 6923SOL    HW221669   4.789   5.442   3.526
 6924SOL     OW21670   6.131   5.868   1.884
 6924SOL    HW121671   6.227   5.895   1.886
 6924SOL    HW221672   6.081   5.927   1.820
 6925SOL     OW21673   4.953   5.321   2.232
 6925SOL    HW121674   4.966   5.222   2.229
 6925SOL    HW221675   4.863   5.343   2.194
 6926SOL     OW21676   2.818   3.767   5.549
 6926SOL    HW121677   2.910   3.806   5.541
 6926SOL    HW221678   2.750   3.833   5.517
 6927SOL     OW21679   3.819   3.801   0.668
 6927SOL    HW121680   3.896   3.838   0.719
 6927SOL    HW221681   3.738   3.858   0.685
 6928SOL     OW21682   6.831   0.619   6.753
 6928SOL    HW121683   6.875   0.678   6.821
 6928SOL    HW221684   6.761   0.670   6.704
 6929SOL     OW21685   3.009   5.289   1.963
 6929SOL    HW121686   2.985   5.195   1.939
 6929SOL    HW221687   3.065   5.329   1.890
 6930SOL     OW21688   0.457   0.532   3.144
 6930SOL    HW121689   0.369   0.563   3.108
 6930SOL    HW221690   0.466   0.433   3.130
 6931SOL     OW21691   2.588   0.125   0.359
 6931SOL    HW121692   2.606   0.166   0.449
 6931SOL    HW221693   2.512   0.172   0.315
 6932SOL     OW21694   2.857   2.260   0.467
 6932SOL    HW121695   2.943   2.302   0.438
 6932SOL    HW221696   2.872   2.163   0.485
 6933SOL     OW21697   2.426   6.275   4.911
 6933SOL    HW121698   2.328   6.254   4.907
 6933SOL    HW221699   2.479   6.190   4.907
 6934SOL     OW21700   5.320   5.068   6.332
 6934SOL    HW121701   5.320   5.167   6.316
 6934SOL    HW221702   5.263   5.024   6.263
 6935SOL     OW21703   4.128   5.703   3.162
 6935SOL    HW121704   4.178   5.627   3.203
 6935SOL    HW221705   4.087   5.674   3.076
 6936SOL     OW21706   0.478   4.693   0.856
 6936SOL    HW121707   0.515   4.765   0.797
 6936SOL    HW221708   0.380   4.683   0.838
 6937SOL     OW21709   4.198   6.127   5.736
 6937SOL    HW121710   4.124   6.192   5.748
 6937SOL    HW221711   4.164   6.034   5.749
 6938SOL     OW21712   6.156   2.939   5.063
 6938SOL    HW121713   6.107   3.026   5.058
 6938SOL    HW221714   6.156   2.897   4.972
 6939SOL     OW21715   6.815   5.089   1.323
 6939SOL    HW121716   6.904   5.088   1.276
 6939SOL    HW221717   6.829   5.111   1.419
 6940SOL     OW21718   4.423   0.434   4.312
 6940SOL    HW121719   4.437   0.349   4.364
 6940SOL    HW221720   4.511   0.473   4.287
 6941SOL     OW21721   3.498   2.868   4.715
 6941SOL    HW121722   3.511   2.769   4.724
 6941SOL    HW221723   3.517   2.895   4.621
 6942SOL     OW21724   5.872   1.606   6.785
 6942SOL    HW121725   5.838   1.512   6.782
 6942SOL    HW221726   5.806   1.665   6.831
 6943SOL     OW21727   6.506   5.348   6.510
 6943SOL    HW121728   6.597   5.323   6.545
 6943SOL    HW221729   6.466   5.418   6.569
 6944SOL     OW21730   1.116   6.689   0.304
 6944SOL    HW121731   1.164   6.602   0.312
 6944SOL    HW221732   1.177   6.763   0.333
 6945SOL     OW21733   4.227   1.726   6.126
 6945SOL    HW121734   4.191   1.693   6.214
 6945SOL    HW221735   4.260   1.820   6.137
 6946SOL     OW21736   6.390   4.136   2.753
 6946SOL    HW121737   6.422   4.211   2.811
 6946SOL    HW221738   6.435   4.141   2.664
 6947SOL     OW21739   3.882   6.640   0.819
 6947SOL    HW121740   3.948   6.684   0.880
 6947SOL    HW221741   3.929   6.574   0.761
 6948SOL     OW21742   3.224   2.315   5.553
 6948SOL    HW121743   3.158   2.386   5.579
 6948SOL    HW221744   3.185   2.257   5.482
 6949SOL     OW21745   5.106   0.754   2.274
 6949SOL    HW121746   5.042   0.759   2.197
 6949SOL    HW221747   5.107   0.841   2.322
 6950SOL     OW21748   3.305   1.368   2.914
 6950SOL    HW121749   3.399   1.401   2.919
 6950SOL    HW221750   3.294   1.290   2.977
 6951SOL     OW21751   4.862   4.581   5.552
 6951SOL    HW121752   4.771   4.611   5.580
 6951SOL    HW221753   4.855   4.524   5.471
 6952SOL     OW21754   0.087   3.853   6.200
 6952SOL    HW121755   0.060   3.929   6.141
 6952SOL    HW221756   0.056   3.871   6.294
 6953SOL     OW21757   5.010   2.204   4.577
 6953SOL    HW121758   5.095   2.235   4.534
 6953SOL    HW221759   4.950   2.166   4.508
 6954SOL     OW21760   0.230   4.480   2.291
 6954SOL    HW121761   0.318   4.451   2.328
 6954SOL    HW221762   0.182   4.536   2.359
 6955SOL     OW21763   6.776   0.619   3.491
 6955SOL    HW121764   6.806   0.700   3.543
 6955SOL    HW221765   6.729   0.556   3.552
 6956SOL     OW21766   2.756   4.198   0.978
 6956SOL    HW121767   2.847   4.161   0.998
 6956SOL    HW221768   2.698   4.125   0.943
 6957SOL     OW21769   0.769   4.684   0.247
 6957SOL    HW121770   0.804   4.620   0.179
 6957SOL    HW221771   0.785   4.647   0.339
 6958SOL     OW21772   2.688   4.109   6.106
 6958SOL    HW121773   2.750   4.036   6.133
 6958SOL    HW221774   2.734   4.197   6.112
 6959SOL     OW21775   3.590   1.025   4.846
 6959SOL    HW121776   3.662   0.963   4.813
 6959SOL    HW221777   3.623   1.119   4.840
 6960SOL     OW21778   0.466   6.033   6.930
 6960SOL    HW121779   0.461   6.127   6.896
 6960SOL    HW221780   0.518   6.031   7.015
 6961SOL     OW21781   6.598   1.553   3.586
 6961SOL    HW121782   6.667   1.623   3.570
 6961SOL    HW221783   6.547   1.535   3.501
 6962SOL     OW21784   3.500   3.922   1.120
 6962SOL    HW121785   3.559   3.929   1.201
 6962SOL    HW221786   3.522   3.838   1.071
 6963SOL     OW21787   6.438   6.120   2.024
 6963SOL    HW121788   6.400   6.052   2.087
 6963SOL    HW221789   6.534   6.137   2.047
 6964SOL     OW21790   3.332   5.929   6.008
 6964SOL    HW121791   3.294   6.012   5.967
 6964SOL    HW221792   3.419   5.908   5.964
 6965SOL     OW21793   6.115   1.879   5.672
 6965SOL    HW121794   6.096   1.977   5.670
 6965SOL    HW221795   6.044   1.833   5.726
 6966SOL     OW21796   4.861   1.577   3.845
 6966SOL    HW121797   4.871   1.616   3.936
 6966SOL    HW221798   4.875   1.478   3.850
 6967SOL     OW21799   2.961   2.713   6.493
 6967SOL    HW121800   3.046   2.755   6.462
 6967SOL    HW221801   2.914   2.671   6.415
 6968SOL     OW21802   4.200   0.038   3.956
 6968SOL    HW121803   4.239   6.997   4.019
 6968SOL    HW221804   4.226   0.014   3.862
 6969SOL     OW21805   3.280   3.612   1.025
 6969SOL    HW121806   3.370   3.641   1.056
 6969SOL    HW221807   3.288   3.526   0.973
 6970SOL     OW21808   5.212   4.472   0.562
 6970SOL    HW121809   5.144   4.428   0.504
 6970SOL    HW221810   5.260   4.543   0.510
 6971SOL     OW21811   6.391   1.621   2.526
 6971SOL    HW121812   6.451   1.598   2.602
 6971SOL    HW221813   6.358   1.536   2.483
 6972SOL     OW21814   5.312   4.912   4.431
 6972SOL    HW121815   5.351   4.984   4.489
 6972SOL    HW221816   5.383   4.876   4.370
 6973SOL     OW21817   1.184   4.704   4.340
 6973SOL    HW121818   1.195   4.793   4.296
 6973SOL    HW221819   1.173   4.717   4.439
 6974SOL     OW21820   3.848   4.269   5.152
 6974SOL    HW121821   3.780   4.197   5.167
 6974SOL    HW221822   3.905   4.245   5.073
 6975SOL     OW21823   2.773   6.874   6.093
 6975SOL    HW121824   2.685   6.877   6.047
 6975SOL    HW221825   2.765   6.913   6.185
 6976SOL     OW21826   1.057   6.186   0.668
 6976SOL    HW121827   0.994   6.263   0.679
 6976SOL    HW221828   1.068   6.140   0.756
 6977SOL     OW21829   4.868   2.797   2.095
 6977SOL    HW121830   4.814   2.878   2.070
 6977SOL    HW221831   4.885   2.798   2.193
 6978SOL     OW21832   4.202   2.070   3.752
 6978SOL    HW121833   4.201   2.044   3.849
 6978SOL    HW221834   4.140   2.010   3.700
 6979SOL     OW21835   0.278   3.636   4.092
 6979SOL    HW121836   0.221   3.711   4.060
 6979SOL    HW221837   0.351   3.672   4.150
 6980SOL     OW21838   4.457   1.104   4.495
 6980SOL    HW121839   4.471   1.065   4.586
 6980SOL    HW221840   4.468   1.033   4.426
 6981SOL     OW21841   2.978   3.524   6.871
 6981SOL    HW121842   3.056   3.462   6.877
 6981SOL    HW221843   2.906   3.493   6.933
 6982SOL     OW21844   0.234   6.845   5.161
 6982SOL    HW121845   0.162   6.914   5.167
 6982SOL    HW221846   0.212   6.780   5.089
 6983SOL     OW21847   6.103   1.111   2.987
 6983SOL    HW121848   6.171   1.107   2.914
 6983SOL    HW221849   6.141   1.074   3.071
 6984SOL     OW21850   1.767   1.328   6.277
 6984SOL    HW121851   1.865   1.333   6.297
 6984SOL    HW221852   1.726   1.252   6.327
 6985SOL     OW21853   5.029   6.503   3.830
 6985SOL    HW121854   4.934   6.486   3.801
 6985SOL    HW221855   5.088   6.430   3.795
 6986SOL     OW21856   1.801   6.466   5.203
 6986SOL    HW121857   1.796   6.402   5.280
 6986SOL    HW221858   1.709   6.488   5.171
 6987SOL     OW21859   6.888   3.072   6.382
 6987SOL    HW121860   6.866   2.988   6.333
 6987SOL    HW221861   6.967   3.056   6.441
 6988SOL     OW21862   5.556   1.759   6.386
 6988SOL    HW121863   5.483   1.739   6.450
 6988SOL    HW221864   5.638   1.707   6.411
 6989SOL     OW21865   2.165   3.115   4.146
 6989SOL    HW121866   2.157   3.134   4.244
 6989SOL    HW221867   2.129   3.193   4.094
 6990SOL     OW21868   4.044   3.550   0.987
 6990SOL    HW121869   4.126   3.495   0.969
 6990SOL    HW221870   4.069   3.632   1.038
 6991SOL     OW21871   4.141   4.834   5.099
 6991SOL    HW121872   4.110   4.855   5.006
 6991SOL    HW221873   4.063   4.806   5.155
 6992SOL     OW21874   6.467   6.359   4.496
 6992SOL    HW121875   6.473   6.295   4.573
 6992SOL    HW221876   6.394   6.425   4.512
 6993SOL     OW21877   0.483   0.026   2.726
 6993SOL    HW121878   0.553   0.016   2.796
 6993SOL    HW221879   0.404   6.995   2.749
 6994SOL     OW21880   1.077   2.424   0.071
 6994SOL    HW121881   1.175   2.441   0.056
 6994SOL    HW221882   1.032   2.410   7.009
 6995SOL     OW21883   1.101   5.326   4.291
 6995SOL    HW121884   1.112   5.351   4.387
 6995SOL    HW221885   1.188   5.292   4.255
 6996SOL     OW21886   1.741   0.048   6.239
 6996SOL    HW121887   1.665   0.038   6.175
 6996SOL    HW221888   1.736   0.139   6.282
 6997SOL     OW21889   4.634   5.399   4.563
 6997SOL    HW121890   4.690   5.460   4.507
 6997SOL    HW221891   4.672   5.307   4.561
 6998SOL     OW21892   2.717   2.130   2.509
 6998SOL    HW121893   2.769   2.198   2.457
 6998SOL    HW221894   2.761   2.041   2.501
 6999SOL     OW21895   5.540   2.344   0.022
 6999SOL    HW121896   5.454   2.296   0.037
 6999SOL    HW221897   5.546   2.422   0.084
 7000SOL     OW21898   6.825   0.136   1.549
 7000SOL    HW121899   6.846   0.232   1.569
 7000SOL    HW221900   6.770   0.097   1.623
 7001SOL     OW21901   2.939   1.898   6.621
 7001SOL    HW121902   2.917   1.937   6.710
 7001SOL    HW221903   2.946   1.798   6.629
 7002SOL     OW21904   2.115   5.022   2.525
 7002SOL    HW121905   2.181   4.954   2.557
 7002SOL    HW221906   2.161   5.110   2.513
 7003SOL     OW21907   2.180   6.281   5.814
 7003SOL    HW121908   2.093   6.260   5.770
 7003SOL    HW221909   2.247   6.212   5.789
 7004SOL     OW21910   1.667   4.037   6.947
 7004SOL    HW121911   1.668   3.941   6.918
 7004SOL    HW221912   1.760   4.066   6.968
 7005SOL     OW21913   6.857   6.983   5.471
 7005SOL    HW121914   6.798   6.939   5.538
 7005SOL    HW221915   6.829   6.957   5.379
 7006SOL     OW21916   4.477   4.832   4.044
 7006SOL    HW121917   4.565   4.878   4.053
 7006SOL    HW221918   4.407   4.898   4.019
 7007SOL     OW21919   4.699   5.338   2.105
 7007SOL    HW121920   4.647   5.385   2.033
 7007SOL    HW221921   4.638   5.277   2.155
 7008SOL     OW21922   0.941   5.693   3.963
 7008SOL    HW121923   0.861   5.720   4.016
 7008SOL    HW221924   1.008   5.649   4.024
 7009SOL     OW21925   6.894   3.961   1.858
 7009SOL    HW121926   6.965   3.942   1.790
 7009SOL    HW221927   6.844   3.876   1.879
 7010SOL     OW21928   5.514   4.945   6.158
 7010SOL    HW121929   5.444   4.979   6.221
 7010SOL    HW221930   5.605   4.968   6.192
 7011SOL     OW21931   1.011   0.801   5.324
 7011SOL    HW121932   0.973   0.843   5.406
 7011SOL    HW221933   1.052   0.871   5.265
 7012SOL     OW21934   1.317   1.265   1.573
 7012SOL    HW121935   1.233   1.246   1.625
 7012SOL    HW221936   1.394   1.275   1.635
 7013SOL     OW21937   6.740   2.032   1.922
 7013SOL    HW121938   6.756   2.130   1.937
 7013SOL    HW221939   6.760   2.010   1.827
 7014SOL     OW21940   2.241   5.453   0.796
 7014SOL    HW121941   2.214   5.547   0.777
 7014SOL    HW221942   2.341   5.448   0.804
 7015SOL     OW21943   4.624   2.009   2.475
 7015SOL    HW121944   4.668   2.026   2.386
 7015SOL    HW221945   4.583   2.094   2.509
 7016SOL     OW21946   4.319   4.188   1.453
 7016SOL    HW121947   4.317   4.205   1.551
 7016SOL    HW221948   4.263   4.257   1.406
 7017SOL     OW21949   4.937   1.544   5.092
 7017SOL    HW121950   5.003   1.611   5.126
 7017SOL    HW221951   4.852   1.551   5.144
 7018SOL     OW21952   0.549   3.202   3.164
 7018SOL    HW121953   0.451   3.206   3.148
 7018SOL    HW221954   0.589   3.128   3.111
 7019SOL     OW21955   1.083   6.102   1.502
 7019SOL    HW121956   1.088   6.088   1.403
 7019SOL    HW221957   1.163   6.060   1.545
 7020SOL     OW21958   0.566   5.647   6.757
 7020SOL    HW121959   0.479   5.694   6.768
 7020SOL    HW221960   0.575   5.616   6.662
 7021SOL     OW21961   3.391   6.804   5.957
 7021SOL    HW121962   3.335   6.785   5.877
 7021SOL    HW221963   3.466   6.866   5.932
 7022SOL     OW21964   4.263   5.433   5.763
 7022SOL    HW121965   4.191   5.411   5.829
 7022SOL    HW221966   4.298   5.524   5.780
 7023SOL     OW21967   4.950   4.548   2.595
 7023SOL    HW121968   4.919   4.576   2.504
 7023SOL    HW221969   5.039   4.503   2.587
 7024SOL     OW21970   6.150   6.719   1.422
 7024SOL    HW121971   6.054   6.695   1.435
 7024SOL    HW221972   6.158   6.782   1.344
 7025SOL     OW21973   2.648   0.227   0.654
 7025SOL    HW121974   2.647   0.133   0.689
 7025SOL    HW221975   2.731   0.242   0.599
 7026SOL     OW21976   3.945   1.823   1.226
 7026SOL    HW121977   3.925   1.841   1.130
 7026SOL    HW221978   3.879   1.872   1.283
 7027SOL     OW21979   5.516   6.000   4.256
 7027SOL    HW121980   5.584   6.032   4.189
 7027SOL    HW221981   5.524   6.054   4.340
 7028SOL     OW21982   2.880   0.545   4.876
 7028SOL    HW121983   2.925   0.608   4.813
 7028SOL    HW221984   2.938   0.464   4.889
 7029SOL     OW21985   4.202   1.103   4.598
 7029SOL    HW121986   4.287   1.118   4.547
 7029SOL    HW221987   4.175   1.187   4.644
 7030SOL     OW21988   1.720   3.204   4.125
 7030SOL    HW121989   1.787   3.145   4.081
 7030SOL    HW221990   1.634   3.200   4.076
 7031SOL     OW21991   1.478   0.771   4.733
 7031SOL    HW121992   1.386   0.735   4.728
 7031SOL    HW221993   1.475   0.866   4.766
 7032SOL     OW21994   6.059   2.469   3.663
 7032SOL    HW121995   5.981   2.410   3.687
 7032SOL    HW221996   6.123   2.472   3.740
 7033SOL     OW21997   0.575   0.231   5.496
 7033SOL    HW121998   0.478   0.207   5.484
 7033SOL    HW221999   0.631   0.150   5.486
 7034SOL     OW22000   0.513   4.842   3.505
 7034SOL    HW122001   0.444   4.844   3.577
 7034SOL    HW222002   0.558   4.753   3.505
 7035SOL     OW22003   6.934   4.984   1.843
 7035SOL    HW122004   6.915   4.929   1.762
 7035SOL    HW222005   6.859   4.973   1.908
 7036SOL     OW22006   5.960   4.611   0.339
 7036SOL    HW122007   5.966   4.710   0.325
 7036SOL    HW222008   6.049   4.576   0.369
 7037SOL     OW22009   1.383   0.383   6.340
 7037SOL    HW122010   1.420   0.418   6.426
 7037SOL    HW222011   1.383   0.283   6.341
 7038SOL     OW22012   2.099   3.226   4.410
 7038SOL    HW122013   2.119   3.179   4.496
 7038SOL    HW222014   2.100   3.325   4.425
 7039SOL     OW22015   3.330   1.915   0.008
 7039SOL    HW122016   3.422   1.936   0.042
 7039SOL    HW222017   3.286   2.000   7.005
 7040SOL     OW22018   5.292   2.772   6.873
 7040SOL    HW122019   5.330   2.808   6.958
 7040SOL    HW222020   5.228   2.697   6.894
 7041SOL     OW22021   2.385   1.730   3.510
 7041SOL    HW122022   2.401   1.753   3.606
 7041SOL    HW222023   2.338   1.806   3.465
 7042SOL     OW22024   1.329   0.854   6.650
 7042SOL    HW122025   1.368   0.866   6.559
 7042SOL    HW222026   1.241   0.807   6.643
 7043SOL     OW22027   1.331   2.571   2.426
 7043SOL    HW122028   1.346   2.666   2.396
 7043SOL    HW222029   1.255   2.532   2.374
 7044SOL     OW22030   6.638   6.083   1.500
 7044SOL    HW122031   6.541   6.056   1.495
 7044SOL    HW222032   6.693   6.019   1.448
 7045SOL     OW22033   0.105   4.734   0.041
 7045SOL    HW122034   0.027   4.772   7.016
 7045SOL    HW222035   0.121   4.789   0.122
 7046SOL     OW22036   3.278   1.733   3.503
 7046SOL    HW122037   3.249   1.823   3.536
 7046SOL    HW222038   3.315   1.681   3.580
 7047SOL     OW22039   1.499   0.270   2.900
 7047SOL    HW122040   1.555   0.188   2.895
 7047SOL    HW222041   1.558   0.351   2.907
 7048SOL     OW22042   0.000   5.878   0.214
 7048SOL    HW122043   0.031   5.933   0.291
 7048SOL    HW222044   6.953   5.817   0.244
 7049SOL     OW22045   2.358   1.235   6.621
 7049SOL    HW122046   2.305   1.204   6.700
 7049SOL    HW222047   2.295   1.269   6.550
 7050SOL     OW22048   4.186   3.753   5.044
 7050SOL    HW122049   4.234   3.744   5.131
 7050SOL    HW222050   4.186   3.664   4.997
 7051SOL     OW22051   6.268   6.653   2.881
 7051SOL    HW122052   6.226   6.738   2.847
 7051SOL    HW222053   6.324   6.613   2.809
 7052SOL     OW22054   0.039   0.151   5.403
 7052SOL    HW122055   0.073   0.135   5.310
 7052SOL    HW222056   7.017   0.069   5.435
 7053SOL     OW22057   6.958   3.593   5.777
 7053SOL    HW122058   6.998   3.662   5.718
 7053SOL    HW222059   6.912   3.637   5.854
 7054SOL     OW22060   6.472   1.967   2.209
 7054SOL    HW122061   6.424   2.047   2.173
 7054SOL    HW222062   6.406   1.896   2.232
 7055SOL     OW22063   4.036   1.223   4.006
 7055SOL    HW122064   4.131   1.253   4.005
 7055SOL    HW222065   4.021   1.160   4.082
 7056SOL     OW22066   4.293   5.502   4.123
 7056SOL    HW122067   4.347   5.535   4.046
 7056SOL    HW222068   4.323   5.546   4.208
 7057SOL     OW22069   6.188   5.883   2.623
 7057SOL    HW122070   6.151   5.793   2.645
 7057SOL    HW222071   6.148   5.915   2.537
 7058SOL     OW22072   0.258   4.603   4.383
 7058SOL    HW122073   0.262   4.694   4.425
 7058SOL    HW222074   0.351   4.574   4.358
 7059SOL     OW22075   1.893   1.447   2.621
 7059SOL    HW122076   1.921   1.536   2.658
 7059SOL    HW222077   1.795   1.448   2.602
 7060SOL     OW22078   2.949   6.513   0.999
 7060SOL    HW122079   2.939   6.477   1.092
 7060SOL    HW222080   2.911   6.447   0.934
 7061SOL     OW22081   0.189   0.671   3.083
 7061SOL    HW122082   0.180   0.745   3.149
 7061SOL    HW222083   0.143   0.590   3.117
 7062SOL     OW22084   6.573   1.250   5.520
 7062SOL    HW122085   6.627   1.334   5.514
 7062SOL    HW222086   6.537   1.240   5.613
 7063SOL     OW22087   2.001   6.634   2.689
 7063SOL    HW122088   2.092   6.605   2.659
 7063SOL    HW222089   1.957   6.686   2.616
 7064SOL     OW22090   3.695   2.913   0.174
 7064SOL    HW122091   3.710   2.970   0.094
 7064SOL    HW222092   3.616   2.853   0.158
 7065SOL     OW22093   3.468   3.601   2.375
 7065SOL    HW122094   3.476   3.578   2.278
 7065SOL    HW222095   3.400   3.673   2.386
 7066SOL     OW22096   2.312   5.187   1.467
 7066SOL    HW122097   2.363   5.243   1.402
 7066SOL    HW222098   2.333   5.215   1.560
 7067SOL     OW22099   0.619   4.098   4.639
 7067SOL    HW122100   0.626   4.197   4.629
 7067SOL    HW222101   0.599   4.075   4.734
 7068SOL     OW22102   0.261   0.445   2.788
 7068SOL    HW122103   0.233   0.418   2.880
 7068SOL    HW222104   0.249   0.544   2.777
 7069SOL     OW22105   1.792   4.882   5.299
 7069SOL    HW122106   1.718   4.837   5.349
 7069SOL    HW222107   1.780   4.982   5.305
 7070SOL     OW22108   5.543   5.553   3.445
 7070SOL    HW122109   5.594   5.473   3.477
 7070SOL    HW222110   5.608   5.621   3.410
 7071SOL     OW22111   2.018   6.565   5.104
 7071SOL    HW122112   2.017   6.660   5.135
 7071SOL    HW222113   1.942   6.515   5.145
 7072SOL     OW22114   0.486   0.294   6.836
 7072SOL    HW122115   0.510   0.358   6.763
 7072SOL    HW222116   0.562   0.286   6.900
 7073SOL     OW22117   1.730   2.170   6.335
 7073SOL    HW122118   1.796   2.238   6.305
 7073SOL    HW222119   1.682   2.203   6.416
 7074SOL     OW22120   3.477   1.203   0.163
 7074SOL    HW122121   3.572   1.222   0.186
 7074SOL    HW222122   3.436   1.284   0.121
 7075SOL     OW22123   0.799   5.931   2.850
 7075SOL    HW122124   0.812   5.838   2.815
 7075SOL    HW222125   0.765   5.990   2.777
 7076SOL     OW22126   3.770   1.448   5.852
 7076SOL    HW122127   3.852   1.398   5.882
 7076SOL    HW222128   3.689   1.401   5.886
 7077SOL     OW22129   1.549   5.113   6.314
 7077SOL    HW122130   1.635   5.163   6.302
 7077SOL    HW222131   1.546   5.075   6.407
 7078SOL     OW22132   6.869   0.913   1.903
 7078SOL    HW122133   6.805   0.870   1.966
 7078SOL    HW222134   6.880   1.010   1.926
 7079SOL     OW22135   5.419   5.910   4.661
 7079SOL    HW122136   5.437   5.973   4.586
 7079SOL    HW222137   5.504   5.865   4.688
 7080SOL     OW22138   6.103   0.421   4.149
 7080SOL    HW122139   6.049   0.346   4.112
 7080SOL    HW222140   6.090   0.426   4.248
 7081SOL     OW22141   4.878   0.711   4.978
 7081SOL    HW122142   4.916   0.668   4.896
 7081SOL    HW222143   4.779   0.710   4.973
 7082SOL     OW22144   5.737   1.390   0.326
 7082SOL    HW122145   5.729   1.431   0.235
 7082SOL    HW222146   5.768   1.460   0.391
 7083SOL     OW22147   3.843   0.306   5.764
 7083SOL    HW122148   3.821   0.293   5.861
 7083SOL    HW222149   3.849   0.217   5.719
 7084SOL     OW22150   6.085   6.033   0.332
 7084SOL    HW122151   6.126   6.049   0.422
 7084SOL    HW222152   6.100   5.939   0.304
 7085SOL     OW22153   3.936   1.439   1.032
 7085SOL    HW122154   3.930   1.377   1.111
 7085SOL    HW222155   3.963   1.388   0.951
 7086SOL     OW22156   1.430   1.080   6.280
 7086SOL    HW122157   1.430   1.067   6.181
 7086SOL    HW222158   1.336   1.090   6.312
 7087SOL     OW22159   2.378   2.741   5.086
 7087SOL    HW122160   2.388   2.839   5.102
 7087SOL    HW222161   2.377   2.723   4.988
 7088SOL     OW22162   6.908   2.111   5.186
 7088SOL    HW122163   6.898   2.211   5.190
 7088SOL    HW222164   7.004   2.089   5.167
 7089SOL     OW22165   3.278   1.927   1.738
 7089SOL    HW122166   3.287   1.997   1.667
 7089SOL    HW222167   3.265   1.972   1.826
 7090SOL     OW22168   2.242   2.240   5.355
 7090SOL    HW122169   2.173   2.179   5.394
 7090SOL    HW222170   2.213   2.268   5.264
 7091SOL     OW22171   6.299   6.565   0.784
 7091SOL    HW122172   6.384   6.594   0.827
 7091SOL    HW222173   6.234   6.538   0.855
 7092SOL     OW22174   3.049   1.857   0.678
 7092SOL    HW122175   3.137   1.812   0.690
 7092SOL    HW222176   2.996   1.850   0.762
 7093SOL     OW22177   4.259   3.271   6.208
 7093SOL    HW122178   4.319   3.224   6.143
 7093SOL    HW222179   4.196   3.205   6.248
 7094SOL     OW22180   6.194   0.919   5.897
 7094SOL    HW122181   6.124   0.913   5.827
 7094SOL    HW222182   6.245   1.005   5.886
 7095SOL     OW22183   0.561   3.965   0.709
 7095SOL    HW122184   0.495   3.915   0.764
 7095SOL    HW222185   0.603   4.037   0.764
 7096SOL     OW22186   4.391   0.086   2.734
 7096SOL    HW122187   4.348   0.154   2.793
 7096SOL    HW222188   4.456   0.130   2.673
 7097SOL     OW22189   1.976   1.745   1.539
 7097SOL    HW122190   2.024   1.658   1.546
 7097SOL    HW222191   2.040   1.817   1.513
 7098SOL     OW22192   1.187   0.723   6.229
 7098SOL    HW122193   1.090   0.747   6.242
 7098SOL    HW222194   1.235   0.731   6.316
 7099SOL     OW22195   6.786   1.181   5.314
 7099SOL    HW122196   6.718   1.245   5.349
 7099SOL    HW222197   6.811   1.115   5.385
 7100SOL     OW22198   5.427   1.615   1.373
 7100SOL    HW122199   5.375   1.538   1.411
 7100SOL    HW222200   5.509   1.582   1.327
 7101SOL     OW22201   1.304   0.624   4.094
 7101SOL    HW122202   1.255   0.540   4.074
 7101SOL    HW222203   1.321   0.674   4.009
 7102SOL     OW22204   4.701   3.166   0.595
 7102SOL    HW122205   4.625   3.103   0.611
 7102SOL    HW222206   4.774   3.118   0.547
 7103SOL     OW22207   2.488   6.833   6.024
 7103SOL    HW122208   2.472   6.792   6.113
 7103SOL    HW222209   2.418   6.802   5.960
 7104SOL     OW22210   0.953   2.554   2.102
 7104SOL    HW122211   0.884   2.625   2.088
 7104SOL    HW222212   1.042   2.597   2.119
 7105SOL     OW22213   2.230   3.315   5.531
 7105SOL    HW122214   2.284   3.397   5.548
 7105SOL    HW222215   2.154   3.336   5.470
 7106SOL     OW22216   2.937   2.708   5.375
 7106SOL    HW122217   2.847   2.752   5.363
 7106SOL    HW222218   3.007   2.763   5.329
 7107SOL     OW22219   1.446   1.717   0.749
 7107SOL    HW122220   1.379   1.700   0.821
 7107SOL    HW222221   1.422   1.664   0.668
 7108SOL     OW22222   4.732   6.537   1.743
 7108SOL    HW122223   4.663   6.580   1.685
 7108SOL    HW222224   4.777   6.463   1.693
 7109SOL     OW22225   4.388   5.764   6.343
 7109SOL    HW122226   4.306   5.754   6.286
 7109SOL    HW222227   4.363   5.762   6.439
 7110SOL     OW22228   3.345   4.942   4.405
 7110SOL    HW122229   3.402   4.933   4.324
 7110SOL    HW222230   3.308   5.034   4.411
 7111SOL     OW22231   1.290   2.524   3.522
 7111SOL    HW122232   1.381   2.559   3.500
 7111SOL    HW222233   1.221   2.582   3.479
 7112SOL     OW22234   1.661   6.319   3.271
 7112SOL    HW122235   1.567   6.352   3.265
 7112SOL    HW222236   1.723   6.397   3.279
 7113SOL     OW22237   3.570   3.450   5.443
 7113SOL    HW122238   3.509   3.386   5.490
 7113SOL    HW222239   3.636   3.398   5.388
 7114SOL     OW22240   3.793   6.694   0.434
 7114SOL    HW122241   3.769   6.717   0.529
 7114SOL    HW222242   3.710   6.681   0.381
 7115SOL     OW22243   3.972   2.065   1.741
 7115SOL    HW122244   3.977   2.165   1.744
 7115SOL    HW222245   4.024   2.031   1.663
 7116SOL     OW22246   5.964   4.231   3.061
 7116SOL    HW122247   5.948   4.132   3.066
 7116SOL    HW222248   6.063   4.248   3.061
 7117SOL     OW22249   6.178   6.907   2.758
 7117SOL    HW122250   6.131   6.919   2.671
 7117SOL    HW222251   6.260   6.965   2.760
 7118SOL     OW22252   6.546   3.226   3.186
 7118SOL    HW122253   6.580   3.314   3.217
 7118SOL    HW222254   6.619   3.175   3.142
 7119SOL     OW22255   1.373   2.107   3.221
 7119SOL    HW122256   1.404   2.180   3.282
 7119SOL    HW222257   1.276   2.119   3.202
 7120SOL     OW22258   4.672   6.042   2.788
 7120SOL    HW122259   4.753   5.987   2.765
 7120SOL    HW222260   4.591   6.000   2.747
 7121SOL     OW22261   2.289   6.350   1.044
 7121SOL    HW122262   2.241   6.402   1.114
 7121SOL    HW222263   2.361   6.407   1.004
 7122SOL     OW22264   6.532   6.442   0.432
 7122SOL    HW122265   6.531   6.457   0.333
 7122SOL    HW222266   6.615   6.482   0.470
 7123SOL     OW22267   2.742   5.646   0.805
 7123SOL    HW122268   2.829   5.601   0.826
 7123SOL    HW222269   2.756   5.745   0.803
 7124SOL     OW22270   0.252   6.171   6.576
 7124SOL    HW122271   0.310   6.089   6.575
 7124SOL    HW222272   0.309   6.251   6.559
 7125SOL     OW22273   0.448   6.423   3.677
 7125SOL    HW122274   0.407   6.368   3.604
 7125SOL    HW222275   0.542   6.392   3.694
 7126SOL     OW22276   1.728   3.849   1.469
 7126SOL    HW122277   1.684   3.876   1.554
 7126SOL    HW222278   1.703   3.911   1.395
 7127SOL     OW22279   2.489   0.399   4.717
 7127SOL    HW122280   2.408   0.386   4.659
 7127SOL    HW222281   2.511   0.496   4.723
 7128SOL     OW22282   2.998   3.794   2.047
 7128SOL    HW122283   3.031   3.888   2.055
 7128SOL    HW222284   2.937   3.786   1.968
 7129SOL     OW22285   2.744   1.722   1.353
 7129SOL    HW122286   2.662   1.687   1.306
 7129SOL    HW222287   2.720   1.749   1.446
 7130SOL     OW22288   2.317   0.434   3.262
 7130SOL    HW122289   2.371   0.425   3.346
 7130SOL    HW222290   2.220   0.430   3.284
 7131SOL     OW22291   3.005   1.503   3.544
 7131SOL    HW122292   3.023   1.493   3.642
 7131SOL    HW222293   2.980   1.598   3.524
 7132SOL     OW22294   3.098   4.047   2.039
 7132SOL    HW122295   3.125   4.020   1.947
 7132SOL    HW222296   3.047   4.133   2.035
 7133SOL     OW22297   6.312   4.407   2.057
 7133SOL    HW122298   6.361   4.352   2.124
 7133SOL    HW222299   6.317   4.504   2.083
 7134SOL     OW22300   5.516   4.705   2.369
 7134SOL    HW122301   5.425   4.743   2.356
 7134SOL    HW222302   5.535   4.696   2.466
 7135SOL     OW22303   0.205   2.173   6.116
 7135SOL    HW122304   0.126   2.234   6.119
 7135SOL    HW222305   0.281   2.214   6.168
 7136SOL     OW22306   1.759   2.063   6.820
 7136SOL    HW122307   1.820   2.107   6.753
 7136SOL    HW222308   1.670   2.048   6.778
 7137SOL     OW22309   4.782   2.163   5.055
 7137SOL    HW122310   4.861   2.115   5.017
 7137SOL    HW222311   4.767   2.133   5.149
 7138SOL     OW22312   2.235   2.398   6.837
 7138SOL    HW122313   2.287   2.393   6.923
 7138SOL    HW222314   2.289   2.448   6.769
 7139SOL     OW22315   2.734   1.376   0.362
 7139SOL    HW122316   2.663   1.332   0.307
 7139SOL    HW222317   2.704   1.468   0.389
 7140SOL     OW22318   6.724   4.398   4.597
 7140SOL    HW122319   6.739   4.334   4.521
 7140SOL    HW222320   6.707   4.347   4.681
 7141SOL     OW22321   0.782   6.692   1.730
 7141SOL    HW122322   0.746   6.602   1.707
 7141SOL    HW222323   0.881   6.694   1.717
 7142SOL     OW22324   3.496   6.741   3.571
 7142SOL    HW122325   3.440   6.703   3.644
 7142SOL    HW222326   3.578   6.685   3.558
 7143SOL     OW22327   2.002   2.197   3.926
 7143SOL    HW122328   2.007   2.282   3.978
 7143SOL    HW222329   1.982   2.121   3.987
 7144SOL     OW22330   1.309   3.249   3.631
 7144SOL    HW122331   1.238   3.229   3.563
 7144SOL    HW222332   1.389   3.192   3.613
 7145SOL     OW22333   4.142   5.849   5.772
 7145SOL    HW122334   4.043   5.834   5.769
 7145SOL    HW222335   4.185   5.808   5.691
 7146SOL     OW22336   3.348   5.290   2.001
 7146SOL    HW122337   3.266   5.293   2.058
 7146SOL    HW222338   3.322   5.300   1.905
 7147SOL     OW22339   0.032   0.981   3.788
 7147SOL    HW122340   0.045   1.080   3.773
 7147SOL    HW222341   0.121   0.939   3.804
 7148SOL     OW22342   0.002   1.795   0.617
 7148SOL    HW122343   6.997   1.701   0.601
 7148SOL    HW222344   0.099   1.794   0.643
 7149SOL     OW22345   0.415   0.554   4.731
 7149SOL    HW122346   0.381   0.502   4.809
 7149SOL    HW222347   0.505   0.592   4.752
 7150SOL     OW22348   6.076   3.477   6.224
 7150SOL    HW122349   6.089   3.399   6.161
 7150SOL    HW222350   5.979   3.496   6.234
 7151SOL     OW22351   2.307   6.898   0.812
 7151SOL    HW122352   2.341   6.821   0.866
 7151SOL    HW222353   2.339   6.984   0.852
 7152SOL     OW22354   0.942   2.378   4.659
 7152SOL    HW122355   0.991   2.299   4.697
 7152SOL    HW222356   1.005   2.456   4.654
 7153SOL     OW22357   4.186   1.968   2.952
 7153SOL    HW122358   4.086   1.962   2.950
 7153SOL    HW222359   4.223   1.928   2.868
 7154SOL     OW22360   3.844   6.869   5.004
 7154SOL    HW122361   3.792   6.811   5.066
 7154SOL    HW222362   3.790   6.885   4.921
 7155SOL     OW22363   2.559   1.745   3.286
 7155SOL    HW122364   2.598   1.836   3.300
 7155SOL    HW222365   2.524   1.710   3.373
 7156SOL     OW22366   1.825   5.837   5.908
 7156SOL    HW122367   1.758   5.801   5.974
 7156SOL    HW222368   1.778   5.858   5.822
 7157SOL     OW22369   5.543   3.993   0.449
 7157SOL    HW122370   5.463   4.041   0.414
 7157SOL    HW222371   5.560   4.022   0.544
 7158SOL     OW22372   4.264   6.893   3.443
 7158SOL    HW122373   4.213   6.818   3.400
 7158SOL    HW222374   4.352   6.859   3.476
 7159SOL     OW22375   1.007   5.660   0.020
 7159SOL    HW122376   0.980   5.564   0.021
 7159SOL    HW222377   0.946   5.711   6.985
 7160SOL     OW22378   6.471   0.588   1.652
 7160SOL    HW122379   6.462   0.610   1.749
 7160SOL    HW222380   6.384   0.552   1.618
 7161SOL     OW22381   4.150   3.654   4.694
 7161SOL    HW122382   4.176   3.743   4.657
 7161SOL    HW222383   4.101   3.667   4.780
 7162SOL     OW22384   3.593   5.046   4.303
 7162SOL    HW122385   3.665   5.115   4.301
 7162SOL    HW222386   3.583   5.011   4.396
 7163SOL     OW22387   1.355   6.453   3.549
 7163SOL    HW122388   1.263   6.489   3.539
 7163SOL    HW222389   1.418   6.505   3.490
 7164SOL     OW22390   2.256   2.116   4.857
 7164SOL    HW122391   2.208   2.124   4.945
 7164SOL    HW222392   2.314   2.035   4.859
 7165SOL     OW22393   4.802   5.692   2.186
 7165SOL    HW122394   4.751   5.774   2.161
 7165SOL    HW222395   4.750   5.611   2.160
 7166SOL     OW22396   4.138   6.005   2.009
 7166SOL    HW122397   4.216   5.961   1.965
 7166SOL    HW222398   4.171   6.064   2.083
 7167SOL     OW22399   5.299   3.442   6.472
 7167SOL    HW122400   5.208   3.448   6.432
 7167SOL    HW222401   5.297   3.378   6.549
 7168SOL     OW22402   0.584   1.595   4.004
 7168SOL    HW122403   0.549   1.525   3.942
 7168SOL    HW222404   0.517   1.613   4.076
 7169SOL     OW22405   2.002   2.686   6.832
 7169SOL    HW122406   1.961   2.606   6.788
 7169SOL    HW222407   1.931   2.740   6.877
 7170SOL     OW22408   5.457   3.965   3.812
 7170SOL    HW122409   5.431   4.060   3.794
 7170SOL    HW222410   5.379   3.916   3.849
 7171SOL     OW22411   3.963   3.595   5.390
 7171SOL    HW122412   3.921   3.512   5.356
 7171SOL    HW222413   3.982   3.586   5.488
 7172SOL     OW22414   0.402   6.233   1.221
 7172SOL    HW122415   0.481   6.225   1.282
 7172SOL    HW222416   0.351   6.147   1.222
 7173SOL     OW22417   6.256   6.502   4.598
 7173SOL    HW122418   6.289   6.538   4.685
 7173SOL    HW222419   6.156   6.511   4.594
 7174SOL     OW22420   1.176   6.138   6.057
 7174SOL    HW122421   1.194   6.082   6.138
 7174SOL    HW222422   1.149   6.079   5.981
 7175SOL     OW22423   5.910   3.532   5.919
 7175SOL    HW122424   6.000   3.519   5.876
 7175SOL    HW222425   5.922   3.540   6.018
 7176SOL     OW22426   0.657   2.985   1.656
 7176SOL    HW122427   0.682   3.000   1.752
 7176SOL    HW222428   0.608   3.066   1.622
 7177SOL     OW22429   0.848   5.020   1.944
 7177SOL    HW122430   0.781   5.004   1.872
 7177SOL    HW222431   0.809   4.994   2.033
 7178SOL     OW22432   6.168   0.980   6.756
 7178SOL    HW122433   6.257   0.976   6.710
 7178SOL    HW222434   6.141   0.889   6.786
 7179SOL     OW22435   1.185   4.052   5.735
 7179SOL    HW122436   1.102   4.075   5.683
 7179SOL    HW222437   1.226   4.137   5.770
 7180SOL     OW22438   6.904   6.854   2.783
 7180SOL    HW122439   6.950   6.840   2.695
 7180SOL    HW222440   6.932   6.782   2.847
 7181SOL     OW22441   5.773   5.845   2.497
 7181SOL    HW122442   5.817   5.829   2.409
 7181SOL    HW222443   5.760   5.943   2.512
 7182SOL     OW22444   4.278   3.416   5.754
 7182SOL    HW122445   4.258   3.410   5.852
 7182SOL    HW222446   4.202   3.376   5.703
 7183SOL     OW22447   1.841   3.458   3.266
 7183SOL    HW122448   1.927   3.456   3.318
 7183SOL    HW222449   1.768   3.494   3.324
 7184SOL     OW22450   2.415   5.721   3.848
 7184SOL    HW122451   2.487   5.653   3.837
 7184SOL    HW222452   2.449   5.811   3.818
 7185SOL     OW22453   4.479   2.584   6.619
 7185SOL    HW122454   4.576   2.604   6.634
 7185SOL    HW222455   4.423   2.656   6.659
 7186SOL     OW22456   0.839   6.349   4.853
 7186SOL    HW122457   0.936   6.335   4.830
 7186SOL    HW222458   0.807   6.271   4.906
 7187SOL     OW22459   1.344   5.784   1.018
 7187SOL    HW122460   1.373   5.879   1.011
 7187SOL    HW222461   1.418   5.729   1.057
 7188SOL     OW22462   5.383   6.943   2.231
 7188SOL    HW122463   5.318   6.900   2.294
 7188SOL    HW222464   5.332   6.984   2.155
 7189SOL     OW22465   6.073   0.798   5.246
 7189SOL    HW122466   6.082   0.779   5.343
 7189SOL    HW222467   6.131   0.734   5.194
 7190SOL     OW22468   4.167   5.130   2.988
 7190SOL    HW122469   4.170   5.030   2.985
 7190SOL    HW222470   4.073   5.161   2.975
 7191SOL     OW22471   0.726   3.021   1.941
 7191SOL    HW122472   0.654   3.075   1.985
 7191SOL    HW222473   0.719   2.926   1.971
 7192SOL     OW22474   3.314   4.290   6.332
 7192SOL    HW122475   3.310   4.219   6.403
 7192SOL    HW222476   3.222   4.310   6.299
 7193SOL     OW22477   5.368   1.907   4.765
 7193SOL    HW122478   5.290   1.969   4.770
 7193SOL    HW222479   5.424   1.929   4.686
 7194SOL     OW22480   3.052   1.374   1.579
 7194SOL    HW122481   3.063   1.473   1.576
 7194SOL    HW222482   3.074   1.341   1.671
 7195SOL     OW22483   0.408   6.738   2.038
 7195SOL    HW122484   0.495   6.691   2.059
 7195SOL    HW222485   0.380   6.793   2.117
 7196SOL     OW22486   3.803   3.292   1.355
 7196SOL    HW122487   3.867   3.328   1.287
 7196SOL    HW222488   3.783   3.196   1.335
 7197SOL     OW22489   1.313   0.990   4.318
 7197SOL    HW122490   1.286   0.953   4.229
 7197SOL    HW222491   1.398   0.946   4.347
 7198SOL     OW22492   0.185   6.674   6.250
 7198SOL    HW122493   0.185   6.755   6.308
 7198SOL    HW222494   0.265   6.675   6.190
 7199SOL     OW22495   6.086   5.945   2.386
 7199SOL    HW122496   6.059   5.877   2.318
 7199SOL    HW222497   6.080   6.037   2.347
 7200SOL     OW22498   1.598   1.821   2.508
 7200SOL    HW122499   1.590   1.921   2.508
 7200SOL    HW222500   1.694   1.795   2.492
 7201SOL     OW22501   2.241   4.772   3.963
 7201SOL    HW122502   2.234   4.781   3.864
 7201SOL    HW222503   2.305   4.698   3.986
 7202SOL     OW22504   2.733   0.037   5.852
 7202SOL    HW122505   2.727   6.999   5.928
 7202SOL    HW222506   2.827   0.070   5.844
 7203SOL     OW22507   5.900   0.457   6.991
 7203SOL    HW122508   5.895   0.373   0.020
 7203SOL    HW222509   5.961   0.522   0.009
 7204SOL     OW22510   6.596   2.278   3.647
 7204SOL    HW122511   6.603   2.221   3.566
 7204SOL    HW222512   6.663   2.249   3.715
 7205SOL     OW22513   1.669   4.499   1.582
 7205SOL    HW122514   1.693   4.596   1.575
 7205SOL    HW222515   1.676   4.470   1.678
 7206SOL     OW22516   6.080   1.324   1.725
 7206SOL    HW122517   6.003   1.282   1.773
 7206SOL    HW222518   6.068   1.423   1.724
 7207SOL     OW22519   4.211   6.773   1.734
 7207SOL    HW122520   4.245   6.680   1.749
 7207SOL    HW222521   4.148   6.772   1.656
 7208SOL     OW22522   2.699   0.597   5.380
 7208SOL    HW122523   2.722   0.546   5.462
 7208SOL    HW222524   2.760   0.676   5.371
 7209SOL     OW22525   2.985   3.805   4.339
 7209SOL    HW122526   2.974   3.801   4.240
 7209SOL    HW222527   3.031   3.890   4.365
 7210SOL     OW22528   4.365   6.833   4.030
 7210SOL    HW122529   4.463   6.818   4.014
 7210SOL    HW222530   4.315   6.820   3.945
 7211SOL     OW22531   0.778   4.975   2.211
 7211SOL    HW122532   0.686   4.982   2.249
 7211SOL    HW222533   0.837   4.924   2.273
 7212SOL     OW22534   4.882   6.454   2.869
 7212SOL    HW122535   4.972   6.416   2.848
 7212SOL    HW222536   4.892   6.551   2.894
 7213SOL     OW22537   5.164   6.470   5.074
 7213SOL    HW122538   5.114   6.436   4.994
 7213SOL    HW222539   5.191   6.393   5.132
 7214SOL     OW22540   1.065   4.748   5.465
 7214SOL    HW122541   1.088   4.703   5.552
 7214SOL    HW222542   1.114   4.836   5.460
 7215SOL     OW22543   1.087   2.995   1.963
 7215SOL    HW122544   1.035   2.988   1.878
 7215SOL    HW222545   1.176   2.952   1.952
 7216SOL     OW22546   3.059   2.171   2.518
 7216SOL    HW122547   3.015   2.246   2.468
 7216SOL    HW222548   3.138   2.139   2.465
 7217SOL     OW22549   0.649   3.708   1.937
 7217SOL    HW122550   0.639   3.801   1.902
 7217SOL    HW222551   0.613   3.704   2.031
 7218SOL     OW22552   6.852   2.478   4.666
 7218SOL    HW122553   6.868   2.430   4.752
 7218SOL    HW222554   6.764   2.452   4.629
 7219SOL     OW22555   3.292   1.053   1.165
 7219SOL    HW122556   3.232   0.977   1.193
 7219SOL    HW222557   3.284   1.127   1.232
 7220SOL     OW22558   6.850   1.803   2.924
 7220SOL    HW122559   6.923   1.746   2.963
 7220SOL    HW222560   6.779   1.816   2.993
 7221SOL     OW22561   6.450   3.839   5.525
 7221SOL    HW122562   6.467   3.916   5.587
 7221SOL    HW222563   6.353   3.835   5.503
 7222SOL     OW22564   6.679   0.001   3.246
 7222SOL    HW122565   6.649   6.949   3.301
 7222SOL    HW222566   6.604   0.065   3.235
 7223SOL     OW22567   4.785   0.760   4.627
 7223SOL    HW122568   4.755   0.680   4.678
 7223SOL    HW222569   4.876   0.742   4.589
 7224SOL     OW22570   5.803   1.580   3.208
 7224SOL    HW122571   5.732   1.517   3.241
 7224SOL    HW222572   5.786   1.600   3.112
 7225SOL     OW22573   2.466   0.469   1.421
 7225SOL    HW122574   2.543   0.513   1.467
 7225SOL    HW222575   2.430   0.529   1.350
 7226SOL     OW22576   6.081   6.428   4.923
 7226SOL    HW122577   6.119   6.339   4.948
 7226SOL    HW222578   6.154   6.485   4.885
 7227SOL     OW22579   6.959   2.303   6.075
 7227SOL    HW122580   6.926   2.375   6.136
 7227SOL    HW222581   6.908   2.219   6.092
 7228SOL     OW22582   2.197   0.925   2.994
 7228SOL    HW122583   2.289   0.911   3.030
 7228SOL    HW222584   2.203   0.963   2.901
 7229SOL     OW22585   0.220   7.002   3.562
 7229SOL    HW122586   0.175   0.053   3.608
 7229SOL    HW222587   0.304   6.979   3.611
 7230SOL     OW22588   6.586   5.515   1.149
 7230SOL    HW122589   6.487   5.525   1.151
 7230SOL    HW222590   6.610   5.423   1.119
 7231SOL     OW22591   5.815   0.859   0.414
 7231SOL    HW122592   5.762   0.823   0.337
 7231SOL    HW222593   5.869   0.937   0.383
 7232SOL     OW22594   3.756   3.897   0.922
 7232SOL    HW122595   3.687   3.969   0.925
 7232SOL    HW222596   3.802   3.891   1.011
 7233SOL     OW22597   1.080   1.662   5.188
 7233SOL    HW122598   1.066   1.716   5.271
 7233SOL    HW222599   1.139   1.713   5.125
 7234SOL     OW22600   4.843   1.981   3.710
 7234SOL    HW122601   4.770   1.914   3.722
 7234SOL    HW222602   4.803   2.072   3.697
 7235SOL     OW22603   6.012   2.722   4.600
 7235SOL    HW122604   5.937   2.753   4.542
 7235SOL    HW222605   5.976   2.689   4.687
 7236SOL     OW22606   1.415   1.834   3.205
 7236SOL    HW122607   1.396   1.933   3.204
 7236SOL    HW222608   1.489   1.814   3.140
 7237SOL     OW22609   5.495   5.234   4.907
 7237SOL    HW122610   5.564   5.161   4.907
 7237SOL    HW222611   5.437   5.225   4.988
 7238SOL     OW22612   1.408   0.250   1.814
 7238SOL    HW122613   1.418   0.163   1.863
 7238SOL    HW222614   1.335   0.242   1.746
 7239SOL     OW22615   4.106   1.699   1.851
 7239SOL    HW122616   4.092   1.739   1.941
 7239SOL    HW222617   4.203   1.703   1.827
 7240SOL     OW22618   2.971   3.536   2.418
 7240SOL    HW122619   2.927   3.509   2.504
 7240SOL    HW222620   2.907   3.524   2.343
 7241SOL     OW22621   4.601   6.784   4.522
 7241SOL    HW122622   4.538   6.860   4.540
 7241SOL    HW222623   4.572   6.703   4.573
 7242SOL     OW22624   6.466   6.092   0.885
 7242SOL    HW122625   6.400   6.167   0.886
 7242SOL    HW222626   6.513   6.088   0.974
 7243SOL     OW22627   0.369   5.566   0.751
 7243SOL    HW122628   0.433   5.616   0.692
 7243SOL    HW222629   0.276   5.594   0.730
 7244SOL     OW22630   5.425   2.320   1.163
 7244SOL    HW122631   5.392   2.242   1.217
 7244SOL    HW222632   5.455   2.288   1.073
 7245SOL     OW22633   5.615   1.695   3.907
 7245SOL    HW122634   5.636   1.597   3.907
 7245SOL    HW222635   5.526   1.710   3.864
 7246SOL     OW22636   0.877   5.833   5.641
 7246SOL    HW122637   0.930   5.761   5.597
 7246SOL    HW222638   0.818   5.793   5.711
 7247SOL     OW22639   3.926   5.916   4.144
 7247SOL    HW122640   3.871   5.980   4.198
 7247SOL    HW222641   3.952   5.838   4.202
 7248SOL     OW22642   2.982   1.114   4.551
 7248SOL    HW122643   2.978   1.051   4.474
 7248SOL    HW222644   3.021   1.068   4.631
 7249SOL     OW22645   4.522   3.341   5.780
 7249SOL    HW122646   4.591   3.378   5.717
 7249SOL    HW222647   4.431   3.366   5.748
 7250SOL     OW22648   2.500   3.257   6.898
 7250SOL    HW122649   2.522   3.344   6.943
 7250SOL    HW222650   2.434   3.273   6.825
 7251SOL     OW22651   5.915   1.359   5.145
 7251SOL    HW122652   6.013   1.352   5.123
 7251SOL    HW222653   5.875   1.268   5.148
 7252SOL     OW22654   4.533   3.442   5.310
 7252SOL    HW122655   4.615   3.492   5.285
 7252SOL    HW222656   4.453   3.484   5.267
 7253SOL     OW22657   5.299   4.773   0.357
 7253SOL    HW122658   5.394   4.782   0.328
 7253SOL    HW222659   5.245   4.730   0.284
 7254SOL     OW22660   5.270   6.818   4.921
 7254SOL    HW122661   5.332   6.892   4.894
 7254SOL    HW222662   5.295   6.786   5.013
 7255SOL     OW22663   3.636   2.888   2.930
 7255SOL    HW122664   3.720   2.927   2.893
 7255SOL    HW222665   3.570   2.874   2.856
 7256SOL     OW22666   3.001   5.634   3.789
 7256SOL    HW122667   2.977   5.640   3.886
 7256SOL    HW222668   3.101   5.636   3.780
 7257SOL     OW22669   6.396   5.007   2.417
 7257SOL    HW122670   6.437   5.096   2.399
 7257SOL    HW222671   6.468   4.938   2.424
 7258SOL     OW22672   2.646   0.409   5.611
 7258SOL    HW122673   2.560   0.457   5.595
 7258SOL    HW222674   2.633   0.311   5.596
 7259SOL     OW22675   3.445   3.989   6.194
 7259SOL    HW122676   3.414   4.005   6.288
 7259SOL    HW222677   3.397   4.051   6.132
 7260SOL     OW22678   4.647   2.403   3.087
 7260SOL    HW122679   4.678   2.308   3.096
 7260SOL    HW222680   4.603   2.431   3.172
 7261SOL     OW22681   2.497   5.080   0.996
 7261SOL    HW122682   2.465   4.994   1.036
 7261SOL    HW222683   2.425   5.119   0.939
 7262SOL     OW22684   6.361   0.650   4.714
 7262SOL    HW122685   6.339   0.726   4.773
 7262SOL    HW222686   6.317   0.567   4.747
 7263SOL     OW22687   5.382   5.030   1.317
 7263SOL    HW122688   5.455   5.056   1.254
 7263SOL    HW222689   5.311   5.100   1.317
 7264SOL     OW22690   0.297   6.272   4.327
 7264SOL    HW122691   0.386   6.278   4.281
 7264SOL    HW222692   0.237   6.344   4.293
 7265SOL     OW22693   4.524   3.536   6.917
 7265SOL    HW122694   4.575   3.607   6.869
 7265SOL    HW222695   4.571   3.514   7.003
 7266SOL     OW22696   4.460   1.486   2.034
 7266SOL    HW122697   4.407   1.447   1.959
 7266SOL    HW222698   4.401   1.497   2.114
 7267SOL     OW22699   5.033   1.796   3.769
 7267SOL    HW122700   4.969   1.722   3.789
 7267SOL    HW222701   4.982   1.882   3.760
 7268SOL     OW22702   4.138   6.598   0.307
 7268SOL    HW122703   4.089   6.514   0.330
 7268SOL    HW222704   4.079   6.677   0.324
 7269SOL     OW22705   1.605   0.380   2.130
 7269SOL    HW122706   1.645   0.402   2.041
 7269SOL    HW222707   1.518   0.429   2.141
 7270SOL     OW22708   3.363   2.159   1.925
 7270SOL    HW122709   3.347   2.200   1.835
 7270SOL    HW222710   3.457   2.179   1.954
 7271SOL     OW22711   5.882   5.396   3.792
 7271SOL    HW122712   5.795   5.440   3.812
 7271SOL    HW222713   5.957   5.459   3.811
 7272SOL     OW22714   6.131   1.900   1.432
 7272SOL    HW122715   6.076   1.873   1.352
 7272SOL    HW222716   6.083   1.971   1.483
 7273SOL     OW22717   5.819   5.587   5.190
 7273SOL    HW122718   5.790   5.644   5.113
 7273SOL    HW222719   5.759   5.507   5.196
 7274SOL     OW22720   5.608   4.788   3.766
 7274SOL    HW122721   5.510   4.783   3.746
 7274SOL    HW222722   5.653   4.706   3.731
 7275SOL     OW22723   6.047   6.737   2.001
 7275SOL    HW122724   6.009   6.670   2.065
 7275SOL    HW222725   6.073   6.819   2.051
 7276SOL     OW22726   3.948   1.786   3.325
 7276SOL    HW122727   3.983   1.868   3.372
 7276SOL    HW222728   4.019   1.716   3.325
 7277SOL     OW22729   6.147   2.189   3.960
 7277SOL    HW122730   6.071   2.125   3.945
 7277SOL    HW222731   6.209   2.185   3.883
 7278SOL     OW22732   3.993   1.652   3.606
 7278SOL    HW122733   4.020   1.612   3.518
 7278SOL    HW222734   3.917   1.600   3.644
 7279SOL     OW22735   3.460   3.646   1.877
 7279SOL    HW122736   3.479   3.744   1.881
 7279SOL    HW222737   3.362   3.632   1.862
 7280SOL     OW22738   6.697   1.476   5.561
 7280SOL    HW122739   6.750   1.519   5.488
 7280SOL    HW222740   6.638   1.545   5.604
 7281SOL     OW22741   3.364   6.409   3.055
 7281SOL    HW122742   3.419   6.485   3.022
 7281SOL    HW222743   3.408   6.323   3.030
 7282SOL     OW22744   0.138   3.770   0.975
 7282SOL    HW122745   0.198   3.696   1.006
 7282SOL    HW222746   0.048   3.759   1.016
 7283SOL     OW22747   3.312   6.057   2.767
 7283SOL    HW122748   3.244   6.100   2.708
 7283SOL    HW222749   3.267   6.015   2.846
 7284SOL     OW22750   0.449   0.293   3.658
 7284SOL    HW122751   0.520   0.358   3.686
 7284SOL    HW222752   0.474   0.201   3.689
 7285SOL     OW22753   5.109   3.026   2.022
 7285SOL    HW122754   5.062   3.108   1.991
 7285SOL    HW222755   5.042   2.957   2.050
 7286SOL     OW22756   6.596   0.926   4.305
 7286SOL    HW122757   6.608   0.984   4.385
 7286SOL    HW222758   6.559   0.980   4.230
 7287SOL     OW22759   2.949   1.864   4.165
 7287SOL    HW122760   2.903   1.780   4.195
 7287SOL    HW222761   2.880   1.931   4.137
 7288SOL     OW22762   3.157   1.863   2.062
 7288SOL    HW122763   3.138   1.961   2.065
 7288SOL    HW222764   3.096   1.819   1.996
 7289SOL     OW22765   6.900   2.196   1.294
 7289SOL    HW122766   6.811   2.169   1.257
 7289SOL    HW222767   6.891   2.215   1.392
 7290SOL     OW22768   3.447   2.056   4.650
 7290SOL    HW122769   3.509   2.090   4.579
 7290SOL    HW222770   3.410   2.133   4.702
 7291SOL     OW22771   0.888   0.979   0.369
 7291SOL    HW122772   0.936   1.066   0.386
 7291SOL    HW222773   0.792   0.997   0.349
 7292SOL     OW22774   4.135   1.315   2.199
 7292SOL    HW122775   4.158   1.218   2.210
 7292SOL    HW222776   4.059   1.339   2.259
 7293SOL     OW22777   6.485   1.057   4.107
 7293SOL    HW122778   6.413   1.026   4.169
 7293SOL    HW222779   6.481   1.156   4.099
 7294SOL     OW22780   3.676   0.332   2.816
 7294SOL    HW122781   3.596   0.273   2.824
 7294SOL    HW222782   3.648   0.428   2.819
 7295SOL     OW22783   5.331   3.965   1.754
 7295SOL    HW122784   5.240   3.996   1.728
 7295SOL    HW222785   5.341   3.868   1.733
 7296SOL     OW22786   3.214   6.745   2.243
 7296SOL    HW122787   3.150   6.682   2.287
 7296SOL    HW222788   3.238   6.818   2.307
 7297SOL     OW22789   3.833   0.145   0.139
 7297SOL    HW122790   3.738   0.168   0.161
 7297SOL    HW222791   3.838   0.050   0.108
 7298SOL     OW22792   4.074   4.597   1.407
 7298SOL    HW122793   3.991   4.650   1.425
 7298SOL    HW222794   4.139   4.610   1.481
 7299SOL     OW22795   0.280   3.143   0.088
 7299SOL    HW122796   0.188   3.163   0.120
 7299SOL    HW222797   0.286   3.161   7.015
 7300SOL     OW22798   0.883   4.034   1.351
 7300SOL    HW122799   0.873   4.133   1.343
 7300SOL    HW222800   0.918   4.010   1.441
 7301SOL     OW22801   4.533   1.726   0.438
 7301SOL    HW122802   4.593   1.802   0.465
 7301SOL    HW222803   4.442   1.762   0.416
 7302SOL     OW22804   5.815   2.040   6.144
 7302SOL    HW122805   5.890   1.981   6.173
 7302SOL    HW222806   5.741   2.035   6.212
 7303SOL     OW22807   3.298   2.159   1.589
 7303SOL    HW122808   3.333   2.147   1.496
 7303SOL    HW222809   3.334   2.244   1.628
 7304SOL     OW22810   2.296   0.114   0.607
 7304SOL    HW122811   2.313   0.213   0.614
 7304SOL    HW222812   2.248   0.083   0.688
 7305SOL     OW22813   6.723   6.780   6.363
 7305SOL    HW122814   6.813   6.817   6.340
 7305SOL    HW222815   6.705   6.699   6.307
 7306SOL     OW22816   1.942   3.790   0.327
 7306SOL    HW122817   1.924   3.808   0.423
 7306SOL    HW222818   1.890   3.710   0.297
 7307SOL     OW22819   3.732   6.491   1.514
 7307SOL    HW122820   3.752   6.563   1.581
 7307SOL    HW222821   3.773   6.516   1.426
 7308SOL     OW22822   3.521   1.506   2.984
 7308SOL    HW122823   3.541   1.431   3.047
 7308SOL    HW222824   3.601   1.524   2.927
 7309SOL     OW22825   2.468   4.631   4.082
 7309SOL    HW122826   2.435   4.643   4.175
 7309SOL    HW222827   2.559   4.671   4.073
 7310SOL     OW22828   3.359   3.328   0.135
 7310SOL    HW122829   3.459   3.327   0.131
 7310SOL    HW222830   3.327   3.244   0.179
 7311SOL     OW22831   1.145   6.607   5.823
 7311SOL    HW122832   1.216   6.537   5.836
 7311SOL    HW222833   1.126   6.617   5.726
 7312SOL     OW22834   6.366   2.299   4.585
 7312SOL    HW122835   6.311   2.222   4.554
 7312SOL    HW222836   6.330   2.384   4.547
 7313SOL     OW22837   3.984   0.887   2.422
 7313SOL    HW122838   4.006   0.790   2.422
 7313SOL    HW222839   4.032   0.932   2.497
 7314SOL     OW22840   2.721   5.813   4.894
 7314SOL    HW122841   2.629   5.794   4.860
 7314SOL    HW222842   2.774   5.729   4.895
 7315SOL     OW22843   2.669   5.455   2.676
 7315SOL    HW122844   2.596   5.388   2.663
 7315SOL    HW222845   2.668   5.520   2.600
 7316SOL     OW22846   3.816   1.085   1.755
 7316SOL    HW122847   3.890   1.076   1.688
 7316SOL    HW222848   3.746   1.016   1.737
 7317SOL     OW22849   6.287   1.653   1.456
 7317SOL    HW122850   6.217   1.724   1.450
 7317SOL    HW222851   6.377   1.696   1.455
 7318SOL     OW22852   5.172   6.267   1.373
 7318SOL    HW122853   5.261   6.227   1.395
 7318SOL    HW222854   5.118   6.275   1.457
 7319SOL     OW22855   4.279   5.676   5.942
 7319SOL    HW122856   4.233   5.757   5.906
 7319SOL    HW222857   4.376   5.678   5.917
 7320SOL     OW22858   1.063   2.738   0.505
 7320SOL    HW122859   1.087   2.834   0.488
 7320SOL    HW222860   1.016   2.700   0.425
 7321SOL     OW22861   2.210   2.587   5.507
 7321SOL    HW122862   2.171   2.583   5.416
 7321SOL    HW222863   2.302   2.625   5.502
 7322SOL     OW22864   2.207   1.985   4.527
 7322SOL    HW122865   2.226   2.052   4.599
 7322SOL    HW222866   2.258   2.010   4.444
 7323SOL     OW22867   2.426   2.004   1.222
 7323SOL    HW122868   2.336   1.977   1.256
 7323SOL    HW222869   2.464   2.076   1.281
 7324SOL     OW22870   4.861   3.819   4.552
 7324SOL    HW122871   4.831   3.770   4.470
 7324SOL    HW222872   4.876   3.753   4.626
 7325SOL     OW22873   3.639   0.937   6.339
 7325SOL    HW122874   3.688   0.967   6.421
 7325SOL    HW222875   3.640   1.010   6.271
 7326SOL     OW22876   3.635   6.373   0.511
 7326SOL    HW122877   3.728   6.342   0.528
 7326SOL    HW222878   3.629   6.414   0.419
 7327SOL     OW22879   1.445   4.181   3.290
 7327SOL    HW122880   1.497   4.210   3.209
 7327SOL    HW222881   1.470   4.087   3.313
 7328SOL     OW22882   4.651   5.111   6.160
 7328SOL    HW122883   4.688   5.040   6.100
 7328SOL    HW222884   4.707   5.194   6.152
 7329SOL     OW22885   2.613   3.648   6.765
 7329SOL    HW122886   2.561   3.625   6.682
 7329SOL    HW222887   2.699   3.598   6.765
 7330SOL     OW22888   2.239   3.606   0.902
 7330SOL    HW122889   2.144   3.611   0.872
 7330SOL    HW222890   2.254   3.672   0.976
 7331SOL     OW22891   4.992   1.332   2.598
 7331SOL    HW122892   5.061   1.263   2.619
 7331SOL    HW222893   5.027   1.394   2.528
 7332SOL     OW22894   2.591   6.876   5.144
 7332SOL    HW122895   2.658   6.849   5.214
 7332SOL    HW222896   2.565   6.971   5.158
 7333SOL     OW22897   6.396   0.956   1.707
 7333SOL    HW122898   6.466   0.948   1.636
 7333SOL    HW222899   6.378   1.053   1.725
 7334SOL     OW22900   0.948   4.652   4.579
 7334SOL    HW122901   0.927   4.733   4.524
 7334SOL    HW222902   0.963   4.678   4.674
 7335SOL     OW22903   0.207   3.045   2.583
 7335SOL    HW122904   0.198   3.132   2.632
 7335SOL    HW222905   0.121   3.025   2.537
 7336SOL     OW22906   2.216   0.338   0.808
 7336SOL    HW122907   2.130   0.298   0.777
 7336SOL    HW222908   2.275   0.357   0.729
 7337SOL     OW22909   3.362   1.838   2.686
 7337SOL    HW122910   3.461   1.828   2.674
 7337SOL    HW222911   3.337   1.935   2.683
 7338SOL     OW22912   5.607   3.552   0.335
 7338SOL    HW122913   5.629   3.615   0.410
 7338SOL    HW222914   5.591   3.604   0.251
 7339SOL     OW22915   6.664   0.089   3.883
 7339SOL    HW122916   6.630   0.157   3.947
 7339SOL    HW222917   6.764   0.083   3.890
 7340SOL     OW22918   2.879   6.392   0.728
 7340SOL    HW122919   2.888   6.315   0.665
 7340SOL    HW222920   2.966   6.443   0.730
 7341SOL     OW22921   6.172   5.628   3.496
 7341SOL    HW122922   6.211   5.719   3.482
 7341SOL    HW222923   6.072   5.634   3.491
 7342SOL     OW22924   0.613   5.396   0.273
 7342SOL    HW122925   0.523   5.395   0.317
 7342SOL    HW222926   0.646   5.490   0.266
 7343SOL     OW22927   0.349   2.666   2.615
 7343SOL    HW122928   0.313   2.629   2.701
 7343SOL    HW222929   0.299   2.626   2.538
 7344SOL     OW22930   2.007   1.209   6.317
 7344SOL    HW122931   2.079   1.191   6.250
 7344SOL    HW222932   1.947   1.130   6.325
 7345SOL     OW22933   1.388   6.798   6.543
 7345SOL    HW122934   1.470   6.854   6.532
 7345SOL    HW222935   1.403   6.730   6.615
 7346SOL     OW22936   3.264   5.577   3.743
 7346SOL    HW122937   3.337   5.559   3.808
 7346SOL    HW222938   3.269   5.510   3.668
 7347SOL     OW22939   5.703   3.320   3.397
 7347SOL    HW122940   5.742   3.237   3.438
 7347SOL    HW222941   5.748   3.400   3.435
 7348SOL     OW22942   5.841   0.571   6.511
 7348SOL    HW122943   5.834   0.521   6.425
 7348SOL    HW222944   5.879   0.511   6.582
 7349SOL     OW22945   3.691   2.149   1.343
 7349SOL    HW122946   3.767   2.183   1.288
 7349SOL    HW222947   3.677   2.208   1.422
 7350SOL     OW22948   1.861   1.256   3.189
 7350SOL    HW122949   1.783   1.266   3.127
 7350SOL    HW222950   1.939   1.221   3.137
 7351SOL     OW22951   5.110   4.745   0.133
 7351SOL    HW122952   5.018   4.783   0.145
 7351SOL    HW222953   5.141   4.760   0.039
 7352SOL     OW22954   6.916   1.390   3.150
 7352SOL    HW122955   6.834   1.338   3.174
 7352SOL    HW222956   6.996   1.345   3.190
 7353SOL     OW22957   5.090   1.758   5.158
 7353SOL    HW122958   5.113   1.795   5.249
 7353SOL    HW222959   5.173   1.754   5.102
 7354SOL     OW22960   5.469   4.023   5.280
 7354SOL    HW122961   5.491   4.120   5.266
 7354SOL    HW222962   5.446   3.981   5.193
 7355SOL     OW22963   6.596   5.786   0.527
 7355SOL    HW122964   6.574   5.770   0.431
 7355SOL    HW222965   6.592   5.700   0.577
 7356SOL     OW22966   6.697   1.862   5.893
 7356SOL    HW122967   6.779   1.883   5.945
 7356SOL    HW222968   6.620   1.850   5.957
 7357SOL     OW22969   0.303   1.622   0.483
 7357SOL    HW122970   0.396   1.618   0.447
 7357SOL    HW222971   0.298   1.691   0.556
 7358SOL     OW22972   3.375   1.031   3.462
 7358SOL    HW122973   3.301   1.092   3.436
 7358SOL    HW222974   3.338   0.952   3.511
 7359SOL     OW22975   2.998   3.792   4.063
 7359SOL    HW122976   3.077   3.852   4.061
 7359SOL    HW222977   2.986   3.748   3.974
 7360SOL     OW22978   1.224   4.319   6.230
 7360SOL    HW122979   1.147   4.272   6.188
 7360SOL    HW222980   1.296   4.252   6.251
 7361SOL     OW22981   4.716   6.886   1.618
 7361SOL    HW122982   4.620   6.879   1.645
 7361SOL    HW222983   4.736   6.815   1.551
 7362SOL     OW22984   1.285   5.804   6.689
 7362SOL    HW122985   1.305   5.717   6.734
 7362SOL    HW222986   1.370   5.840   6.649
 7363SOL     OW22987   4.274   2.003   6.208
 7363SOL    HW122988   4.232   2.051   6.285
 7363SOL    HW222989   4.369   2.032   6.198
 7364SOL     OW22990   5.008   6.910   0.798
 7364SOL    HW122991   4.909   6.905   0.811
 7364SOL    HW222992   5.029   6.975   0.725
 7365SOL     OW22993   4.333   6.780   1.370
 7365SOL    HW122994   4.269   6.719   1.324
 7365SOL    HW222995   4.291   6.870   1.382
 7366SOL     OW22996   1.932   0.526   0.451
 7366SOL    HW122997   1.966   0.536   0.357
 7366SOL    HW222998   1.914   0.616   0.490
 7367SOL     OW22999   4.324   2.822   6.739
 7367SOL    HW123000   4.388   2.871   6.680
 7367SOL    HW223001   4.235   2.814   6.693
 7368SOL     OW23002   2.882   3.371   4.641
 7368SOL    HW123003   2.925   3.449   4.595
 7368SOL    HW223004   2.786   3.367   4.616
 7369SOL     OW23005   6.495   0.722   6.816
 7369SOL    HW123006   6.519   0.790   6.747
 7369SOL    HW223007   6.430   0.657   6.777
 7370SOL     OW23008   0.558   6.176   0.744
 7370SOL    HW123009   0.578   6.220   0.657
 7370SOL    HW223010   0.553   6.077   0.731
 7371SOL     OW23011   1.675   5.101   4.061
 7371SOL    HW123012   1.587   5.058   4.044
 7371SOL    HW223013   1.665   5.172   4.131
 7372SOL     OW23014   2.796   0.338   5.195
 7372SOL    HW123015   2.804   0.249   5.239
 7372SOL    HW223016   2.878   0.354   5.139
 7373SOL     OW23017   3.435   0.897   1.358
 7373SOL    HW123018   3.397   0.935   1.273
 7373SOL    HW223019   3.535   0.903   1.354
 7374SOL     OW23020   2.073   3.441   0.537
 7374SOL    HW123021   2.126   3.493   0.470
 7374SOL    HW223022   1.978   3.436   0.507
 7375SOL     OW23023   2.621   6.157   3.445
 7375SOL    HW123024   2.618   6.060   3.469
 7375SOL    HW223025   2.538   6.182   3.395
 7376SOL     OW23026   3.196   3.933   6.789
 7376SOL    HW123027   3.172   4.016   6.738
 7376SOL    HW223028   3.258   3.958   6.864
 7377SOL     OW23029   6.402   5.944   1.804
 7377SOL    HW123030   6.418   5.968   1.708
 7377SOL    HW223031   6.435   6.017   1.863
 7378SOL     OW23032   0.920   2.088   5.757
 7378SOL    HW123033   0.900   2.184   5.737
 7378SOL    HW223034   1.019   2.074   5.757
 7379SOL     OW23035   4.163   6.981   0.195
 7379SOL    HW123036   4.252   6.938   0.182
 7379SOL    HW223037   4.096   6.913   0.225
 7380SOL     OW23038   6.727   2.682   6.537
 7380SOL    HW123039   6.662   2.690   6.462
 7380SOL    HW223040   6.787   2.762   6.539
 7381SOL     OW23041   5.202   2.241   0.441
 7381SOL    HW123042   5.140   2.245   0.362
 7381SOL    HW223043   5.157   2.283   0.520
 7382SOL     OW23044   1.358   5.148   4.187
 7382SOL    HW123045   1.449   5.180   4.213
 7382SOL    HW223046   1.344   5.163   4.089
 7383SOL     OW23047   1.484   4.399   2.480
 7383SOL    HW123048   1.573   4.443   2.487
 7383SOL    HW223049   1.491   4.303   2.507
 7384SOL     OW23050   6.372   2.062   1.454
 7384SOL    HW123051   6.307   1.988   1.437
 7384SOL    HW223052   6.351   2.105   1.541
 7385SOL     OW23053   5.689   0.391   1.813
 7385SOL    HW123054   5.608   0.433   1.773
 7385SOL    HW223055   5.703   0.427   1.905
 7386SOL     OW23056   6.549   1.650   5.751
 7386SOL    HW123057   6.610   1.726   5.772
 7386SOL    HW223058   6.455   1.682   5.747
 7387SOL     OW23059   4.495   6.246   3.162
 7387SOL    HW123060   4.417   6.302   3.131
 7387SOL    HW223061   4.563   6.241   3.089
 7388SOL     OW23062   4.762   4.036   4.668
 7388SOL    HW123063   4.698   3.995   4.733
 7388SOL    HW223064   4.813   3.964   4.621
 7389SOL     OW23065   1.485   3.181   5.367
 7389SOL    HW123066   1.448   3.101   5.414
 7389SOL    HW223067   1.580   3.194   5.394
 7390SOL     OW23068   4.412   6.704   7.024
 7390SOL    HW123069   4.493   6.715   0.055
 7390SOL    HW223070   4.405   6.781   6.960
 7391SOL     OW23071   0.420   5.216   6.956
 7391SOL    HW123072   0.506   5.232   7.003
 7391SOL    HW223073   0.416   5.273   6.873
 7392SOL     OW23074   1.760   4.569   2.095
 7392SOL    HW123075   1.684   4.609   2.146
 7392SOL    HW223076   1.764   4.471   2.113
 7393SOL     OW23077   1.122   3.851   0.266
 7393SOL    HW123078   1.063   3.780   0.305
 7393SOL    HW223079   1.077   3.892   0.187
 7394SOL     OW23080   2.397   3.382   6.619
 7394SOL    HW123081   2.456   3.303   6.600
 7394SOL    HW223082   2.301   3.352   6.620
 7395SOL     OW23083   2.726   0.716   7.006
 7395SOL    HW123084   2.792   0.787   6.981
 7395SOL    HW223085   2.728   0.643   6.937
 7396SOL     OW23086   0.004   6.739   2.554
 7396SOL    HW123087   6.975   6.656   2.562
 7396SOL    HW223088   0.018   6.761   2.458
 7397SOL     OW23089   6.403   4.132   4.097
 7397SOL    HW123090   6.319   4.126   4.043
 7397SOL    HW223091   6.414   4.050   4.152
 7398SOL     OW23092   4.629   6.323   2.674
 7398SOL    HW123093   4.678   6.236   2.680
 7398SOL    HW223094   4.568   6.332   2.754
 7399SOL     OW23095   5.155   5.918   3.944
 7399SOL    HW123096   5.222   5.917   4.018
 7399SOL    HW223097   5.066   5.890   3.980
 7400SOL     OW23098   2.502   4.221   6.827
 7400SOL    HW123099   2.561   4.192   6.902
 7400SOL    HW223100   2.407   4.200   6.850
 7401SOL     OW23101   5.911   3.034   4.125
 7401SOL    HW123102   5.818   3.010   4.151
 7401SOL    HW223103   5.976   2.975   4.172
 7402SOL     OW23104   1.951   6.241   4.630
 7402SOL    HW123105   1.945   6.341   4.634
 7402SOL    HW223106   2.028   6.214   4.572
 7403SOL     OW23107   2.361   3.203   1.747
 7403SOL    HW123108   2.366   3.286   1.803
 7403SOL    HW223109   2.352   3.229   1.651
 7404SOL     OW23110   1.141   2.783   2.997
 7404SOL    HW123111   1.090   2.869   3.009
 7404SOL    HW223112   1.232   2.803   2.959
 7405SOL     OW23113   3.344   4.707   6.078
 7405SOL    HW123114   3.364   4.614   6.107
 7405SOL    HW223115   3.430   4.755   6.061
 7406SOL     OW23116   0.347   6.186   2.756
 7406SOL    HW123117   0.350   6.272   2.706
 7406SOL    HW223118   0.254   6.169   2.788
 7407SOL     OW23119   3.499   1.353   5.466
 7407SOL    HW123120   3.567   1.285   5.436
 7407SOL    HW223121   3.546   1.431   5.507
 7408SOL     OW23122   1.448   3.444   5.430
 7408SOL    HW123123   1.504   3.507   5.377
 7408SOL    HW223124   1.478   3.350   5.412
 7409SOL     OW23125   2.419   6.922   4.427
 7409SOL    HW123126   2.452   6.849   4.488
 7409SOL    HW223127   2.368   6.882   4.351
 7410SOL     OW23128   4.998   5.727   5.823
 7410SOL    HW123129   4.919   5.747   5.880
 7410SOL    HW223130   5.073   5.790   5.845
 7411SOL     OW23131   5.788   3.743   5.614
 7411SOL    HW123132   5.873   3.694   5.592
 7411SOL    HW223133   5.763   3.803   5.538
 7412SOL     OW23134   1.287   1.066   0.346
 7412SOL    HW123135   1.242   1.032   0.263
 7412SOL    HW223136   1.225   1.126   0.396
 7413SOL     OW23137   6.899   3.580   3.816
 7413SOL    HW123138   6.926   3.534   3.900
 7413SOL    HW223139   6.917   3.520   3.738
 7414SOL     OW23140   0.415   5.322   1.583
 7414SOL    HW123141   0.374   5.371   1.506
 7414SOL    HW223142   0.480   5.254   1.548
 7415SOL     OW23143   3.162   1.462   2.708
 7415SOL    HW123144   3.214   1.432   2.789
 7415SOL    HW223145   3.223   1.514   2.647
 7416SOL     OW23146   6.393   0.031   2.830
 7416SOL    HW123147   6.459   6.991   2.868
 7416SOL    HW223148   6.417   0.123   2.859
 7417SOL     OW23149   0.365   5.026   1.203
 7417SOL    HW123150   0.332   4.994   1.292
 7417SOL    HW223151   0.426   4.958   1.164
 7418SOL     OW23152   1.454   3.826   0.142
 7418SOL    HW123153   1.366   3.874   0.148
 7418SOL    HW223154   1.447   3.739   0.190
 7419SOL     OW23155   6.368   2.466   5.472
 7419SOL    HW123156   6.355   2.370   5.445
 7419SOL    HW223157   6.449   2.503   5.427
 7420SOL     OW23158   0.020   5.658   1.714
 7420SOL    HW123159   0.066   5.727   1.658
 7420SOL    HW223160   0.043   5.567   1.679
 7421SOL     OW23161   3.872   1.730   1.736
 7421SOL    HW123162   3.849   1.822   1.766
 7421SOL    HW223163   3.966   1.708   1.765
 7422SOL     OW23164   0.863   1.777   1.210
 7422SOL    HW123165   0.840   1.839   1.135
 7422SOL    HW223166   0.961   1.781   1.228
 7423SOL     OW23167   2.672   3.896   0.875
 7423SOL    HW123168   2.573   3.899   0.867
 7423SOL    HW223169   2.707   3.814   0.830
 7424SOL     OW23170   5.055   0.899   3.478
 7424SOL    HW123171   5.031   0.822   3.538
 7424SOL    HW223172   4.983   0.968   3.483
 7425SOL     OW23173   3.340   0.138   4.312
 7425SOL    HW123174   3.329   0.067   4.242
 7425SOL    HW223175   3.283   0.217   4.288
 7426SOL     OW23176   0.281   0.635   6.706
 7426SOL    HW123177   0.365   0.688   6.723
 7426SOL    HW223178   0.202   0.695   6.717
 7427SOL     OW23179   5.446   4.867   4.923
 7427SOL    HW123180   5.354   4.887   4.889
 7427SOL    HW223181   5.504   4.947   4.913
 7428SOL     OW23182   4.808   0.971   5.329
 7428SOL    HW123183   4.798   0.895   5.393
 7428SOL    HW223184   4.881   0.951   5.264
 7429SOL     OW23185   6.365   6.241   3.923
 7429SOL    HW123186   6.455   6.203   3.945
 7429SOL    HW223187   6.341   6.310   3.992
 7430SOL     OW23188   0.393   4.088   4.280
 7430SOL    HW123189   0.323   4.140   4.232
 7430SOL    HW223190   0.376   4.092   4.379
 7431SOL     OW23191   0.252   3.938   2.601
 7431SOL    HW123192   0.306   3.983   2.673
 7431SOL    HW223193   0.312   3.877   2.548
 7432SOL     OW23194   2.018   6.064   5.432
 7432SOL    HW123195   2.109   6.102   5.417
 7432SOL    HW223196   1.980   6.099   5.517
 7433SOL     OW23197   0.163   6.956   1.008
 7433SOL    HW123198   0.166   7.025   0.936
 7433SOL    HW223199   0.227   6.980   1.081
 7434SOL     OW23200   4.684   6.536   0.517
 7434SOL    HW123201   4.747   6.610   0.540
 7434SOL    HW223202   4.661   6.540   0.419
 7435SOL     OW23203   1.201   5.138   0.364
 7435SOL    HW123204   1.178   5.107   0.456
 7435SOL    HW223205   1.192   5.237   0.359
 7436SOL     OW23206   4.751   3.680   6.785
 7436SOL    HW123207   4.712   3.685   6.693
 7436SOL    HW223208   4.715   3.755   6.841
 7437SOL     OW23209   0.294   6.435   5.247
 7437SOL    HW123210   0.353   6.512   5.220
 7437SOL    HW223211   0.203   6.448   5.209
 7438SOL     OW23212   5.815   3.801   0.830
 7438SOL    HW123213   5.895   3.846   0.871
 7438SOL    HW223214   5.736   3.813   0.890
 7439SOL     OW23215   1.131   6.574   2.837
 7439SOL    HW123216   1.183   6.652   2.802
 7439SOL    HW223217   1.192   6.515   2.890
 7440SOL     OW23218   0.486   1.287   4.219
 7440SOL    HW123219   0.432   1.224   4.275
 7440SOL    HW223220   0.437   1.306   4.134
 7441SOL     OW23221   6.712   0.221   4.313
 7441SOL    HW123222   6.690   0.254   4.221
 7441SOL    HW223223   6.672   0.131   4.326
 7442SOL     OW23224   1.565   0.848   6.818
 7442SOL    HW123225   1.564   0.754   6.854
 7442SOL    HW223226   1.492   0.859   6.752
 7443SOL     OW23227   6.906   2.233   2.040
 7443SOL    HW123228   7.005   2.231   2.024
 7443SOL    HW223229   6.884   2.307   2.104
 7444SOL     OW23230   0.861   2.629   5.368
 7444SOL    HW123231   0.925   2.595   5.299
 7444SOL    HW223232   0.905   2.700   5.422
 7445SOL     OW23233   6.051   2.869   1.730
 7445SOL    HW123234   6.079   2.782   1.689
 7445SOL    HW223235   6.124   2.902   1.791
 7446SOL     OW23236   5.078   4.255   2.842
 7446SOL    HW123237   5.120   4.301   2.764
 7446SOL    HW223238   5.107   4.300   2.926
 7447SOL     OW23239   0.761   3.903   6.595
 7447SOL    HW123240   0.720   3.848   6.523
 7447SOL    HW223241   0.691   3.963   6.635
 7448SOL     OW23242   0.630   1.344   6.004
 7448SOL    HW123243   0.710   1.399   6.026
 7448SOL    HW223244   0.623   1.334   5.905
 7449SOL     OW23245   3.720   0.384   2.074
 7449SOL    HW123246   3.748   0.447   2.146
 7449SOL    HW223247   3.801   0.351   2.025
 7450SOL     OW23248   3.530   1.889   1.767
 7450SOL    HW123249   3.572   1.965   1.718
 7450SOL    HW223250   3.435   1.879   1.740
 7451SOL     OW23251   1.316   0.442   2.304
 7451SOL    HW123252   1.309   0.499   2.386
 7451SOL    HW223253   1.323   0.500   2.224
 7452SOL     OW23254   1.681   6.067   3.385
 7452SOL    HW123255   1.692   6.156   3.340
 7452SOL    HW223256   1.682   6.080   3.484
 7453SOL     OW23257   6.611   4.875   4.759
 7453SOL    HW123258   6.673   4.925   4.820
 7453SOL    HW223259   6.661   4.803   4.711
 7454SOL     OW23260   1.816   2.807   6.971
 7454SOL    HW123261   1.785   2.900   6.951
 7454SOL    HW223262   1.737   2.746   6.976
 7455SOL     OW23263   4.683   6.882   0.768
 7455SOL    HW123264   4.649   6.926   0.685
 7455SOL    HW223265   4.659   6.938   0.847
 7456SOL     OW23266   0.885   3.941   5.883
 7456SOL    HW123267   0.847   3.884   5.810
 7456SOL    HW223268   0.963   3.894   5.925
 7457SOL     OW23269   0.295   6.068   6.102
 7457SOL    HW123270   0.265   6.052   6.008
 7457SOL    HW223271   0.348   5.988   6.134
 7458SOL     OW23272   3.003   0.419   1.276
 7458SOL    HW123273   3.031   0.323   1.279
 7458SOL    HW223274   3.038   0.462   1.193
 7459SOL     OW23275   3.458   5.925   3.912
 7459SOL    HW123276   3.377   5.920   3.854
 7459SOL    HW223277   3.462   6.015   3.956
 7460SOL     OW23278   0.485   5.371   6.742
 7460SOL    HW123279   0.579   5.353   6.711
 7460SOL    HW223280   0.476   5.468   6.767
 7461SOL     OW23281   4.359   0.680   3.620
 7461SOL    HW123282   4.432   0.668   3.688
 7461SOL    HW223283   4.384   0.631   3.536
 7462SOL     OW23284   2.482   1.682   4.007
 7462SOL    HW123285   2.522   1.672   3.916
 7462SOL    HW223286   2.535   1.748   4.060
 7463SOL     OW23287   3.919   3.983   2.521
 7463SOL    HW123288   4.017   3.993   2.507
 7463SOL    HW223289   3.894   4.017   2.611
 7464SOL     OW23290   4.677   5.773   0.013
 7464SOL    HW123291   4.608   5.744   0.079
 7464SOL    HW223292   4.634   5.789   6.949
 7465SOL     OW23293   3.900   1.373   2.797
 7465SOL    HW123294   3.990   1.413   2.780
 7465SOL    HW223295   3.893   1.285   2.748
 7466SOL     OW23296   6.175   0.316   0.268
 7466SOL    HW123297   6.225   0.365   0.197
 7466SOL    HW223298   6.147   0.380   0.340
 7467SOL     OW23299   4.561   2.227   0.843
 7467SOL    HW123300   4.570   2.193   0.750
 7467SOL    HW223301   4.651   2.228   0.887
 7468SOL     OW23302   5.445   4.165   4.367
 7468SOL    HW123303   5.493   4.099   4.424
 7468SOL    HW223304   5.460   4.257   4.403
 7469SOL     OW23305   5.084   1.521   1.968
 7469SOL    HW123306   5.005   1.472   1.929
 7469SOL    HW223307   5.075   1.618   1.947
 7470SOL     OW23308   0.381   3.305   3.514
 7470SOL    HW123309   0.319   3.253   3.455
 7470SOL    HW223310   0.431   3.371   3.459
 7471SOL     OW23311   6.473   4.562   5.105
 7471SOL    HW123312   6.519   4.516   5.029
 7471SOL    HW223313   6.510   4.654   5.115
 7472SOL     OW23314   4.104   5.383   3.145
 7472SOL    HW123315   4.151   5.307   3.099
 7472SOL    HW223316   4.063   5.443   3.077
 7473SOL     OW23317   1.433   2.480   6.294
 7473SOL    HW123318   1.526   2.512   6.277
 7473SOL    HW223319   1.374   2.558   6.315
 7474SOL     OW23320   2.897   1.432   2.502
 7474SOL    HW123321   2.879   1.521   2.460
 7474SOL    HW223322   2.872   1.436   2.599
 7475SOL     OW23323   5.017   0.616   6.036
 7475SOL    HW123324   4.973   0.657   5.957
 7475SOL    HW223325   5.026   0.517   6.022
 7476SOL     OW23326   2.069   6.936   4.816
 7476SOL    HW123327   1.986   6.893   4.851
 7476SOL    HW223328   2.113   6.874   4.751
 7477SOL     OW23329   5.133   4.319   4.256
 7477SOL    HW123330   5.056   4.264   4.290
 7477SOL    HW223331   5.177   4.365   4.333
 7478SOL     OW23332   0.553   4.815   1.874
 7478SOL    HW123333   0.625   4.758   1.836
 7478SOL    HW223334   0.565   4.909   1.843
 7479SOL     OW23335   3.440   0.369   5.145
 7479SOL    HW123336   3.445   0.336   5.051
 7479SOL    HW223337   3.363   0.326   5.191
 7480SOL     OW23338   6.154   5.359   0.090
 7480SOL    HW123339   6.231   5.299   0.070
 7480SOL    HW223340   6.107   5.382   0.004
 7481SOL     OW23341   6.057   6.260   0.187
 7481SOL    HW123342   6.074   6.164   0.212
 7481SOL    HW223343   6.134   6.295   0.134
 7482SOL     OW23344   4.865   7.014   4.777
 7482SOL    HW123345   4.777   0.024   4.808
 7482SOL    HW223346   4.853   6.971   4.687
 7483SOL     OW23347   3.616   0.112   6.905
 7483SOL    HW123348   3.626   0.066   6.817
 7483SOL    HW223349   3.671   0.196   6.905
 7484SOL     OW23350   3.278   6.871   1.156
 7484SOL    HW123351   3.368   6.839   1.126
 7484SOL    HW223352   3.279   6.886   1.255
 7485SOL     OW23353   0.800   6.200   5.233
 7485SOL    HW123354   0.814   6.299   5.240
 7485SOL    HW223355   0.833   6.168   5.144
 7486SOL     OW23356   1.330   2.041   5.350
 7486SOL    HW123357   1.378   2.062   5.436
 7486SOL    HW223358   1.361   2.103   5.279
 7487SOL     OW23359   3.492   4.991   2.932
 7487SOL    HW123360   3.417   4.929   2.908
 7487SOL    HW223361   3.460   5.058   2.999
 7488SOL     OW23362   4.364   1.012   5.136
 7488SOL    HW123363   4.338   0.963   5.052
 7488SOL    HW223364   4.462   1.001   5.152
 7489SOL     OW23365   0.198   3.611   3.374
 7489SOL    HW123366   0.129   3.672   3.413
 7489SOL    HW223367   0.224   3.644   3.283
 7490SOL     OW23368   5.641   6.893   2.857
 7490SOL    HW123369   5.710   6.854   2.796
 7490SOL    HW223370   5.648   6.850   2.947
 7491SOL     OW23371   0.303   0.362   0.854
 7491SOL    HW123372   0.338   0.346   0.947
 7491SOL    HW223373   0.235   0.292   0.832
 7492SOL     OW23374   2.351   1.761   3.094
 7492SOL    HW123375   2.401   1.757   3.181
 7492SOL    HW223376   2.359   1.673   3.047
 7493SOL     OW23377   5.490   4.654   6.141
 7493SOL    HW123378   5.495   4.617   6.048
 7493SOL    HW223379   5.487   4.754   6.137
 7494SOL     OW23380   5.065   1.779   1.473
 7494SOL    HW123381   5.119   1.841   1.530
 7494SOL    HW223382   5.021   1.710   1.530
 7495SOL     OW23383   1.173   1.726   3.229
 7495SOL    HW123384   1.158   1.732   3.328
 7495SOL    HW223385   1.269   1.747   3.209
 7496SOL     OW23386   0.500   5.460   5.793
 7496SOL    HW123387   0.548   5.488   5.710
 7496SOL    HW223388   0.508   5.361   5.804
 7497SOL     OW23389   1.627   5.049   2.849
 7497SOL    HW123390   1.568   4.970   2.834
 7497SOL    HW223391   1.571   5.132   2.854
 7498SOL     OW23392   5.620   2.044   4.297
 7498SOL    HW123393   5.649   2.138   4.278
 7498SOL    HW223394   5.629   1.990   4.213
 7499SOL     OW23395   3.545   5.385   3.495
 7499SOL    HW123396   3.573   5.301   3.448
 7499SOL    HW223397   3.615   5.412   3.561
 7500SOL     OW23398   4.755   3.843   1.809
 7500SOL    HW123399   4.663   3.878   1.796
 7500SOL    HW223400   4.818   3.919   1.826
 7501SOL     OW23401   0.603   4.605   3.900
 7501SOL    HW123402   0.630   4.555   3.982
 7501SOL    HW223403   0.509   4.580   3.875
 7502SOL     OW23404   1.607   2.148   3.924
 7502SOL    HW123405   1.576   2.234   3.966
 7502SOL    HW223406   1.657   2.095   3.992
 7503SOL     OW23407   2.599   2.199   6.858
 7503SOL    HW123408   2.623   2.167   6.766
 7503SOL    HW223409   2.607   2.299   6.862
 7504SOL     OW23410   4.438   5.653   4.300
 7504SOL    HW123411   4.516   5.678   4.358
 7504SOL    HW223412   4.421   5.725   4.234
 7505SOL     OW23413   2.004   1.387   3.995
 7505SOL    HW123414   2.006   1.426   4.087
 7505SOL    HW223415   2.098   1.369   3.964
 7506SOL     OW23416   3.965   0.766   3.019
 7506SOL    HW123417   3.899   0.715   3.073
 7506SOL    HW223418   3.954   0.743   2.922
 7507SOL     OW23419   1.804   6.866   5.683
 7507SOL    HW123420   1.819   6.820   5.770
 7507SOL    HW223421   1.875   6.839   5.618
 7508SOL     OW23422   5.554   5.838   2.908
 7508SOL    HW123423   5.529   5.746   2.880
 7508SOL    HW223424   5.490   5.871   2.977
 7509SOL     OW23425   3.941   4.298   6.127
 7509SOL    HW123426   3.883   4.272   6.205
 7509SOL    HW223427   3.922   4.393   6.102
 7510SOL     OW23428   3.390   3.344   4.567
 7510SOL    HW123429   3.335   3.424   4.541
 7510SOL    HW223430   3.335   3.283   4.625
 7511SOL     OW23431   1.215   1.542   2.702
 7511SOL    HW123432   1.186   1.531   2.607
 7511SOL    HW223433   1.315   1.551   2.706
 7512SOL     OW23434   2.124   3.138   2.193
 7512SOL    HW123435   2.103   3.173   2.284
 7512SOL    HW223436   2.101   3.208   2.124
 7513SOL     OW23437   1.652   3.108   6.650
 7513SOL    HW123438   1.749   3.097   6.626
 7513SOL    HW223439   1.598   3.113   6.566
 7514SOL     OW23440   3.170   5.369   3.361
 7514SOL    HW123441   3.218   5.359   3.447
 7514SOL    HW223442   3.219   5.434   3.302
 7515SOL     OW23443   0.094   4.723   3.178
 7515SOL    HW123444   0.121   4.713   3.273
 7515SOL    HW223445   0.175   4.738   3.121
 7516SOL     OW23446   2.038   3.149   1.510
 7516SOL    HW123447   2.026   3.056   1.544
 7516SOL    HW223448   1.971   3.168   1.440
 7517SOL     OW23449   1.212   4.979   2.178
 7517SOL    HW123450   1.148   5.032   2.233
 7517SOL    HW223451   1.237   4.896   2.228
 7518SOL     OW23452   4.798   4.164   2.814
 7518SOL    HW123453   4.897   4.164   2.823
 7518SOL    HW223454   4.758   4.101   2.880
 7519SOL     OW23455   2.094   0.167   4.759
 7519SOL    HW123456   2.102   0.069   4.779
 7519SOL    HW223457   2.035   0.180   4.680
 7520SOL     OW23458   2.097   6.913   4.032
 7520SOL    HW123459   2.107   7.002   4.075
 7520SOL    HW223460   2.070   6.925   3.936
 7521SOL     OW23461   4.331   2.996   5.473
 7521SOL    HW123462   4.427   3.018   5.454
 7521SOL    HW223463   4.326   2.925   5.543
 7522SOL     OW23464   1.933   6.833   2.464
 7522SOL    HW123465   1.850   6.888   2.452
 7522SOL    HW223466   2.012   6.894   2.474
 7523SOL     OW23467   6.820   6.694   6.599
 7523SOL    HW123468   6.868   6.607   6.591
 7523SOL    HW223469   6.798   6.729   6.508
 7524SOL     OW23470   6.421   1.117   5.076
 7524SOL    HW123471   6.360   1.078   5.145
 7524SOL    HW223472   6.468   1.196   5.115
 7525SOL     OW23473   0.576   0.742   0.808
 7525SOL    HW123474   0.549   0.700   0.721
 7525SOL    HW223475   0.643   0.814   0.791
 7526SOL     OW23476   3.698   3.297   5.817
 7526SOL    HW123477   3.647   3.225   5.771
 7526SOL    HW223478   3.642   3.338   5.889
 7527SOL     OW23479   3.518   6.476   2.017
 7527SOL    HW123480   3.532   6.561   1.967
 7527SOL    HW223481   3.550   6.399   1.962
 7528SOL     OW23482   5.913   3.258   6.593
 7528SOL    HW123483   5.863   3.331   6.546
 7528SOL    HW223484   5.875   3.245   6.684
 7529SOL     OW23485   1.768   6.956   4.598
 7529SOL    HW123486   1.815   6.970   4.511
 7529SOL    HW223487   1.712   0.010   4.620
 7530SOL     OW23488   6.853   2.826   2.815
 7530SOL    HW123489   6.794   2.786   2.885
 7530SOL    HW223490   6.942   2.850   2.856
 7531SOL     OW23491   2.356   1.740   4.368
 7531SOL    HW123492   2.354   1.816   4.432
 7531SOL    HW223493   2.270   1.737   4.317
 7532SOL     OW23494   4.812   4.637   2.175
 7532SOL    HW123495   4.794   4.686   2.090
 7532SOL    HW223496   4.808   4.702   2.252
 7533SOL     OW23497   3.296   0.754   4.989
 7533SOL    HW123498   3.265   0.663   4.961
 7533SOL    HW223499   3.279   0.818   4.914
 7534SOL     OW23500   4.549   6.771   3.542
 7534SOL    HW123501   4.574   6.853   3.593
 7534SOL    HW223502   4.631   6.727   3.507
 7535SOL     OW23503   3.194   4.804   0.295
 7535SOL    HW123504   3.154   4.827   0.206
 7535SOL    HW223505   3.288   4.837   0.299
 7536SOL     OW23506   4.587   5.668   6.067
 7536SOL    HW123507   4.548   5.582   6.034
 7536SOL    HW223508   4.570   5.677   6.165
 7537SOL     OW23509   2.048   4.762   5.411
 7537SOL    HW123510   2.020   4.709   5.491
 7537SOL    HW223511   1.979   4.831   5.391
 7538SOL     OW23512   3.370   3.828   5.083
 7538SOL    HW123513   3.274   3.848   5.105
 7538SOL    HW223514   3.424   3.826   5.167
 7539SOL     OW23515   0.870   2.069   5.019
 7539SOL    HW123516   0.907   2.043   5.108
 7539SOL    HW223517   0.772   2.088   5.028
 7540SOL     OW23518   2.459   0.835   0.411
 7540SOL    HW123519   2.365   0.866   0.397
 7540SOL    HW223520   2.523   0.906   0.381
 7541SOL     OW23521   6.733   2.378   5.681
 7541SOL    HW123522   6.696   2.404   5.591
 7541SOL    HW223523   6.677   2.305   5.720
 7542SOL     OW23524   1.506   0.428   5.386
 7542SOL    HW123525   1.429   0.448   5.324
 7542SOL    HW223526   1.541   0.337   5.366
 7543SOL     OW23527   2.429   2.709   1.296
 7543SOL    HW123528   2.396   2.755   1.378
 7543SOL    HW223529   2.527   2.691   1.305
 7544SOL     OW23530   1.499   1.916   2.786
 7544SOL    HW123531   1.404   1.910   2.817
 7544SOL    HW223532   1.509   1.867   2.699
 7545SOL     OW23533   3.898   0.567   3.221
 7545SOL    HW123534   3.969   0.600   3.283
 7545SOL    HW223535   3.808   0.591   3.257
 7546SOL     OW23536   5.275   0.325   5.334
 7546SOL    HW123537   5.217   0.251   5.299
 7546SOL    HW223538   5.358   0.286   5.374
 7547SOL     OW23539   2.754   0.260   0.200
 7547SOL    HW123540   2.698   0.209   0.266
 7547SOL    HW223541   2.697   0.289   0.124
 7548SOL     OW23542   1.932   3.464   1.358
 7548SOL    HW123543   1.997   3.411   1.304
 7548SOL    HW223544   1.839   3.448   1.324
 7549SOL     OW23545   5.699   0.461   2.541
 7549SOL    HW123546   5.734   0.552   2.518
 7549SOL    HW223547   5.646   0.426   2.464
 7550SOL     OW23548   0.913   5.656   1.161
 7550SOL    HW123549   0.896   5.561   1.137
 7550SOL    HW223550   0.836   5.692   1.214
 7551SOL     OW23551   5.282   3.554   6.075
 7551SOL    HW123552   5.365   3.555   6.130
 7551SOL    HW223553   5.236   3.643   6.080
 7552SOL     OW23554   4.041   6.047   3.936
 7552SOL    HW123555   4.127   6.010   3.903
 7552SOL    HW223556   4.001   5.984   4.002
 7553SOL     OW23557   4.372   3.918   5.922
 7553SOL    HW123558   4.359   3.849   5.851
 7553SOL    HW223559   4.286   3.930   5.971
 7554SOL     OW23560   0.278   1.424   1.028
 7554SOL    HW123561   0.370   1.419   1.067
 7554SOL    HW223562   0.218   1.476   1.089
 7555SOL     OW23563   1.838   6.164   5.953
 7555SOL    HW123564   1.776   6.130   6.023
 7555SOL    HW223565   1.849   6.263   5.963
 7556SOL     OW23566   6.459   4.197   3.143
 7556SOL    HW123567   6.488   4.263   3.212
 7556SOL    HW223568   6.530   4.128   3.132
 7557SOL     OW23569   4.213   4.179   0.503
 7557SOL    HW123570   4.267   4.144   0.580
 7557SOL    HW223571   4.245   4.138   0.418
 7558SOL     OW23572   1.453   2.961   3.681
 7558SOL    HW123573   1.549   2.987   3.667
 7558SOL    HW223574   1.416   2.925   3.595
 7559SOL     OW23575   0.668   4.333   6.894
 7559SOL    HW123576   0.722   4.313   6.813
 7559SOL    HW223577   0.576   4.361   6.867
 7560SOL     OW23578   4.456   0.621   5.514
 7560SOL    HW123579   4.373   0.670   5.488
 7560SOL    HW223580   4.442   0.523   5.498
 7561SOL     OW23581   0.443   4.122   0.346
 7561SOL    HW123582   0.494   4.135   0.261
 7561SOL    HW223583   0.486   4.173   0.420
 7562SOL     OW23584   4.315   6.260   4.546
 7562SOL    HW123585   4.339   6.256   4.643
 7562SOL    HW223586   4.311   6.167   4.509
 7563SOL     OW23587   2.427   0.986   4.065
 7563SOL    HW123588   2.363   0.910   4.054
 7563SOL    HW223589   2.495   0.983   3.992
 7564SOL     OW23590   5.781   5.783   4.131
 7564SOL    HW123591   5.875   5.752   4.145
 7564SOL    HW223592   5.719   5.733   4.191
 7565SOL     OW23593   4.824   5.316   6.739
 7565SOL    HW123594   4.797   5.312   6.643
 7565SOL    HW223595   4.861   5.407   6.759
 7566SOL     OW23596   1.705   5.743   4.238
 7566SOL    HW123597   1.658   5.684   4.303
 7566SOL    HW223598   1.683   5.839   4.258
 7567SOL     OW23599   2.271   3.082   0.423
 7567SOL    HW123600   2.350   3.021   0.426
 7567SOL    HW223601   2.224   3.082   0.511
 7568SOL     OW23602   3.707   4.980   2.706
 7568SOL    HW123603   3.793   4.958   2.753
 7568SOL    HW223604   3.635   4.994   2.774
 7569SOL     OW23605   3.548   7.008   2.314
 7569SOL    HW123606   3.620   6.952   2.274
 7569SOL    HW223607   3.524   0.055   2.250
 7570SOL     OW23608   5.671   5.029   4.906
 7570SOL    HW123609   5.733   4.998   4.978
 7570SOL    HW223610   5.722   5.086   4.841
 7571SOL     OW23611   6.362   4.198   0.393
 7571SOL    HW123612   6.400   4.152   0.473
 7571SOL    HW223613   6.263   4.205   0.402
 7572SOL     OW23614   6.715   1.714   3.250
 7572SOL    HW123615   6.721   1.813   3.241
 7572SOL    HW223616   6.620   1.685   3.236
 7573SOL     OW23617   3.730   5.267   4.517
 7573SOL    HW123618   3.817   5.311   4.495
 7573SOL    HW223619   3.747   5.181   4.565
 7574SOL     OW23620   4.547   5.782   1.965
 7574SOL    HW123621   4.554   5.876   1.997
 7574SOL    HW223622   4.590   5.774   1.874
 7575SOL     OW23623   4.920   3.091   4.993
 7575SOL    HW123624   4.926   3.113   4.896
 7575SOL    HW223625   4.910   3.175   5.046
 7576SOL     OW23626   0.014   3.829   1.643
 7576SOL    HW123627   0.041   3.738   1.675
 7576SOL    HW223628   7.010   3.823   1.547
 7577SOL     OW23629   4.167   1.521   4.447
 7577SOL    HW123630   4.201   1.438   4.402
 7577SOL    HW223631   4.125   1.582   4.379
 7578SOL     OW23632   2.471   5.714   4.738
 7578SOL    HW123633   2.483   5.718   4.639
 7578SOL    HW223634   2.467   5.618   4.767
 7579SOL     OW23635   4.208   2.239   4.605
 7579SOL    HW123636   4.302   2.245   4.638
 7579SOL    HW223637   4.145   2.263   4.678
 7580SOL     OW23638   2.058   3.336   2.020
 7580SOL    HW123639   2.110   3.421   2.027
 7580SOL    HW223640   1.994   3.343   1.943
 7581SOL     OW23641   5.195   0.821   0.719
 7581SOL    HW123642   5.134   0.751   0.682
 7581SOL    HW223643   5.248   0.861   0.645
 7582SOL     OW23644   3.783   2.604   1.325
 7582SOL    HW123645   3.713   2.616   1.395
 7582SOL    HW223646   3.872   2.593   1.370
 7583SOL     OW23647   6.688   4.275   2.968
 7583SOL    HW123648   6.685   4.375   2.969
 7583SOL    HW223649   6.611   4.238   3.020
 7584SOL     OW23650   2.461   1.912   1.885
 7584SOL    HW123651   2.459   1.976   1.809
 7584SOL    HW223652   2.539   1.933   1.944
 7585SOL     OW23653   2.369   4.559   0.322
 7585SOL    HW123654   2.371   4.659   0.324
 7585SOL    HW223655   2.387   4.527   0.229
 7586SOL     OW23656   1.621   2.272   3.571
 7586SOL    HW123657   1.635   2.256   3.668
 7586SOL    HW223658   1.694   2.331   3.535
 7587SOL     OW23659   2.391   1.223   5.698
 7587SOL    HW123660   2.473   1.212   5.641
 7587SOL    HW223661   2.310   1.221   5.640
 7588SOL     OW23662   0.711   4.569   1.747
 7588SOL    HW123663   0.793   4.513   1.761
 7588SOL    HW223664   0.633   4.525   1.792
 7589SOL     OW23665   4.799   5.791   5.990
 7589SOL    HW123666   4.848   5.823   6.071
 7589SOL    HW223667   4.719   5.739   6.018
 7590SOL     OW23668   1.995   0.896   5.884
 7590SOL    HW123669   2.019   0.990   5.905
 7590SOL    HW223670   1.900   0.879   5.909
 7591SOL     OW23671   6.339   5.969   6.562
 7591SOL    HW123672   6.291   5.890   6.600
 7591SOL    HW223673   6.409   5.999   6.628
 7592SOL     OW23674   4.083   5.199   6.219
 7592SOL    HW123675   4.072   5.137   6.296
 7592SOL    HW223676   4.001   5.196   6.162
 7593SOL     OW23677   6.103   4.237   0.486
 7593SOL    HW123678   6.019   4.207   0.439
 7593SOL    HW223679   6.094   4.219   0.584
 7594SOL     OW23680   1.047   6.823   3.982
 7594SOL    HW123681   1.065   6.737   4.029
 7594SOL    HW223682   1.116   6.891   4.009
 7595SOL     OW23683   6.387   2.835   6.626
 7595SOL    HW123684   6.450   2.833   6.548
 7595SOL    HW223685   6.431   2.881   6.703
 7596SOL     OW23686   5.080   5.656   2.147
 7596SOL    HW123687   5.118   5.591   2.212
 7596SOL    HW223688   4.981   5.659   2.156
 7597SOL     OW23689   2.317   5.554   1.643
 7597SOL    HW123690   2.275   5.467   1.669
 7597SOL    HW223691   2.297   5.623   1.713
 7598SOL     OW23692   6.200   1.071   2.707
 7598SOL    HW123693   6.122   1.126   2.679
 7598SOL    HW223694   6.250   1.039   2.626
 7599SOL     OW23695   5.883   3.117   2.120
 7599SOL    HW123696   5.929   3.029   2.109
 7599SOL    HW223697   5.802   3.104   2.177
 7600SOL     OW23698   2.044   2.724   2.992
 7600SOL    HW123699   2.140   2.730   3.020
 7600SOL    HW223700   2.021   2.628   2.974
 7601SOL     OW23701   1.886   0.607   5.433
 7601SOL    HW123702   1.875   0.576   5.339
 7601SOL    HW223703   1.909   0.528   5.491
 7602SOL     OW23704   2.035   3.122   5.222
 7602SOL    HW123705   2.051   3.120   5.124
 7602SOL    HW223706   2.122   3.112   5.270
 7603SOL     OW23707   6.593   1.384   2.081
 7603SOL    HW123708   6.646   1.303   2.054
 7603SOL    HW223709   6.610   1.404   2.177
 7604SOL     OW23710   5.148   5.312   6.517
 7604SOL    HW123711   5.073   5.254   6.485
 7604SOL    HW223712   5.224   5.306   6.452
 7605SOL     OW23713   5.811   3.536   6.185
 7605SOL    HW123714   5.746   3.597   6.140
 7605SOL    HW223715   5.762   3.480   6.253
 7606SOL     OW23716   5.428   1.432   3.710
 7606SOL    HW123717   5.454   1.337   3.693
 7606SOL    HW223718   5.333   1.445   3.684
 7607SOL     OW23719   5.299   6.985   5.786
 7607SOL    HW123720   5.351   0.044   5.781
 7607SOL    HW223721   5.261   6.974   5.878
 7608SOL     OW23722   3.268   3.551   4.847
 7608SOL    HW123723   3.216   3.580   4.927
 7608SOL    HW223724   3.257   3.618   4.773
 7609SOL     OW23725   1.136   2.812   3.476
 7609SOL    HW123726   1.108   2.815   3.572
 7609SOL    HW223727   1.078   2.873   3.422
 7610SOL     OW23728   5.656   0.334   2.286
 7610SOL    HW123729   5.604   0.263   2.239
 7610SOL    HW223730   5.680   0.406   2.220
 7611SOL     OW23731   2.377   1.858   1.533
 7611SOL    HW123732   2.319   1.854   1.452
 7611SOL    HW223733   2.473   1.857   1.507
 7612SOL     OW23734   4.511   1.951   2.937
 7612SOL    HW123735   4.449   1.892   2.886
 7612SOL    HW223736   4.558   2.013   2.875
 7613SOL     OW23737   5.974   0.501   2.385
 7613SOL    HW123738   6.007   0.542   2.300
 7613SOL    HW223739   5.905   0.560   2.426
 7614SOL     OW23740   4.225   0.936   0.764
 7614SOL    HW123741   4.317   0.945   0.802
 7614SOL    HW223742   4.227   0.959   0.667
 7615SOL     OW23743   3.798   4.704   5.697
 7615SOL    HW123744   3.861   4.635   5.660
 7615SOL    HW223745   3.705   4.684   5.666
 7616SOL     OW23746   0.316   5.124   3.088
 7616SOL    HW123747   0.404   5.157   3.122
 7616SOL    HW223748   0.315   5.129   2.988
 7617SOL     OW23749   3.455   5.768   3.626
 7617SOL    HW123750   3.388   5.711   3.674
 7617SOL    HW223751   3.541   5.718   3.619
 7618SOL     OW23752   2.637   2.001   0.463
 7618SOL    HW123753   2.618   1.931   0.394
 7618SOL    HW223754   2.735   2.008   0.477
 7619SOL     OW23755   5.892   3.132   6.241
 7619SOL    HW123756   5.824   3.201   6.214
 7619SOL    HW223757   5.872   3.099   6.333
 7620SOL     OW23758   3.422   5.699   1.424
 7620SOL    HW123759   3.373   5.614   1.401
 7620SOL    HW223760   3.356   5.774   1.431
 7621SOL     OW23761   2.331   2.364   0.633
 7621SOL    HW123762   2.234   2.381   0.616
 7621SOL    HW223763   2.346   2.266   0.642
 7622SOL     OW23764   4.543   2.246   1.339
 7622SOL    HW123765   4.452   2.261   1.379
 7622SOL    HW223766   4.549   2.152   1.305
 7623SOL     OW23767   6.427   6.417   5.098
 7623SOL    HW123768   6.343   6.378   5.137
 7623SOL    HW223769   6.504   6.358   5.121
 7624SOL     OW23770   0.081   0.394   4.812
 7624SOL    HW123771   0.107   0.358   4.722
 7624SOL    HW223772   0.001   0.345   4.846
 7625SOL     OW23773   3.291   5.491   0.773
 7625SOL    HW123774   3.340   5.425   0.717
 7625SOL    HW223775   3.345   5.514   0.854
 7626SOL     OW23776   2.791   4.186   5.412
 7626SOL    HW123777   2.756   4.277   5.390
 7626SOL    HW223778   2.877   4.195   5.464
 7627SOL     OW23779   0.024   0.998   0.299
 7627SOL    HW123780   0.033   1.064   0.373
 7627SOL    HW223781   7.017   1.045   0.216
 7628SOL     OW23782   4.649   1.759   1.682
 7628SOL    HW123783   4.744   1.727   1.685
 7628SOL    HW223784   4.645   1.850   1.640
 7629SOL     OW23785   6.247   5.904   3.434
 7629SOL    HW123786   6.283   5.940   3.348
 7629SOL    HW223787   6.195   5.975   3.481
 7630SOL     OW23788   6.666   1.589   1.904
 7630SOL    HW123789   6.630   1.676   1.938
 7630SOL    HW223790   6.644   1.516   1.968
 7631SOL     OW23791   1.520   0.933   3.241
 7631SOL    HW123792   1.599   0.873   3.237
 7631SOL    HW223793   1.439   0.885   3.206
 7632SOL     OW23794   4.193   0.498   4.893
 7632SOL    HW123795   4.113   0.489   4.833
 7632SOL    HW223796   4.172   0.459   4.983
 7633SOL     OW23797   6.387   3.933   6.727
 7633SOL    HW123798   6.449   3.942   6.805
 7633SOL    HW223799   6.395   3.841   6.688
 7634SOL     OW23800   1.362   2.558   2.711
 7634SOL    HW123801   1.421   2.637   2.729
 7634SOL    HW223802   1.362   2.537   2.614
 7635SOL     OW23803   2.559   4.855   5.903
 7635SOL    HW123804   2.484   4.807   5.950
 7635SOL    HW223805   2.522   4.935   5.855
 7636SOL     OW23806   1.107   0.630   3.457
 7636SOL    HW123807   1.125   0.592   3.367
 7636SOL    HW223808   1.067   0.560   3.516
 7637SOL     OW23809   2.838   6.656   3.959
 7637SOL    HW123810   2.813   6.727   4.025
 7637SOL    HW223811   2.759   6.598   3.939
 7638SOL     OW23812   4.327   4.361   1.662
 7638SOL    HW123813   4.425   4.364   1.643
 7638SOL    HW223814   4.307   4.287   1.726
 7639SOL     OW23815   0.530   1.681   4.502
 7639SOL    HW123816   0.591   1.625   4.558
 7639SOL    HW223817   0.475   1.739   4.561
 7640SOL     OW23818   2.635   2.918   6.034
 7640SOL    HW123819   2.605   2.942   5.941
 7640SOL    HW223820   2.683   2.996   6.074
 7641SOL     OW23821   5.935   2.908   2.898
 7641SOL    HW123822   5.989   2.856   2.964
 7641SOL    HW223823   5.903   2.993   2.940
 7642SOL     OW23824   1.750   2.031   2.811
 7642SOL    HW123825   1.796   2.049   2.898
 7642SOL    HW223826   1.652   2.016   2.827
 7643SOL     OW23827   5.400   3.938   3.543
 7643SOL    HW123828   5.339   3.859   3.548
 7643SOL    HW223829   5.404   3.982   3.633
 7644SOL     OW23830   6.413   3.213   3.861
 7644SOL    HW123831   6.358   3.162   3.796
 7644SOL    HW223832   6.421   3.161   3.946
 7645SOL     OW23833   3.483   2.969   0.456
 7645SOL    HW123834   3.465   2.883   0.504
 7645SOL    HW223835   3.579   2.995   0.469
 7646SOL     OW23836   0.626   0.095   1.882
 7646SOL    HW123837   0.616   0.025   1.812
 7646SOL    HW223838   0.561   0.080   1.956
 7647SOL     OW23839   1.909   4.940   6.882
 7647SOL    HW123840   1.908   4.841   6.898
 7647SOL    HW223841   1.985   4.981   6.932
 7648SOL     OW23842   3.040   1.171   3.853
 7648SOL    HW123843   3.123   1.227   3.852
 7648SOL    HW223844   3.040   1.111   3.774
 7649SOL     OW23845   2.849   1.721   0.848
 7649SOL    HW123846   2.927   1.667   0.815
 7649SOL    HW223847   2.765   1.687   0.807
 7650SOL     OW23848   6.431   5.012   0.237
 7650SOL    HW123849   6.377   5.052   0.163
 7650SOL    HW223850   6.434   4.912   0.225
 7651SOL     OW23851   5.552   2.056   6.310
 7651SOL    HW123852   5.462   2.085   6.278
 7651SOL    HW223853   5.543   1.971   6.361
 7652SOL     OW23854   1.123   3.472   3.071
 7652SOL    HW123855   1.141   3.548   3.009
 7652SOL    HW223856   1.094   3.507   3.160
 7653SOL     OW23857   4.660   2.681   2.292
 7653SOL    HW123858   4.649   2.712   2.198
 7653SOL    HW223859   4.727   2.738   2.339
 7654SOL     OW23860   5.377   3.734   4.649
 7654SOL    HW123861   5.436   3.708   4.572
 7654SOL    HW223862   5.367   3.834   4.650
 7655SOL     OW23863   4.855   5.222   5.563
 7655SOL    HW123864   4.830   5.165   5.641
 7655SOL    HW223865   4.774   5.241   5.508
 7656SOL     OW23866   0.591   0.576   5.134
 7656SOL    HW123867   0.656   0.569   5.059
 7656SOL    HW223868   0.633   0.541   5.218
 7657SOL     OW23869   4.288   1.784   3.587
 7657SOL    HW123870   4.247   1.790   3.496
 7657SOL    HW223871   4.329   1.872   3.611
 7658SOL     OW23872   4.267   0.469   5.871
 7658SOL    HW123873   4.263   0.528   5.951
 7658SOL    HW223874   4.352   0.416   5.873
 7659SOL     OW23875   5.078   6.087   6.282
 7659SOL    HW123876   5.121   6.159   6.336
 7659SOL    HW223877   5.093   5.999   6.326
 7660SOL     OW23878   5.417   5.341   3.829
 7660SOL    HW123879   5.436   5.244   3.837
 7660SOL    HW223880   5.501   5.390   3.805
 7661SOL     OW23881   6.286   3.691   4.226
 7661SOL    HW123882   6.195   3.649   4.221
 7661SOL    HW223883   6.317   3.715   4.134
 7662SOL     OW23884   6.644   5.483   3.564
 7662SOL    HW123885   6.687   5.457   3.477
 7662SOL    HW223886   6.583   5.410   3.594
 7663SOL     OW23887   0.238   6.640   0.768
 7663SOL    HW123888   0.327   6.599   0.789
 7663SOL    HW223889   0.172   6.612   0.838
 7664SOL     OW23890   3.630   5.609   5.033
 7664SOL    HW123891   3.621   5.701   4.993
 7664SOL    HW223892   3.648   5.618   5.131
 7665SOL     OW23893   2.154   5.815   3.826
 7665SOL    HW123894   2.246   5.781   3.845
 7665SOL    HW223895   2.101   5.742   3.783
 7666SOL     OW23896   1.875   0.212   2.328
 7666SOL    HW123897   1.949   0.158   2.289
 7666SOL    HW223898   1.788   0.183   2.288
 7667SOL     OW23899   5.772   6.828   5.399
 7667SOL    HW123900   5.865   6.833   5.364
 7667SOL    HW223901   5.770   6.779   5.486
 7668SOL     OW23902   2.873   3.830   1.778
 7668SOL    HW123903   2.948   3.844   1.714
 7668SOL    HW223904   2.796   3.786   1.730
 7669SOL     OW23905   4.691   6.798   4.981
 7669SOL    HW123906   4.762   6.813   4.913
 7669SOL    HW223907   4.717   6.842   5.067
 7670SOL     OW23908   1.436   5.764   0.625
 7670SOL    HW123909   1.517   5.713   0.593
 7670SOL    HW223910   1.375   5.702   0.673
 7671SOL     OW23911   5.089   1.911   4.410
 7671SOL    HW123912   5.071   1.936   4.315
 7671SOL    HW223913   5.002   1.909   4.460
 7672SOL     OW23914   6.575   0.121   2.091
 7672SOL    HW123915   6.619   0.196   2.043
 7672SOL    HW223916   6.624   0.036   2.073
 7673SOL     OW23917   0.847   3.535   0.696
 7673SOL    HW123918   0.939   3.552   0.731
 7673SOL    HW223919   0.830   3.436   0.694
 7674SOL     OW23920   5.833   0.904   5.356
 7674SOL    HW123921   5.918   0.895   5.304
 7674SOL    HW223922   5.784   0.986   5.326
 7675SOL     OW23923   4.608   0.400   3.235
 7675SOL    HW123924   4.688   0.341   3.228
 7675SOL    HW223925   4.549   0.386   3.155
 7676SOL     OW23926   1.494   0.307   1.142
 7676SOL    HW123927   1.513   0.216   1.179
 7676SOL    HW223928   1.504   0.375   1.216
 7677SOL     OW23929   1.885   3.101   2.742
 7677SOL    HW123930   1.982   3.103   2.769
 7677SOL    HW223931   1.836   3.174   2.790
 7678SOL     OW23932   5.297   6.594   5.986
 7678SOL    HW123933   5.293   6.510   6.040
 7678SOL    HW223934   5.208   6.609   5.942
 7679SOL     OW23935   1.641   5.262   4.262
 7679SOL    HW123936   1.614   5.358   4.262
 7679SOL    HW223937   1.740   5.255   4.279
 7680SOL     OW23938   4.990   0.556   0.329
 7680SOL    HW123939   4.987   0.655   0.337
 7680SOL    HW223940   4.904   0.524   0.289
 7681SOL     OW23941   3.372   2.172   6.622
 7681SOL    HW123942   3.315   2.251   6.643
 7681SOL    HW223943   3.319   2.104   6.571
 7682SOL     OW23944   2.918   0.231   0.555
 7682SOL    HW123945   2.942   0.136   0.535
 7682SOL    HW223946   2.994   0.275   0.604
 7683SOL     OW23947   6.778   3.195   3.574
 7683SOL    HW123948   6.777   3.226   3.669
 7683SOL    HW223949   6.811   3.101   3.570
 7684SOL     OW23950   4.133   2.064   5.596
 7684SOL    HW123951   4.191   2.142   5.573
 7684SOL    HW223952   4.038   2.086   5.575
 7685SOL     OW23953   3.871   3.964   1.191
 7685SOL    HW123954   3.817   3.957   1.275
 7685SOL    HW223955   3.922   4.050   1.191
 7686SOL     OW23956   2.786   1.031   2.981
 7686SOL    HW123957   2.739   1.106   2.933
 7686SOL    HW223958   2.848   1.069   3.049
 7687SOL     OW23959   4.557   3.879   5.711
 7687SOL    HW123960   4.499   3.870   5.792
 7687SOL    HW223961   4.500   3.891   5.630
 7688SOL     OW23962   6.616   0.737   3.303
 7688SOL    HW123963   6.642   0.661   3.363
 7688SOL    HW223964   6.640   0.715   3.209
 7689SOL     OW23965   3.524   6.381   4.666
 7689SOL    HW123966   3.528   6.480   4.652
 7689SOL    HW223967   3.429   6.353   4.679
 7690SOL     OW23968   0.918   5.419   2.579
 7690SOL    HW123969   1.003   5.452   2.538
 7690SOL    HW223970   0.840   5.464   2.535
 7691SOL     OW23971   6.259   3.783   5.963
 7691SOL    HW123972   6.191   3.715   5.991
 7691SOL    HW223973   6.212   3.870   5.943
 7692SOL     OW23974   1.703   6.551   1.169
 7692SOL    HW123975   1.749   6.573   1.255
 7692SOL    HW223976   1.604   6.551   1.183
 7693SOL     OW23977   5.286   1.754   0.504
 7693SOL    HW123978   5.297   1.658   0.478
 7693SOL    HW223979   5.374   1.791   0.534
 7694SOL     OW23980   5.549   5.179   3.508
 7694SOL    HW123981   5.630   5.237   3.510
 7694SOL    HW223982   5.523   5.153   3.601
 7695SOL     OW23983   4.809   0.324   6.838
 7695SOL    HW123984   4.900   0.336   6.875
 7695SOL    HW223985   4.745   0.303   6.912
 7696SOL     OW23986   1.327   3.981   5.471
 7696SOL    HW123987   1.375   4.068   5.475
 7696SOL    HW223988   1.281   3.964   5.558
 7697SOL     OW23989   4.861   1.394   1.862
 7697SOL    HW123990   4.834   1.327   1.931
 7697SOL    HW223991   4.814   1.373   1.776
 7698SOL     OW23992   6.682   2.665   5.822
 7698SOL    HW123993   6.706   2.744   5.878
 7698SOL    HW223994   6.651   2.695   5.732
 7699SOL     OW23995   3.125   3.817   0.715
 7699SOL    HW123996   3.114   3.761   0.633
 7699SOL    HW223997   3.078   3.773   0.791
 7700SOL     OW23998   5.656   6.876   4.554
 7700SOL    HW123999   5.625   6.932   4.477
 7700SOL    HW224000   5.592   6.800   4.567
 7701SOL     OW24001   6.596   2.565   5.356
 7701SOL    HW124002   6.607   2.612   5.268
 7701SOL    HW224003   6.626   2.470   5.347
 7702SOL     OW24004   1.698   6.592   0.005
 7702SOL    HW124005   1.628   6.578   0.075
 7702SOL    HW224006   1.670   6.546   6.947
 7703SOL     OW24007   0.478   2.328   5.931
 7703SOL    HW124008   0.571   2.293   5.920
 7703SOL    HW224009   0.471   2.375   6.019
 7704SOL     OW24010   2.462   3.939   1.426
 7704SOL    HW124011   2.507   3.997   1.358
 7704SOL    HW224012   2.368   3.921   1.399
 7705SOL     OW24013   4.208   3.436   5.108
 7705SOL    HW124014   4.243   3.520   5.149
 7705SOL    HW224015   4.281   3.369   5.101
 7706SOL     OW24016   6.568   0.519   5.513
 7706SOL    HW124017   6.627   0.595   5.541
 7706SOL    HW224018   6.491   0.556   5.460
 7707SOL     OW24019   6.929   5.942   6.996
 7707SOL    HW124020   6.832   5.960   7.015
 7707SOL    HW224021   6.977   5.926   0.056
 7708SOL     OW24022   5.100   1.349   5.036
 7708SOL    HW124023   5.035   1.422   5.058
 7708SOL    HW224024   5.052   1.276   4.986
 7709SOL     OW24025   3.951   2.320   1.772
 7709SOL    HW124026   3.859   2.322   1.811
 7709SOL    HW224027   3.963   2.399   1.712
 7710SOL     OW24028   3.098   1.999   0.213
 7710SOL    HW124029   3.150   2.070   0.166
 7710SOL    HW224030   3.057   1.937   0.146
 7711SOL     OW24031   4.477   5.856   4.738
 7711SOL    HW124032   4.416   5.777   4.737
 7711SOL    HW224033   4.452   5.916   4.814
 7712SOL     OW24034   5.572   4.209   6.609
 7712SOL    HW124035   5.502   4.142   6.584
 7712SOL    HW224036   5.618   4.179   6.693
 7713SOL     OW24037   0.489   5.616   6.488
 7713SOL    HW124038   0.493   5.714   6.467
 7713SOL    HW224039   0.393   5.586   6.486
 7714SOL     OW24040   5.122   3.932   4.911
 7714SOL    HW124041   5.091   3.948   4.818
 7714SOL    HW224042   5.045   3.937   4.974
 7715SOL     OW24043   3.840   2.079   2.097
 7715SOL    HW124044   3.768   2.144   2.073
 7715SOL    HW224045   3.834   1.999   2.037
 7716SOL     OW24046   4.070   2.203   4.369
 7716SOL    HW124047   4.101   2.213   4.463
 7716SOL    HW224048   4.071   2.106   4.344
 7717SOL     OW24049   3.153   0.154   6.613
 7717SOL    HW124050   3.236   0.167   6.667
 7717SOL    HW224051   3.126   0.240   6.571
 7718SOL     OW24052   2.404   6.687   3.551
 7718SOL    HW124053   2.387   6.701   3.648
 7718SOL    HW224054   2.498   6.653   3.539
 7719SOL     OW24055   5.865   2.751   5.021
 7719SOL    HW124056   5.804   2.797   4.957
 7719SOL    HW224057   5.941   2.710   4.971
 7720SOL     OW24058   5.372   6.100   1.441
 7720SOL    HW124059   5.467   6.132   1.437
 7720SOL    HW224060   5.362   6.035   1.516
 7721SOL     OW24061   0.922   4.563   2.930
 7721SOL    HW124062   0.935   4.467   2.903
 7721SOL    HW224063   1.008   4.599   2.966
 7722SOL     OW24064   0.853   5.934   4.318
 7722SOL    HW124065   0.907   6.010   4.280
 7722SOL    HW224066   0.757   5.961   4.324
 7723SOL     OW24067   6.945   1.937   0.405
 7723SOL    HW124068   6.963   1.905   0.498
 7723SOL    HW224069   6.896   2.025   0.409
 7724SOL     OW24070   2.488   6.306   6.876
 7724SOL    HW124071   2.500   6.273   6.783
 7724SOL    HW224072   2.544   6.252   6.939
 7725SOL     OW24073   4.880   3.608   4.350
 7725SOL    HW124074   4.977   3.634   4.348
 7725SOL    HW224075   4.867   3.526   4.296
 7726SOL     OW24076   5.386   5.077   3.083
 7726SOL    HW124077   5.415   5.141   3.012
 7726SOL    HW224078   5.392   5.121   3.173
 7727SOL     OW24079   5.834   3.325   2.446
 7727SOL    HW124080   5.751   3.359   2.402
 7727SOL    HW224081   5.817   3.234   2.484
 7728SOL     OW24082   2.185   3.060   3.282
 7728SOL    HW124083   2.152   2.968   3.305
 7728SOL    HW224084   2.216   3.061   3.187
 7729SOL     OW24085   5.123   1.813   6.377
 7729SOL    HW124086   5.160   1.801   6.284
 7729SOL    HW224087   5.157   1.899   6.414
 7730SOL     OW24088   4.645   6.948   2.351
 7730SOL    HW124089   4.712   6.877   2.372
 7730SOL    HW224090   4.624   6.945   2.253
 7731SOL     OW24091   6.968   1.580   4.115
 7731SOL    HW124092   6.905   1.641   4.164
 7731SOL    HW224093   7.004   1.627   4.035
 7732SOL     OW24094   4.386   4.747   0.580
 7732SOL    HW124095   4.462   4.688   0.554
 7732SOL    HW224096   4.389   4.832   0.526
 7733SOL     OW24097   3.051   5.931   0.584
 7733SOL    HW124098   2.992   5.936   0.504
 7733SOL    HW224099   3.129   5.872   0.564
 7734SOL     OW24100   1.639   3.074   2.364
 7734SOL    HW124101   1.562   3.099   2.307
 7734SOL    HW224102   1.693   3.004   2.319
 7735SOL     OW24103   5.224   4.394   0.921
 7735SOL    HW124104   5.206   4.446   1.005
 7735SOL    HW224105   5.323   4.381   0.911
 7736SOL     OW24106   5.919   4.281   6.520
 7736SOL    HW124107   5.885   4.280   6.614
 7736SOL    HW224108   5.860   4.339   6.464
 7737SOL     OW24109   4.757   2.595   0.144
 7737SOL    HW124110   4.688   2.667   0.153
 7737SOL    HW224111   4.795   2.597   0.052
 7738SOL     OW24112   1.815   4.973   6.622
 7738SOL    HW124113   1.840   4.947   6.715
 7738SOL    HW224114   1.868   4.918   6.557
 7739SOL     OW24115   5.377   3.701   2.471
 7739SOL    HW124116   5.371   3.795   2.506
 7739SOL    HW224117   5.296   3.681   2.416
 7740SOL     OW24118   6.875   6.235   3.882
 7740SOL    HW124119   6.928   6.151   3.869
 7740SOL    HW224120   6.845   6.270   3.794
 7741SOL     OW24121   3.014   5.444   4.185
 7741SOL    HW124122   3.022   5.344   4.179
 7741SOL    HW224123   3.008   5.470   4.282
 7742SOL     OW24124   6.944   0.251   4.577
 7742SOL    HW124125   6.866   0.312   4.591
 7742SOL    HW224126   6.973   0.257   4.481
 7743SOL     OW24127   4.887   3.142   2.284
 7743SOL    HW124128   4.889   3.242   2.282
 7743SOL    HW224129   4.829   3.109   2.209
 7744SOL     OW24130   0.406   6.393   4.939
 7744SOL    HW124131   0.395   6.415   4.843
 7744SOL    HW224132   0.448   6.470   4.987
 7745SOL     OW24133   5.317   3.117   5.711
 7745SOL    HW124134   5.350   3.037   5.761
 7745SOL    HW224135   5.227   3.096   5.671
 7746SOL     OW24136   2.105   0.925   6.451
 7746SOL    HW124137   2.127   1.006   6.505
 7746SOL    HW224138   2.011   0.931   6.419
 7747SOL     OW24139   4.866   4.776   0.514
 7747SOL    HW124140   4.828   4.770   0.607
 7747SOL    HW224141   4.961   4.806   0.519
 7748SOL     OW24142   2.089   3.781   6.606
 7748SOL    HW124143   2.147   3.861   6.624
 7748SOL    HW224144   2.125   3.702   6.655
 7749SOL     OW24145   6.117   2.938   6.322
 7749SOL    HW124146   6.042   3.003   6.310
 7749SOL    HW224147   6.114   2.869   6.250
 7750SOL     OW24148   4.488   5.264   2.674
 7750SOL    HW124149   4.581   5.250   2.707
 7750SOL    HW224150   4.440   5.328   2.734
 7751SOL     OW24151   0.553   2.524   0.956
 7751SOL    HW124152   0.544   2.540   1.054
 7751SOL    HW224153   0.483   2.576   0.907
 7752SOL     OW24154   4.037   1.498   3.091
 7752SOL    HW124155   3.978   1.456   3.160
 7752SOL    HW224156   3.988   1.504   3.004
 7753SOL     OW24157   3.794   0.681   5.147
 7753SOL    HW124158   3.704   0.725   5.160
 7753SOL    HW224159   3.784   0.582   5.156
 7754SOL     OW24160   4.712   5.299   1.659
 7754SOL    HW124161   4.694   5.351   1.576
 7754SOL    HW224162   4.806   5.264   1.657
 7755SOL     OW24163   0.123   4.744   5.685
 7755SOL    HW124164   0.110   4.645   5.691
 7755SOL    HW224165   0.059   4.790   5.746
 7756SOL     OW24166   2.246   4.179   2.160
 7756SOL    HW124167   2.264   4.224   2.247
 7756SOL    HW224168   2.225   4.083   2.177
 7757SOL     OW24169   0.452   4.405   0.192
 7757SOL    HW124170   0.492   4.387   0.281
 7757SOL    HW224171   0.505   4.357   0.121
 7758SOL     OW24172   0.591   1.308   5.718
 7758SOL    HW124173   0.518   1.365   5.680
 7758SOL    HW224174   0.562   1.212   5.716
 7759SOL     OW24175   4.027   1.029   2.171
 7759SOL    HW124176   4.031   0.989   2.262
 7759SOL    HW224177   4.112   1.011   2.123
 7760SOL     OW24178   4.535   2.744   0.225
 7760SOL    HW124179   4.440   2.722   0.200
 7760SOL    HW224180   4.559   2.833   0.186
 7761SOL     OW24181   5.562   5.410   3.110
 7761SOL    HW124182   5.530   5.341   3.175
 7761SOL    HW224183   5.501   5.490   3.114
 7762SOL     OW24184   4.865   1.946   1.273
 7762SOL    HW124185   4.819   1.866   1.313
 7762SOL    HW224186   4.948   1.965   1.324
 7763SOL     OW24187   1.639   0.510   3.019
 7763SOL    HW124188   1.643   0.435   3.085
 7763SOL    HW224189   1.665   0.596   3.064
 7764SOL     OW24190   3.776   5.004   5.378
 7764SOL    HW124191   3.774   5.104   5.369
 7764SOL    HW224192   3.692   4.973   5.422
 7765SOL     OW24193   5.589   3.963   4.501
 7765SOL    HW124194   5.544   3.878   4.473
 7765SOL    HW224195   5.667   3.941   4.559
 7766SOL     OW24196   6.536   2.249   6.713
 7766SOL    HW124197   6.610   2.201   6.666
 7766SOL    HW224198   6.503   2.324   6.655
 7767SOL     OW24199   4.327   7.024   4.232
 7767SOL    HW124200   4.406   0.059   4.242
 7767SOL    HW224201   4.349   6.950   4.169
 7768SOL     OW24202   3.107   5.702   4.118
 7768SOL    HW124203   3.113   5.604   4.136
 7768SOL    HW224204   3.198   5.743   4.123
 7769SOL     OW24205   3.542   2.686   6.530
 7769SOL    HW124206   3.464   2.716   6.585
 7769SOL    HW224207   3.553   2.747   6.452
 7770SOL     OW24208   0.784   3.522   3.962
 7770SOL    HW124209   0.764   3.477   4.049
 7770SOL    HW224210   0.725   3.603   3.953
 7771SOL     OW24211   1.032   3.964   5.123
 7771SOL    HW124212   1.028   4.034   5.195
 7771SOL    HW224213   0.942   3.921   5.115
 7772SOL     OW24214   5.376   5.552   1.617
 7772SOL    HW124215   5.348   5.624   1.680
 7772SOL    HW224216   5.332   5.567   1.528
 7773SOL     OW24217   2.674   6.973   7.005
 7773SOL    HW124218   2.677   6.934   0.072
 7773SOL    HW224219   2.664   0.047   7.011
 7774SOL     OW24220   5.255   1.327   2.988
 7774SOL    HW124221   5.333   1.285   3.034
 7774SOL    HW224222   5.197   1.373   3.055
 7775SOL     OW24223   3.418   1.518   0.650
 7775SOL    HW124224   3.469   1.476   0.725
 7775SOL    HW224225   3.363   1.594   0.686
 7776SOL     OW24226   3.293   1.303   3.850
 7776SOL    HW124227   3.256   1.394   3.868
 7776SOL    HW224228   3.334   1.301   3.758
 7777SOL     OW24229   5.099   5.117   3.093
 7777SOL    HW124230   5.197   5.099   3.088
 7777SOL    HW224231   5.070   5.114   3.189
 7778SOL     OW24232   1.505   3.834   2.165
 7778SOL    HW124233   1.432   3.766   2.180
 7778SOL    HW224234   1.564   3.802   2.091
 7779SOL     OW24235   3.426   0.574   2.620
 7779SOL    HW124236   3.346   0.612   2.667
 7779SOL    HW224237   3.409   0.478   2.598
 7780SOL     OW24238   6.061   5.706   4.124
 7780SOL    HW124239   6.094   5.736   4.035
 7780SOL    HW224240   6.085   5.610   4.137
 7781SOL     OW24241   2.642   2.530   0.735
 7781SOL    HW124242   2.546   2.525   0.709
 7781SOL    HW224243   2.693   2.585   0.669
 7782SOL     OW24244   5.593   3.874   4.132
 7782SOL    HW124245   5.498   3.896   4.110
 7782SOL    HW224246   5.632   3.819   4.059
 7783SOL     OW24247   0.986   6.146   3.668
 7783SOL    HW124248   0.989   6.212   3.744
 7783SOL    HW224249   1.071   6.093   3.667
 7784SOL     OW24250   1.585   2.681   3.008
 7784SOL    HW124251   1.623   2.667   2.916
 7784SOL    HW224252   1.548   2.774   3.015
 7785SOL     OW24253   6.621   6.515   2.763
 7785SOL    HW124254   6.668   6.446   2.709
 7785SOL    HW224255   6.535   6.539   2.719
 7786SOL     OW24256   5.122   1.283   6.543
 7786SOL    HW124257   5.083   1.310   6.455
 7786SOL    HW224258   5.183   1.355   6.576
 7787SOL     OW24259   1.006   2.686   1.119
 7787SOL    HW124260   1.082   2.745   1.091
 7787SOL    HW224261   1.041   2.594   1.138
 7788SOL     OW24262   0.874   3.729   2.213
 7788SOL    HW124263   0.783   3.689   2.224
 7788SOL    HW224264   0.871   3.799   2.142
 7789SOL     OW24265   3.271   0.212   5.998
 7789SOL    HW124266   3.353   0.172   6.039
 7789SOL    HW224267   3.193   0.199   6.059
 7790SOL     OW24268   4.101   5.224   4.311
 7790SOL    HW124269   4.144   5.263   4.393
 7790SOL    HW224270   4.043   5.147   4.336
 7791SOL     OW24271   2.749   6.338   1.670
 7791SOL    HW124272   2.847   6.352   1.661
 7791SOL    HW224273   2.716   6.384   1.753
 7792SOL     OW24274   1.242   0.900   2.064
 7792SOL    HW124275   1.325   0.906   2.008
 7792SOL    HW224276   1.216   0.804   2.074
 7793SOL     OW24277   4.885   1.876   0.485
 7793SOL    HW124278   4.843   1.808   0.424
 7793SOL    HW224279   4.934   1.944   0.430
 7794SOL     OW24280   1.618   0.877   2.610
 7794SOL    HW124281   1.543   0.826   2.652
 7794SOL    HW224282   1.687   0.900   2.679
 7795SOL     OW24283   4.075   3.825   1.067
 7795SOL    HW124284   4.166   3.868   1.062
 7795SOL    HW224285   4.025   3.864   1.144
 7796SOL     OW24286   4.532   1.300   0.765
 7796SOL    HW124287   4.436   1.272   0.763
 7796SOL    HW224288   4.558   1.340   0.677
 7797SOL     OW24289   1.504   6.262   2.809
 7797SOL    HW124290   1.436   6.216   2.752
 7797SOL    HW224291   1.580   6.294   2.753
 7798SOL     OW24292   1.415   3.169   1.241
 7798SOL    HW124293   1.406   3.075   1.274
 7798SOL    HW224294   1.505   3.180   1.198
 7799SOL     OW24295   2.115   6.648   3.797
 7799SOL    HW124296   2.051   6.658   3.873
 7799SOL    HW224297   2.072   6.594   3.724
 7800SOL     OW24298   1.186   0.965   2.348
 7800SOL    HW124299   1.172   0.937   2.253
 7800SOL    HW224300   1.283   0.984   2.363
 7801SOL     OW24301   1.623   2.382   0.870
 7801SOL    HW124302   1.541   2.433   0.894
 7801SOL    HW224303   1.701   2.417   0.921
 7802SOL     OW24304   6.178   5.475   4.130
 7802SOL    HW124305   6.145   5.385   4.099
 7802SOL    HW224306   6.242   5.462   4.206
 7803SOL     OW24307   3.182   1.943   6.209
 7803SOL    HW124308   3.146   1.940   6.303
 7803SOL    HW224309   3.106   1.933   6.145
 7804SOL     OW24310   2.846   1.398   5.212
 7804SOL    HW124311   2.928   1.426   5.162
 7804SOL    HW224312   2.817   1.473   5.272
 7805SOL     OW24313   5.779   2.707   7.024
 7805SOL    HW124314   5.829   2.641   6.969
 7805SOL    HW224315   5.691   2.668   0.026
 7806SOL     OW24316   6.123   2.173   5.140
 7806SOL    HW124317   6.182   2.216   5.072
 7806SOL    HW224318   6.063   2.107   5.096
 7807SOL     OW24319   1.900   5.177   5.673
 7807SOL    HW124320   1.837   5.255   5.674
 7807SOL    HW224321   1.951   5.173   5.759
 7808SOL     OW24322   0.534   3.241   4.648
 7808SOL    HW124323   0.564   3.153   4.612
 7808SOL    HW224324   0.594   3.268   4.724
 7809SOL     OW24325   4.196   6.858   2.746
 7809SOL    HW124326   4.286   6.868   2.788
 7809SOL    HW224327   4.187   6.766   2.708
 7810SOL     OW24328   2.124   6.560   5.947
 7810SOL    HW124329   2.168   6.484   5.900
 7810SOL    HW224330   2.177   6.584   6.029
 7811SOL     OW24331   1.572   5.646   3.226
 7811SOL    HW124332   1.665   5.648   3.189
 7811SOL    HW224333   1.539   5.739   3.239
 7812SOL     OW24334   3.231   0.887   5.757
 7812SOL    HW124335   3.263   0.828   5.684
 7812SOL    HW224336   3.157   0.841   5.807
 7813SOL     OW24337   5.528   1.302   0.569
 7813SOL    HW124338   5.595   1.376   0.570
 7813SOL    HW224339   5.572   1.217   0.602
 7814SOL     OW24340   6.724   2.688   1.808
 7814SOL    HW124341   6.800   2.645   1.858
 7814SOL    HW224342   6.670   2.743   1.872
 7815SOL     OW24343   4.800   5.337   3.408
 7815SOL    HW124344   4.842   5.394   3.339
 7815SOL    HW224345   4.711   5.304   3.375
 7816SOL     OW24346   0.982   1.255   5.445
 7816SOL    HW124347   1.068   1.304   5.431
 7816SOL    HW224348   0.936   1.292   5.526
 7817SOL     OW24349   4.156   1.302   6.240
 7817SOL    HW124350   4.210   1.323   6.158
 7817SOL    HW224351   4.217   1.273   6.313
 7818SOL     OW24352   5.639   1.294   2.935
 7818SOL    HW124353   5.661   1.391   2.941
 7818SOL    HW224354   5.688   1.253   2.858
 7819SOL     OW24355   2.482   2.564   4.356
 7819SOL    HW124356   2.445   2.644   4.402
 7819SOL    HW224357   2.408   2.504   4.327
 7820SOL     OW24358   1.732   1.428   5.797
 7820SOL    HW124359   1.823   1.389   5.813
 7820SOL    HW224360   1.738   1.528   5.803
 7821SOL     OW24361   3.842   5.737   0.014
 7821SOL    HW124362   3.932   5.756   7.000
 7821SOL    HW224363   3.817   5.642   7.023
 7822SOL     OW24364   0.743   1.561   4.628
 7822SOL    HW124365   0.713   1.610   4.710
 7822SOL    HW224366   0.833   1.595   4.600
 7823SOL     OW24367   2.804   3.090   5.568
 7823SOL    HW124368   2.869   3.165   5.573
 7823SOL    HW224369   2.752   3.096   5.482
 7824SOL     OW24370   5.832   4.182   2.646
 7824SOL    HW124371   5.921   4.227   2.659
 7824SOL    HW224372   5.809   4.128   2.727
 7825SOL     OW24373   3.523   3.039   3.116
 7825SOL    HW124374   3.570   2.978   3.052
 7825SOL    HW224375   3.463   3.100   3.065
 7826SOL     OW24376   6.514   6.940   1.231
 7826SOL    HW124377   6.424   6.922   1.192
 7826SOL    HW224378   6.512   7.023   1.286
 7827SOL     OW24379   5.047   3.699   0.582
 7827SOL    HW124380   5.073   3.712   0.677
 7827SOL    HW224381   5.068   3.782   0.530
 7828SOL     OW24382   1.142   6.529   0.657
 7828SOL    HW124383   1.125   6.628   0.651
 7828SOL    HW224384   1.054   6.481   0.662
 7829SOL     OW24385   3.582   3.835   2.682
 7829SOL    HW124386   3.523   3.891   2.739
 7829SOL    HW224387   3.628   3.892   2.614
 7830SOL     OW24388   6.759   4.269   0.426
 7830SOL    HW124389   6.808   4.305   0.505
 7830SOL    HW224390   6.751   4.169   0.434
 7831SOL     OW24391   2.719   2.285   0.168
 7831SOL    HW124392   2.676   2.248   0.250
 7831SOL    HW224393   2.668   2.366   0.138
 7832SOL     OW24394   3.486   2.618   5.968
 7832SOL    HW124395   3.582   2.591   5.955
 7832SOL    HW224396   3.427   2.555   5.917
 7833SOL     OW24397   6.552   6.647   1.994
 7833SOL    HW124398   6.506   6.736   1.990
 7833SOL    HW224399   6.645   6.656   1.959
 7834SOL     OW24400   5.583   1.275   1.377
 7834SOL    HW124401   5.652   1.337   1.415
 7834SOL    HW224402   5.557   1.208   1.447
 7835SOL     OW24403   2.432   2.061   4.329
 7835SOL    HW124404   2.531   2.060   4.344
 7835SOL    HW224405   2.408   2.141   4.274
 7836SOL     OW24406   2.290   0.881   6.807
 7836SOL    HW124407   2.256   0.787   6.796
 7836SOL    HW224408   2.213   0.945   6.798
 7837SOL     OW24409   6.025   6.199   2.242
 7837SOL    HW124410   6.101   6.261   2.261
 7837SOL    HW224411   5.942   6.252   2.226
 7838SOL     OW24412   3.719   5.659   3.673
 7838SOL    HW124413   3.770   5.574   3.686
 7838SOL    HW224414   3.713   5.709   3.759
 7839SOL     OW24415   6.594   5.272   3.749
 7839SOL    HW124416   6.572   5.233   3.659
 7839SOL    HW224417   6.692   5.291   3.755
 7840SOL     OW24418   4.472   3.113   6.134
 7840SOL    HW124419   4.463   3.022   6.175
 7840SOL    HW224420   4.494   3.104   6.037
 7841SOL     OW24421   1.191   2.250   5.735
 7841SOL    HW124422   1.131   2.314   5.686
 7841SOL    HW224423   1.271   2.299   5.769
 7842SOL     OW24424   2.261   0.961   2.706
 7842SOL    HW124425   2.179   0.974   2.649
 7842SOL    HW224426   2.309   1.049   2.714
 7843SOL     OW24427   0.156   2.255   1.991
 7843SOL    HW124428   0.223   2.303   2.048
 7843SOL    HW224429   0.199   2.230   1.904
 7844SOL     OW24430   3.724   2.146   3.648
 7844SOL    HW124431   3.763   2.188   3.729
 7844SOL    HW224432   3.732   2.047   3.654
 7845SOL     OW24433   0.315   0.477   4.464
 7845SOL    HW124434   0.363   0.489   4.551
 7845SOL    HW224435   0.316   0.380   4.438
 7846SOL     OW24436   4.684   0.649   2.253
 7846SOL    HW124437   4.696   0.622   2.158
 7846SOL    HW224438   4.704   0.572   2.313
 7847SOL     OW24439   0.149   0.012   6.755
 7847SOL    HW124440   0.101   0.085   6.804
 7847SOL    HW224441   0.245   0.011   6.783
 7848SOL     OW24442   3.836   3.758   1.535
 7848SOL    HW124443   3.914   3.810   1.502
 7848SOL    HW224444   3.868   3.680   1.589
 7849SOL     OW24445   5.230   4.199   5.052
 7849SOL    HW124446   5.178   4.156   5.126
 7849SOL    HW224447   5.250   4.131   4.982
 7850SOL     OW24448   0.915   2.696   4.910
 7850SOL    HW124449   0.816   2.701   4.909
 7850SOL    HW224450   0.946   2.663   4.999
 7851SOL     OW24451   3.673   6.802   0.735
 7851SOL    HW124452   3.737   6.736   0.775
 7851SOL    HW224453   3.579   6.774   0.754
 7852SOL     OW24454   2.815   6.804   0.567
 7852SOL    HW124455   2.837   6.733   0.634
 7852SOL    HW224456   2.724   6.840   0.586
 7853SOL     OW24457   1.821   1.833   0.426
 7853SOL    HW124458   1.884   1.907   0.402
 7853SOL    HW224459   1.792   1.785   0.343
 7854SOL     OW24460   4.005   3.264   4.492
 7854SOL    HW124461   4.017   3.219   4.403
 7854SOL    HW224462   4.014   3.196   4.565
 7855SOL     OW24463   2.950   0.237   4.888
 7855SOL    HW124464   3.024   0.172   4.869
 7855SOL    HW224465   2.862   0.192   4.874
 7856SOL     OW24466   3.299   2.928   7.003
 7856SOL    HW124467   3.365   2.970   6.941
 7856SOL    HW224468   3.210   2.974   6.993
 7857SOL     OW24469   0.545   3.178   5.101
 7857SOL    HW124470   0.585   3.131   5.022
 7857SOL    HW224471   0.518   3.111   5.170
 7858SOL     OW24472   5.364   3.182   3.350
 7858SOL    HW124473   5.278   3.218   3.315
 7858SOL    HW224474   5.390   3.231   3.434
 7859SOL     OW24475   0.339   6.859   0.640
 7859SOL    HW124476   0.301   6.776   0.681
 7859SOL    HW224477   0.265   6.916   0.606
 7860SOL     OW24478   4.935   6.493   1.326
 7860SOL    HW124479   4.995   6.573   1.325
 7860SOL    HW224480   4.970   6.424   1.263
 7861SOL     OW24481   6.065   3.616   0.062
 7861SOL    HW124482   6.115   3.552   0.119
 7861SOL    HW224483   5.972   3.582   0.046
 7862SOL     OW24484   2.788   4.720   1.691
 7862SOL    HW124485   2.808   4.650   1.760
 7862SOL    HW224486   2.873   4.758   1.656
 7863SOL     OW24487   4.441   6.002   2.345
 7863SOL    HW124488   4.502   5.968   2.417
 7863SOL    HW224489   4.351   5.962   2.356
 7864SOL     OW24490   1.298   5.707   5.120
 7864SOL    HW124491   1.262   5.620   5.154
 7864SOL    HW224492   1.398   5.708   5.134
 7865SOL     OW24493   4.231   0.730   3.029
 7865SOL    HW124494   4.138   0.764   3.043
 7865SOL    HW224495   4.296   0.805   3.038
 7866SOL     OW24496   2.875   1.681   6.005
 7866SOL    HW124497   2.917   1.617   6.069
 7866SOL    HW224498   2.813   1.631   5.943
 7867SOL     OW24499   6.147   3.469   1.222
 7867SOL    HW124500   6.161   3.442   1.127
 7867SOL    HW224501   6.093   3.399   1.269
 7868SOL     OW24502   4.428   6.748   0.835
 7868SOL    HW124503   4.341   6.759   0.883
 7868SOL    HW224504   4.440   6.822   0.769
 7869SOL     OW24505   6.104   1.838   4.075
 7869SOL    HW124506   6.035   1.767   4.060
 7869SOL    HW224507   6.178   1.827   4.008
 7870SOL     OW24508   6.791   0.301   3.379
 7870SOL    HW124509   6.791   0.385   3.434
 7870SOL    HW224510   6.810   0.223   3.438
 7871SOL     OW24511   5.432   3.010   4.229
 7871SOL    HW124512   5.460   3.009   4.133
 7871SOL    HW224513   5.343   2.964   4.238
 7872SOL     OW24514   6.875   4.317   4.318
 7872SOL    HW124515   6.780   4.287   4.309
 7872SOL    HW224516   6.883   4.410   4.284
 7873SOL     OW24517   0.002   5.412   4.339
 7873SOL    HW124518   0.084   5.451   4.297
 7873SOL    HW224519   6.949   5.471   4.322
 7874SOL     OW24520   5.929   0.242   0.127
 7874SOL    HW124521   5.981   0.246   0.213
 7874SOL    HW224522   5.873   0.160   0.126
 7875SOL     OW24523   5.058   3.402   0.256
 7875SOL    HW124524   5.055   3.332   0.327
 7875SOL    HW224525   5.153   3.421   0.231
 7876SOL     OW24526   0.353   1.809   4.888
 7876SOL    HW124527   0.427   1.757   4.844
 7876SOL    HW224528   0.286   1.746   4.926
 7877SOL     OW24529   5.865   3.622   2.412
 7877SOL    HW124530   5.928   3.675   2.356
 7877SOL    HW224531   5.842   3.536   2.366
 7878SOL     OW24532   3.678   3.928   1.393
 7878SOL    HW124533   3.747   3.882   1.448
 7878SOL    HW224534   3.587   3.910   1.430
 7879SOL     OW24535   0.167   1.164   5.011
 7879SOL    HW124536   0.092   1.207   5.061
 7879SOL    HW224537   0.154   1.179   4.913
 7880SOL     OW24538   1.787   6.032   6.668
 7880SOL    HW124539   1.777   6.034   6.569
 7880SOL    HW224540   1.793   5.937   6.699
 7881SOL     OW24541   1.119   5.363   4.555
 7881SOL    HW124542   1.044   5.425   4.579
 7881SOL    HW224543   1.112   5.280   4.609
 7882SOL     OW24544   1.813   4.774   1.647
 7882SOL    HW124545   1.743   4.845   1.642
 7882SOL    HW224546   1.838   4.760   1.743
 7883SOL     OW24547   3.234   2.063   2.349
 7883SOL    HW124548   3.166   2.072   2.277
 7883SOL    HW224549   3.323   2.042   2.308
 7884SOL     OW24550   1.240   2.598   5.497
 7884SOL    HW124551   1.176   2.539   5.547
 7884SOL    HW224552   1.228   2.693   5.528
 7885SOL     OW24553   6.273   5.545   2.420
 7885SOL    HW124554   6.283   5.477   2.493
 7885SOL    HW224555   6.179   5.547   2.388
 7886SOL     OW24556   3.991   4.834   2.744
 7886SOL    HW124557   3.939   4.817   2.660
 7886SOL    HW224558   4.081   4.791   2.737
 7887SOL     OW24559   0.711   3.286   0.712
 7887SOL    HW124560   0.627   3.336   0.690
 7887SOL    HW224561   0.690   3.214   0.779
 7888SOL     OW24562   6.739   1.686   5.210
 7888SOL    HW124563   6.783   1.653   5.294
 7888SOL    HW224564   6.771   1.632   5.132
 7889SOL     OW24565   5.324   5.439   0.168
 7889SOL    HW124566   5.226   5.418   0.171
 7889SOL    HW224567   5.357   5.456   0.261
 7890SOL     OW24568   2.230   2.905   2.339
 7890SOL    HW124569   2.202   2.965   2.264
 7890SOL    HW224570   2.203   2.944   2.426
 7891SOL     OW24571   6.334   1.653   4.304
 7891SOL    HW124572   6.329   1.687   4.398
 7891SOL    HW224573   6.243   1.658   4.262
 7892SOL     OW24574   1.023   2.092   4.241
 7892SOL    HW124575   1.083   2.158   4.286
 7892SOL    HW224576   0.957   2.056   4.307
 7893SOL     OW24577   5.907   6.164   1.355
 7893SOL    HW124578   5.943   6.224   1.426
 7893SOL    HW224579   5.910   6.211   1.267
 7894SOL     OW24580   3.339   0.672   6.493
 7894SOL    HW124581   3.258   0.725   6.466
 7894SOL    HW224582   3.347   0.673   6.593
 7895SOL     OW24583   5.729   6.557   3.285
 7895SOL    HW124584   5.808   6.495   3.283
 7895SOL    HW224585   5.646   6.505   3.262
 7896SOL     OW24586   2.385   2.076   0.587
 7896SOL    HW124587   2.481   2.051   0.579
 7896SOL    HW224588   2.358   2.130   0.507
 7897SOL     OW24589   4.537   1.470   1.355
 7897SOL    HW124590   4.471   1.460   1.430
 7897SOL    HW224591   4.488   1.496   1.271
 7898SOL     OW24592   4.700   6.245   2.963
 7898SOL    HW124593   4.688   6.163   2.908
 7898SOL    HW224594   4.759   6.309   2.914
 7899SOL     OW24595   6.056   4.577   2.763
 7899SOL    HW124596   6.045   4.501   2.699
 7899SOL    HW224597   5.982   4.574   2.831
 7900SOL     OW24598   0.326   3.460   0.781
 7900SOL    HW124599   0.272   3.435   0.700
 7900SOL    HW224600   0.410   3.507   0.752
 7901SOL     OW24601   0.434   2.567   7.003
 7901SOL    HW124602   0.388   2.524   0.055
 7901SOL    HW224603   0.497   2.501   6.961
 7902SOL     OW24604   1.692   0.369   0.961
 7902SOL    HW124605   1.663   0.341   0.870
 7902SOL    HW224606   1.615   0.358   1.025
 7903SOL     OW24607   3.120   1.659   5.311
 7903SOL    HW124608   3.146   1.580   5.367
 7903SOL    HW224609   3.190   1.729   5.316
 7904SOL     OW24610   5.516   3.074   2.629
 7904SOL    HW124611   5.500   2.986   2.673
 7904SOL    HW224612   5.435   3.132   2.640
 7905SOL     OW24613   6.352   1.690   1.827
 7905SOL    HW124614   6.432   1.736   1.864
 7905SOL    HW224615   6.344   1.709   1.729
 7906SOL     OW24616   0.564   5.952   6.461
 7906SOL    HW124617   0.590   5.955   6.365
 7906SOL    HW224618   0.517   6.036   6.486
 7907SOL     OW24619   5.908   6.266   3.721
 7907SOL    HW124620   5.972   6.274   3.798
 7907SOL    HW224621   5.927   6.337   3.654
 7908SOL     OW24622   1.846   0.365   6.025
 7908SOL    HW124623   1.782   0.332   5.956
 7908SOL    HW224624   1.923   0.301   6.033
 7909SOL     OW24625   6.776   3.194   1.214
 7909SOL    HW124626   6.808   3.183   1.308
 7909SOL    HW224627   6.818   3.125   1.156
 7910SOL     OW24628   1.580   4.550   5.243
 7910SOL    HW124629   1.650   4.504   5.297
 7910SOL    HW224630   1.519   4.481   5.203
 7911SOL     OW24631   6.175   4.054   5.869
 7911SOL    HW124632   6.076   4.069   5.875
 7911SOL    HW224633   6.223   4.122   5.925
 7912SOL     OW24634   5.703   6.012   1.124
 7912SOL    HW124635   5.652   5.962   1.195
 7912SOL    HW224636   5.763   6.079   1.168
 7913SOL     OW24637   1.317   4.990   6.184
 7913SOL    HW124638   1.379   5.067   6.199
 7913SOL    HW224639   1.367   4.914   6.142
 7914SOL     OW24640   0.896   0.186   5.053
 7914SOL    HW124641   0.848   0.247   4.990
 7914SOL    HW224642   0.922   0.102   5.005
 7915SOL     OW24643   2.717   4.985   2.174
 7915SOL    HW124644   2.684   5.079   2.174
 7915SOL    HW224645   2.639   4.922   2.180
 7916SOL     OW24646   1.119   0.430   4.018
 7916SOL    HW124647   1.059   0.434   4.098
 7916SOL    HW224648   1.178   0.349   4.025
 7917SOL     OW24649   4.933   2.274   2.800
 7917SOL    HW124650   5.015   2.223   2.773
 7917SOL    HW224651   4.898   2.324   2.720
 7918SOL     OW24652   1.659   2.644   2.749
 7918SOL    HW124653   1.747   2.688   2.767
 7918SOL    HW224654   1.672   2.564   2.691
 7919SOL     OW24655   0.920   6.730   5.164
 7919SOL    HW124656   0.984   6.661   5.132
 7919SOL    HW224657   0.970   6.805   5.207
 7920SOL     OW24658   5.218   6.757   0.761
 7920SOL    HW124659   5.128   6.796   0.783
 7920SOL    HW224660   5.270   6.823   0.706
 7921SOL     OW24661   5.227   3.422   0.501
 7921SOL    HW124662   5.263   3.468   0.582
 7921SOL    HW224663   5.164   3.349   0.530
 7922SOL     OW24664   1.908   0.117   2.910
 7922SOL    HW124665   1.935   0.023   2.932
 7922SOL    HW224666   1.977   0.181   2.945
 7923SOL     OW24667   4.829   0.364   0.904
 7923SOL    HW124668   4.821   0.464   0.902
 7923SOL    HW224669   4.855   0.334   0.996
 7924SOL     OW24670   5.791   5.743   0.381
 7924SOL    HW124671   5.747   5.779   0.299
 7924SOL    HW224672   5.799   5.815   0.449
 7925SOL     OW24673   1.439   4.374   5.984
 7925SOL    HW124674   1.411   4.344   6.075
 7925SOL    HW224675   1.539   4.368   5.977
 7926SOL     OW24676   4.802   5.886   5.488
 7926SOL    HW124677   4.736   5.890   5.562
 7926SOL    HW224678   4.876   5.823   5.513
 7927SOL     OW24679   4.394   0.487   3.408
 7927SOL    HW124680   4.362   0.399   3.443
 7927SOL    HW224681   4.485   0.477   3.369
 7928SOL     OW24682   5.566   1.933   4.032
 7928SOL    HW124683   5.565   2.004   3.962
 7928SOL    HW224684   5.593   1.846   3.992
 7929SOL     OW24685   4.795   4.030   5.923
 7929SOL    HW124686   4.740   4.053   5.843
 7929SOL    HW224687   4.875   4.091   5.927
 7930SOL     OW24688   4.308   5.521   0.331
 7930SOL    HW124689   4.362   5.488   0.253
 7930SOL    HW224690   4.211   5.523   0.306
 7931SOL     OW24691   4.924   1.102   0.510
 7931SOL    HW124692   4.853   1.172   0.497
 7931SOL    HW224693   5.004   1.125   0.455
 7932SOL     OW24694   1.336   3.533   1.106
 7932SOL    HW124695   1.300   3.516   1.198
 7932SOL    HW224696   1.324   3.451   1.050
 7933SOL     OW24697   1.169   1.910   0.351
 7933SOL    HW124698   1.111   1.950   0.423
 7933SOL    HW224699   1.254   1.962   0.345
 7934SOL     OW24700   6.849   5.263   0.873
 7934SOL    HW124701   6.822   5.345   0.824
 7934SOL    HW224702   6.787   5.188   0.850
 7935SOL     OW24703   6.456   2.999   2.863
 7935SOL    HW124704   6.381   3.064   2.852
 7935SOL    HW224705   6.434   2.914   2.815
 7936SOL     OW24706   2.353   6.322   3.315
 7936SOL    HW124707   2.332   6.224   3.322
 7936SOL    HW224708   2.394   6.340   3.226
 7937SOL     OW24709   4.074   1.101   0.931
 7937SOL    HW124710   4.119   1.078   0.845
 7937SOL    HW224711   4.141   1.140   0.994
 7938SOL     OW24712   2.146   0.019   3.141
 7938SOL    HW124713   2.201   6.988   3.202
 7938SOL    HW224714   2.056   7.003   3.128
 7939SOL     OW24715   1.865   0.422   2.520
 7939SOL    HW124716   1.779   0.423   2.570
 7939SOL    HW224717   1.863   0.349   2.452
 7940SOL     OW24718   6.234   1.862   5.077
 7940SOL    HW124719   6.178   1.850   5.159
 7940SOL    HW224720   6.331   1.861   5.102
 7941SOL     OW24721   3.240   6.903   0.581
 7941SOL    HW124722   3.239   6.819   0.527
 7941SOL    HW224723   3.284   6.885   0.670
 7942SOL     OW24724   1.374   4.019   1.299
 7942SOL    HW124725   1.286   4.010   1.253
 7942SOL    HW224726   1.365   3.995   1.395
 7943SOL     OW24727   1.789   5.772   6.757
 7943SOL    HW124728   1.745   5.687   6.730
 7943SOL    HW224729   1.732   5.821   6.822
 7944SOL     OW24730   1.233   2.063   1.261
 7944SOL    HW124731   1.301   2.102   1.200
 7944SOL    HW224732   1.143   2.102   1.240
 7945SOL     OW24733   6.112   3.531   2.769
 7945SOL    HW124734   6.096   3.609   2.829
 7945SOL    HW224735   6.210   3.515   2.760
 7946SOL     OW24736   4.301   1.305   5.995
 7946SOL    HW124737   4.324   1.222   5.945
 7946SOL    HW224738   4.375   1.372   5.984
 7947SOL     OW24739   0.091   3.497   6.441
 7947SOL    HW124740   0.152   3.572   6.465
 7947SOL    HW224741   0.047   3.461   6.523
 7948SOL     OW24742   1.168   5.914   0.835
 7948SOL    HW124743   1.079   5.953   0.859
 7948SOL    HW224744   1.212   5.878   0.918
 7949SOL     OW24745   2.990   5.508   5.710
 7949SOL    HW124746   2.911   5.488   5.769
 7949SOL    HW224747   2.970   5.477   5.617
 7950SOL     OW24748   6.576   3.754   5.274
 7950SOL    HW124749   6.598   3.662   5.305
 7950SOL    HW224750   6.525   3.802   5.346
 7951SOL     OW24751   3.944   6.917   2.715
 7951SOL    HW124752   3.920   7.015   2.716
 7951SOL    HW224753   4.043   6.907   2.716
 7952SOL     OW24754   6.945   2.908   5.290
 7952SOL    HW124755   6.978   2.875   5.378
 7952SOL    HW224756   6.849   2.883   5.279
 7953SOL     OW24757   1.829   0.281   0.497
 7953SOL    HW124758   1.788   0.248   0.412
 7953SOL    HW224759   1.869   0.371   0.482
 7954SOL     OW24760   3.627   3.315   0.200
 7954SOL    HW124761   3.640   3.413   0.209
 7954SOL    HW224762   3.600   3.276   0.288
 7955SOL     OW24763   6.998   1.197   6.693
 7955SOL    HW124764   6.966   1.118   6.639
 7955SOL    HW224765   0.051   1.169   6.748
 7956SOL     OW24766   0.239   0.376   0.534
 7956SOL    HW124767   0.274   0.464   0.502
 7956SOL    HW224768   0.307   0.333   0.593
 7957SOL     OW24769   5.456   1.181   5.841
 7957SOL    HW124770   5.394   1.260   5.849
 7957SOL    HW224771   5.430   1.112   5.908
 7958SOL     OW24772   4.817   2.276   6.864
 7958SOL    HW124773   4.909   2.301   6.893
 7958SOL    HW224774   4.756   2.276   6.944
 7959SOL     OW24775   4.732   2.937   0.108
 7959SOL    HW124776   4.704   2.954   0.014
 7959SOL    HW224777   4.822   2.978   0.124
 7960SOL     OW24778   0.890   1.786   4.967
 7960SOL    HW124779   0.890   1.886   4.967
 7960SOL    HW224780   0.962   1.752   5.027
 7961SOL     OW24781   5.911   0.829   0.007
 7961SOL    HW124782   5.974   0.903   7.007
 7961SOL    HW224783   5.963   0.749   0.035
 7962SOL     OW24784   5.931   6.824   4.654
 7962SOL    HW124785   5.914   6.770   4.736
 7962SOL    HW224786   5.844   6.858   4.617
 7963SOL     OW24787   6.044   6.163   3.120
 7963SOL    HW124788   6.105   6.126   3.050
 7963SOL    HW224789   5.951   6.170   3.083
 7964SOL     OW24790   6.532   3.695   1.733
 7964SOL    HW124791   6.595   3.620   1.712
 7964SOL    HW224792   6.438   3.663   1.723
 7965SOL     OW24793   4.623   1.801   6.364
 7965SOL    HW124794   4.696   1.735   6.348
 7965SOL    HW224795   4.551   1.759   6.419
 7966SOL     OW24796   6.009   3.213   5.020
 7966SOL    HW124797   5.992   3.193   5.116
 7966SOL    HW224798   6.023   3.311   5.008
 7967SOL     OW24799   1.862   4.187   1.318
 7967SOL    HW124800   1.884   4.205   1.222
 7967SOL    HW224801   1.772   4.226   1.339
 7968SOL     OW24802   2.318   2.941   3.902
 7968SOL    HW124803   2.304   2.924   4.000
 7968SOL    HW224804   2.354   3.033   3.890
 7969SOL     OW24805   3.283   4.669   6.592
 7969SOL    HW124806   3.246   4.727   6.665
 7969SOL    HW224807   3.380   4.651   6.609
 7970SOL     OW24808   6.181   3.084   3.937
 7970SOL    HW124809   6.176   2.995   3.891
 7970SOL    HW224810   6.182   3.070   4.036
 7971SOL     OW24811   3.623   0.720   6.866
 7971SOL    HW124812   3.610   0.769   6.952
 7971SOL    HW224813   3.599   0.624   6.878
 7972SOL     OW24814   3.914   3.477   4.681
 7972SOL    HW124815   3.973   3.515   4.751
 7972SOL    HW224816   3.964   3.409   4.627
 7973SOL     OW24817   0.328   4.832   2.045
 7973SOL    HW124818   0.412   4.856   1.995
 7973SOL    HW224819   0.317   4.733   2.046
 7974SOL     OW24820   0.707   3.335   4.847
 7974SOL    HW124821   0.706   3.395   4.927
 7974SOL    HW224822   0.770   3.371   4.778
 7975SOL     OW24823   4.129   6.732   6.742
 7975SOL    HW124824   4.047   6.764   6.790
 7975SOL    HW224825   4.138   6.633   6.755
 7976SOL     OW24826   0.922   0.522   0.425
 7976SOL    HW124827   0.952   0.429   0.406
 7976SOL    HW224828   0.850   0.520   0.495
 7977SOL     OW24829   4.849   5.340   2.479
 7977SOL    HW124830   4.839   5.291   2.393
 7977SOL    HW224831   4.857   5.438   2.462
 7978SOL     OW24832   0.094   4.102   1.376
 7978SOL    HW124833   0.145   4.102   1.290
 7978SOL    HW224834   0.011   4.047   1.365
 7979SOL     OW24835   2.834   2.107   5.553
 7979SOL    HW124836   2.799   2.156   5.633
 7979SOL    HW224837   2.767   2.112   5.479
 7980SOL     OW24838   3.517   5.513   2.076
 7980SOL    HW124839   3.594   5.509   2.013
 7980SOL    HW224840   3.450   5.442   2.053
 7981SOL     OW24841   1.456   3.338   4.668
 7981SOL    HW124842   1.409   3.357   4.582
 7981SOL    HW224843   1.547   3.378   4.666
 7982SOL     OW24844   6.657   0.668   0.257
 7982SOL    HW124845   6.672   0.748   0.316
 7982SOL    HW224846   6.604   0.696   0.177
 7983SOL     OW24847   3.418   1.187   1.760
 7983SOL    HW124848   3.403   1.279   1.723
 7983SOL    HW224849   3.457   1.194   1.852
 7984SOL     OW24850   6.247   2.645   3.329
 7984SOL    HW124851   6.300   2.708   3.273
 7984SOL    HW224852   6.220   2.689   3.414
 7985SOL     OW24853   3.303   3.779   5.537
 7985SOL    HW124854   3.321   3.769   5.634
 7985SOL    HW224855   3.274   3.690   5.499
 7986SOL     OW24856   3.394   0.780   3.941
 7986SOL    HW124857   3.456   0.853   3.968
 7986SOL    HW224858   3.304   0.794   3.983
 7987SOL     OW24859   1.384   3.082   6.341
 7987SOL    HW124860   1.307   3.058   6.400
 7987SOL    HW224861   1.350   3.127   6.259
 7988SOL     OW24862   6.553   0.763   1.245
 7988SOL    HW124863   6.640   0.750   1.197
 7988SOL    HW224864   6.477   0.758   1.179
 7989SOL     OW24865   0.394   4.675   1.578
 7989SOL    HW124866   0.326   4.631   1.636
 7989SOL    HW224867   0.480   4.624   1.584
 7990SOL     OW24868   3.894   5.201   4.998
 7990SOL    HW124869   3.932   5.263   5.067
 7990SOL    HW224870   3.964   5.181   4.930
 7991SOL     OW24871   5.064   0.618   4.583
 7991SOL    HW124872   5.134   0.632   4.652
 7991SOL    HW224873   5.097   0.553   4.514
 7992SOL     OW24874   1.904   0.863   6.903
 7992SOL    HW124875   1.864   0.923   6.973
 7992SOL    HW224876   1.901   0.768   6.935
 7993SOL     OW24877   6.274   6.414   0.565
 7993SOL    HW124878   6.285   6.463   0.651
 7993SOL    HW224879   6.358   6.422   0.511
 7994SOL     OW24880   0.494   0.962   4.762
 7994SOL    HW124881   0.403   0.929   4.736
 7994SOL    HW224882   0.525   1.031   4.696
 7995SOL     OW24883   0.732   5.925   1.650
 7995SOL    HW124884   0.802   5.927   1.721
 7995SOL    HW224885   0.662   5.857   1.672
 7996SOL     OW24886   2.174   6.896   3.569
 7996SOL    HW124887   2.253   6.950   3.597
 7996SOL    HW224888   2.174   6.808   3.616
 7997SOL     OW24889   2.692   1.481   5.840
 7997SOL    HW124890   2.752   1.444   5.911
 7997SOL    HW224891   2.600   1.444   5.851
 7998SOL     OW24892   1.721   1.094   1.438
 7998SOL    HW124893   1.818   1.078   1.456
 7998SOL    HW224894   1.709   1.121   1.342
 7999SOL     OW24895   0.288   0.718   2.829
 7999SOL    HW124896   0.258   0.801   2.783
 7999SOL    HW224897   0.251   0.716   2.922
 8000SOL     OW24898   4.103   5.542   0.696
 8000SOL    HW124899   4.145   5.630   0.673
 8000SOL    HW224900   4.175   5.473   0.707
 8001SOL     OW24901   5.526   4.393   2.169
 8001SOL    HW124902   5.597   4.351   2.113
 8001SOL    HW224903   5.555   4.485   2.196
 8002SOL     OW24904   1.007   0.359   4.649
 8002SOL    HW124905   1.036   0.416   4.572
 8002SOL    HW224906   1.082   0.349   4.714
 8003SOL     OW24907   2.501   5.795   3.302
 8003SOL    HW124908   2.538   5.809   3.394
 8003SOL    HW224909   2.570   5.750   3.245
 8004SOL     OW24910   1.887   3.431   4.068
 8004SOL    HW124911   1.986   3.419   4.075
 8004SOL    HW224912   1.841   3.357   4.117
 8005SOL     OW24913   2.945   0.084   4.358
 8005SOL    HW124914   2.929   0.112   4.263
 8005SOL    HW224915   2.857   0.073   4.405
 8006SOL     OW24916   4.504   5.421   5.970
 8006SOL    HW124917   4.454   5.375   6.044
 8006SOL    HW224918   4.535   5.354   5.904
 8007SOL     OW24919   0.199   0.607   1.377
 8007SOL    HW124920   0.105   0.602   1.410
 8007SOL    HW224921   0.203   0.666   1.296
 8008SOL     OW24922   5.367   4.852   0.676
 8008SOL    HW124923   5.413   4.911   0.741
 8008SOL    HW224924   5.381   4.756   0.701
 8009SOL     OW24925   6.908   1.278   1.626
 8009SOL    HW124926   6.867   1.188   1.619
 8009SOL    HW224927   6.943   1.291   1.719
 8010SOL     OW24928   3.066   0.292   6.181
 8010SOL    HW124929   3.066   0.210   6.238
 8010SOL    HW224930   3.159   0.328   6.174
 8011SOL     OW24931   3.791   2.112   2.804
 8011SOL    HW124932   3.745   2.179   2.746
 8011SOL    HW224933   3.890   2.118   2.791
 8012SOL     OW24934   6.228   0.685   5.023
 8012SOL    HW124935   6.154   0.659   4.962
 8012SOL    HW224936   6.288   0.607   5.040
 8013SOL     OW24937   3.607   0.401   3.269
 8013SOL    HW124938   3.622   0.303   3.273
 8013SOL    HW224939   3.643   0.444   3.352
 8014SOL     OW24940   2.378   2.779   3.678
 8014SOL    HW124941   2.312   2.812   3.745
 8014SOL    HW224942   2.428   2.701   3.716
 8015SOL     OW24943   3.288   6.616   4.544
 8015SOL    HW124944   3.306   6.542   4.609
 8015SOL    HW224945   3.309   6.584   4.452
 8016SOL     OW24946   3.255   2.708   5.495
 8016SOL    HW124947   3.339   2.754   5.524
 8016SOL    HW224948   3.259   2.692   5.397
 8017SOL     OW24949   5.953   6.482   1.415
 8017SOL    HW124950   5.888   6.514   1.345
 8017SOL    HW224951   5.903   6.462   1.499
 8018SOL     OW24952   2.625   3.359   0.761
 8018SOL    HW124953   2.582   3.356   0.671
 8018SOL    HW224954   2.576   3.424   0.819
 8019SOL     OW24955   2.460   3.622   0.688
 8019SOL    HW124956   2.554   3.637   0.720
 8019SOL    HW224957   2.400   3.605   0.766
 8020SOL     OW24958   0.178   0.345   0.161
 8020SOL    HW124959   0.251   0.356   0.228
 8020SOL    HW224960   0.195   0.405   0.083
 8021SOL     OW24961   0.985   3.186   0.679
 8021SOL    HW124962   1.055   3.247   0.718
 8021SOL    HW224963   0.895   3.227   0.690
 8022SOL     OW24964   4.576   0.363   2.152
 8022SOL    HW124965   4.598   0.419   2.072
 8022SOL    HW224966   4.626   0.276   2.146
 8023SOL     OW24967   4.030   5.031   2.232
 8023SOL    HW124968   4.054   4.939   2.262
 8023SOL    HW224969   3.954   5.027   2.167
 8024SOL     OW24970   2.423   0.752   6.004
 8024SOL    HW124971   2.466   0.663   6.017
 8024SOL    HW224972   2.493   0.823   6.001
 8025SOL     OW24973   1.054   6.747   1.391
 8025SOL    HW124974   1.087   6.760   1.298
 8025SOL    HW224975   1.017   6.654   1.400
 8026SOL     OW24976   0.544   0.120   5.994
 8026SOL    HW124977   0.463   0.141   6.049
 8026SOL    HW224978   0.619   0.180   6.022
 8027SOL     OW24979   4.713   0.221   6.291
 8027SOL    HW124980   4.758   0.147   6.341
 8027SOL    HW224981   4.615   0.222   6.314
 8028SOL     OW24982   3.916   6.004   6.350
 8028SOL    HW124983   3.834   6.036   6.303
 8028SOL    HW224984   3.991   5.993   6.285
 8029SOL     OW24985   0.734   0.117   1.484
 8029SOL    HW124986   0.764   0.045   1.545
 8029SOL    HW224987   0.634   0.123   1.486
 8030SOL     OW24988   0.502   4.167   1.283
 8030SOL    HW124989   0.554   4.180   1.367
 8030SOL    HW224990   0.548   4.099   1.225
 8031SOL     OW24991   6.764   0.644   3.069
 8031SOL    HW124992   6.863   0.648   3.079
 8031SOL    HW224993   6.735   0.549   3.060
 8032SOL     OW24994   0.211   2.950   1.044
 8032SOL    HW124995   0.297   2.903   1.062
 8032SOL    HW224996   0.196   2.956   0.945
 8033SOL     OW24997   3.557   4.595   1.207
 8033SOL    HW124998   3.479   4.652   1.184
 8033SOL    HW224999   3.642   4.646   1.191
 8034SOL     OW25000   0.913   1.001   5.521
 8034SOL    HW125001   0.976   0.984   5.597
 8034SOL    HW225002   0.925   1.094   5.487
 8035SOL     OW25003   5.650   0.507   4.331
 8035SOL    HW125004   5.704   0.578   4.377
 8035SOL    HW225005   5.684   0.494   4.238
 8036SOL     OW25006   4.898   4.266   3.854
 8036SOL    HW125007   4.868   4.230   3.765
 8036SOL    HW225008   4.906   4.190   3.919
 8037SOL     OW25009   2.778   1.578   6.451
 8037SOL    HW125010   2.700   1.535   6.497
 8037SOL    HW225011   2.855   1.584   6.514
 8038SOL     OW25012   6.905   5.719   1.952
 8038SOL    HW125013   6.919   5.709   1.853
 8038SOL    HW225014   6.971   5.662   2.000
 8039SOL     OW25015   2.051   2.683   4.951
 8039SOL    HW125016   2.100   2.603   4.917
 8039SOL    HW225017   2.009   2.661   5.039
 8040SOL     OW25018   0.920   6.472   5.948
 8040SOL    HW125019   0.951   6.438   6.037
 8040SOL    HW225020   0.995   6.519   5.902
 8041SOL     OW25021   2.929   1.335   2.769
 8041SOL    HW125022   3.020   1.357   2.736
 8041SOL    HW225023   2.896   1.408   2.829
 8042SOL     OW25024   4.095   4.054   6.041
 8042SOL    HW125025   4.057   4.144   6.019
 8042SOL    HW225026   4.027   3.984   6.025
 8043SOL     OW25027   4.961   4.800   6.880
 8043SOL    HW125028   4.921   4.766   6.796
 8043SOL    HW225029   4.958   4.900   6.880
 8044SOL     OW25030   0.926   2.928   1.687
 8044SOL    HW125031   0.989   2.928   1.609
 8044SOL    HW225032   0.843   2.978   1.663
 8045SOL     OW25033   6.018   3.500   4.999
 8045SOL    HW125034   5.927   3.505   5.040
 8045SOL    HW225035   6.087   3.509   5.070
 8046SOL     OW25036   0.396   4.225   0.681
 8046SOL    HW125037   0.473   4.163   0.696
 8046SOL    HW225038   0.324   4.206   0.748
 8047SOL     OW25039   3.289   6.362   6.812
 8047SOL    HW125040   3.236   6.413   6.880
 8047SOL    HW225041   3.266   6.395   6.721
 8048SOL     OW25042   4.271   1.905   6.544
 8048SOL    HW125043   4.242   1.996   6.516
 8048SOL    HW225044   4.313   1.909   6.634
 8049SOL     OW25045   1.996   1.454   1.278
 8049SOL    HW125046   2.065   1.526   1.275
 8049SOL    HW225047   1.909   1.490   1.246
 8050SOL     OW25048   6.942   5.521   6.069
 8050SOL    HW125049   7.017   5.586   6.081
 8050SOL    HW225050   6.949   5.449   6.137
 8051SOL     OW25051   4.529   6.416   2.443
 8051SOL    HW125052   4.573   6.380   2.526
 8051SOL    HW225053   4.459   6.352   2.412
 8052SOL     OW25054   2.955   1.231   3.080
 8052SOL    HW125055   2.915   1.314   3.040
 8052SOL    HW225056   2.939   1.230   3.178
 8053SOL     OW25057   1.046   2.483   6.255
 8053SOL    HW125058   1.002   2.447   6.172
 8053SOL    HW225059   0.984   2.472   6.333
 8054SOL     OW25060   5.120   3.762   5.268
 8054SOL    HW125061   5.157   3.833   5.328
 8054SOL    HW225062   5.191   3.694   5.249
 8055SOL     OW25063   6.548   0.173   6.873
 8055SOL    HW125064   6.619   0.220   6.924
 8055SOL    HW225065   6.579   0.158   6.779
 8056SOL     OW25066   2.480   2.292   3.599
 8056SOL    HW125067   2.451   2.233   3.674
 8056SOL    HW225068   2.424   2.273   3.518
 8057SOL     OW25069   3.135   2.127   2.077
 8057SOL    HW125070   3.225   2.138   2.035
 8057SOL    HW225071   3.069   2.183   2.028
 8058SOL     OW25072   4.142   6.408   1.521
 8058SOL    HW125073   4.108   6.434   1.611
 8058SOL    HW225074   4.082   6.338   1.482
 8059SOL     OW25075   3.953   2.774   5.585
 8059SOL    HW125076   3.959   2.835   5.506
 8059SOL    HW225077   3.859   2.740   5.594
 8060SOL     OW25078   0.331   1.325   5.654
 8060SOL    HW125079   0.231   1.327   5.650
 8060SOL    HW225080   0.366   1.269   5.579
 8061SOL     OW25081   0.017   0.912   1.519
 8061SOL    HW125082   0.097   0.940   1.466
 8061SOL    HW225083   0.047   0.882   1.610
 8062SOL     OW25084   3.866   5.158   6.064
 8062SOL    HW125085   3.874   5.156   5.964
 8062SOL    HW225086   3.870   5.064   6.100
 8063SOL     OW25087   2.507   4.880   3.231
 8063SOL    HW125088   2.458   4.826   3.300
 8063SOL    HW225089   2.458   4.966   3.215
 8064SOL     OW25090   6.899   3.025   1.053
 8064SOL    HW125091   6.992   3.045   1.084
 8064SOL    HW225092   6.902   2.968   0.971
 8065SOL     OW25093   4.871   0.037   6.841
 8065SOL    HW125094   4.862   0.137   6.838
 8065SOL    HW225095   4.827   0.003   6.925
 8066SOL     OW25096   6.966   0.754   5.728
 8066SOL    HW125097   7.005   0.844   5.749
 8066SOL    HW225098   6.968   0.697   5.810
 8067SOL     OW25099   4.750   1.018   4.414
 8067SOL    HW125100   4.698   1.094   4.452
 8067SOL    HW225101   4.764   0.949   4.485
 8068SOL     OW25102   6.591   4.766   1.577
 8068SOL    HW125103   6.609   4.788   1.481
 8068SOL    HW225104   6.547   4.676   1.582
 8069SOL     OW25105   1.669   2.368   2.178
 8069SOL    HW125106   1.692   2.298   2.111
 8069SOL    HW225107   1.589   2.340   2.230
 8070SOL     OW25108   5.032   3.915   1.745
 8070SOL    HW125109   5.025   3.850   1.669
 8070SOL    HW225110   5.060   3.866   1.827
 8071SOL     OW25111   2.783   0.448   5.944
 8071SOL    HW125112   2.856   0.482   5.884
 8071SOL    HW225113   2.698   0.443   5.892
 8072SOL     OW25114   2.362   2.075   5.630
 8072SOL    HW125115   2.433   2.053   5.697
 8072SOL    HW225116   2.283   2.116   5.677
 8073SOL     OW25117   5.698   0.207   6.432
 8073SOL    HW125118   5.674   0.242   6.523
 8073SOL    HW225119   5.671   0.111   6.425
 8074SOL     OW25120   6.356   0.770   0.746
 8074SOL    HW125121   6.289   0.832   0.788
 8074SOL    HW225122   6.448   0.800   0.770
 8075SOL     OW25123   0.587   0.661   1.248
 8075SOL    HW125124   0.539   0.581   1.283
 8075SOL    HW225125   0.671   0.676   1.301
 8076SOL     OW25126   6.446   6.043   0.583
 8076SOL    HW125127   6.467   6.071   0.677
 8076SOL    HW225128   6.484   5.952   0.566
 8077SOL     OW25129   5.775   4.109   1.158
 8077SOL    HW125130   5.787   4.038   1.229
 8077SOL    HW225131   5.830   4.189   1.182
 8078SOL     OW25132   6.325   1.312   2.025
 8078SOL    HW125133   6.296   1.406   2.040
 8078SOL    HW225134   6.424   1.307   2.020
 8079SOL     OW25135   0.145   1.054   6.824
 8079SOL    HW125136   0.149   0.961   6.786
 8079SOL    HW225137   0.156   1.050   6.923
 8080SOL     OW25138   0.990   3.938   3.960
 8080SOL    HW125139   1.061   3.991   3.912
 8080SOL    HW225140   0.900   3.962   3.923
 8081SOL     OW25141   6.022   0.900   5.708
 8081SOL    HW125142   6.033   0.975   5.643
 8081SOL    HW225143   5.926   0.870   5.708
 8082SOL     OW25144   4.570   2.540   4.709
 8082SOL    HW125145   4.515   2.474   4.761
 8082SOL    HW225146   4.631   2.589   4.771
 8083SOL     OW25147   6.425   3.115   4.194
 8083SOL    HW125148   6.392   3.135   4.286
 8083SOL    HW225149   6.488   3.186   4.164
 8084SOL     OW25150   5.246   1.785   6.727
 8084SOL    HW125151   5.208   1.847   6.658
 8084SOL    HW225152   5.292   1.709   6.680
 8085SOL     OW25153   1.578   6.156   4.073
 8085SOL    HW125154   1.581   6.237   4.014
 8085SOL    HW225155   1.516   6.088   4.033
 8086SOL     OW25156   0.386   2.442   2.274
 8086SOL    HW125157   0.472   2.487   2.297
 8086SOL    HW225158   0.323   2.509   2.235
 8087SOL     OW25159   6.672   0.822   6.635
 8087SOL    HW125160   6.692   0.805   6.538
 8087SOL    HW225161   6.698   0.915   6.659
 8088SOL     OW25162   0.334   6.714   5.380
 8088SOL    HW125163   0.302   6.749   5.292
 8088SOL    HW225164   0.377   6.787   5.432
 8089SOL     OW25165   6.319   1.573   6.889
 8089SOL    HW125166   6.270   1.592   6.804
 8089SOL    HW225167   6.300   1.644   6.956
 8090SOL     OW25168   4.385   2.397   4.976
 8090SOL    HW125169   4.430   2.446   5.051
 8090SOL    HW225170   4.287   2.391   4.995
 8091SOL     OW25171   0.678   3.826   4.876
 8091SOL    HW125172   0.761   3.844   4.824
 8091SOL    HW225173   0.602   3.879   4.838
 8092SOL     OW25174   4.678   0.199   5.779
 8092SOL    HW125175   4.624   0.283   5.787
 8092SOL    HW225176   4.642   0.130   5.842
 8093SOL     OW25177   2.889   6.723   3.461
 8093SOL    HW125178   2.888   6.783   3.541
 8093SOL    HW225179   2.970   6.742   3.406
 8094SOL     OW25180   1.805   3.857   4.316
 8094SOL    HW125181   1.824   3.954   4.299
 8094SOL    HW225182   1.788   3.811   4.229
 8095SOL     OW25183   1.195   5.595   4.865
 8095SOL    HW125184   1.214   5.599   4.767
 8095SOL    HW225185   1.244   5.668   4.912
 8096SOL     OW25186   0.840   4.849   0.907
 8096SOL    HW125187   0.812   4.920   0.842
 8096SOL    HW225188   0.884   4.892   0.985
 8097SOL     OW25189   5.150   6.456   0.032
 8097SOL    HW125190   5.129   6.448   6.961
 8097SOL    HW225191   5.110   6.541   0.068
 8098SOL     OW25192   2.764   6.233   4.683
 8098SOL    HW125193   2.736   6.229   4.587
 8098SOL    HW225194   2.814   6.318   4.700
 8099SOL     OW25195   2.224   4.122   2.711
 8099SOL    HW125196   2.173   4.116   2.797
 8099SOL    HW225197   2.207   4.040   2.656
 8100SOL     OW25198   6.892   0.079   0.710
 8100SOL    HW125199   6.846   0.144   0.649
 8100SOL    HW225200   6.897   7.016   0.665
 8101SOL     OW25201   2.296   5.355   0.323
 8101SOL    HW125202   2.358   5.325   0.251
 8101SOL    HW225203   2.265   5.448   0.305
 8102SOL     OW25204   0.886   4.569   4.233
 8102SOL    HW125205   0.966   4.570   4.173
 8102SOL    HW225206   0.909   4.615   4.320
 8103SOL     OW25207   4.236   0.770   1.450
 8103SOL    HW125208   4.270   0.863   1.464
 8103SOL    HW225209   4.175   0.745   1.525
 8104SOL     OW25210   0.818   5.724   6.837
 8104SOL    HW125211   0.721   5.701   6.847
 8104SOL    HW225212   0.867   5.647   6.798
 8105SOL     OW25213   6.848   0.012   3.034
 8105SOL    HW125214   6.801   6.990   2.959
 8105SOL    HW225215   6.799   7.020   3.119
 8106SOL     OW25216   2.770   6.707   6.386
 8106SOL    HW125217   2.862   6.678   6.360
 8106SOL    HW225218   2.706   6.631   6.374
 8107SOL     OW25219   0.999   6.744   0.070
 8107SOL    HW125220   0.915   6.790   0.099
 8107SOL    HW225221   1.056   6.726   0.150
 8108SOL     OW25222   1.618   1.326   0.532
 8108SOL    HW125223   1.701   1.379   0.551
 8108SOL    HW225224   1.633   1.230   0.558
 8109SOL     OW25225   0.304   3.772   2.131
 8109SOL    HW125226   0.247   3.854   2.136
 8109SOL    HW225227   0.289   3.726   2.044
 8110SOL     OW25228   4.521   4.161   0.368
 8110SOL    HW125229   4.493   4.085   0.428
 8110SOL    HW225230   4.511   4.132   0.272
 8111SOL     OW25231   5.899   1.900   2.286
 8111SOL    HW125232   5.819   1.948   2.321
 8111SOL    HW225233   5.975   1.964   2.275
 8112SOL     OW25234   2.305   4.757   6.326
 8112SOL    HW125235   2.340   4.739   6.418
 8112SOL    HW225236   2.211   4.724   6.319
 8113SOL     OW25237   4.983   4.757   6.417
 8113SOL    HW125238   4.961   4.851   6.439
 8113SOL    HW225239   5.082   4.748   6.401
 8114SOL     OW25240   2.095   3.350   2.924
 8114SOL    HW125241   2.169   3.296   2.884
 8114SOL    HW225242   2.132   3.438   2.954
 8115SOL     OW25243   2.560   1.687   6.097
 8115SOL    HW125244   2.609   1.772   6.116
 8115SOL    HW225245   2.547   1.636   6.182
 8116SOL     OW25246   4.134   3.224   2.172
 8116SOL    HW125247   4.212   3.208   2.112
 8116SOL    HW225248   4.049   3.217   2.119
 8117SOL     OW25249   1.566   0.121   4.071
 8117SOL    HW125250   1.572   0.183   3.994
 8117SOL    HW225251   1.657   0.088   4.096
 8118SOL     OW25252   6.326   2.531   0.011
 8118SOL    HW125253   6.380   2.560   6.958
 8118SOL    HW225254   6.286   2.442   7.019
 8119SOL     OW25255   4.980   5.403   5.985
 8119SOL    HW125256   4.970   5.439   5.892
 8119SOL    HW225257   5.040   5.463   6.038
 8120SOL     OW25258   2.327   6.611   2.520
 8120SOL    HW125259   2.410   6.556   2.511
 8120SOL    HW225260   2.249   6.562   2.479
 8121SOL     OW25261   2.204   2.881   2.637
 8121SOL    HW125262   2.293   2.847   2.608
 8121SOL    HW225263   2.138   2.805   2.637
 8122SOL     OW25264   0.872   4.784   1.243
 8122SOL    HW125265   0.912   4.848   1.178
 8122SOL    HW225266   0.901   4.807   1.335
 8123SOL     OW25267   6.962   1.708   6.695
 8123SOL    HW125268   0.009   1.747   6.752
 8123SOL    HW225269   6.978   1.733   6.599
 8124SOL     OW25270   6.691   6.201   5.368
 8124SOL    HW125271   6.749   6.261   5.424
 8124SOL    HW225272   6.607   6.181   5.418
 8125SOL     OW25273   1.088   6.023   2.087
 8125SOL    HW125274   1.087   5.923   2.092
 8125SOL    HW225275   1.115   6.061   2.175
 8126SOL     OW25276   3.487   5.748   4.617
 8126SOL    HW125277   3.547   5.672   4.591
 8126SOL    HW225278   3.420   5.764   4.546
 8127SOL     OW25279   3.764   1.670   6.260
 8127SOL    HW125280   3.683   1.712   6.218
 8127SOL    HW225281   3.842   1.678   6.198
 8128SOL     OW25282   3.156   3.145   1.226
 8128SOL    HW125283   3.094   3.078   1.265
 8128SOL    HW225284   3.227   3.099   1.173
 8129SOL     OW25285   0.355   2.653   3.808
 8129SOL    HW125286   0.332   2.559   3.781
 8129SOL    HW225287   0.410   2.695   3.735
 8130SOL     OW25288   6.711   6.272   0.033
 8130SOL    HW125289   6.743   6.232   6.973
 8130SOL    HW225290   6.706   6.372   0.023
 8131SOL     OW25291   1.853   2.454   0.989
 8131SOL    HW125292   1.856   2.460   1.089
 8131SOL    HW225293   1.938   2.415   0.955
 8132SOL     OW25294   6.301   1.772   4.560
 8132SOL    HW125295   6.381   1.823   4.592
 8132SOL    HW225296   6.253   1.731   4.637
 8133SOL     OW25297   3.559   5.292   1.472
 8133SOL    HW125298   3.616   5.281   1.391
 8133SOL    HW225299   3.577   5.381   1.514
 8134SOL     OW25300   5.701   2.289   6.040
 8134SOL    HW125301   5.688   2.291   5.941
 8134SOL    HW225302   5.760   2.212   6.064
 8135SOL     OW25303   2.497   6.175   1.950
 8135SOL    HW125304   2.422   6.240   1.936
 8135SOL    HW225305   2.531   6.183   2.044
 8136SOL     OW25306   4.602   4.673   2.473
 8136SOL    HW125307   4.511   4.661   2.433
 8136SOL    HW225308   4.621   4.598   2.536
 8137SOL     OW25309   4.704   1.303   6.223
 8137SOL    HW125310   4.626   1.364   6.236
 8137SOL    HW225311   4.706   1.271   6.129
 8138SOL     OW25312   5.653   1.065   2.206
 8138SOL    HW125313   5.570   1.053   2.261
 8138SOL    HW225314   5.627   1.074   2.109
 8139SOL     OW25315   0.230   1.146   4.275
 8139SOL    HW125316   0.137   1.178   4.254
 8139SOL    HW225317   0.237   1.124   4.372
 8140SOL     OW25318   4.995   2.763   3.421
 8140SOL    HW125319   5.021   2.693   3.355
 8140SOL    HW225320   5.077   2.801   3.464
 8141SOL     OW25321   5.995   3.619   3.675
 8141SOL    HW125322   5.912   3.565   3.668
 8141SOL    HW225323   6.056   3.598   3.599
 8142SOL     OW25324   6.833   6.643   0.230
 8142SOL    HW125325   6.760   6.577   0.241
 8142SOL    HW225326   6.812   6.703   0.152
 8143SOL     OW25327   6.385   2.698   5.125
 8143SOL    HW125328   6.324   2.640   5.179
 8143SOL    HW225329   6.332   2.747   5.056
 8144SOL     OW25330   4.884   5.915   6.729
 8144SOL    HW125331   4.877   6.001   6.678
 8144SOL    HW225332   4.843   5.926   6.820
 8145SOL     OW25333   4.714   5.959   3.211
 8145SOL    HW125334   4.675   6.049   3.188
 8145SOL    HW225335   4.734   5.955   3.309
 8146SOL     OW25336   3.505   1.696   3.950
 8146SOL    HW125337   3.579   1.694   4.018
 8146SOL    HW225338   3.435   1.629   3.976
 8147SOL     OW25339   5.224   1.255   3.365
 8147SOL    HW125340   5.129   1.226   3.373
 8147SOL    HW225341   5.232   1.324   3.292
 8148SOL     OW25342   6.917   4.263   3.161
 8148SOL    HW125343   6.964   4.177   3.142
 8148SOL    HW225344   6.855   4.284   3.085
 8149SOL     OW25345   3.777   5.377   3.680
 8149SOL    HW125346   3.740   5.284   3.682
 8149SOL    HW225347   3.828   5.394   3.764
 8150SOL     OW25348   1.391   6.760   1.011
 8150SOL    HW125349   1.400   6.666   1.043
 8150SOL    HW225350   1.482   6.797   0.991
 8151SOL     OW25351   0.653   1.339   4.773
 8151SOL    HW125352   0.636   1.256   4.718
 8151SOL    HW225353   0.674   1.415   4.712
 8152SOL     OW25354   0.756   0.733   3.598
 8152SOL    HW125355   0.828   0.797   3.623
 8152SOL    HW225356   0.784   0.681   3.517
 8153SOL     OW25357   2.192   6.781   0.216
 8153SOL    HW125358   2.103   6.760   0.176
 8153SOL    HW225359   2.181   6.850   0.288
 8154SOL     OW25360   2.109   6.644   3.176
 8154SOL    HW125361   2.147   6.626   3.086
 8154SOL    HW225362   2.155   6.587   3.244
 8155SOL     OW25363   3.021   3.964   4.758
 8155SOL    HW125364   3.072   4.022   4.821
 8155SOL    HW225365   2.956   4.020   4.706
 8156SOL     OW25366   0.450   6.920   5.478
 8156SOL    HW125367   0.542   6.960   5.480
 8156SOL    HW225368   0.383   6.992   5.458
 8157SOL     OW25369   5.530   2.302   6.603
 8157SOL    HW125370   5.556   2.390   6.643
 8157SOL    HW225371   5.612   2.252   6.576
 8158SOL     OW25372   1.206   5.524   2.504
 8158SOL    HW125373   1.218   5.472   2.420
 8158SOL    HW225374   1.266   5.604   2.503
 8159SOL     OW25375   0.416   5.942   0.571
 8159SOL    HW125376   0.444   5.866   0.631
 8159SOL    HW225377   0.324   5.972   0.595
 8160SOL     OW25378   4.395   1.715   1.810
 8160SOL    HW125379   4.408   1.747   1.904
 8160SOL    HW225380   4.482   1.719   1.761
 8161SOL     OW25381   4.214   3.367   1.347
 8161SOL    HW125382   4.129   3.417   1.330
 8161SOL    HW225383   4.291   3.431   1.350
 8162SOL     OW25384   6.107   0.876   2.285
 8162SOL    HW125385   6.028   0.873   2.223
 8162SOL    HW225386   6.075   0.885   2.379
 8163SOL     OW25387   2.209   2.850   5.730
 8163SOL    HW125388   2.130   2.906   5.706
 8163SOL    HW225389   2.243   2.804   5.648
 8164SOL     OW25390   4.871   3.622   1.956
 8164SOL    HW125391   4.803   3.694   1.939
 8164SOL    HW225392   4.839   3.536   1.915
 8165SOL     OW25393   1.720   4.364   1.823
 8165SOL    HW125394   1.666   4.328   1.899
 8165SOL    HW225395   1.812   4.326   1.827
 8166SOL     OW25396   3.354   0.161   1.255
 8166SOL    HW125397   3.415   0.085   1.278
 8166SOL    HW225398   3.290   0.176   1.330
 8167SOL     OW25399   5.632   2.483   4.550
 8167SOL    HW125400   5.700   2.475   4.624
 8167SOL    HW225401   5.640   2.405   4.489
 8168SOL     OW25402   2.476   2.196   2.935
 8168SOL    HW125403   2.555   2.151   2.894
 8168SOL    HW225404   2.475   2.292   2.908
 8169SOL     OW25405   5.386   3.886   5.040
 8169SOL    HW125406   5.396   3.788   5.055
 8169SOL    HW225407   5.292   3.906   5.013
 8170SOL     OW25408   1.603   5.466   3.936
 8170SOL    HW125409   1.556   5.533   3.994
 8170SOL    HW225410   1.702   5.479   3.945
 8171SOL     OW25411   1.631   1.115   6.814
 8171SOL    HW125412   1.703   1.118   6.745
 8171SOL    HW225413   1.598   1.021   6.824
 8172SOL     OW25414   0.569   6.091   1.528
 8172SOL    HW125415   0.649   6.043   1.565
 8172SOL    HW225416   0.492   6.081   1.591
 8173SOL     OW25417   6.477   3.288   0.245
 8173SOL    HW125418   6.575   3.271   0.235
 8173SOL    HW225419   6.460   3.338   0.330
 8174SOL     OW25420   5.178   6.558   2.345
 8174SOL    HW125421   5.261   6.593   2.389
 8174SOL    HW225422   5.203   6.497   2.270
 8175SOL     OW25423   1.892   3.078   3.959
 8175SOL    HW125424   1.856   3.094   3.867
 8175SOL    HW225425   1.992   3.081   3.957
 8176SOL     OW25426   3.856   6.078   3.279
 8176SOL    HW125427   3.939   6.112   3.323
 8176SOL    HW225428   3.806   6.018   3.342
 8177SOL     OW25429   1.936   6.364   6.227
 8177SOL    HW125430   1.941   6.458   6.259
 8177SOL    HW225431   1.934   6.362   6.127
 8178SOL     OW25432   2.495   6.492   6.063
 8178SOL    HW125433   2.412   6.436   6.059
 8178SOL    HW225434   2.478   6.572   6.120
 8179SOL     OW25435   4.125   0.379   0.476
 8179SOL    HW125436   4.102   0.296   0.527
 8179SOL    HW225437   4.048   0.442   0.478
 8180SOL     OW25438   4.762   5.024   4.996
 8180SOL    HW125439   4.702   5.033   5.076
 8180SOL    HW225440   4.775   5.114   4.955
 8181SOL     OW25441   2.436   2.232   2.237
 8181SOL    HW125442   2.520   2.179   2.222
 8181SOL    HW225443   2.390   2.246   2.149
 8182SOL     OW25444   5.145   2.897   5.599
 8182SOL    HW125445   5.059   2.872   5.556
 8182SOL    HW225446   5.214   2.915   5.528
 8183SOL     OW25447   2.124   3.524   3.377
 8183SOL    HW125448   2.140   3.466   3.297
 8183SOL    HW225449   2.150   3.618   3.355
 8184SOL     OW25450   5.975   5.820   4.353
 8184SOL    HW125451   6.009   5.913   4.344
 8184SOL    HW225452   6.030   5.759   4.295
 8185SOL     OW25453   1.128   2.427   3.242
 8185SOL    HW125454   1.073   2.511   3.240
 8185SOL    HW225455   1.215   2.445   3.287
 8186SOL     OW25456   4.349   3.848   6.728
 8186SOL    HW125457   4.356   3.752   6.754
 8186SOL    HW225458   4.267   3.888   6.770
 8187SOL     OW25459   2.329   1.717   5.983
 8187SOL    HW125460   2.419   1.720   6.026
 8187SOL    HW225461   2.281   1.635   6.011
 8188SOL     OW25462   4.965   3.146   2.557
 8188SOL    HW125463   4.930   3.122   2.466
 8188SOL    HW225464   4.922   3.231   2.588
 8189SOL     OW25465   6.709   5.399   3.073
 8189SOL    HW125466   6.635   5.458   3.040
 8189SOL    HW225467   6.792   5.419   3.023
 8190SOL     OW25468   6.105   3.346   2.403
 8190SOL    HW125469   6.007   3.336   2.417
 8190SOL    HW225470   6.127   3.443   2.390
 8191SOL     OW25471   5.893   4.936   1.655
 8191SOL    HW125472   5.868   5.032   1.643
 8191SOL    HW225473   5.993   4.929   1.664
 8192SOL     OW25474   1.187   2.464   1.094
 8192SOL    HW125475   1.194   2.491   0.998
 8192SOL    HW225476   1.279   2.450   1.132
 8193SOL     OW25477   4.259   6.737   5.486
 8193SOL    HW125478   4.209   6.660   5.447
 8193SOL    HW225479   4.240   6.820   5.433
 8194SOL     OW25480   2.031   0.618   2.380
 8194SOL    HW125481   2.014   0.520   2.389
 8194SOL    HW225482   1.974   0.668   2.445
 8195SOL     OW25483   5.678   1.245   1.754
 8195SOL    HW125484   5.693   1.303   1.674
 8195SOL    HW225485   5.761   1.242   1.810
 8196SOL     OW25486   1.640   1.010   0.975
 8196SOL    HW125487   1.619   1.080   1.043
 8196SOL    HW225488   1.555   0.971   0.941
 8197SOL     OW25489   0.525   6.997   0.809
 8197SOL    HW125490   0.460   0.047   0.815
 8197SOL    HW225491   0.499   6.938   0.732
 8198SOL     OW25492   3.319   0.898   2.827
 8198SOL    HW125493   3.417   0.917   2.826
 8198SOL    HW225494   3.271   0.973   2.871
 8199SOL     OW25495   5.717   4.673   1.335
 8199SOL    HW125496   5.701   4.690   1.432
 8199SOL    HW225497   5.806   4.629   1.323
 8200SOL     OW25498   4.380   3.760   1.658
 8200SOL    HW125499   4.449   3.688   1.671
 8200SOL    HW225500   4.337   3.750   1.568
 8201SOL     OW25501   0.867   1.385   5.178
 8201SOL    HW125502   0.806   1.322   5.130
 8201SOL    HW225503   0.909   1.338   5.255
 8202SOL     OW25504   1.584   3.894   4.488
 8202SOL    HW125505   1.657   3.859   4.429
 8202SOL    HW225506   1.496   3.859   4.456
 8203SOL     OW25507   6.518   4.496   6.591
 8203SOL    HW125508   6.548   4.461   6.502
 8203SOL    HW225509   6.419   4.508   6.591
 8204SOL     OW25510   3.605   0.213   0.575
 8204SOL    HW125511   3.632   0.248   0.665
 8204SOL    HW225512   3.606   0.113   0.576
 8205SOL     OW25513   4.249   6.500   3.164
 8205SOL    HW125514   4.224   6.471   3.072
 8205SOL    HW225515   4.323   6.567   3.159
 8206SOL     OW25516   3.695   1.870   4.747
 8206SOL    HW125517   3.628   1.806   4.710
 8206SOL    HW225518   3.787   1.843   4.716
 8207SOL     OW25519   3.094   5.966   6.804
 8207SOL    HW125520   3.158   5.969   6.880
 8207SOL    HW225521   3.030   6.044   6.810
 8208SOL     OW25522   1.819   5.698   0.522
 8208SOL    HW125523   1.767   5.648   0.591
 8208SOL    HW225524   1.871   5.634   0.466
 8209SOL     OW25525   0.935   5.371   5.385
 8209SOL    HW125526   0.876   5.336   5.312
 8209SOL    HW225527   0.897   5.345   5.474
 8210SOL     OW25528   2.143   1.029   0.976
 8210SOL    HW125529   2.185   1.020   0.885
 8210SOL    HW225530   2.046   1.051   0.965
 8211SOL     OW25531   3.845   4.048   3.938
 8211SOL    HW125532   3.919   3.994   3.978
 8211SOL    HW225533   3.852   4.142   3.970
 8212SOL     OW25534   4.422   4.522   6.549
 8212SOL    HW125535   4.350   4.585   6.518
 8212SOL    HW225536   4.494   4.575   6.594
 8213SOL     OW25537   4.764   4.352   1.934
 8213SOL    HW125538   4.684   4.307   1.894
 8213SOL    HW225539   4.847   4.305   1.904
 8214SOL     OW25540   4.086   5.697   3.546
 8214SOL    HW125541   4.058   5.647   3.464
 8214SOL    HW225542   4.067   5.794   3.533
 8215SOL     OW25543   2.939   6.339   6.379
 8215SOL    HW125544   2.910   6.339   6.475
 8215SOL    HW225545   2.861   6.363   6.321
 8216SOL     OW25546   5.494   5.191   0.687
 8216SOL    HW125547   5.440   5.182   0.770
 8216SOL    HW225548   5.522   5.287   0.675
 8217SOL     OW25549   3.295   6.551   3.274
 8217SOL    HW125550   3.198   6.545   3.298
 8217SOL    HW225551   3.316   6.482   3.205
 8218SOL     OW25552   1.688   6.680   4.077
 8218SOL    HW125553   1.663   6.655   4.171
 8218SOL    HW225554   1.609   6.724   4.033
 8219SOL     OW25555   4.040   3.120   3.001
 8219SOL    HW125556   4.037   3.209   2.955
 8219SOL    HW225557   4.021   3.047   2.935
 8220SOL     OW25558   4.402   4.173   5.824
 8220SOL    HW125559   4.434   4.089   5.869
 8220SOL    HW225560   4.367   4.236   5.893
 8221SOL     OW25561   6.839   3.838   3.699
 8221SOL    HW125562   6.807   3.746   3.725
 8221SOL    HW225563   6.912   3.867   3.761
 8222SOL     OW25564   5.265   2.447   5.705
 8222SOL    HW125565   5.312   2.473   5.790
 8222SOL    HW225566   5.181   2.398   5.728
 8223SOL     OW25567   1.373   6.194   5.497
 8223SOL    HW125568   1.446   6.134   5.531
 8223SOL    HW225569   1.350   6.261   5.568
 8224SOL     OW25570   5.849   0.757   6.062
 8224SOL    HW125571   5.843   0.713   5.973
 8224SOL    HW225572   5.764   0.806   6.080
 8225SOL     OW25573   6.163   2.877   0.226
 8225SOL    HW125574   6.239   2.926   0.270
 8225SOL    HW225575   6.180   2.871   0.128
 8226SOL     OW25576   4.387   1.096   6.824
 8226SOL    HW125577   4.313   1.153   6.858
 8226SOL    HW225578   4.354   1.003   6.809
 8227SOL     OW25579   5.316   3.966   2.390
 8227SOL    HW125580   5.303   3.926   2.300
 8227SOL    HW225581   5.381   4.042   2.385
 8228SOL     OW25582   2.827   1.335   4.521
 8228SOL    HW125583   2.862   1.241   4.518
 8228SOL    HW225584   2.855   1.382   4.437
 8229SOL     OW25585   4.128   4.747   0.607
 8229SOL    HW125586   4.225   4.727   0.591
 8229SOL    HW225587   4.120   4.832   0.659
 8230SOL     OW25588   6.269   0.864   6.366
 8230SOL    HW125589   6.206   0.845   6.291
 8230SOL    HW225590   6.247   0.807   6.444
 8231SOL     OW25591   3.511   1.664   2.310
 8231SOL    HW125592   3.460   1.720   2.244
 8231SOL    HW225593   3.476   1.570   2.307
 8232SOL     OW25594   4.116   6.699   3.302
 8232SOL    HW125595   4.145   6.620   3.249
 8232SOL    HW225596   4.069   6.668   3.385
 8233SOL     OW25597   2.783   1.102   6.126
 8233SOL    HW125598   2.866   1.069   6.170
 8233SOL    HW225599   2.796   1.197   6.098
 8234SOL     OW25600   1.065   3.001   0.148
 8234SOL    HW125601   1.038   3.088   0.106
 8234SOL    HW225602   0.988   2.937   0.143
 8235SOL     OW25603   0.319   6.574   1.055
 8235SOL    HW125604   0.328   6.527   1.143
 8235SOL    HW225605   0.231   6.621   1.050
 8236SOL     OW25606   1.031   0.510   1.092
 8236SOL    HW125607   1.101   0.443   1.066
 8236SOL    HW225608   0.968   0.468   1.158
 8237SOL     OW25609   4.004   5.130   5.523
 8237SOL    HW125610   4.082   5.192   5.525
 8237SOL    HW225611   3.960   5.134   5.433
 8238SOL     OW25612   6.516   5.318   0.101
 8238SOL    HW125613   6.442   5.272   0.053
 8238SOL    HW225614   6.483   5.350   0.190
 8239SOL     OW25615   4.502   1.931   4.357
 8239SOL    HW125616   4.419   1.933   4.301
 8239SOL    HW225617   4.571   1.874   4.312
 8240SOL     OW25618   3.539   3.644   4.900
 8240SOL    HW125619   3.604   3.713   4.869
 8240SOL    HW225620   3.474   3.686   4.963
 8241SOL     OW25621   0.909   3.194   5.733
 8241SOL    HW125622   0.948   3.113   5.776
 8241SOL    HW225623   0.970   3.272   5.746
 8242SOL     OW25624   0.114   2.805   3.758
 8242SOL    HW125625   0.041   2.740   3.736
 8242SOL    HW225626   0.193   2.755   3.793
 8243SOL     OW25627   1.223   6.081   3.247
 8243SOL    HW125628   1.229   6.113   3.153
 8243SOL    HW225629   1.203   6.158   3.307
 8244SOL     OW25630   5.201   0.731   3.937
 8244SOL    HW125631   5.264   0.678   3.994
 8244SOL    HW225632   5.210   0.701   3.842
 8245SOL     OW25633   5.451   4.224   2.393
 8245SOL    HW125634   5.531   4.165   2.397
 8245SOL    HW225635   5.460   4.287   2.316
 8246SOL     OW25636   2.012   4.317   6.622
 8246SOL    HW125637   1.967   4.398   6.658
 8246SOL    HW225638   2.021   4.248   6.694
 8247SOL     OW25639   2.038   4.665   3.426
 8247SOL    HW125640   2.057   4.634   3.333
 8247SOL    HW225641   2.027   4.586   3.487
 8248SOL     OW25642   0.020   6.461   2.781
 8248SOL    HW125643   6.983   6.387   2.806
 8248SOL    HW225644   7.002   6.549   2.800
 8249SOL     OW25645   3.087   0.859   6.163
 8249SOL    HW125646   3.046   0.817   6.245
 8249SOL    HW225647   3.047   0.819   6.081
 8250SOL     OW25648   1.249   1.664   0.452
 8250SOL    HW125649   1.343   1.630   0.453
 8250SOL    HW225650   1.237   1.726   0.375
 8251SOL     OW25651   1.357   2.280   6.457
 8251SOL    HW125652   1.376   2.347   6.385
 8251SOL    HW225653   1.316   2.198   6.417
 8252SOL     OW25654   0.836   1.872   6.479
 8252SOL    HW125655   0.737   1.867   6.464
 8252SOL    HW225656   0.877   1.783   6.459
 8253SOL     OW25657   6.360   4.624   5.838
 8253SOL    HW125658   6.353   4.569   5.755
 8253SOL    HW225659   6.323   4.573   5.915
 8254SOL     OW25660   5.311   4.668   6.563
 8254SOL    HW125661   5.306   4.756   6.610
 8254SOL    HW225662   5.396   4.621   6.588
 8255SOL     OW25663   1.359   6.864   5.510
 8255SOL    HW125664   1.408   6.925   5.573
 8255SOL    HW225665   1.261   6.885   5.513
 8256SOL     OW25666   1.671   5.899   2.853
 8256SOL    HW125667   1.626   5.968   2.909
 8256SOL    HW225668   1.756   5.870   2.897
 8257SOL     OW25669   4.626   4.325   3.482
 8257SOL    HW125670   4.548   4.376   3.519
 8257SOL    HW225671   4.620   4.323   3.382
 8258SOL     OW25672   0.694   3.619   4.649
 8258SOL    HW125673   0.784   3.589   4.682
 8258SOL    HW225674   0.702   3.711   4.609
 8259SOL     OW25675   5.448   2.787   3.994
 8259SOL    HW125676   5.358   2.745   3.979
 8259SOL    HW225677   5.442   2.885   3.974
 8260SOL     OW25678   4.488   2.254   6.213
 8260SOL    HW125679   4.530   2.287   6.298
 8260SOL    HW225680   4.533   2.169   6.184
 8261SOL     OW25681   5.862   2.510   2.895
 8261SOL    HW125682   5.776   2.466   2.922
 8261SOL    HW225683   5.906   2.550   2.975
 8262SOL     OW25684   5.093   4.107   2.097
 8262SOL    HW125685   5.159   4.181   2.084
 8262SOL    HW225686   5.136   4.019   2.075
 8263SOL     OW25687   6.127   1.663   6.671
 8263SOL    HW125688   6.051   1.671   6.735
 8263SOL    HW225689   6.093   1.628   6.584
 8264SOL     OW25690   2.899   0.989   1.595
 8264SOL    HW125691   2.910   1.067   1.534
 8264SOL    HW225692   2.904   0.904   1.543
 8265SOL     OW25693   4.348   5.338   0.557
 8265SOL    HW125694   4.307   5.404   0.494
 8265SOL    HW225695   4.420   5.287   0.511
 8266SOL     OW25696   4.513   2.222   3.483
 8266SOL    HW125697   4.430   2.247   3.532
 8266SOL    HW225698   4.488   2.186   3.393
 8267SOL     OW25699   1.729   3.209   3.277
 8267SOL    HW125700   1.781   3.286   3.240
 8267SOL    HW225701   1.636   3.212   3.241
 8268SOL     OW25702   2.624   5.299   1.547
 8268SOL    HW125703   2.659   5.212   1.583
 8268SOL    HW225704   2.555   5.336   1.609
 8269SOL     OW25705   6.768   1.415   4.012
 8269SOL    HW125706   6.825   1.451   3.938
 8269SOL    HW225707   6.815   1.425   4.099
 8270SOL     OW25708   4.204   4.384   0.760
 8270SOL    HW125709   4.204   4.301   0.704
 8270SOL    HW225710   4.141   4.450   0.722
 8271SOL     OW25711   3.215   6.847   5.709
 8271SOL    HW125712   3.192   6.919   5.644
 8271SOL    HW225713   3.132   6.818   5.757
 8272SOL     OW25714   0.904   0.542   2.237
 8272SOL    HW125715   0.856   0.593   2.309
 8272SOL    HW225716   0.864   0.565   2.148
 8273SOL     OW25717   5.103   6.922   5.989
 8273SOL    HW125718   5.017   6.958   5.953
 8273SOL    HW225719   5.098   6.822   5.992
 8274SOL     OW25720   5.574   6.731   3.867
 8274SOL    HW125721   5.573   6.830   3.878
 8274SOL    HW225722   5.483   6.694   3.882
 8275SOL     OW25723   4.569   0.680   4.477
 8275SOL    HW125724   4.481   0.723   4.462
 8275SOL    HW225725   4.622   0.733   4.544
 8276SOL     OW25726   5.907   2.765   0.801
 8276SOL    HW125727   5.975   2.830   0.834
 8276SOL    HW225728   5.928   2.673   0.836
 8277SOL     OW25729   1.394   0.004   1.930
 8277SOL    HW125730   1.432   6.965   1.864
 8277SOL    HW225731   1.352   6.979   2.005
 8278SOL     OW25732   1.587   0.536   1.278
 8278SOL    HW125733   1.578   0.521   1.376
 8278SOL    HW225734   1.684   0.549   1.255
 8279SOL     OW25735   5.980   5.054   5.803
 8279SOL    HW125736   5.905   5.043   5.868
 8279SOL    HW225737   6.048   4.981   5.818
 8280SOL     OW25738   6.633   4.150   6.809
 8280SOL    HW125739   6.624   4.127   6.906
 8280SOL    HW225740   6.706   4.096   6.768
 8281SOL     OW25741   3.060   4.509   6.572
 8281SOL    HW125742   3.122   4.583   6.597
 8281SOL    HW225743   3.089   4.424   6.616
 8282SOL     OW25744   4.186   2.656   0.677
 8282SOL    HW125745   4.157   2.686   0.768
 8282SOL    HW225746   4.239   2.572   0.685
 8283SOL     OW25747   0.557   1.012   3.428
 8283SOL    HW125748   0.648   1.030   3.466
 8283SOL    HW225749   0.560   0.929   3.371
 8284SOL     OW25750   4.948   2.175   1.689
 8284SOL    HW125751   4.930   2.260   1.738
 8284SOL    HW225752   4.866   2.118   1.689
 8285SOL     OW25753   0.780   4.944   0.334
 8285SOL    HW125754   0.787   4.854   0.292
 8285SOL    HW225755   0.687   4.978   0.325
 8286SOL     OW25756   6.363   1.742   6.389
 8286SOL    HW125757   6.382   1.769   6.294
 8286SOL    HW225758   6.316   1.817   6.436
 8287SOL     OW25759   0.583   0.768   3.235
 8287SOL    HW125760   0.590   0.825   3.153
 8287SOL    HW225761   0.534   0.684   3.213
 8288SOL     OW25762   2.776   6.684   2.033
 8288SOL    HW125763   2.742   6.752   2.098
 8288SOL    HW225764   2.859   6.719   1.989
 8289SOL     OW25765   6.260   0.092   0.130
 8289SOL    HW125766   6.325   0.112   0.203
 8289SOL    HW225767   6.218   0.177   0.098
 8290SOL     OW25768   4.882   2.667   1.831
 8290SOL    HW125769   4.892   2.713   1.920
 8290SOL    HW225770   4.790   2.684   1.796
 8291SOL     OW25771   5.352   5.759   5.633
 8291SOL    HW125772   5.329   5.856   5.635
 8291SOL    HW225773   5.444   5.745   5.670
 8292SOL     OW25774   6.902   3.632   5.333
 8292SOL    HW125775   6.934   3.674   5.418
 8292SOL    HW225776   6.818   3.580   5.351
 8293SOL     OW25777   2.567   5.393   4.363
 8293SOL    HW125778   2.534   5.303   4.334
 8293SOL    HW225779   2.595   5.388   4.459
 8294SOL     OW25780   6.797   3.439   6.027
 8294SOL    HW125781   6.811   3.535   6.004
 8294SOL    HW225782   6.842   3.419   6.114
 8295SOL     OW25783   4.071   4.994   1.521
 8295SOL    HW125784   4.124   5.060   1.468
 8295SOL    HW225785   4.082   5.013   1.618
 8296SOL     OW25786   3.308   0.655   1.871
 8296SOL    HW125787   3.378   0.624   1.808
 8296SOL    HW225788   3.324   0.751   1.894
 8297SOL     OW25789   5.715   4.058   1.926
 8297SOL    HW125790   5.623   4.087   1.903
 8297SOL    HW225791   5.765   4.134   1.968
 8298SOL     OW25792   6.736   6.991   0.939
 8298SOL    HW125793   6.711   0.044   0.997
 8298SOL    HW225794   6.790   7.024   0.861
 8299SOL     OW25795   0.866   2.476   6.836
 8299SOL    HW125796   0.880   2.575   6.844
 8299SOL    HW225797   0.920   2.440   6.761
 8300SOL     OW25798   5.290   5.987   3.734
 8300SOL    HW125799   5.280   5.937   3.648
 8300SOL    HW225800   5.219   5.957   3.798
 8301SOL     OW25801   6.386   5.427   0.325
 8301SOL    HW125802   6.287   5.430   0.342
 8301SOL    HW225803   6.434   5.404   0.410
 8302SOL     OW25804   3.658   6.577   5.832
 8302SOL    HW125805   3.558   6.574   5.824
 8302SOL    HW225806   3.690   6.492   5.873
 8303SOL     OW25807   1.192   4.969   3.680
 8303SOL    HW125808   1.219   4.877   3.709
 8303SOL    HW225809   1.267   5.010   3.628
 8304SOL     OW25810   5.366   3.053   3.687
 8304SOL    HW125811   5.428   2.977   3.668
 8304SOL    HW225812   5.406   3.138   3.653
 8305SOL     OW25813   4.588   6.560   5.068
 8305SOL    HW125814   4.637   6.636   5.025
 8305SOL    HW225815   4.526   6.520   5.002
 8306SOL     OW25816   4.744   1.069   4.143
 8306SOL    HW125817   4.788   1.025   4.222
 8306SOL    HW225818   4.753   1.169   4.151
 8307SOL     OW25819   6.960   4.943   4.302
 8307SOL    HW125820   6.912   4.969   4.218
 8307SOL    HW225821   7.008   5.023   4.339
 8308SOL     OW25822   1.948   5.513   0.370
 8308SOL    HW125823   2.029   5.568   0.346
 8308SOL    HW225824   1.975   5.443   0.436
 8309SOL     OW25825   6.306   4.964   2.699
 8309SOL    HW125826   6.351   4.999   2.617
 8309SOL    HW225827   6.226   5.021   2.721
 8310SOL     OW25828   1.641   6.169   3.016
 8310SOL    HW125829   1.627   6.210   3.106
 8310SOL    HW225830   1.582   6.213   2.949
 8311SOL     OW25831   4.860   6.344   1.535
 8311SOL    HW125832   4.941   6.291   1.564
 8311SOL    HW225833   4.885   6.402   1.457
 8312SOL     OW25834   6.098   1.433   0.370
 8312SOL    HW125835   6.158   1.354   0.357
 8312SOL    HW225836   6.075   1.472   0.281
 8313SOL     OW25837   4.884   2.429   6.422
 8313SOL    HW125838   4.971   2.475   6.442
 8313SOL    HW225839   4.900   2.353   6.359
 8314SOL     OW25840   4.779   5.362   4.018
 8314SOL    HW125841   4.763   5.306   3.937
 8314SOL    HW225842   4.868   5.340   4.056
 8315SOL     OW25843   3.202   2.159   0.008
 8315SOL    HW125844   3.114   2.206   0.015
 8315SOL    HW225845   3.275   2.224   0.025
 8316SOL     OW25846   1.611   1.478   4.602
 8316SOL    HW125847   1.638   1.548   4.535
 8316SOL    HW225848   1.558   1.520   4.675
 8317SOL     OW25849   1.638   1.883   6.095
 8317SOL    HW125850   1.577   1.817   6.139
 8317SOL    HW225851   1.607   1.976   6.114
 8318SOL     OW25852   4.533   6.555   5.315
 8318SOL    HW125853   4.567   6.573   5.222
 8318SOL    HW225854   4.547   6.636   5.372
 8319SOL     OW25855   2.709   5.957   6.560
 8319SOL    HW125856   2.683   5.902   6.480
 8319SOL    HW225857   2.739   5.895   6.633
 8320SOL     OW25858   4.024   4.854   5.575
 8320SOL    HW125859   3.929   4.826   5.591
 8320SOL    HW225860   4.027   4.952   5.557
 8321SOL     OW25861   0.281   0.638   0.771
 8321SOL    HW125862   0.300   0.544   0.799
 8321SOL    HW225863   0.357   0.672   0.716
 8322SOL     OW25864   2.072   0.732   1.308
 8322SOL    HW125865   2.105   0.721   1.402
 8322SOL    HW225866   2.019   0.817   1.301
 8323SOL     OW25867   5.902   5.348   6.500
 8323SOL    HW125868   5.894   5.447   6.485
 8323SOL    HW225869   5.939   5.332   6.591
 8324SOL     OW25870   5.719   6.209   6.166
 8324SOL    HW125871   5.785   6.142   6.131
 8324SOL    HW225872   5.717   6.289   6.106
 8325SOL     OW25873   1.552   6.535   4.972
 8325SOL    HW125874   1.558   6.447   4.923
 8325SOL    HW225875   1.630   6.591   4.949
 8326SOL     OW25876   1.896   1.821   6.579
 8326SOL    HW125877   1.923   1.870   6.496
 8326SOL    HW225878   1.937   1.730   6.579
 8327SOL     OW25879   0.504   5.903   5.133
 8327SOL    HW125880   0.556   5.933   5.213
 8327SOL    HW225881   0.462   5.983   5.089
 8328SOL     OW25882   1.272   0.592   0.461
 8328SOL    HW125883   1.282   0.554   0.369
 8328SOL    HW225884   1.186   0.643   0.466
 8329SOL     OW25885   1.728   2.539   5.274
 8329SOL    HW125886   1.822   2.566   5.297
 8329SOL    HW225887   1.720   2.440   5.275
 8330SOL     OW25888   2.988   7.005   0.498
 8330SOL    HW125889   2.915   6.947   0.536
 8330SOL    HW225890   3.077   6.966   0.522
 8331SOL     OW25891   2.256   2.070   6.255
 8331SOL    HW125892   2.283   2.043   6.162
 8331SOL    HW225893   2.213   1.993   6.301
 8332SOL     OW25894   5.515   3.863   0.901
 8332SOL    HW125895   5.425   3.861   0.857
 8332SOL    HW225896   5.537   3.773   0.936
 8333SOL     OW25897   3.005   4.891   6.306
 8333SOL    HW125898   2.975   4.832   6.230
 8333SOL    HW225899   2.997   4.987   6.279
 8334SOL     OW25900   3.365   2.487   5.369
 8334SOL    HW125901   3.330   2.451   5.282
 8334SOL    HW225902   3.323   2.437   5.444
 8335SOL     OW25903   5.518   3.377   6.126
 8335SOL    HW125904   5.503   3.281   6.105
 8335SOL    HW225905   5.561   3.423   6.048
 8336SOL     OW25906   1.083   4.922   3.930
 8336SOL    HW125907   1.147   4.966   3.868
 8336SOL    HW225908   1.130   4.852   3.984
 8337SOL     OW25909   6.327   0.564   4.428
 8337SOL    HW125910   6.376   0.592   4.510
 8337SOL    HW225911   6.389   0.569   4.349
 8338SOL     OW25912   2.301   5.955   1.356
 8338SOL    HW125913   2.311   6.051   1.328
 8338SOL    HW225914   2.303   5.896   1.275
 8339SOL     OW25915   6.503   0.716   2.126
 8339SOL    HW125916   6.446   0.705   2.207
 8339SOL    HW225917   6.596   0.685   2.146
 8340SOL     OW25918   5.879   2.499   6.335
 8340SOL    HW125919   5.960   2.445   6.311
 8340SOL    HW225920   5.904   2.564   6.407
 8341SOL     OW25921   3.443   0.169   0.959
 8341SOL    HW125922   3.375   0.199   1.025
 8341SOL    HW225923   3.512   0.113   1.006
 8342SOL     OW25924   4.526   1.242   1.045
 8342SOL    HW125925   4.434   1.277   1.060
 8342SOL    HW225926   4.584   1.314   1.010
 8343SOL     OW25927   4.891   5.869   2.731
 8343SOL    HW125928   4.907   5.770   2.731
 8343SOL    HW225929   4.884   5.901   2.637
 8344SOL     OW25930   2.411   4.471   5.961
 8344SOL    HW125931   2.465   4.387   5.965
 8344SOL    HW225932   2.331   4.457   5.902
 8345SOL     OW25933   6.419   0.246   4.321
 8345SOL    HW125934   6.510   0.267   4.283
 8345SOL    HW225935   6.352   0.307   4.280
 8346SOL     OW25936   6.188   4.005   3.660
 8346SOL    HW125937   6.262   4.071   3.675
 8346SOL    HW225938   6.123   4.043   3.594
 8347SOL     OW25939   1.169   1.584   6.405
 8347SOL    HW125940   1.237   1.511   6.395
 8347SOL    HW225941   1.213   1.673   6.388
 8348SOL     OW25942   3.327   5.641   1.072
 8348SOL    HW125943   3.416   5.617   1.033
 8348SOL    HW225944   3.291   5.563   1.123
 8349SOL     OW25945   4.632   5.491   1.412
 8349SOL    HW125946   4.697   5.566   1.402
 8349SOL    HW225947   4.558   5.518   1.473
 8350SOL     OW25948   2.147   0.604   6.804
 8350SOL    HW125949   2.132   0.564   6.713
 8350SOL    HW225950   2.060   0.610   6.852
 8351SOL     OW25951   6.804   2.809   3.086
 8351SOL    HW125952   6.773   2.898   3.053
 8351SOL    HW225953   6.803   2.807   3.186
 8352SOL     OW25954   2.816   6.793   6.631
 8352SOL    HW125955   2.804   6.776   6.533
 8352SOL    HW225956   2.898   6.747   6.663
 8353SOL     OW25957   0.554   5.651   2.774
 8353SOL    HW125958   0.550   5.642   2.873
 8353SOL    HW225959   0.649   5.652   2.744
 8354SOL     OW25960   4.451   2.133   3.917
 8354SOL    HW125961   4.526   2.185   3.876
 8354SOL    HW225962   4.414   2.069   3.849
 8355SOL     OW25963   3.100   5.159   6.339
 8355SOL    HW125964   3.157   5.109   6.273
 8355SOL    HW225965   3.146   5.244   6.364
 8356SOL     OW25966   2.809   3.618   1.498
 8356SOL    HW125967   2.774   3.552   1.431
 8356SOL    HW225968   2.733   3.654   1.552
 8357SOL     OW25969   2.949   6.868   4.843
 8357SOL    HW125970   2.930   6.790   4.785
 8357SOL    HW225971   3.024   6.922   4.805
 8358SOL     OW25972   6.947   0.023   4.726
 8358SOL    HW125973   6.945   0.116   4.689
 8358SOL    HW225974   0.014   7.025   4.753
 8359SOL     OW25975   4.872   2.031   5.324
 8359SOL    HW125976   4.912   1.969   5.391
 8359SOL    HW225977   4.917   2.120   5.330
 8360SOL     OW25978   2.981   0.327   1.899
 8360SOL    HW125979   2.974   0.229   1.918
 8360SOL    HW225980   2.966   0.343   1.801
 8361SOL     OW25981   4.790   1.242   6.969
 8361SOL    HW125982   4.771   1.321   6.911
 8361SOL    HW225983   4.820   1.273   0.034
 8362SOL     OW25984   0.913   4.306   1.332
 8362SOL    HW125985   0.844   4.376   1.314
 8362SOL    HW225986   0.964   4.330   1.415
 8363SOL     OW25987   2.136   2.172   1.174
 8363SOL    HW125988   2.146   2.155   1.272
 8363SOL    HW225989   2.058   2.121   1.139
 8364SOL     OW25990   0.445   1.370   3.599
 8364SOL    HW125991   0.523   1.389   3.540
 8364SOL    HW225992   0.368   1.338   3.543
 8365SOL     OW25993   2.024   3.048   1.087
 8365SOL    HW125994   2.071   2.981   1.030
 8365SOL    HW225995   2.025   3.017   1.182
 8366SOL     OW25996   5.274   5.699   1.834
 8366SOL    HW125997   5.310   5.682   1.926
 8366SOL    HW225998   5.177   5.723   1.840
 8367SOL     OW25999   2.083   4.173   3.443
 8367SOL    HW126000   2.015   4.219   3.500
 8367SOL    HW226001   2.173   4.215   3.459
 8368SOL     OW26002   0.514   3.688   6.618
 8368SOL    HW126003   0.466   3.718   6.535
 8368SOL    HW226004   0.519   3.763   6.683
 8369SOL     OW26005   1.049   0.057   0.251
 8369SOL    HW126006   1.129   0.007   0.285
 8369SOL    HW226007   0.982   7.017   0.216
 8370SOL     OW26008   3.068   3.338   0.613
 8370SOL    HW126009   3.120   3.253   0.623
 8370SOL    HW226010   3.005   3.349   0.689
 8371SOL     OW26011   3.032   3.922   5.521
 8371SOL    HW126012   3.024   4.019   5.543
 8371SOL    HW226013   3.099   3.879   5.582
 8372SOL     OW26014   1.558   6.768   2.380
 8372SOL    HW126015   1.588   6.857   2.414
 8372SOL    HW226016   1.512   6.779   2.292
 8373SOL     OW26017   5.437   0.949   3.767
 8373SOL    HW126018   5.447   0.977   3.863
 8373SOL    HW226019   5.477   0.859   3.755
 8374SOL     OW26020   0.905   1.923   3.386
 8374SOL    HW126021   0.999   1.889   3.394
 8374SOL    HW226022   0.872   1.948   3.477
 8375SOL     OW26023   1.698   2.751   5.445
 8375SOL    HW126024   1.680   2.660   5.407
 8375SOL    HW226025   1.746   2.806   5.376
 8376SOL     OW26026   0.674   1.835   4.316
 8376SOL    HW126027   0.745   1.780   4.273
 8376SOL    HW226028   0.621   1.778   4.379
 8377SOL     OW26029   3.017   5.263   1.329
 8377SOL    HW126030   3.028   5.209   1.413
 8377SOL    HW226031   3.092   5.243   1.266
 8378SOL     OW26032   4.264   5.346   4.518
 8378SOL    HW126033   4.327   5.347   4.441
 8378SOL    HW226034   4.313   5.371   4.602
 8379SOL     OW26035   5.810   2.646   2.104
 8379SOL    HW126036   5.714   2.672   2.096
 8379SOL    HW226037   5.867   2.728   2.094
 8380SOL     OW26038   1.591   5.483   2.617
 8380SOL    HW126039   1.499   5.460   2.650
 8380SOL    HW226040   1.599   5.582   2.607
 8381SOL     OW26041   1.314   2.132   2.793
 8381SOL    HW126042   1.322   2.203   2.862
 8381SOL    HW226043   1.390   2.067   2.803
 8382SOL     OW26044   1.057   6.706   1.685
 8382SOL    HW126045   1.102   6.651   1.756
 8382SOL    HW226046   1.126   6.758   1.634
 8383SOL     OW26047   2.257   0.024   5.172
 8383SOL    HW126048   2.303   7.024   5.256
 8383SOL    HW226049   2.320   0.074   5.113
 8384SOL     OW26050   0.450   3.227   3.763
 8384SOL    HW126051   0.410   3.256   3.677
 8384SOL    HW226052   0.437   3.299   3.832
 8385SOL     OW26053   4.432   2.401   2.156
 8385SOL    HW126054   4.338   2.372   2.175
 8385SOL    HW226055   4.432   2.460   2.075
 8386SOL     OW26056   0.205   5.204   1.750
 8386SOL    HW126057   0.291   5.222   1.703
 8386SOL    HW226058   0.210   5.239   1.844
 8387SOL     OW26059   0.304   2.012   3.313
 8387SOL    HW126060   0.356   2.035   3.395
 8387SOL    HW226061   0.280   2.096   3.264
 8388SOL     OW26062   3.840   5.755   1.599
 8388SOL    HW126063   3.792   5.669   1.616
 8388SOL    HW226064   3.800   5.827   1.656
 8389SOL     OW26065   1.483   2.546   4.770
 8389SOL    HW126066   1.560   2.543   4.834
 8389SOL    HW226067   1.499   2.616   4.701
 8390SOL     OW26068   2.678   0.340   6.434
 8390SOL    HW126069   2.726   0.363   6.349
 8390SOL    HW226070   2.682   0.419   6.496
 8391SOL     OW26071   4.752   6.275   0.885
 8391SOL    HW126072   4.681   6.340   0.859
 8391SOL    HW226073   4.713   6.183   0.893
 8392SOL     OW26074   3.937   5.254   0.322
 8392SOL    HW126075   3.977   5.176   0.369
 8392SOL    HW226076   3.903   5.320   0.389
 8393SOL     OW26077   1.105   5.727   2.003
 8393SOL    HW126078   1.128   5.798   1.936
 8393SOL    HW226079   1.189   5.694   2.046
 8394SOL     OW26080   1.547   1.416   3.320
 8394SOL    HW126081   1.533   1.514   3.334
 8394SOL    HW226082   1.460   1.368   3.336
 8395SOL     OW26083   2.015   6.133   6.407
 8395SOL    HW126084   1.969   6.187   6.338
 8395SOL    HW226085   2.025   6.039   6.375
 8396SOL     OW26086   4.290   2.597   1.207
 8396SOL    HW126087   4.269   2.685   1.248
 8396SOL    HW226088   4.296   2.607   1.107
 8397SOL     OW26089   1.253   4.405   3.398
 8397SOL    HW126090   1.316   4.328   3.385
 8397SOL    HW226091   1.222   4.408   3.493
 8398SOL     OW26092   5.376   1.554   6.621
 8398SOL    HW126093   5.318   1.537   6.541
 8398SOL    HW226094   5.364   1.481   6.688
 8399SOL     OW26095   5.602   6.512   5.475
 8399SOL    HW126096   5.620   6.546   5.383
 8399SOL    HW226097   5.582   6.414   5.471
 8400SOL     OW26098   6.259   6.303   3.670
 8400SOL    HW126099   6.314   6.273   3.747
 8400SOL    HW226100   6.225   6.396   3.688
 8401SOL     OW26101   2.917   3.717   4.831
 8401SOL    HW126102   2.905   3.666   4.746
 8401SOL    HW226103   2.932   3.814   4.809
 8402SOL     OW26104   4.789   0.780   5.526
 8402SOL    HW126105   4.742   0.712   5.582
 8402SOL    HW226106   4.886   0.781   5.551
 8403SOL     OW26107   1.021   2.704   5.946
 8403SOL    HW126108   1.121   2.704   5.942
 8403SOL    HW226109   0.991   2.733   6.037
 8404SOL     OW26110   4.607   5.192   5.805
 8404SOL    HW126111   4.601   5.273   5.745
 8404SOL    HW226112   4.515   5.159   5.826
 8405SOL     OW26113   1.506   2.462   5.570
 8405SOL    HW126114   1.479   2.480   5.665
 8405SOL    HW226115   1.429   2.479   5.509
 8406SOL     OW26116   5.771   3.353   1.515
 8406SOL    HW126117   5.699   3.291   1.546
 8406SOL    HW226118   5.765   3.439   1.565
 8407SOL     OW26119   4.901   3.643   2.647
 8407SOL    HW126120   4.928   3.700   2.570
 8407SOL    HW226121   4.880   3.702   2.726
 8408SOL     OW26122   4.964   4.067   4.025
 8408SOL    HW126123   4.913   3.998   4.076
 8408SOL    HW226124   5.054   4.079   4.065
 8409SOL     OW26125   1.595   1.758   3.957
 8409SOL    HW126126   1.570   1.836   3.900
 8409SOL    HW226127   1.531   1.750   4.033
 8410SOL     OW26128   1.958   5.247   2.640
 8410SOL    HW126129   1.916   5.219   2.727
 8410SOL    HW226130   2.055   5.224   2.641
 8411SOL     OW26131   1.525   3.250   3.117
 8411SOL    HW126132   1.533   3.306   3.034
 8411SOL    HW226133   1.431   3.254   3.151
 8412SOL     OW26134   6.269   2.783   2.137
 8412SOL    HW126135   6.275   2.737   2.225
 8412SOL    HW226136   6.295   2.879   2.147
 8413SOL     OW26137   2.234   5.207   0.928
 8413SOL    HW126138   2.246   5.295   0.881
 8413SOL    HW226139   2.156   5.159   0.889
 8414SOL     OW26140   5.595   0.281   3.863
 8414SOL    HW126141   5.625   0.376   3.866
 8414SOL    HW226142   5.637   0.231   3.938
 8415SOL     OW26143   0.173   4.867   0.994
 8415SOL    HW126144   0.198   4.926   0.918
 8415SOL    HW226145   0.256   4.831   1.038
 8416SOL     OW26146   4.495   4.625   2.787
 8416SOL    HW126147   4.505   4.551   2.720
 8416SOL    HW226148   4.446   4.701   2.746
 8417SOL     OW26149   1.155   5.449   0.282
 8417SOL    HW126150   1.074   5.475   0.335
 8417SOL    HW226151   1.229   5.426   0.344
 8418SOL     OW26152   5.593   5.635   2.487
 8418SOL    HW126153   5.669   5.701   2.488
 8418SOL    HW226154   5.507   5.682   2.505
 8419SOL     OW26155   4.024   0.808   3.830
 8419SOL    HW126156   4.032   0.907   3.816
 8419SOL    HW226157   3.929   0.780   3.817
 8420SOL     OW26158   4.312   1.874   5.521
 8420SOL    HW126159   4.242   1.942   5.544
 8420SOL    HW226160   4.308   1.854   5.423
 8421SOL     OW26161   0.696   1.375   0.908
 8421SOL    HW126162   0.679   1.449   0.842
 8421SOL    HW226163   0.777   1.323   0.880
 8422SOL     OW26164   2.671   0.440   1.789
 8422SOL    HW126165   2.671   0.409   1.885
 8422SOL    HW226166   2.658   0.361   1.729
 8423SOL     OW26167   2.133   4.424   0.901
 8423SOL    HW126168   2.094   4.392   0.815
 8423SOL    HW226169   2.217   4.374   0.920
 8424SOL     OW26170   3.039   2.459   1.497
 8424SOL    HW126171   3.039   2.375   1.552
 8424SOL    HW226172   2.979   2.527   1.539
 8425SOL     OW26173   0.254   4.633   5.950
 8425SOL    HW126174   0.283   4.688   5.872
 8425SOL    HW226175   0.281   4.537   5.935
 8426SOL     OW26176   3.332   3.332   2.537
 8426SOL    HW126177   3.321   3.429   2.558
 8426SOL    HW226178   3.349   3.321   2.439
 8427SOL     OW26179   2.020   2.222   0.145
 8427SOL    HW126180   2.109   2.177   0.142
 8427SOL    HW226181   2.033   2.322   0.145
 8428SOL     OW26182   6.428   4.105   0.636
 8428SOL    HW126183   6.397   4.170   0.705
 8428SOL    HW226184   6.522   4.077   0.656
 8429SOL     OW26185   1.477   6.701   2.992
 8429SOL    HW126186   1.422   6.785   2.990
 8429SOL    HW226187   1.571   6.723   3.016
 8430SOL     OW26188   4.103   5.397   2.719
 8430SOL    HW126189   4.198   5.420   2.740
 8430SOL    HW226190   4.100   5.313   2.665
 8431SOL     OW26191   2.912   3.491   2.684
 8431SOL    HW126192   2.894   3.512   2.781
 8431SOL    HW226193   2.962   3.405   2.678
 8432SOL     OW26194   4.728   6.320   0.036
 8432SOL    HW126195   4.729   6.223   0.011
 8432SOL    HW226196   4.658   6.335   0.105
 8433SOL     OW26197   0.006   1.316   3.712
 8433SOL    HW126198   6.961   1.387   3.705
 8433SOL    HW226199   0.018   1.272   3.623
 8434SOL     OW26200   5.679   6.956   6.396
 8434SOL    HW126201   5.751   6.967   6.465
 8434SOL    HW226202   5.619   6.880   6.422
 8435SOL     OW26203   4.650   2.754   0.958
 8435SOL    HW126204   4.708   2.700   1.018
 8435SOL    HW226205   4.706   2.798   0.888
 8436SOL     OW26206   3.037   4.390   1.699
 8436SOL    HW126207   2.995   4.463   1.754
 8436SOL    HW226208   3.027   4.411   1.602
 8437SOL     OW26209   6.943   2.599   1.080
 8437SOL    HW126210   6.890   2.576   1.161
 8437SOL    HW226211   6.890   2.578   0.998
 8438SOL     OW26212   2.200   5.543   1.174
 8438SOL    HW126213   2.284   5.519   1.222
 8438SOL    HW226214   2.125   5.485   1.206
 8439SOL     OW26215   5.466   0.472   1.669
 8439SOL    HW126216   5.451   0.507   1.577
 8439SOL    HW226217   5.378   0.456   1.714
 8440SOL     OW26218   1.271   3.063   4.260
 8440SOL    HW126219   1.237   2.970   4.275
 8440SOL    HW226220   1.351   3.078   4.317
 8441SOL     OW26221   4.295   5.989   1.371
 8441SOL    HW126222   4.209   6.037   1.351
 8441SOL    HW226223   4.343   6.037   1.444
 8442SOL     OW26224   2.236   2.240   0.946
 8442SOL    HW126225   2.199   2.325   0.908
 8442SOL    HW226226   2.195   2.223   1.036
 8443SOL     OW26227   0.014   1.944   1.349
 8443SOL    HW126228   6.991   2.030   1.364
 8443SOL    HW226229   0.009   1.918   1.253
 8444SOL     OW26230   5.061   1.858   3.057
 8444SOL    HW126231   4.970   1.829   3.089
 8444SOL    HW226232   5.062   1.957   3.046
 8445SOL     OW26233   5.175   5.432   1.988
 8445SOL    HW126234   5.270   5.428   2.017
 8445SOL    HW226235   5.123   5.487   2.053
 8446SOL     OW26236   6.584   3.776   3.053
 8446SOL    HW126237   6.525   3.788   2.973
 8446SOL    HW226238   6.577   3.682   3.086
 8447SOL     OW26239   4.583   4.543   1.502
 8447SOL    HW126240   4.645   4.605   1.551
 8447SOL    HW226241   4.564   4.463   1.558
 8448SOL     OW26242   2.095   4.139   5.807
 8448SOL    HW126243   2.181   4.114   5.762
 8448SOL    HW226244   2.050   4.057   5.841
 8449SOL     OW26245   1.043   0.433   5.075
 8449SOL    HW126246   0.991   0.347   5.064
 8449SOL    HW226247   1.031   0.467   5.169
 8450SOL     OW26248   1.802   5.634   1.106
 8450SOL    HW126249   1.828   5.730   1.099
 8450SOL    HW226250   1.705   5.624   1.086
 8451SOL     OW26251   2.844   3.720   0.465
 8451SOL    HW126252   2.941   3.745   0.458
 8451SOL    HW226253   2.790   3.779   0.404
 8452SOL     OW26254   0.201   5.890   1.776
 8452SOL    HW126255   0.109   5.928   1.770
 8452SOL    HW226256   0.206   5.828   1.855
 8453SOL     OW26257   6.889   4.966   5.163
 8453SOL    HW126258   6.964   5.024   5.193
 8453SOL    HW226259   6.904   4.939   5.068
 8454SOL     OW26260   2.069   0.167   5.058
 8454SOL    HW126261   2.136   0.105   5.100
 8454SOL    HW226262   2.061   0.145   4.961
 8455SOL     OW26263   6.459   3.313   0.660
 8455SOL    HW126264   6.558   3.317   0.669
 8455SOL    HW226265   6.416   3.346   0.745
 8456SOL     OW26266   5.480   5.077   3.767
 8456SOL    HW126267   5.563   5.022   3.773
 8456SOL    HW226268   5.405   5.030   3.813
 8457SOL     OW26269   6.823   6.287   5.607
 8457SOL    HW126270   6.761   6.360   5.634
 8457SOL    HW226271   6.903   6.326   5.562
 8458SOL     OW26272   1.341   1.835   1.042
 8458SOL    HW126273   1.363   1.787   1.127
 8458SOL    HW226274   1.385   1.925   1.043
 8459SOL     OW26275   2.514   5.276   3.465
 8459SOL    HW126276   2.574   5.336   3.518
 8459SOL    HW226277   2.532   5.288   3.367
 8460SOL     OW26278   3.387   1.452   1.648
 8460SOL    HW126279   3.303   1.502   1.668
 8460SOL    HW226280   3.432   1.493   1.569
 8461SOL     OW26281   5.281   4.030   3.305
 8461SOL    HW126282   5.341   4.026   3.225
 8461SOL    HW226283   5.336   4.023   3.388
 8462SOL     OW26284   1.774   3.900   0.593
 8462SOL    HW126285   1.684   3.920   0.554
 8462SOL    HW226286   1.770   3.814   0.643
 8463SOL     OW26287   0.323   0.017   1.226
 8463SOL    HW126288   0.294   0.067   1.308
 8463SOL    HW226289   0.422   0.001   1.232
 8464SOL     OW26290   6.890   2.900   6.654
 8464SOL    HW126291   6.979   2.946   6.656
 8464SOL    HW226292   6.824   2.953   6.708
 8465SOL     OW26293   5.424   4.579   0.778
 8465SOL    HW126294   5.464   4.501   0.827
 8465SOL    HW226295   5.328   4.560   0.757
 8466SOL     OW26296   0.467   1.657   5.336
 8466SOL    HW126297   0.474   1.751   5.370
 8466SOL    HW226298   0.549   1.635   5.283
 8467SOL     OW26299   3.161   1.332   0.485
 8467SOL    HW126300   3.180   1.422   0.447
 8467SOL    HW226301   3.106   1.341   0.568
 8468SOL     OW26302   5.861   4.149   0.314
 8468SOL    HW126303   5.846   4.053   0.336
 8468SOL    HW226304   5.899   4.156   0.222
 8469SOL     OW26305   3.364   2.863   5.180
 8469SOL    HW126306   3.401   2.915   5.104
 8469SOL    HW226307   3.265   2.880   5.187
 8470SOL     OW26308   1.674   5.501   1.406
 8470SOL    HW126309   1.772   5.504   1.385
 8470SOL    HW226310   1.660   5.472   1.500
 8471SOL     OW26311   4.103   1.395   3.469
 8471SOL    HW126312   4.108   1.306   3.424
 8471SOL    HW226313   4.171   1.399   3.543
 8472SOL     OW26314   5.712   2.087   6.539
 8472SOL    HW126315   5.663   2.098   6.453
 8472SOL    HW226316   5.657   2.034   6.603
 8473SOL     OW26317   5.080   4.851   5.878
 8473SOL    HW126318   5.103   4.948   5.873
 8473SOL    HW226319   5.058   4.817   5.786
 8474SOL     OW26320   3.311   3.763   5.811
 8474SOL    HW126321   3.292   3.685   5.870
 8474SOL    HW226322   3.404   3.796   5.830
 8475SOL     OW26323   0.594   2.628   2.706
 8475SOL    HW126324   0.652   2.640   2.625
 8475SOL    HW226325   0.498   2.637   2.679
 8476SOL     OW26326   6.482   1.003   2.309
 8476SOL    HW126327   6.413   0.940   2.274
 8476SOL    HW226328   6.495   1.077   2.243
 8477SOL     OW26329   5.650   0.339   0.939
 8477SOL    HW126330   5.628   0.265   0.876
 8477SOL    HW226331   5.629   0.427   0.897
 8478SOL     OW26332   1.309   6.703   6.304
 8478SOL    HW126333   1.381   6.676   6.240
 8478SOL    HW226334   1.349   6.717   6.395
 8479SOL     OW26335   0.857   2.788   0.101
 8479SOL    HW126336   0.864   2.750   0.194
 8479SOL    HW226337   0.769   2.763   0.061
 8480SOL     OW26338   3.034   4.487   1.444
 8480SOL    HW126339   2.955   4.534   1.404
 8480SOL    HW226340   3.062   4.413   1.383
 8481SOL     OW26341   4.859   3.374   2.658
 8481SOL    HW126342   4.880   3.472   2.652
 8481SOL    HW226343   4.855   3.347   2.754
 8482SOL     OW26344   4.845   0.309   6.034
 8482SOL    HW126345   4.795   0.393   6.013
 8482SOL    HW226346   4.792   0.230   6.003
 8483SOL     OW26347   4.094   5.072   3.349
 8483SOL    HW126348   4.191   5.089   3.366
 8483SOL    HW226349   4.082   4.979   3.315
 8484SOL     OW26350   6.615   6.615   5.168
 8484SOL    HW126351   6.662   6.610   5.081
 8484SOL    HW226352   6.548   6.541   5.175
 8485SOL     OW26353   4.122   0.718   5.751
 8485SOL    HW126354   4.149   0.666   5.831
 8485SOL    HW226355   4.171   0.806   5.749
 8486SOL     OW26356   4.948   2.034   4.169
 8486SOL    HW126357   4.889   2.074   4.239
 8486SOL    HW226358   4.912   1.944   4.142
 8487SOL     OW26359   6.726   2.080   6.603
 8487SOL    HW126360   6.704   1.986   6.578
 8487SOL    HW226361   6.789   2.119   6.535
 8488SOL     OW26362   3.821   4.876   2.456
 8488SOL    HW126363   3.777   4.869   2.367
 8488SOL    HW226364   3.766   4.935   2.516
 8489SOL     OW26365   6.554   1.818   1.992
 8489SOL    HW126366   6.625   1.883   1.966
 8489SOL    HW226367   6.518   1.841   2.082
 8490SOL     OW26368   3.259   6.686   0.415
 8490SOL    HW126369   3.346   6.706   0.370
 8490SOL    HW226370   3.240   6.588   0.408
 8491SOL     OW26371   3.474   5.728   2.271
 8491SOL    HW126372   3.500   5.636   2.241
 8491SOL    HW226373   3.399   5.761   2.214
 8492SOL     OW26374   5.634   6.431   3.851
 8492SOL    HW126375   5.656   6.521   3.813
 8492SOL    HW226376   5.710   6.398   3.906
 8493SOL     OW26377   5.213   0.570   5.499
 8493SOL    HW126378   5.255   0.585   5.588
 8493SOL    HW226379   5.243   0.482   5.463
 8494SOL     OW26380   0.126   3.241   2.083
 8494SOL    HW126381   0.093   3.311   2.019
 8494SOL    HW226382   0.112   3.273   2.177
 8495SOL     OW26383   5.646   5.949   5.410
 8495SOL    HW126384   5.629   5.851   5.404
 8495SOL    HW226385   5.727   5.966   5.467
 8496SOL     OW26386   4.479   1.779   2.479
 8496SOL    HW126387   4.540   1.701   2.468
 8496SOL    HW226388   4.531   1.864   2.468
 8497SOL     OW26389   6.073   0.773   2.896
 8497SOL    HW126390   6.094   0.707   2.823
 8497SOL    HW226391   6.159   0.814   2.929
 8498SOL     OW26392   4.453   6.419   4.160
 8498SOL    HW126393   4.368   6.464   4.186
 8498SOL    HW226394   4.440   6.320   4.160
 8499SOL     OW26395   6.239   0.060   5.192
 8499SOL    HW126396   6.322   0.065   5.249
 8499SOL    HW226397   6.189   0.145   5.200
 8500SOL     OW26398   1.278   0.519   6.652
 8500SOL    HW126399   1.245   0.433   6.690
 8500SOL    HW226400   1.370   0.505   6.614
 8501SOL     OW26401   3.597   0.998   5.111
 8501SOL    HW126402   3.603   1.008   5.012
 8501SOL    HW226403   3.688   1.008   5.151
 8502SOL     OW26404   6.531   2.993   0.129
 8502SOL    HW126405   6.485   3.045   0.200
 8502SOL    HW226406   6.630   2.994   0.146
 8503SOL     OW26407   4.774   2.253   5.776
 8503SOL    HW126408   4.679   2.226   5.766
 8503SOL    HW226409   4.801   2.244   5.872
 8504SOL     OW26410   1.093   0.149   3.442
 8504SOL    HW126411   1.057   0.161   3.535
 8504SOL    HW226412   1.094   0.237   3.396
 8505SOL     OW26413   5.665   2.059   2.306
 8505SOL    HW126414   5.591   2.030   2.245
 8505SOL    HW226415   5.661   2.158   2.318
 8506SOL     OW26416   1.946   0.853   5.571
 8506SOL    HW126417   1.960   0.834   5.668
 8506SOL    HW226418   1.904   0.774   5.527
 8507SOL     OW26419   4.238   4.632   5.825
 8507SOL    HW126420   4.325   4.591   5.797
 8507SOL    HW226421   4.224   4.717   5.775
 8508SOL     OW26422   3.807   0.558   6.409
 8508SOL    HW126423   3.889   0.605   6.441
 8508SOL    HW226424   3.735   0.625   6.389
 8509SOL     OW26425   4.614   2.296   2.371
 8509SOL    HW126426   4.602   2.378   2.315
 8509SOL    HW226427   4.541   2.291   2.439
 8510SOL     OW26428   1.036   2.189   4.821
 8510SOL    HW126429   1.120   2.144   4.851
 8510SOL    HW226430   0.957   2.142   4.861
 8511SOL     OW26431   5.585   2.081   3.772
 8511SOL    HW126432   5.671   2.131   3.760
 8511SOL    HW226433   5.510   2.146   3.779
 8512SOL     OW26434   1.880   6.390   5.519
 8512SOL    HW126435   1.799   6.442   5.545
 8512SOL    HW226436   1.893   6.314   5.583
 8513SOL     OW26437   4.455   5.154   0.065
 8513SOL    HW126438   4.372   5.133   0.012
 8513SOL    HW226439   4.535   5.132   0.010
 8514SOL     OW26440   3.344   5.917   4.804
 8514SOL    HW126441   3.251   5.939   4.773
 8514SOL    HW226442   3.386   5.851   4.741
 8515SOL     OW26443   5.411   2.872   1.839
 8515SOL    HW126444   5.481   2.928   1.793
 8515SOL    HW226445   5.405   2.900   1.934
 8516SOL     OW26446   6.993   1.676   1.406
 8516SOL    HW126447   7.023   1.632   1.321
 8516SOL    HW226448   7.015   1.774   1.403
 8517SOL     OW26449   1.447   3.667   4.644
 8517SOL    HW126450   1.481   3.718   4.724
 8517SOL    HW226451   1.364   3.617   4.670
 8518SOL     OW26452   3.252   5.881   1.016
 8518SOL    HW126453   3.337   5.921   0.980
 8518SOL    HW226454   3.271   5.788   1.049
 8519SOL     OW26455   2.699   5.450   3.545
 8519SOL    HW126456   2.714   5.535   3.596
 8519SOL    HW226457   2.773   5.438   3.479
 8520SOL     OW26458   3.630   6.409   6.603
 8520SOL    HW126459   3.575   6.328   6.625
 8520SOL    HW226460   3.685   6.434   6.683
 8521SOL     OW26461   1.440   0.992   2.444
 8521SOL    HW126462   1.485   1.046   2.372
 8521SOL    HW226463   1.509   0.940   2.494
 8522SOL     OW26464   1.930   6.528   4.642
 8522SOL    HW126465   1.869   6.599   4.608
 8522SOL    HW226466   2.024   6.563   4.643
 8523SOL     OW26467   1.985   6.228   6.989
 8523SOL    HW126468   2.021   6.299   0.025
 8523SOL    HW226469   1.972   6.267   6.898
 8524SOL     OW26470   1.700   1.598   0.266
 8524SOL    HW126471   1.677   1.523   0.204
 8524SOL    HW226472   1.723   1.679   0.212
 8525SOL     OW26473   5.278   4.112   4.112
 8525SOL    HW126474   5.229   4.193   4.144
 8525SOL    HW226475   5.312   4.060   4.190
 8526SOL     OW26476   0.868   3.639   1.776
 8526SOL    HW126477   0.877   3.713   1.709
 8526SOL    HW226478   0.783   3.652   1.828
 8527SOL     OW26479   4.734   0.287   4.450
 8527SOL    HW126480   4.783   0.308   4.535
 8527SOL    HW226481   4.734   0.368   4.392
 8528SOL     OW26482   5.399   0.672   0.412
 8528SOL    HW126483   5.323   0.692   0.350
 8528SOL    HW226484   5.374   0.596   0.472
 8529SOL     OW26485   6.937   6.787   4.895
 8529SOL    HW126486   0.010   6.788   4.912
 8529SOL    HW226487   6.910   6.871   4.847
 8530SOL     OW26488   2.046   4.604   6.300
 8530SOL    HW126489   2.096   4.518   6.306
 8530SOL    HW226490   1.979   4.599   6.226
 8531SOL     OW26491   4.036   5.381   2.000
 8531SOL    HW126492   3.967   5.310   2.010
 8531SOL    HW226493   4.000   5.454   1.942
 8532SOL     OW26494   1.401   4.089   6.841
 8532SOL    HW126495   1.480   4.067   6.899
 8532SOL    HW226496   1.337   4.011   6.842
 8533SOL     OW26497   3.396   6.663   5.626
 8533SOL    HW126498   3.396   6.597   5.701
 8533SOL    HW226499   3.339   6.741   5.650
 8534SOL     OW26500   2.007   2.058   0.686
 8534SOL    HW126501   2.092   2.039   0.735
 8534SOL    HW226502   1.929   2.030   0.741
 8535SOL     OW26503   0.636   3.327   5.904
 8535SOL    HW126504   0.650   3.425   5.921
 8535SOL    HW226505   0.712   3.276   5.944
 8536SOL     OW26506   6.336   0.157   6.246
 8536SOL    HW126507   6.427   0.134   6.210
 8536SOL    HW226508   6.281   0.199   6.175
 8537SOL     OW26509   4.122   6.253   2.984
 8537SOL    HW126510   4.025   6.277   2.991
 8537SOL    HW226511   4.132   6.168   2.933
 8538SOL     OW26512   4.612   0.427   5.277
 8538SOL    HW126513   4.709   0.444   5.264
 8538SOL    HW226514   4.560   0.508   5.248
 8539SOL     OW26515   0.714   3.118   3.403
 8539SOL    HW126516   0.715   3.199   3.463
 8539SOL    HW226517   0.665   3.140   3.319
 8540SOL     OW26518   4.807   6.415   6.370
 8540SOL    HW126519   4.771   6.326   6.341
 8540SOL    HW226520   4.863   6.454   6.297
 8541SOL     OW26521   2.867   6.133   5.808
 8541SOL    HW126522   2.825   6.075   5.738
 8541SOL    HW226523   2.884   6.079   5.890
 8542SOL     OW26524   1.866   4.661   6.073
 8542SOL    HW126525   1.833   4.749   6.106
 8542SOL    HW226526   1.789   4.599   6.062
 8543SOL     OW26527   3.467   1.899   5.546
 8543SOL    HW126528   3.519   1.842   5.483
 8543SOL    HW226529   3.381   1.927   5.503
 8544SOL     OW26530   5.719   3.658   5.257
 8544SOL    HW126531   5.727   3.682   5.161
 8544SOL    HW226532   5.667   3.573   5.266
 8545SOL     OW26533   2.555   0.628   6.275
 8545SOL    HW126534   2.475   0.658   6.327
 8545SOL    HW226535   2.532   0.547   6.221
 8546SOL     OW26536   3.025   1.090   3.593
 8546SOL    HW126537   3.060   1.034   3.518
 8546SOL    HW226538   3.024   1.186   3.566
 8547SOL     OW26539   5.804   6.009   5.759
 8547SOL    HW126540   5.841   6.030   5.850
 8547SOL    HW226541   5.860   5.938   5.716
 8548SOL     OW26542   1.363   4.309   4.089
 8548SOL    HW126543   1.383   4.219   4.127
 8548SOL    HW226544   1.363   4.377   4.163
 8549SOL     OW26545   2.742   0.489   3.882
 8549SOL    HW126546   2.824   0.523   3.928
 8549SOL    HW226547   2.690   0.432   3.945
 8550SOL     OW26548   0.147   4.017   4.984
 8550SOL    HW126549   0.102   4.036   4.896
 8550SOL    HW226550   0.154   3.919   4.997
 8551SOL     OW26551   3.901   1.386   4.326
 8551SOL    HW126552   3.876   1.334   4.407
 8551SOL    HW226553   3.998   1.371   4.306
 8552SOL     OW26554   3.909   1.915   2.300
 8552SOL    HW126555   3.850   1.837   2.280
 8552SOL    HW226556   3.882   1.993   2.244
 8553SOL     OW26557   5.281   3.659   0.359
 8553SOL    HW126558   5.248   3.573   0.397
 8553SOL    HW226559   5.300   3.723   0.433
 8554SOL     OW26560   1.188   1.239   6.629
 8554SOL    HW126561   1.242   1.291   6.695
 8554SOL    HW226562   1.119   1.298   6.588
 8555SOL     OW26563   3.068   1.941   3.498
 8555SOL    HW126564   2.993   1.875   3.508
 8555SOL    HW226565   3.050   2.001   3.420
 8556SOL     OW26566   0.287   4.716   5.313
 8556SOL    HW126567   0.206   4.724   5.372
 8556SOL    HW226568   0.363   4.678   5.366
 8557SOL     OW26569   6.346   0.917   0.493
 8557SOL    HW126570   6.286   0.993   0.519
 8557SOL    HW226571   6.333   0.841   0.557
 8558SOL     OW26572   2.652   6.580   3.487
 8558SOL    HW126573   2.732   6.626   3.447
 8558SOL    HW226574   2.682   6.507   3.547
 8559SOL     OW26575   1.105   3.220   3.456
 8559SOL    HW126576   1.043   3.158   3.503
 8559SOL    HW226577   1.072   3.314   3.465
 8560SOL     OW26578   3.333   4.220   1.432
 8560SOL    HW126579   3.329   4.120   1.420
 8560SOL    HW226580   3.308   4.244   1.525
 8561SOL     OW26581   4.088   0.630   2.044
 8561SOL    HW126582   4.062   0.636   2.141
 8561SOL    HW226583   4.187   0.641   2.036
 8562SOL     OW26584   5.129   2.521   6.480
 8562SOL    HW126585   5.115   2.598   6.542
 8562SOL    HW226586   5.147   2.556   6.388
 8563SOL     OW26587   1.162   4.649   3.027
 8563SOL    HW126588   1.201   4.686   2.943
 8563SOL    HW226589   1.212   4.685   3.106
 8564SOL     OW26590   4.069   6.321   6.888
 8564SOL    HW126591   4.111   6.238   6.851
 8564SOL    HW226592   4.128   6.400   6.869
 8565SOL     OW26593   1.160   5.137   1.533
 8565SOL    HW126594   1.111   5.221   1.557
 8565SOL    HW226595   1.251   5.161   1.499
 8566SOL     OW26596   3.093   0.985   3.333
 8566SOL    HW126597   3.114   0.918   3.261
 8566SOL    HW226598   3.127   1.075   3.305
 8567SOL     OW26599   1.764   3.049   0.882
 8567SOL    HW126600   1.736   2.973   0.823
 8567SOL    HW226601   1.823   3.014   0.955
 8568SOL     OW26602   5.602   6.435   5.743
 8568SOL    HW126603   5.635   6.454   5.651
 8568SOL    HW226604   5.526   6.496   5.765
 8569SOL     OW26605   4.845   1.648   6.451
 8569SOL    HW126606   4.901   1.710   6.505
 8569SOL    HW226607   4.887   1.633   6.362
 8570SOL     OW26608   1.474   1.945   3.796
 8570SOL    HW126609   1.480   1.952   3.697
 8570SOL    HW226610   1.531   2.016   3.838
 8571SOL     OW26611   1.075   1.038   3.473
 8571SOL    HW126612   1.073   0.979   3.554
 8571SOL    HW226613   1.151   1.102   3.481
 8572SOL     OW26614   2.774   3.511   5.572
 8572SOL    HW126615   2.737   3.520   5.480
 8572SOL    HW226616   2.806   3.601   5.604
 8573SOL     OW26617   1.687   5.938   6.375
 8573SOL    HW126618   1.660   5.986   6.292
 8573SOL    HW226619   1.714   5.845   6.353
 8574SOL     OW26620   5.659   1.754   5.526
 8574SOL    HW126621   5.595   1.687   5.491
 8574SOL    HW226622   5.750   1.738   5.486
 8575SOL     OW26623   2.603   6.239   4.464
 8575SOL    HW126624   2.533   6.251   4.534
 8575SOL    HW226625   2.618   6.142   4.448
 8576SOL     OW26626   1.625   3.639   5.294
 8576SOL    HW126627   1.634   3.561   5.232
 8576SOL    HW226628   1.562   3.706   5.255
 8577SOL     OW26629   1.415   0.916   0.515
 8577SOL    HW126630   1.362   0.956   0.441
 8577SOL    HW226631   1.486   0.980   0.545
 8578SOL     OW26632   1.053   0.232   5.953
 8578SOL    HW126633   1.077   0.181   5.871
 8578SOL    HW226634   0.955   0.223   5.971
 8579SOL     OW26635   3.566   6.872   2.003
 8579SOL    HW126636   3.624   6.885   2.083
 8579SOL    HW226637   3.510   6.953   1.988
 8580SOL     OW26638   2.089   0.658   1.847
 8580SOL    HW126639   2.079   0.559   1.863
 8580SOL    HW226640   2.137   0.699   1.924
 8581SOL     OW26641   4.119   3.636   2.935
 8581SOL    HW126642   4.116   3.680   2.845
 8581SOL    HW226643   4.148   3.541   2.924
 8582SOL     OW26644   4.245   5.708   5.551
 8582SOL    HW126645   4.166   5.747   5.503
 8582SOL    HW226646   4.290   5.641   5.492
 8583SOL     OW26647   3.557   6.993   3.177
 8583SOL    HW126648   3.616   0.034   3.132
 8583SOL    HW226649   3.498   0.014   3.243
 8584SOL     OW26650   5.982   2.355   5.279
 8584SOL    HW126651   5.887   2.362   5.246
 8584SOL    HW226652   6.025   2.275   5.240
 8585SOL     OW26653   4.790   2.361   2.587
 8585SOL    HW126654   4.759   2.452   2.561
 8585SOL    HW226655   4.773   2.297   2.512
 8586SOL     OW26656   6.811   6.441   5.266
 8586SOL    HW126657   6.761   6.358   5.241
 8586SOL    HW226658   6.774   6.519   5.216
 8587SOL     OW26659   6.591   0.816   0.883
 8587SOL    HW126660   6.660   0.750   0.913
 8587SOL    HW226661   6.630   0.909   0.887
 8588SOL     OW26662   1.423   1.128   5.611
 8588SOL    HW126663   1.349   1.183   5.649
 8588SOL    HW226664   1.391   1.034   5.596
 8589SOL     OW26665   5.842   3.017   6.489
 8589SOL    HW126666   5.903   2.939   6.493
 8589SOL    HW226667   5.880   3.092   6.544
 8590SOL     OW26668   1.463   1.127   2.894
 8590SOL    HW126669   1.393   1.142   2.964
 8590SOL    HW226670   1.432   1.167   2.808
 8591SOL     OW26671   1.455   4.297   5.191
 8591SOL    HW126672   1.427   4.273   5.284
 8591SOL    HW226673   1.521   4.230   5.158
 8592SOL     OW26674   0.387   2.300   5.243
 8592SOL    HW126675   0.345   2.294   5.334
 8592SOL    HW226676   0.316   2.314   5.175
 8593SOL     OW26677   6.496   1.454   0.436
 8593SOL    HW126678   6.544   1.407   0.361
 8593SOL    HW226679   6.495   1.395   0.517
 8594SOL     OW26680   5.941   4.085   6.333
 8594SOL    HW126681   6.031   4.047   6.354
 8594SOL    HW226682   5.919   4.157   6.400
 8595SOL     OW26683   5.596   6.330   2.636
 8595SOL    HW126684   5.618   6.420   2.674
 8595SOL    HW226685   5.530   6.340   2.562
 8596SOL     OW26686   0.240   2.142   5.767
 8596SOL    HW126687   0.185   2.070   5.808
 8596SOL    HW226688   0.326   2.152   5.816
 8597SOL     OW26689   6.018   2.365   5.719
 8597SOL    HW126690   5.999   2.275   5.681
 8597SOL    HW226691   5.945   2.428   5.691
 8598SOL     OW26692   0.063   0.916   6.300
 8598SOL    HW126693   7.006   0.889   6.250
 8598SOL    HW226694   0.128   0.959   6.236
 8599SOL     OW26695   5.622   4.000   4.947
 8599SOL    HW126696   5.535   3.954   4.961
 8599SOL    HW226697   5.606   4.096   4.926
 8600SOL     OW26698   4.086   3.168   1.496
 8600SOL    HW126699   4.071   3.221   1.579
 8600SOL    HW226700   4.126   3.227   1.426
 8601SOL     OW26701   4.800   5.657   2.452
 8601SOL    HW126702   4.760   5.700   2.371
 8601SOL    HW226703   4.734   5.594   2.492
 8602SOL     OW26704   2.155   6.262   4.916
 8602SOL    HW126705   2.114   6.206   4.987
 8602SOL    HW226706   2.101   6.346   4.904
 8603SOL     OW26707   0.798   1.362   6.701
 8603SOL    HW126708   0.868   1.395   6.638
 8603SOL    HW226709   0.832   1.281   6.750
 8604SOL     OW26710   1.425   5.358   6.254
 8604SOL    HW126711   1.471   5.272   6.278
 8604SOL    HW226712   1.356   5.379   6.324
 8605SOL     OW26713   6.468   4.443   3.893
 8605SOL    HW126714   6.491   4.353   3.856
 8605SOL    HW226715   6.374   4.442   3.927
 8606SOL     OW26716   1.128   0.461   6.378
 8606SOL    HW126717   1.226   0.442   6.389
 8606SOL    HW226718   1.116   0.541   6.319
 8607SOL     OW26719   2.897   2.982   1.598
 8607SOL    HW126720   2.841   2.899   1.596
 8607SOL    HW226721   2.848   3.053   1.650
 8608SOL     OW26722   2.241   5.758   1.782
 8608SOL    HW126723   2.163   5.819   1.768
 8608SOL    HW226724   2.301   5.796   1.853
 8609SOL     OW26725   5.263   2.104   4.489
 8609SOL    HW126726   5.200   2.028   4.471
 8609SOL    HW226727   5.357   2.072   4.480
 8610SOL     OW26728   6.974   5.385   2.373
 8610SOL    HW126729   6.916   5.344   2.443
 8610SOL    HW226730   6.953   5.345   2.284
 8611SOL     OW26731   1.896   1.628   5.140
 8611SOL    HW126732   1.847   1.550   5.099
 8611SOL    HW226733   1.989   1.599   5.165
 8612SOL     OW26734   3.288   3.026   5.555
 8612SOL    HW126735   3.247   3.056   5.469
 8612SOL    HW226736   3.360   2.960   5.538
 8613SOL     OW26737   3.164   3.192   3.474
 8613SOL    HW126738   3.206   3.113   3.429
 8613SOL    HW226739   3.196   3.197   3.569
 8614SOL     OW26740   0.624   2.518   4.123
 8614SOL    HW126741   0.668   2.596   4.168
 8614SOL    HW226742   0.644   2.435   4.174
 8615SOL     OW26743   3.839   0.793   5.397
 8615SOL    HW126744   3.741   0.778   5.411
 8615SOL    HW226745   3.863   0.770   5.303
 8616SOL     OW26746   6.062   4.130   5.567
 8616SOL    HW126747   6.016   4.145   5.655
 8616SOL    HW226748   6.161   4.142   5.579
 8617SOL     OW26749   1.037   6.849   3.270
 8617SOL    HW126750   1.119   6.800   3.241
 8617SOL    HW226751   1.030   6.847   3.370
 8618SOL     OW26752   6.175   4.683   0.684
 8618SOL    HW126753   6.146   4.625   0.607
 8618SOL    HW226754   6.216   4.767   0.649
 8619SOL     OW26755   5.075   5.574   6.569
 8619SOL    HW126756   5.087   5.475   6.560
 8619SOL    HW226757   5.164   5.618   6.576
 8620SOL     OW26758   1.450   6.755   3.927
 8620SOL    HW126759   1.406   6.798   4.005
 8620SOL    HW226760   1.389   6.687   3.887
 8621SOL     OW26761   6.363   3.495   1.392
 8621SOL    HW126762   6.294   3.483   1.321
 8621SOL    HW226763   6.383   3.406   1.434
 8622SOL     OW26764   0.996   5.772   1.596
 8622SOL    HW126765   1.084   5.771   1.549
 8622SOL    HW226766   0.994   5.849   1.661
 8623SOL     OW26767   2.078   2.085   3.118
 8623SOL    HW126768   2.015   2.015   3.152
 8623SOL    HW226769   2.160   2.041   3.081
 8624SOL     OW26770   3.519   3.726   5.334
 8624SOL    HW126771   3.560   3.635   5.337
 8624SOL    HW226772   3.449   3.734   5.405
 8625SOL     OW26773   4.592   3.095   5.892
 8625SOL    HW126774   4.526   3.036   5.846
 8625SOL    HW226775   4.585   3.188   5.856
 8626SOL     OW26776   5.079   2.190   1.153
 8626SOL    HW126777   5.071   2.154   1.246
 8626SOL    HW226778   5.159   2.151   1.109
 8627SOL     OW26779   0.443   6.925   3.071
 8627SOL    HW126780   0.479   6.844   3.025
 8627SOL    HW226781   0.344   6.915   3.084
 8628SOL     OW26782   1.386   6.946   0.596
 8628SOL    HW126783   1.424   0.012   0.611
 8628SOL    HW226784   1.457   6.878   0.608
 8629SOL     OW26785   0.081   0.612   4.468
 8629SOL    HW126786   0.176   0.582   4.475
 8629SOL    HW226787   0.044   0.628   4.560
 8630SOL     OW26788   5.098   2.722   1.426
 8630SOL    HW126789   5.028   2.733   1.355
 8630SOL    HW226790   5.186   2.753   1.391
 8631SOL     OW26791   1.641   6.222   6.813
 8631SOL    HW126792   1.714   6.159   6.790
 8631SOL    HW226793   1.672   6.316   6.801
 8632SOL     OW26794   6.198   6.028   3.961
 8632SOL    HW126795   6.205   5.992   4.055
 8632SOL    HW226796   6.263   6.103   3.950
 8633SOL     OW26797   6.629   2.896   5.226
 8633SOL    HW126798   6.690   2.916   5.149
 8633SOL    HW226799   6.543   2.944   5.213
 8634SOL     OW26800   5.106   4.640   6.066
 8634SOL    HW126801   5.093   4.717   6.004
 8634SOL    HW226802   5.172   4.665   6.137
 8635SOL     OW26803   5.353   2.001   5.763
 8635SOL    HW126804   5.270   1.945   5.763
 8635SOL    HW226805   5.376   2.027   5.670
 8636SOL     OW26806   3.955   6.044   0.960
 8636SOL    HW126807   4.053   6.063   0.952
 8636SOL    HW226808   3.928   5.978   0.890
 8637SOL     OW26809   3.150   2.512   0.720
 8637SOL    HW126810   3.079   2.461   0.671
 8637SOL    HW226811   3.235   2.459   0.719
 8638SOL     OW26812   5.249   2.662   4.711
 8638SOL    HW126813   5.181   2.731   4.735
 8638SOL    HW226814   5.214   2.572   4.735
 8639SOL     OW26815   3.298   4.239   0.459
 8639SOL    HW126816   3.237   4.255   0.381
 8639SOL    HW226817   3.345   4.324   0.482
 8640SOL     OW26818   3.554   2.390   6.626
 8640SOL    HW126819   3.483   2.329   6.591
 8640SOL    HW226820   3.555   2.474   6.572
 8641SOL     OW26821   3.454   4.899   3.745
 8641SOL    HW126822   3.407   4.917   3.832
 8641SOL    HW226823   3.394   4.923   3.669
 8642SOL     OW26824   2.153   6.115   3.101
 8642SOL    HW126825   2.174   6.121   3.199
 8642SOL    HW226826   2.218   6.053   3.057
 8643SOL     OW26827   3.833   6.570   1.283
 8643SOL    HW126828   3.811   6.555   1.186
 8643SOL    HW226829   3.931   6.583   1.293
 8644SOL     OW26830   5.581   2.533   6.090
 8644SOL    HW126831   5.613   2.441   6.069
 8644SOL    HW226832   5.586   2.549   6.189
 8645SOL     OW26833   4.907   4.819   2.749
 8645SOL    HW126834   4.986   4.814   2.810
 8645SOL    HW226835   4.896   4.732   2.701
 8646SOL     OW26836   6.976   1.686   4.773
 8646SOL    HW126837   6.901   1.695   4.708
 8646SOL    HW226838   6.975   1.764   4.836
 8647SOL     OW26839   1.838   4.780   1.945
 8647SOL    HW126840   1.792   4.704   1.992
 8647SOL    HW226841   1.937   4.771   1.957
 8648SOL     OW26842   5.300   5.341   6.288
 8648SOL    HW126843   5.356   5.423   6.298
 8648SOL    HW226844   5.286   5.321   6.191
 8649SOL     OW26845   5.418   1.969   1.734
 8649SOL    HW126846   5.429   1.910   1.654
 8649SOL    HW226847   5.321   1.983   1.753
 8650SOL     OW26848   1.362   0.758   5.343
 8650SOL    HW126849   1.360   0.818   5.263
 8650SOL    HW226850   1.422   0.681   5.325
 8651SOL     OW26851   4.553   2.053   1.916
 8651SOL    HW126852   4.463   2.084   1.886
 8651SOL    HW226853   4.544   1.965   1.963
 8652SOL     OW26854   6.465   2.464   4.247
 8652SOL    HW126855   6.395   2.393   4.253
 8652SOL    HW226856   6.548   2.433   4.294
 8653SOL     OW26857   5.654   0.581   0.773
 8653SOL    HW126858   5.581   0.645   0.795
 8653SOL    HW226859   5.741   0.616   0.806
 8654SOL     OW26860   0.313   4.755   3.032
 8654SOL    HW126861   0.298   4.848   2.998
 8654SOL    HW226862   0.410   4.744   3.057
 8655SOL     OW26863   1.312   0.016   5.192
 8655SOL    HW126864   1.329   6.969   5.125
 8655SOL    HW226865   1.322   0.105   5.148
 8656SOL     OW26866   4.455   5.789   1.061
 8656SOL    HW126867   4.442   5.835   1.149
 8656SOL    HW226868   4.445   5.855   0.987
 8657SOL     OW26869   3.388   1.559   2.604
 8657SOL    HW126870   3.474   1.531   2.648
 8657SOL    HW226871   3.368   1.654   2.630
 8658SOL     OW26872   6.344   4.254   0.878
 8658SOL    HW126873   6.393   4.200   0.947
 8658SOL    HW226874   6.386   4.344   0.872
 8659SOL     OW26875   3.433   0.541   3.038
 8659SOL    HW126876   3.382   0.575   3.117
 8659SOL    HW226877   3.501   0.475   3.068
 8660SOL     OW26878   0.035   3.746   1.330
 8660SOL    HW126879   6.984   3.692   1.298
 8660SOL    HW226880   0.028   3.839   1.294
 8661SOL     OW26881   6.170   3.558   2.220
 8661SOL    HW126882   6.100   3.629   2.225
 8661SOL    HW226883   6.196   3.544   2.125
 8662SOL     OW26884   1.716   2.377   3.139
 8662SOL    HW126885   1.780   2.429   3.082
 8662SOL    HW226886   1.623   2.411   3.124
 8663SOL     OW26887   3.275   4.910   2.799
 8663SOL    HW126888   3.200   4.885   2.738
 8663SOL    HW226889   3.240   4.916   2.893
 8664SOL     OW26890   3.089   6.136   3.979
 8664SOL    HW126891   3.139   6.222   3.990
 8664SOL    HW226892   3.026   6.124   4.055
 8665SOL     OW26893   6.961   3.631   6.245
 8665SOL    HW126894   7.001   3.575   6.317
 8665SOL    HW226895   0.002   3.698   6.212
 8666SOL     OW26896   5.020   0.236   2.779
 8666SOL    HW126897   5.063   0.283   2.856
 8666SOL    HW226898   4.978   0.151   2.811
 8667SOL     OW26899   5.222   2.492   2.026
 8667SOL    HW126900   5.199   2.491   1.929
 8667SOL    HW226901   5.181   2.413   2.072
 8668SOL     OW26902   3.908   2.210   3.842
 8668SOL    HW126903   4.002   2.199   3.810
 8668SOL    HW226904   3.907   2.261   3.928
 8669SOL     OW26905   0.545   6.233   6.112
 8669SOL    HW126906   0.447   6.221   6.094
 8669SOL    HW226907   0.592   6.256   6.026
 8670SOL     OW26908   0.350   5.416   5.188
 8670SOL    HW126909   0.388   5.419   5.095
 8670SOL    HW226910   0.372   5.502   5.235
 8671SOL     OW26911   0.067   3.283   3.841
 8671SOL    HW126912   0.108   3.327   3.762
 8671SOL    HW226913   0.119   3.200   3.863
 8672SOL     OW26914   6.433   1.337   2.463
 8672SOL    HW126915   6.456   1.287   2.546
 8672SOL    HW226916   6.516   1.370   2.419
 8673SOL     OW26917   0.829   1.167   1.757
 8673SOL    HW126918   0.777   1.219   1.825
 8673SOL    HW226919   0.913   1.132   1.799
 8674SOL     OW26920   0.406   3.433   3.930
 8674SOL    HW126921   0.374   3.488   4.007
 8674SOL    HW226922   0.406   3.488   3.846
 8675SOL     OW26923   4.769   2.632   4.868
 8675SOL    HW126924   4.756   2.559   4.935
 8675SOL    HW226925   4.762   2.721   4.914
 8676SOL     OW26926   4.711   2.523   0.636
 8676SOL    HW126927   4.638   2.500   0.571
 8676SOL    HW226928   4.673   2.527   0.728
 8677SOL     OW26929   3.064   0.490   6.789
 8677SOL    HW126930   3.074   0.412   6.852
 8677SOL    HW226931   2.972   0.527   6.797
 8678SOL     OW26932   3.254   1.519   0.268
 8678SOL    HW126933   3.327   1.469   0.313
 8678SOL    HW226934   3.261   1.616   0.290
 8679SOL     OW26935   1.520   2.061   6.694
 8679SOL    HW126936   1.506   1.980   6.636
 8679SOL    HW226937   1.540   2.140   6.636
 8680SOL     OW26938   0.100   0.286   1.201
 8680SOL    HW126939   0.077   0.383   1.208
 8680SOL    HW226940   0.047   0.244   1.128
 8681SOL     OW26941   5.436   5.528   0.905
 8681SOL    HW126942   5.388   5.614   0.923
 8681SOL    HW226943   5.398   5.456   0.963
 8682SOL     OW26944   2.086   1.313   2.761
 8682SOL    HW126945   2.050   1.311   2.855
 8682SOL    HW226946   2.018   1.352   2.700
 8683SOL     OW26947   2.310   4.441   3.924
 8683SOL    HW126948   2.380   4.494   3.973
 8683SOL    HW226949   2.254   4.391   3.990
 8684SOL     OW26950   2.354   4.235   3.440
 8684SOL    HW126951   2.412   4.310   3.409
 8684SOL    HW226952   2.385   4.206   3.531
 8685SOL     OW26953   5.362   3.298   5.457
 8685SOL    HW126954   5.336   3.338   5.546
 8685SOL    HW226955   5.279   3.267   5.410
 8686SOL     OW26956   1.526   4.561   3.173
 8686SOL    HW126957   1.456   4.619   3.216
 8686SOL    HW226958   1.491   4.525   3.087
 8687SOL     OW26959   5.858   4.422   5.765
 8687SOL    HW126960   5.881   4.459   5.674
 8687SOL    HW226961   5.831   4.326   5.756
 8688SOL     OW26962   0.741   4.204   5.142
 8688SOL    HW126963   0.800   4.218   5.062
 8688SOL    HW226964   0.762   4.116   5.184
 8689SOL     OW26965   4.907   3.457   0.826
 8689SOL    HW126966   4.808   3.447   0.812
 8689SOL    HW226967   4.955   3.431   0.742
 8690SOL     OW26968   1.793   2.168   2.586
 8690SOL    HW126969   1.863   2.123   2.529
 8690SOL    HW226970   1.797   2.131   2.679
 8691SOL     OW26971   3.241   1.373   6.967
 8691SOL    HW126972   3.242   1.309   0.019
 8691SOL    HW226973   3.159   1.430   6.972
 8692SOL     OW26974   5.343   1.813   4.322
 8692SOL    HW126975   5.337   1.886   4.254
 8692SOL    HW226976   5.253   1.798   4.363
 8693SOL     OW26977   0.667   0.293   5.749
 8693SOL    HW126978   0.620   0.297   5.661
 8693SOL    HW226979   0.707   0.203   5.762
 8694SOL     OW26980   4.546   3.935   5.368
 8694SOL    HW126981   4.489   3.995   5.423
 8694SOL    HW226982   4.512   3.841   5.375
 8695SOL     OW26983   4.239   4.599   1.184
 8695SOL    HW126984   4.179   4.587   1.263
 8695SOL    HW226985   4.334   4.583   1.212
 8696SOL     OW26986   2.892   6.156   6.711
 8696SOL    HW126987   2.839   6.091   6.655
 8696SOL    HW226988   2.858   6.248   6.695
 8697SOL     OW26989   1.538   3.281   4.940
 8697SOL    HW126990   1.504   3.357   4.995
 8697SOL    HW226991   1.491   3.281   4.851
 8698SOL     OW26992   5.577   4.133   0.040
 8698SOL    HW126993   5.633   4.156   6.986
 8698SOL    HW226994   5.561   4.216   0.094
 8699SOL     OW26995   2.759   2.312   1.226
 8699SOL    HW126996   2.719   2.372   1.295
 8699SOL    HW226997   2.766   2.219   1.262
 8700SOL     OW26998   0.061   1.621   4.424
 8700SOL    HW126999   7.005   1.674   4.400
 8700SOL    HW227000   0.143   1.677   4.411
 8701SOL     OW27001   2.143   2.888   6.727
 8701SOL    HW127002   2.146   2.886   6.627
 8701SOL    HW227003   2.093   2.807   6.760
 8702SOL     OW27004   5.415   3.890   1.229
 8702SOL    HW127005   5.455   3.959   1.168
 8702SOL    HW227006   5.316   3.889   1.219
 8703SOL     OW27007   2.235   5.229   2.139
 8703SOL    HW127008   2.147   5.215   2.093
 8703SOL    HW227009   2.261   5.326   2.133
 8704SOL     OW27010   5.913   0.908   3.682
 8704SOL    HW127011   5.930   0.993   3.731
 8704SOL    HW227012   5.969   0.835   3.722
 8705SOL     OW27013   3.683   2.120   0.355
 8705SOL    HW127014   3.696   2.216   0.380
 8705SOL    HW227015   3.660   2.068   0.437
 8706SOL     OW27016   4.852   2.799   5.457
 8706SOL    HW127017   4.771   2.837   5.502
 8706SOL    HW227018   4.824   2.724   5.398
 8707SOL     OW27019   0.760   0.970   3.768
 8707SOL    HW127020   0.770   1.026   3.685
 8707SOL    HW227021   0.716   1.024   3.839
 8708SOL     OW27022   5.986   2.461   0.610
 8708SOL    HW127023   6.045   2.535   0.642
 8708SOL    HW227024   5.905   2.455   0.669
 8709SOL     OW27025   6.399   6.499   4.107
 8709SOL    HW127026   6.461   6.450   4.168
 8709SOL    HW227027   6.449   6.574   4.063
 8710SOL     OW27028   2.088   2.618   4.167
 8710SOL    HW127029   2.165   2.667   4.125
 8710SOL    HW227030   2.023   2.684   4.204
 8711SOL     OW27031   0.993   1.513   1.873
 8711SOL    HW127032   0.955   1.550   1.787
 8711SOL    HW227033   0.943   1.552   1.950
 8712SOL     OW27034   1.467   3.738   4.293
 8712SOL    HW127035   1.491   3.801   4.219
 8712SOL    HW227036   1.500   3.646   4.270
 8713SOL     OW27037   0.283   4.487   3.430
 8713SOL    HW127038   0.239   4.399   3.449
 8713SOL    HW227039   0.229   4.561   3.473
 8714SOL     OW27040   0.247   4.067   6.425
 8714SOL    HW127041   0.188   4.113   6.358
 8714SOL    HW227042   0.197   3.992   6.469
 8715SOL     OW27043   2.463   5.229   1.217
 8715SOL    HW127044   2.524   5.163   1.173
 8715SOL    HW227045   2.395   5.261   1.151
 8716SOL     OW27046   5.675   0.220   2.649
 8716SOL    HW127047   5.676   0.312   2.611
 8716SOL    HW227048   5.718   0.157   2.584
 8717SOL     OW27049   3.643   2.432   6.889
 8717SOL    HW127050   3.685   2.347   6.920
 8717SOL    HW227051   3.590   2.415   6.807
 8718SOL     OW27052   2.928   5.381   6.031
 8718SOL    HW127053   3.022   5.414   6.027
 8718SOL    HW227054   2.928   5.281   6.025
 8719SOL     OW27055   3.174   1.966   4.648
 8719SOL    HW127056   3.264   1.935   4.680
 8719SOL    HW227057   3.136   2.032   4.714
 8720SOL     OW27058   0.550   6.561   5.122
 8720SOL    HW127059   0.605   6.573   5.205
 8720SOL    HW227060   0.582   6.626   5.053
 8721SOL     OW27061   1.250   0.794   1.409
 8721SOL    HW127062   1.280   0.736   1.485
 8721SOL    HW227063   1.301   0.880   1.411
 8722SOL     OW27064   4.068   1.278   0.227
 8722SOL    HW127065   4.142   1.214   0.247
 8722SOL    HW227066   4.066   1.350   0.296
 8723SOL     OW27067   4.049   6.004   2.571
 8723SOL    HW127068   4.085   6.041   2.657
 8723SOL    HW227069   3.955   5.974   2.584
 8724SOL     OW27070   3.428   0.043   5.362
 8724SOL    HW127071   3.387   0.112   5.423
 8724SOL    HW227072   3.382   6.981   5.375
 8725SOL     OW27073   6.421   0.992   2.562
 8725SOL    HW127074   6.478   1.050   2.620
 8725SOL    HW227075   6.434   1.019   2.466
 8726SOL     OW27076   6.984   1.529   0.609
 8726SOL    HW127077   0.002   1.498   0.525
 8726SOL    HW227078   6.928   1.456   0.646
 8727SOL     OW27079   4.729   5.391   6.466
 8727SOL    HW127080   4.707   5.384   6.369
 8727SOL    HW227081   4.762   5.483   6.486
 8728SOL     OW27082   5.992   6.564   4.536
 8728SOL    HW127083   5.988   6.652   4.584
 8728SOL    HW227084   5.948   6.573   4.446
 8729SOL     OW27085   5.970   5.940   5.469
 8729SOL    HW127086   5.974   5.866   5.537
 8729SOL    HW227087   5.934   6.022   5.511
 8730SOL     OW27088   4.106   4.510   1.710
 8730SOL    HW127089   4.165   4.446   1.662
 8730SOL    HW227090   4.161   4.565   1.773
 8731SOL     OW27091   6.897   1.969   4.436
 8731SOL    HW127092   6.876   2.063   4.465
 8731SOL    HW227093   6.989   1.966   4.398
 8732SOL     OW27094   5.222   6.269   5.261
 8732SOL    HW127095   5.251   6.173   5.268
 8732SOL    HW227096   5.166   6.292   5.341
 8733SOL     OW27097   5.874   4.604   1.925
 8733SOL    HW127098   5.913   4.538   1.989
 8733SOL    HW227099   5.819   4.556   1.857
 8734SOL     OW27100   0.744   5.812   1.349
 8734SOL    HW127101   0.661   5.768   1.383
 8734SOL    HW227102   0.785   5.866   1.422
 8735SOL     OW27103   1.224   2.651   6.356
 8735SOL    HW127104   1.159   2.581   6.324
 8735SOL    HW227105   1.225   2.727   6.290
 8736SOL     OW27106   1.449   6.313   3.763
 8736SOL    HW127107   1.422   6.377   3.690
 8736SOL    HW227108   1.483   6.364   3.842
 8737SOL     OW27109   0.149   5.320   6.756
 8737SOL    HW127110   0.098   5.283   6.678
 8737SOL    HW227111   0.244   5.290   6.751
 8738SOL     OW27112   2.383   2.721   2.185
 8738SOL    HW127113   2.298   2.773   2.193
 8738SOL    HW227114   2.449   2.756   2.251
 8739SOL     OW27115   4.020   4.817   3.289
 8739SOL    HW127116   4.042   4.813   3.192
 8739SOL    HW227117   3.922   4.836   3.300
 8740SOL     OW27118   2.570   1.478   3.485
 8740SOL    HW127119   2.472   1.482   3.462
 8740SOL    HW227120   2.611   1.398   3.441
 8741SOL     OW27121   2.124   2.158   2.825
 8741SOL    HW127122   2.037   2.111   2.808
 8741SOL    HW227123   2.174   2.110   2.897
 8742SOL     OW27124   1.538   3.598   1.497
 8742SOL    HW127125   1.568   3.663   1.427
 8742SOL    HW227126   1.467   3.640   1.553
 8743SOL     OW27127   1.202   3.348   0.085
 8743SOL    HW127128   1.272   3.300   0.031
 8743SOL    HW227129   1.240   3.372   0.174
 8744SOL     OW27130   3.061   4.093   6.269
 8744SOL    HW127131   3.025   4.186   6.275
 8744SOL    HW227132   2.986   4.028   6.283
 8745SOL     OW27133   5.556   1.684   6.759
 8745SOL    HW127134   5.497   1.619   6.711
 8745SOL    HW227135   5.523   1.777   6.742
 8746SOL     OW27136   4.679   4.893   4.654
 8746SOL    HW127137   4.663   4.808   4.705
 8746SOL    HW227138   4.605   4.906   4.588
 8747SOL     OW27139   0.665   6.921   1.677
 8747SOL    HW127140   0.719   6.844   1.710
 8747SOL    HW227141   0.568   6.905   1.697
 8748SOL     OW27142   5.944   1.193   4.368
 8748SOL    HW127143   6.001   1.233   4.296
 8748SOL    HW227144   5.859   1.245   4.375
 8749SOL     OW27145   2.895   1.405   3.816
 8749SOL    HW127146   2.801   1.404   3.850
 8749SOL    HW227147   2.937   1.316   3.831
 8750SOL     OW27148   3.733   3.423   1.616
 8750SOL    HW127149   3.781   3.421   1.529
 8750SOL    HW227150   3.774   3.493   1.675
 8751SOL     OW27151   2.029   7.009   0.394
 8751SOL    HW127152   2.076   0.062   0.434
 8751SOL    HW227153   1.959   6.976   0.458
 8752SOL     OW27154   0.468   3.227   6.612
 8752SOL    HW127155   0.456   3.156   6.682
 8752SOL    HW227156   0.437   3.315   6.648
 8753SOL     OW27157   1.990   1.775   1.121
 8753SOL    HW127158   1.908   1.728   1.153
 8753SOL    HW227159   1.975   1.874   1.123
 8754SOL     OW27160   1.636   6.063   6.128
 8754SOL    HW127161   1.560   6.127   6.128
 8754SOL    HW227162   1.616   5.986   6.067
 8755SOL     OW27163   0.735   2.087   1.857
 8755SOL    HW127164   0.781   2.041   1.781
 8755SOL    HW227165   0.765   2.182   1.862
 8756SOL     OW27166   1.645   1.478   2.544
 8756SOL    HW127167   1.626   1.506   2.449
 8756SOL    HW227168   1.590   1.534   2.606
 8757SOL     OW27169   4.999   5.604   4.614
 8757SOL    HW127170   5.071   5.660   4.574
 8757SOL    HW227171   5.016   5.593   4.712
 8758SOL     OW27172   3.673   5.229   6.696
 8758SOL    HW127173   3.739   5.196   6.629
 8758SOL    HW227174   3.701   5.201   6.788
 8759SOL     OW27175   6.927   1.517   1.922
 8759SOL    HW127176   6.964   1.547   1.834
 8759SOL    HW227177   6.844   1.568   1.943
 8760SOL     OW27178   1.589   2.794   4.606
 8760SOL    HW127179   1.672   2.801   4.550
 8760SOL    HW227180   1.608   2.829   4.697
 8761SOL     OW27181   4.718   2.832   3.549
 8761SOL    HW127182   4.728   2.836   3.449
 8761SOL    HW227183   4.663   2.753   3.574
 8762SOL     OW27184   4.219   5.861   2.419
 8762SOL    HW127185   4.163   5.942   2.438
 8762SOL    HW227186   4.198   5.790   2.486
 8763SOL     OW27187   6.886   1.593   5.411
 8763SOL    HW127188   6.908   1.633   5.500
 8763SOL    HW227189   6.969   1.585   5.356
 8764SOL     OW27190   3.458   5.163   6.264
 8764SOL    HW127191   3.480   5.099   6.338
 8764SOL    HW227192   3.378   5.129   6.213
 8765SOL     OW27193   4.550   0.125   3.443
 8765SOL    HW127194   4.606   0.112   3.361
 8765SOL    HW227195   4.572   0.054   3.510
 8766SOL     OW27196   6.249   6.995   4.633
 8766SOL    HW127197   6.276   6.944   4.714
 8766SOL    HW227198   6.317   0.041   4.615
 8767SOL     OW27199   1.851   1.190   4.416
 8767SOL    HW127200   1.918   1.249   4.460
 8767SOL    HW227201   1.897   1.133   4.348
 8768SOL     OW27202   0.009   1.828   1.104
 8768SOL    HW127203   0.108   1.818   1.110
 8768SOL    HW227204   6.999   1.772   1.029
 8769SOL     OW27205   6.621   6.810   6.763
 8769SOL    HW127206   6.714   6.799   6.728
 8769SOL    HW227207   6.613   6.763   6.851
 8770SOL     OW27208   4.864   1.645   0.641
 8770SOL    HW127209   4.861   1.741   0.612
 8770SOL    HW227210   4.924   1.594   0.580
 8771SOL     OW27211   0.510   2.946   6.300
 8771SOL    HW127212   0.432   2.978   6.245
 8771SOL    HW227213   0.584   2.917   6.239
 8772SOL     OW27214   0.839   6.415   3.547
 8772SOL    HW127215   0.765   6.349   3.530
 8772SOL    HW227216   0.836   6.486   3.476
 8773SOL     OW27217   6.508   1.351   4.083
 8773SOL    HW127218   6.457   1.412   4.022
 8773SOL    HW227219   6.605   1.355   4.060
 8774SOL     OW27220   1.388   2.412   0.049
 8774SOL    HW127221   1.374   2.332   7.017
 8774SOL    HW227222   1.456   2.392   0.119
 8775SOL     OW27223   5.805   2.325   2.715
 8775SOL    HW127224   5.823   2.421   2.738
 8775SOL    HW227225   5.720   2.318   2.664
 8776SOL     OW27226   5.192   3.206   1.485
 8776SOL    HW127227   5.199   3.115   1.528
 8776SOL    HW227228   5.284   3.241   1.468
 8777SOL     OW27229   6.560   2.017   4.003
 8777SOL    HW127230   6.638   2.055   4.053
 8777SOL    HW227231   6.478   2.022   4.061
 8778SOL     OW27232   1.741   4.013   6.539
 8778SOL    HW127233   1.791   3.962   6.469
 8778SOL    HW227234   1.771   3.984   6.630
 8779SOL     OW27235   4.198   6.002   2.833
 8779SOL    HW127236   4.130   5.928   2.831
 8779SOL    HW227237   4.280   5.973   2.784
 8780SOL     OW27238   0.944   3.786   4.376
 8780SOL    HW127239   0.965   3.754   4.469
 8780SOL    HW227240   0.948   3.710   4.313
 8781SOL     OW27241   3.713   1.594   1.893
 8781SOL    HW127242   3.767   1.664   1.846
 8781SOL    HW227243   3.704   1.513   1.836
 8782SOL     OW27244   6.453   2.761   0.393
 8782SOL    HW127245   6.374   2.699   0.388
 8782SOL    HW227246   6.487   2.779   0.300
 8783SOL     OW27247   4.032   3.559   5.645
 8783SOL    HW127248   4.019   3.487   5.713
 8783SOL    HW227249   4.024   3.649   5.689
 8784SOL     OW27250   4.235   1.051   5.868
 8784SOL    HW127251   4.287   0.981   5.917
 8784SOL    HW227252   4.137   1.036   5.882
 8785SOL     OW27253   6.994   6.155   6.602
 8785SOL    HW127254   6.966   6.098   6.525
 8785SOL    HW227255   0.055   6.201   6.579
 8786SOL     OW27256   5.679   2.426   3.148
 8786SOL    HW127257   5.620   2.355   3.186
 8786SOL    HW227258   5.766   2.428   3.197
 8787SOL     OW27259   3.380   4.864   2.314
 8787SOL    HW127260   3.468   4.816   2.314
 8787SOL    HW227261   3.386   4.944   2.373
 8788SOL     OW27262   0.143   6.081   3.780
 8788SOL    HW127263   0.068   6.017   3.796
 8788SOL    HW227264   0.162   6.087   3.682
 8789SOL     OW27265   1.512   3.536   0.175
 8789SOL    HW127266   1.535   3.488   0.091
 8789SOL    HW227267   1.469   3.473   0.239
 8790SOL     OW27268   5.154   3.206   5.287
 8790SOL    HW127269   5.172   3.231   5.192
 8790SOL    HW227270   5.183   3.111   5.302
 8791SOL     OW27271   4.312   6.180   4.823
 8791SOL    HW127272   4.366   6.106   4.862
 8791SOL    HW227273   4.216   6.169   4.849
 8792SOL     OW27274   5.872   4.812   0.510
 8792SOL    HW127275   5.806   4.878   0.546
 8792SOL    HW227276   5.831   4.721   0.508
 8793SOL     OW27277   6.313   6.986   5.960
 8793SOL    HW127278   6.391   7.020   6.012
 8793SOL    HW227279   6.343   6.962   5.868
 8794SOL     OW27280   6.980   2.532   3.395
 8794SOL    HW127281   6.883   2.513   3.380
 8794SOL    HW227282   7.016   2.586   3.319
 8795SOL     OW27283   1.513   0.327   6.828
 8795SOL    HW127284   1.458   0.243   6.826
 8795SOL    HW227285   1.601   0.307   6.871
 8796SOL     OW27286   5.529   4.730   4.262
 8796SOL    HW127287   5.503   4.639   4.229
 8796SOL    HW227288   5.580   4.721   4.348
 8797SOL     OW27289   5.690   6.226   5.048
 8797SOL    HW127290   5.619   6.297   5.053
 8797SOL    HW227291   5.651   6.139   5.078
 8798SOL     OW27292   1.972   5.598   6.474
 8798SOL    HW127293   1.992   5.501   6.472
 8798SOL    HW227294   2.007   5.638   6.558
 8799SOL     OW27295   1.910   6.399   1.901
 8799SOL    HW127296   1.838   6.331   1.891
 8799SOL    HW227297   1.984   6.361   1.957
 8800SOL     OW27298   6.565   6.168   4.290
 8800SOL    HW127299   6.588   6.102   4.218
 8800SOL    HW227300   6.473   6.149   4.324
 8801SOL     OW27301   4.799   3.340   5.677
 8801SOL    HW127302   4.757   3.391   5.603
 8801SOL    HW227303   4.899   3.349   5.671
 8802SOL     OW27304   1.351   6.728   6.899
 8802SOL    HW127305   1.275   6.792   6.887
 8802SOL    HW227306   1.315   6.639   6.926
 8803SOL     OW27307   5.345   4.955   5.317
 8803SOL    HW127308   5.309   4.982   5.407
 8803SOL    HW227309   5.282   4.984   5.246
 8804SOL     OW27310   2.073   6.594   1.724
 8804SOL    HW127311   2.164   6.588   1.765
 8804SOL    HW227312   2.009   6.539   1.777
 8805SOL     OW27313   4.668   5.099   1.871
 8805SOL    HW127314   4.752   5.065   1.913
 8805SOL    HW227315   4.684   5.191   1.834
 8806SOL     OW27316   1.278   1.230   2.046
 8806SOL    HW127317   1.273   1.239   2.145
 8806SOL    HW227318   1.347   1.163   2.021
 8807SOL     OW27319   6.062   2.005   1.935
 8807SOL    HW127320   5.980   2.061   1.921
 8807SOL    HW227321   6.039   1.908   1.920
 8808SOL     OW27322   1.444   1.975   0.659
 8808SOL    HW127323   1.452   1.886   0.704
 8808SOL    HW227324   1.361   2.021   0.692
 8809SOL     OW27325   0.916   3.266   2.983
 8809SOL    HW127326   0.899   3.266   3.082
 8809SOL    HW227327   1.001   3.314   2.963
 8810SOL     OW27328   6.174   2.314   4.211
 8810SOL    HW127329   6.085   2.354   4.232
 8810SOL    HW227330   6.163   2.246   4.138
 8811SOL     OW27331   3.819   5.462   2.283
 8811SOL    HW127332   3.833   5.443   2.186
 8811SOL    HW227333   3.809   5.376   2.333
 8812SOL     OW27334   5.592   0.375   0.635
 8812SOL    HW127335   5.627   0.459   0.677
 8812SOL    HW227336   5.499   0.390   0.603
 8813SOL     OW27337   1.595   2.816   1.822
 8813SOL    HW127338   1.594   2.726   1.866
 8813SOL    HW227339   1.679   2.864   1.847
 8814SOL     OW27340   5.649   0.085   4.935
 8814SOL    HW127341   5.706   0.140   4.874
 8814SOL    HW227342   5.609   0.144   5.006
 8815SOL     OW27343   4.905   0.715   1.051
 8815SOL    HW127344   4.837   0.778   1.089
 8815SOL    HW227345   4.997   0.750   1.070
 8816SOL     OW27346   0.157   0.867   3.268
 8816SOL    HW127347   0.228   0.937   3.258
 8816SOL    HW227348   0.141   0.848   3.365
 8817SOL     OW27349   0.899   2.228   4.039
 8817SOL    HW127350   0.808   2.243   4.077
 8817SOL    HW227351   0.955   2.180   4.106
 8818SOL     OW27352   1.321   6.293   6.389
 8818SOL    HW127353   1.230   6.266   6.359
 8818SOL    HW227354   1.345   6.243   6.472
 8819SOL     OW27355   5.064   6.168   5.993
 8819SOL    HW127356   5.020   6.250   6.030
 8819SOL    HW227357   5.024   6.086   6.036
 8820SOL     OW27358   3.902   6.543   5.712
 8820SOL    HW127359   3.891   6.493   5.626
 8820SOL    HW227360   3.812   6.556   5.755
 8821SOL     OW27361   1.031   5.617   5.516
 8821SOL    HW127362   0.979   5.545   5.470
 8821SOL    HW227363   1.094   5.660   5.452
 8822SOL     OW27364   6.633   0.298   4.668
 8822SOL    HW127365   6.626   0.360   4.747
 8822SOL    HW227366   6.661   0.350   4.587
 8823SOL     OW27367   4.429   2.123   3.252
 8823SOL    HW127368   4.399   2.029   3.239
 8823SOL    HW227369   4.351   2.185   3.243
 8824SOL     OW27370   1.626   0.308   4.362
 8824SOL    HW127371   1.656   0.403   4.357
 8824SOL    HW227372   1.673   0.255   4.291
 8825SOL     OW27373   1.479   6.770   0.320
 8825SOL    HW127374   1.385   6.806   0.321
 8825SOL    HW227375   1.485   6.697   0.252
 8826SOL     OW27376   0.449   3.745   0.553
 8826SOL    HW127377   0.350   3.752   0.541
 8826SOL    HW227378   0.488   3.837   0.555
 8827SOL     OW27379   5.104   5.812   3.489
 8827SOL    HW127380   5.142   5.744   3.553
 8827SOL    HW227381   5.005   5.805   3.488
 8828SOL     OW27382   5.244   2.428   5.246
 8828SOL    HW127383   5.188   2.509   5.228
 8828SOL    HW227384   5.334   2.457   5.281
 8829SOL     OW27385   6.398   1.059   2.905
 8829SOL    HW127386   6.381   0.965   2.934
 8829SOL    HW227387   6.338   1.082   2.828
 8830SOL     OW27388   3.190   0.711   2.710
 8830SOL    HW127389   3.241   0.777   2.766
 8830SOL    HW227390   3.168   0.752   2.622
 8831SOL     OW27391   0.595   2.753   3.034
 8831SOL    HW127392   0.590   2.762   2.934
 8831SOL    HW227393   0.515   2.702   3.066
 8832SOL     OW27394   6.011   0.106   4.639
 8832SOL    HW127395   6.091   0.059   4.602
 8832SOL    HW227396   5.934   0.043   4.643
 8833SOL     OW27397   4.613   3.036   0.974
 8833SOL    HW127398   4.632   2.939   0.983
 8833SOL    HW227399   4.533   3.049   0.915
 8834SOL     OW27400   5.890   4.262   6.110
 8834SOL    HW127401   5.901   4.188   6.043
 8834SOL    HW227402   5.884   4.223   6.202
 8835SOL     OW27403   6.315   1.139   5.347
 8835SOL    HW127404   6.278   1.221   5.390
 8835SOL    HW227405   6.415   1.145   5.344
 8836SOL     OW27406   4.238   1.438   0.863
 8836SOL    HW127407   4.295   1.510   0.824
 8836SOL    HW227408   4.189   1.390   0.790
 8837SOL     OW27409   5.271   5.098   6.898
 8837SOL    HW127410   5.253   5.171   6.833
 8837SOL    HW227411   5.198   5.095   6.967
 8838SOL     OW27412   2.096   3.928   2.559
 8838SOL    HW127413   2.008   3.955   2.519
 8838SOL    HW227414   2.092   3.833   2.590
 8839SOL     OW27415   4.596   4.305   1.641
 8839SOL    HW127416   4.586   4.273   1.735
 8839SOL    HW227417   4.649   4.238   1.588
 8840SOL     OW27418   0.060   0.508   1.716
 8840SOL    HW127419   0.062   0.606   1.736
 8840SOL    HW227420   0.152   0.471   1.720
 8841SOL     OW27421   4.020   1.505   0.468
 8841SOL    HW127422   4.102   1.559   0.451
 8841SOL    HW227423   3.939   1.561   0.452
 8842SOL     OW27424   3.510   2.865   3.582
 8842SOL    HW127425   3.437   2.932   3.599
 8842SOL    HW227426   3.543   2.874   3.488
 8843SOL     OW27427   2.673   6.162   5.434
 8843SOL    HW127428   2.728   6.245   5.426
 8843SOL    HW227429   2.724   6.093   5.486
 8844SOL     OW27430   3.962   2.800   5.269
 8844SOL    HW127431   4.020   2.721   5.247
 8844SOL    HW227432   4.019   2.872   5.307
 8845SOL     OW27433   0.573   3.429   2.393
 8845SOL    HW127434   0.577   3.418   2.492
 8845SOL    HW227435   0.639   3.367   2.350
 8846SOL     OW27436   5.873   5.618   4.506
 8846SOL    HW127437   5.818   5.592   4.427
 8846SOL    HW227438   5.931   5.696   4.481
 8847SOL     OW27439   0.772   2.278   3.753
 8847SOL    HW127440   0.691   2.302   3.805
 8847SOL    HW227441   0.854   2.296   3.807
 8848SOL     OW27442   6.331   2.160   0.777
 8848SOL    HW127443   6.406   2.151   0.842
 8848SOL    HW227444   6.368   2.188   0.688
 8849SOL     OW27445   3.279   5.206   4.317
 8849SOL    HW127446   3.186   5.196   4.282
 8849SOL    HW227447   3.294   5.300   4.348
 8850SOL     OW27448   3.882   2.298   1.171
 8850SOL    HW127449   3.914   2.309   1.077
 8850SOL    HW227450   3.806   2.360   1.188
 8851SOL     OW27451   0.165   5.383   2.890
 8851SOL    HW127452   0.203   5.464   2.934
 8851SOL    HW227453   0.124   5.408   2.802
 8852SOL     OW27454   5.208   3.573   4.784
 8852SOL    HW127455   5.267   3.637   4.734
 8852SOL    HW227456   5.249   3.483   4.784
 8853SOL     OW27457   4.790   1.698   4.366
 8853SOL    HW127458   4.771   1.763   4.440
 8853SOL    HW227459   4.815   1.610   4.405
 8854SOL     OW27460   3.296   0.643   6.067
 8854SOL    HW127461   3.291   0.729   6.118
 8854SOL    HW227462   3.281   0.566   6.128
 8855SOL     OW27463   6.246   4.765   6.222
 8855SOL    HW127464   6.241   4.673   6.184
 8855SOL    HW227465   6.154   4.803   6.229
 8856SOL     OW27466   5.471   1.575   5.453
 8856SOL    HW127467   5.466   1.600   5.356
 8856SOL    HW227468   5.392   1.518   5.477
 8857SOL     OW27469   2.073   3.485   4.502
 8857SOL    HW127470   2.084   3.567   4.445
 8857SOL    HW227471   2.100   3.506   4.595
 8858SOL     OW27472   0.664   3.708   5.567
 8858SOL    HW127473   0.584   3.729   5.624
 8858SOL    HW227474   0.740   3.683   5.626
 8859SOL     OW27475   2.411   6.920   5.400
 8859SOL    HW127476   2.475   6.853   5.362
 8859SOL    HW227477   2.364   6.881   5.479
 8860SOL     OW27478   2.022   1.419   1.538
 8860SOL    HW127479   2.029   1.407   1.439
 8860SOL    HW227480   2.112   1.442   1.575
 8861SOL     OW27481   1.946   2.073   0.422
 8861SOL    HW127482   1.986   2.057   0.513
 8861SOL    HW227483   2.005   2.135   0.370
 8862SOL     OW27484   0.139   2.647   4.395
 8862SOL    HW127485   0.142   2.689   4.304
 8862SOL    HW227486   0.195   2.564   4.394
 8863SOL     OW27487   2.356   5.457   5.186
 8863SOL    HW127488   2.275   5.413   5.225
 8863SOL    HW227489   2.369   5.546   5.227
 8864SOL     OW27490   2.110   4.652   5.937
 8864SOL    HW127491   2.018   4.671   5.972
 8864SOL    HW227492   2.112   4.559   5.900
 8865SOL     OW27493   3.011   1.931   5.656
 8865SOL    HW127494   2.932   1.980   5.619
 8865SOL    HW227495   2.997   1.912   5.753
 8866SOL     OW27496   5.034   0.149   5.532
 8866SOL    HW127497   4.952   0.093   5.539
 8866SOL    HW227498   5.008   0.244   5.515
 8867SOL     OW27499   6.222   0.843   3.516
 8867SOL    HW127500   6.165   0.920   3.545
 8867SOL    HW227501   6.202   0.763   3.573
 8868SOL     OW27502   5.823   3.434   0.604
 8868SOL    HW127503   5.829   3.533   0.589
 8868SOL    HW227504   5.844   3.386   0.519
 8869SOL     OW27505   2.949   1.940   3.202
 8869SOL    HW127506   2.928   1.866   3.138
 8869SOL    HW227507   2.906   1.921   3.290
 8870SOL     OW27508   5.108   0.285   1.773
 8870SOL    HW127509   5.176   0.296   1.845
 8870SOL    HW227510   5.119   0.195   1.730
 8871SOL     OW27511   1.126   2.217   3.864
 8871SOL    HW127512   1.114   2.266   3.778
 8871SOL    HW227513   1.044   2.227   3.920
 8872SOL     OW27514   1.242   1.834   2.525
 8872SOL    HW127515   1.249   1.847   2.624
 8872SOL    HW227516   1.289   1.749   2.500
 8873SOL     OW27517   6.883   5.813   5.178
 8873SOL    HW127518   6.928   5.748   5.238
 8873SOL    HW227519   6.887   5.779   5.084
 8874SOL     OW27520   1.365   1.390   6.313
 8874SOL    HW127521   1.333   1.419   6.223
 8874SOL    HW227522   1.372   1.290   6.315
 8875SOL     OW27523   1.276   1.106   3.891
 8875SOL    HW127524   1.270   1.205   3.879
 8875SOL    HW227525   1.372   1.078   3.891
 8876SOL     OW27526   2.242   0.972   4.901
 8876SOL    HW127527   2.200   1.057   4.933
 8876SOL    HW227528   2.333   0.990   4.864
 8877SOL     OW27529   3.301   6.762   4.203
 8877SOL    HW127530   3.275   6.667   4.186
 8877SOL    HW227531   3.247   6.822   4.145
 8878SOL     OW27532   6.031   4.242   4.905
 8878SOL    HW127533   6.124   4.259   4.873
 8878SOL    HW227534   6.012   4.144   4.901
 8879SOL     OW27535   5.147   5.372   4.551
 8879SOL    HW127536   5.197   5.343   4.633
 8879SOL    HW227537   5.105   5.461   4.568
 8880SOL     OW27538   1.250   6.539   5.410
 8880SOL    HW127539   1.270   6.636   5.397
 8880SOL    HW227540   1.199   6.505   5.331
 8881SOL     OW27541   0.097   2.226   2.653
 8881SOL    HW127542   0.110   2.128   2.666
 8881SOL    HW227543   0.180   2.275   2.682
 8882SOL     OW27544   5.614   3.044   0.240
 8882SOL    HW127545   5.683   2.984   0.198
 8882SOL    HW227546   5.610   3.026   0.338
 8883SOL     OW27547   5.495   1.562   5.759
 8883SOL    HW127548   5.514   1.584   5.664
 8883SOL    HW227549   5.427   1.490   5.764
 8884SOL     OW27550   0.077   1.350   6.340
 8884SOL    HW127551   0.011   1.374   6.411
 8884SOL    HW227552   0.170   1.355   6.379
 8885SOL     OW27553   5.587   3.628   1.129
 8885SOL    HW127554   5.662   3.589   1.183
 8885SOL    HW227555   5.581   3.726   1.146
 8886SOL     OW27556   3.207   5.528   6.064
 8886SOL    HW127557   3.172   5.584   5.988
 8886SOL    HW227558   3.271   5.460   6.029
 8887SOL     OW27559   1.498   1.453   1.047
 8887SOL    HW127560   1.491   1.357   1.020
 8887SOL    HW227561   1.409   1.498   1.036
 8888SOL     OW27562   2.524   2.466   2.863
 8888SOL    HW127563   2.475   2.543   2.822
 8888SOL    HW227564   2.583   2.424   2.794
 8889SOL     OW27565   3.445   1.052   4.461
 8889SOL    HW127566   3.532   1.097   4.480
 8889SOL    HW227567   3.405   1.092   4.379
 8890SOL     OW27568   6.400   4.864   3.487
 8890SOL    HW127569   6.317   4.890   3.438
 8890SOL    HW227570   6.377   4.835   3.580
 8891SOL     OW27571   3.381   1.396   6.497
 8891SOL    HW127572   3.469   1.421   6.455
 8891SOL    HW227573   3.336   1.327   6.440
 8892SOL     OW27574   1.034   6.886   2.952
 8892SOL    HW127575   1.130   6.862   2.955
 8892SOL    HW227576   1.004   6.918   3.042
 8893SOL     OW27577   0.418   1.304   0.584
 8893SOL    HW127578   0.385   1.398   0.591
 8893SOL    HW227579   0.340   1.241   0.584
 8894SOL     OW27580   4.753   2.270   6.062
 8894SOL    HW127581   4.704   2.188   6.092
 8894SOL    HW227582   4.840   2.278   6.110
 8895SOL     OW27583   1.671   1.270   3.014
 8895SOL    HW127584   1.620   1.197   2.968
 8895SOL    HW227585   1.631   1.358   2.990
 8896SOL     OW27586   1.765   4.407   5.384
 8896SOL    HW127587   1.735   4.325   5.433
 8896SOL    HW227588   1.855   4.434   5.417
 8897SOL     OW27589   1.251   2.376   2.130
 8897SOL    HW127590   1.208   2.437   2.195
 8897SOL    HW227591   1.191   2.298   2.112
 8898SOL     OW27592   0.109   2.961   5.113
 8898SOL    HW127593   0.135   3.048   5.071
 8898SOL    HW227594   0.061   2.978   5.199
 8899SOL     OW27595   3.226   5.333   1.751
 8899SOL    HW127596   3.247   5.278   1.671
 8899SOL    HW227597   3.225   5.430   1.726
 8900SOL     OW27598   6.652   1.808   3.855
 8900SOL    HW127599   6.636   1.870   3.932
 8900SOL    HW227600   6.596   1.726   3.865
 8901SOL     OW27601   1.954   0.106   1.848
 8901SOL    HW127602   1.904   0.189   1.827
 8901SOL    HW227603   1.972   0.055   1.763
 8902SOL     OW27604   3.904   6.421   5.444
 8902SOL    HW127605   3.819   6.451   5.400
 8902SOL    HW227606   3.980   6.479   5.412
 8903SOL     OW27607   6.773   1.055   2.963
 8903SOL    HW127608   6.747   1.123   3.031
 8903SOL    HW227609   6.867   1.026   2.979
 8904SOL     OW27610   1.159   4.383   3.659
 8904SOL    HW127611   1.167   4.292   3.700
 8904SOL    HW227612   1.063   4.412   3.661
 8905SOL     OW27613   1.983   4.179   4.966
 8905SOL    HW127614   2.052   4.200   4.898
 8905SOL    HW227615   2.025   4.172   5.056
 8906SOL     OW27616   2.535   5.458   4.836
 8906SOL    HW127617   2.555   5.418   4.926
 8906SOL    HW227618   2.512   5.384   4.772
 8907SOL     OW27619   3.382   2.463   6.358
 8907SOL    HW127620   3.345   2.405   6.286
 8907SOL    HW227621   3.447   2.529   6.319
 8908SOL     OW27622   0.698   3.189   2.816
 8908SOL    HW127623   0.653   3.115   2.867
 8908SOL    HW227624   0.763   3.236   2.876
 8909SOL     OW27625   3.634   6.833   5.651
 8909SOL    HW127626   3.576   6.755   5.629
 8909SOL    HW227627   3.730   6.806   5.643
 8910SOL     OW27628   4.237   2.842   0.233
 8910SOL    HW127629   4.278   2.903   0.166
 8910SOL    HW227630   4.145   2.817   0.204
 8911SOL     OW27631   5.186   2.720   3.918
 8911SOL    HW127632   5.168   2.814   3.890
 8911SOL    HW227633   5.103   2.679   3.957
 8912SOL     OW27634   4.630   0.971   6.891
 8912SOL    HW127635   4.720   1.011   6.875
 8912SOL    HW227636   4.560   1.042   6.877
 8913SOL     OW27637   4.277   4.097   0.791
 8913SOL    HW127638   4.369   4.134   0.777
 8913SOL    HW227639   4.265   4.073   0.888
 8914SOL     OW27640   4.787   2.428   3.761
 8914SOL    HW127641   4.869   2.376   3.786
 8914SOL    HW227642   4.801   2.525   3.782
 8915SOL     OW27643   0.735   5.157   2.528
 8915SOL    HW127644   0.830   5.138   2.555
 8915SOL    HW227645   0.722   5.256   2.521
 8916SOL     OW27646   6.107   3.346   1.875
 8916SOL    HW127647   6.139   3.304   1.960
 8916SOL    HW227648   6.074   3.274   1.813
 8917SOL     OW27649   5.190   4.409   5.419
 8917SOL    HW127650   5.215   4.447   5.508
 8917SOL    HW227651   5.251   4.446   5.349
 8918SOL     OW27652   4.848   3.869   6.141
 8918SOL    HW127653   4.829   3.926   6.062
 8918SOL    HW227654   4.857   3.773   6.112
 8919SOL     OW27655   2.100   3.390   1.640
 8919SOL    HW127656   2.175   3.390   1.574
 8919SOL    HW227657   2.032   3.322   1.614
 8920SOL     OW27658   6.454   5.464   5.702
 8920SOL    HW127659   6.429   5.372   5.669
 8920SOL    HW227660   6.476   5.522   5.624
 8921SOL     OW27661   1.130   5.708   3.739
 8921SOL    HW127662   1.204   5.647   3.768
 8921SOL    HW227663   1.070   5.725   3.817
 8922SOL     OW27664   0.220   3.223   6.857
 8922SOL    HW127665   0.245   3.308   6.811
 8922SOL    HW227666   0.140   3.239   6.915
 8923SOL     OW27667   2.742   4.818   4.286
 8923SOL    HW127668   2.717   4.796   4.192
 8923SOL    HW227669   2.685   4.766   4.349
 8924SOL     OW27670   2.123   6.697   4.417
 8924SOL    HW127671   2.127   6.694   4.517
 8924SOL    HW227672   2.046   6.640   4.385
 8925SOL     OW27673   4.270   5.495   1.179
 8925SOL    HW127674   4.290   5.521   1.084
 8925SOL    HW227675   4.202   5.421   1.179
 8926SOL     OW27676   5.769   0.042   6.846
 8926SOL    HW127677   5.805   0.004   6.931
 8926SOL    HW227678   5.724   6.996   6.794
 8927SOL     OW27679   2.659   1.912   4.769
 8927SOL    HW127680   2.715   1.861   4.835
 8927SOL    HW227681   2.701   2.001   4.752
 8928SOL     OW27682   0.810   0.517   5.570
 8928SOL    HW127683   0.854   0.585   5.629
 8928SOL    HW227684   0.832   0.425   5.603
 8929SOL     OW27685   5.196   4.393   3.065
 8929SOL    HW127686   5.141   4.430   3.140
 8929SOL    HW227687   5.293   4.408   3.084
 8930SOL     OW27688   0.430   5.661   5.273
 8930SOL    HW127689   0.407   5.735   5.210
 8930SOL    HW227690   0.525   5.670   5.302
 8931SOL     OW27691   4.367   0.992   1.565
 8931SOL    HW127692   4.330   1.013   1.656
 8931SOL    HW227693   4.458   1.033   1.556
 8932SOL     OW27694   4.741   0.621   0.622
 8932SOL    HW127695   4.688   0.550   0.577
 8932SOL    HW227696   4.721   0.620   0.720
 8933SOL     OW27697   1.769   6.950   5.305
 8933SOL    HW127698   1.689   6.891   5.294
 8933SOL    HW227699   1.835   6.905   5.364
 8934SOL     OW27700   3.809   6.505   4.014
 8934SOL    HW127701   3.883   6.571   4.001
 8934SOL    HW227702   3.834   6.417   3.973
 8935SOL     OW27703   5.694   1.727   2.624
 8935SOL    HW127704   5.684   1.656   2.555
 8935SOL    HW227705   5.760   1.698   2.693
 8936SOL     OW27706   1.394   4.082   2.238
 8936SOL    HW127707   1.444   4.123   2.162
 8936SOL    HW227708   1.422   3.986   2.247
 8937SOL     OW27709   3.357   6.713   5.004
 8937SOL    HW127710   3.281   6.697   5.066
 8937SOL    HW227711   3.409   6.793   5.034
 8938SOL     OW27712   5.467   6.443   1.748
 8938SOL    HW127713   5.453   6.344   1.757
 8938SOL    HW227714   5.520   6.462   1.665
 8939SOL     OW27715   6.752   2.684   4.246
 8939SOL    HW127716   6.819   2.741   4.198
 8939SOL    HW227717   6.674   2.666   4.185
 8940SOL     OW27718   6.448   3.397   2.207
 8940SOL    HW127719   6.447   3.344   2.122
 8940SOL    HW227720   6.359   3.439   2.222
 8941SOL     OW27721   5.558   2.212   3.298
 8941SOL    HW127722   5.472   2.164   3.316
 8941SOL    HW227723   5.598   2.242   3.384
 8942SOL     OW27724   4.663   5.079   3.904
 8942SOL    HW127725   4.734   5.106   3.839
 8942SOL    HW227726   4.579   5.130   3.886
 8943SOL     OW27727   3.964   3.596   0.433
 8943SOL    HW127728   3.871   3.633   0.431
 8943SOL    HW227729   3.995   3.588   0.528
 8944SOL     OW27730   4.738   6.254   4.694
 8944SOL    HW127731   4.735   6.319   4.617
 8944SOL    HW227732   4.747   6.304   4.779
 8945SOL     OW27733   6.483   5.032   1.630
 8945SOL    HW127734   6.506   4.935   1.622
 8945SOL    HW227735   6.384   5.042   1.639
 8946SOL     OW27736   3.352   1.765   4.523
 8946SOL    HW127737   3.379   1.861   4.531
 8946SOL    HW227738   3.261   1.759   4.481
 8947SOL     OW27739   2.597   5.099   0.305
 8947SOL    HW127740   2.544   5.181   0.285
 8947SOL    HW227741   2.586   5.033   0.231
 8948SOL     OW27742   5.498   0.559   2.757
 8948SOL    HW127743   5.440   0.639   2.744
 8948SOL    HW227744   5.577   0.564   2.695
 8949SOL     OW27745   4.025   6.495   0.653
 8949SOL    HW127746   4.123   6.512   0.659
 8949SOL    HW227747   4.001   6.473   0.558
 8950SOL     OW27748   3.525   4.181   3.598
 8950SOL    HW127749   3.610   4.129   3.587
 8950SOL    HW227750   3.538   4.253   3.666
 8951SOL     OW27751   0.618   0.727   3.864
 8951SOL    HW127752   0.673   0.801   3.823
 8951SOL    HW227753   0.540   0.708   3.806
 8952SOL     OW27754   1.458   4.061   4.758
 8952SOL    HW127755   1.408   4.088   4.676
 8952SOL    HW227756   1.508   3.977   4.741
 8953SOL     OW27757   0.525   5.244   0.740
 8953SOL    HW127758   0.525   5.286   0.830
 8953SOL    HW227759   0.433   5.250   0.700
 8954SOL     OW27760   2.408   4.365   5.495
 8954SOL    HW127761   2.419   4.462   5.474
 8954SOL    HW227762   2.492   4.329   5.534
 8955SOL     OW27763   6.114   3.253   6.079
 8955SOL    HW127764   6.041   3.200   6.123
 8955SOL    HW227765   6.203   3.223   6.114
 8956SOL     OW27766   1.060   6.325   0.983
 8956SOL    HW127767   0.989   6.382   1.024
 8956SOL    HW227768   1.089   6.364   0.896
 8957SOL     OW27769   0.869   0.026   3.805
 8957SOL    HW127770   0.893   6.956   3.786
 8957SOL    HW227771   0.819   0.064   3.727
 8958SOL     OW27772   6.880   3.395   4.985
 8958SOL    HW127773   6.898   3.484   5.028
 8958SOL    HW227774   6.849   3.330   5.055
 8959SOL     OW27775   5.058   1.348   3.756
 8959SOL    HW127776   4.971   1.299   3.751
 8959SOL    HW227777   5.131   1.290   3.720
 8960SOL     OW27778   5.197   5.451   2.308
 8960SOL    HW127779   5.275   5.390   2.293
 8960SOL    HW227780   5.112   5.398   2.303
 8961SOL     OW27781   2.428   1.697   5.727
 8961SOL    HW127782   2.522   1.663   5.717
 8961SOL    HW227783   2.412   1.724   5.822
 8962SOL     OW27784   6.888   6.225   1.530
 8962SOL    HW127785   6.817   6.155   1.524
 8962SOL    HW227786   6.924   6.228   1.624
 8963SOL     OW27787   2.221   5.261   5.685
 8963SOL    HW127788   2.152   5.286   5.617
 8963SOL    HW227789   2.179   5.209   5.758
 8964SOL     OW27790   0.960   2.535   3.833
 8964SOL    HW127791   0.982   2.503   3.925
 8964SOL    HW227792   1.008   2.478   3.766
 8965SOL     OW27793   3.445   5.824   0.194
 8965SOL    HW127794   3.371   5.888   0.213
 8965SOL    HW227795   3.414   5.731   0.213
 8966SOL     OW27796   4.762   0.042   5.580
 8966SOL    HW127797   4.677   0.017   5.533
 8966SOL    HW227798   4.743   0.109   5.651
 8967SOL     OW27799   2.752   0.316   3.281
 8967SOL    HW127800   2.741   0.294   3.184
 8967SOL    HW227801   2.849   0.314   3.304
 8968SOL     OW27802   2.780   5.286   2.382
 8968SOL    HW127803   2.704   5.280   2.317
 8968SOL    HW227804   2.856   5.229   2.351
 8969SOL     OW27805   0.020   0.764   2.614
 8969SOL    HW127806   0.116   0.779   2.589
 8969SOL    HW227807   6.989   0.834   2.571
 8970SOL     OW27808   2.016   1.825   4.430
 8970SOL    HW127809   2.089   1.877   4.476
 8970SOL    HW227810   2.026   1.728   4.452
 8971SOL     OW27811   3.087   4.844   1.294
 8971SOL    HW127812   3.144   4.785   1.237
 8971SOL    HW227813   3.005   4.869   1.244
 8972SOL     OW27814   6.270   4.012   6.327
 8972SOL    HW127815   6.361   4.048   6.346
 8972SOL    HW227816   6.277   3.915   6.305
 8973SOL     OW27817   2.597   1.986   3.620
 8973SOL    HW127818   2.635   1.932   3.695
 8973SOL    HW227819   2.509   2.024   3.647
 8974SOL     OW27820   1.586   4.932   5.524
 8974SOL    HW127821   1.644   4.938   5.605
 8974SOL    HW227822   1.515   4.864   5.538
 8975SOL     OW27823   0.700   3.615   6.191
 8975SOL    HW127824   0.684   3.603   6.093
 8975SOL    HW227825   0.718   3.526   6.233
 8976SOL     OW27826   6.215   0.465   1.616
 8976SOL    HW127827   6.205   0.383   1.673
 8976SOL    HW227828   6.127   0.514   1.614
 8977SOL     OW27829   0.289   5.184   5.912
 8977SOL    HW127830   0.344   5.186   5.828
 8977SOL    HW227831   0.222   5.258   5.910
 8978SOL     OW27832   6.523   5.137   5.438
 8978SOL    HW127833   6.522   5.038   5.455
 8978SOL    HW227834   6.527   5.153   5.339
 8979SOL     OW27835   1.627   4.260   3.820
 8979SOL    HW127836   1.547   4.305   3.859
 8979SOL    HW227837   1.621   4.264   3.720
 8980SOL     OW27838   4.720   0.592   0.893
 8980SOL    HW127839   4.784   0.657   0.934
 8980SOL    HW227840   4.655   0.562   0.963
 8981SOL     OW27841   4.099   2.507   0.029
 8981SOL    HW127842   4.042   2.427   0.050
 8981SOL    HW227843   4.195   2.480   0.030
 8982SOL     OW27844   0.302   0.825   2.451
 8982SOL    HW127845   0.285   0.866   2.541
 8982SOL    HW227846   0.385   0.769   2.456
 8983SOL     OW27847   1.323   6.400   2.514
 8983SOL    HW127848   1.392   6.453   2.564
 8983SOL    HW227849   1.232   6.430   2.541
 8984SOL     OW27850   6.068   1.155   3.715
 8984SOL    HW127851   6.013   1.235   3.688
 8984SOL    HW227852   6.165   1.179   3.712
 8985SOL     OW27853   5.190   0.029   2.010
 8985SOL    HW127854   5.127   0.027   1.933
 8985SOL    HW227855   5.199   0.123   2.044
 8986SOL     OW27856   0.626   6.675   6.986
 8986SOL    HW127857   0.596   6.619   6.908
 8986SOL    HW227858   0.711   6.638   7.022
 8987SOL     OW27859   3.301   6.306   2.380
 8987SOL    HW127860   3.231   6.245   2.343
 8987SOL    HW227861   3.274   6.401   2.363
 8988SOL     OW27862   2.351   0.130   0.941
 8988SOL    HW127863   2.310   0.219   0.920
 8988SOL    HW227864   2.420   0.140   1.012
 8989SOL     OW27865   6.157   0.886   1.858
 8989SOL    HW127866   6.159   0.928   1.949
 8989SOL    HW227867   6.234   0.919   1.804
 8990SOL     OW27868   3.697   1.139   2.615
 8990SOL    HW127869   3.704   1.164   2.518
 8990SOL    HW227870   3.610   1.174   2.651
 8991SOL     OW27871   1.187   2.193   0.890
 8991SOL    HW127872   1.206   2.291   0.877
 8991SOL    HW227873   1.092   2.182   0.921
 8992SOL     OW27874   0.812   5.314   5.643
 8992SOL    HW127875   0.844   5.329   5.736
 8992SOL    HW227876   0.731   5.254   5.645
 8993SOL     OW27877   5.235   3.877   3.942
 8993SOL    HW127878   5.193   3.797   3.983
 8993SOL    HW227879   5.241   3.950   4.010
 8994SOL     OW27880   1.909   6.071   1.798
 8994SOL    HW127881   1.986   6.101   1.742
 8994SOL    HW227882   1.939   6.061   1.893
 8995SOL     OW27883   2.143   3.785   3.617
 8995SOL    HW127884   2.134   3.864   3.679
 8995SOL    HW227885   2.158   3.817   3.524
 8996SOL     OW27886   2.811   3.616   1.132
 8996SOL    HW127887   2.715   3.626   1.108
 8996SOL    HW227888   2.818   3.566   1.219
 8997SOL     OW27889   4.448   1.783   5.036
 8997SOL    HW127890   4.531   1.765   4.984
 8997SOL    HW227891   4.445   1.879   5.062
 8998SOL     OW27892   0.882   1.745   6.737
 8998SOL    HW127893   0.842   1.837   6.736
 8998SOL    HW227894   0.810   1.677   6.723
 8999SOL     OW27895   5.746   2.888   5.448
 8999SOL    HW127896   5.700   2.954   5.389
 8999SOL    HW227897   5.691   2.871   5.530
 9000SOL     OW27898   4.755   4.742   1.338
 9000SOL    HW127899   4.742   4.827   1.389
 9000SOL    HW227900   4.669   4.691   1.336
 9001SOL     OW27901   1.110   3.324   4.158
 9001SOL    HW127902   1.177   3.272   4.212
 9001SOL    HW227903   1.133   3.316   4.061
 9002SOL     OW27904   5.057   2.629   5.209
 9002SOL    HW127905   5.076   2.727   5.198
 9002SOL    HW227906   4.960   2.616   5.227
 9003SOL     OW27907   6.697   3.066   6.785
 9003SOL    HW127908   6.600   3.061   6.809
 9003SOL    HW227909   6.711   3.139   6.718
 9004SOL     OW27910   4.732   5.552   0.391
 9004SOL    HW127911   4.686   5.486   0.450
 9004SOL    HW227912   4.824   5.520   0.369
 9005SOL     OW27913   4.940   3.539   3.721
 9005SOL    HW127914   5.025   3.536   3.773
 9005SOL    HW227915   4.877   3.605   3.762
 9006SOL     OW27916   3.014   6.351   1.644
 9006SOL    HW127917   3.023   6.254   1.668
 9006SOL    HW227918   3.090   6.403   1.682
 9007SOL     OW27919   1.790   6.195   5.275
 9007SOL    HW127920   1.843   6.179   5.359
 9007SOL    HW227921   1.851   6.196   5.196
 9008SOL     OW27922   0.026   4.330   2.185
 9008SOL    HW127923   0.106   4.374   2.226
 9008SOL    HW227924   0.042   4.316   2.087
 9009SOL     OW27925   4.421   6.366   0.067
 9009SOL    HW127926   4.334   6.390   0.024
 9009SOL    HW227927   4.405   6.336   0.161
 9010SOL     OW27928   6.846   5.757   4.529
 9010SOL    HW127929   6.942   5.784   4.526
 9010SOL    HW227930   6.830   5.702   4.611
 9011SOL     OW27931   4.436   2.501   1.904
 9011SOL    HW127932   4.493   2.446   1.843
 9011SOL    HW227933   4.461   2.597   1.896
 9012SOL     OW27934   4.229   4.755   2.681
 9012SOL    HW127935   4.268   4.769   2.590
 9012SOL    HW227936   4.282   4.806   2.748
 9013SOL     OW27937   4.264   5.906   1.684
 9013SOL    HW127938   4.358   5.915   1.650
 9013SOL    HW227939   4.266   5.879   1.781
 9014SOL     OW27940   2.341   0.836   1.837
 9014SOL    HW127941   2.368   0.740   1.843
 9014SOL    HW227942   2.290   0.861   1.919
 9015SOL     OW27943   6.640   2.263   4.694
 9015SOL    HW127944   6.556   2.258   4.639
 9015SOL    HW227945   6.624   2.218   4.782
 9016SOL     OW27946   0.172   6.259   0.045
 9016SOL    HW127947   0.226   6.191   0.096
 9016SOL    HW227948   0.115   6.310   0.109
 9017SOL     OW27949   6.190   3.062   2.818
 9017SOL    HW127950   6.131   2.996   2.770
 9017SOL    HW227951   6.140   3.148   2.830
 9018SOL     OW27952   4.370   1.438   6.689
 9018SOL    HW127953   4.406   1.431   6.783
 9018SOL    HW227954   4.272   1.456   6.692
 9019SOL     OW27955   1.852   5.316   6.809
 9019SOL    HW127956   1.815   5.408   6.815
 9019SOL    HW227957   1.803   5.256   6.872
 9020SOL     OW27958   0.726   4.932   4.649
 9020SOL    HW127959   0.801   4.916   4.584
 9020SOL    HW227960   0.737   4.869   4.727
 9021SOL     OW27961   6.102   5.502   5.667
 9021SOL    HW127962   6.161   5.562   5.613
 9021SOL    HW227963   6.147   5.414   5.682
 9022SOL     OW27964   1.945   6.931   6.130
 9022SOL    HW127965   1.872   6.984   6.173
 9022SOL    HW227966   2.032   6.954   6.172
 9023SOL     OW27967   3.618   4.071   4.283
 9023SOL    HW127968   3.691   4.009   4.253
 9023SOL    HW227969   3.533   4.047   4.235
 9024SOL     OW27970   1.210   0.229   6.719
 9024SOL    HW127971   1.245   0.188   6.635
 9024SOL    HW227972   1.279   0.222   6.791
 9025SOL     OW27973   0.452   3.234   0.406
 9025SOL    HW127974   0.493   3.157   0.455
 9025SOL    HW227975   0.504   3.251   0.322
 9026SOL     OW27976   2.989   3.336   5.533
 9026SOL    HW127977   2.907   3.385   5.563
 9026SOL    HW227978   3.068   3.396   5.538
 9027SOL     OW27979   1.681   3.478   2.514
 9027SOL    HW127980   1.724   3.550   2.460
 9027SOL    HW227981   1.709   3.487   2.610
 9028SOL     OW27982   2.213   4.494   4.961
 9028SOL    HW127983   2.187   4.444   5.044
 9028SOL    HW227984   2.214   4.592   4.981
 9029SOL     OW27985   5.516   5.077   2.743
 9029SOL    HW127986   5.577   5.078   2.822
 9029SOL    HW227987   5.538   4.999   2.684
 9030SOL     OW27988   4.559   2.457   3.336
 9030SOL    HW127989   4.539   2.370   3.381
 9030SOL    HW227990   4.574   2.527   3.406
 9031SOL     OW27991   2.403   1.189   1.881
 9031SOL    HW127992   2.419   1.177   1.783
 9031SOL    HW227993   2.466   1.131   1.933
 9032SOL     OW27994   0.304   3.498   2.248
 9032SOL    HW127995   0.336   3.497   2.153
 9032SOL    HW227996   0.363   3.439   2.303
 9033SOL     OW27997   1.159   3.686   2.883
 9033SOL    HW127998   1.143   3.684   2.784
 9033SOL    HW227999   1.207   3.771   2.907
 9034SOL     OW28000   1.712   6.793   6.797
 9034SOL    HW128001   1.716   6.826   6.891
 9034SOL    HW228002   1.785   6.727   6.781
 9035SOL     OW28003   6.277   0.996   4.254
 9035SOL    HW128004   6.252   1.042   4.339
 9035SOL    HW228005   6.207   1.015   4.185
 9036SOL     OW28006   0.587   1.629   4.876
 9036SOL    HW128007   0.588   1.529   4.872
 9036SOL    HW228008   0.652   1.660   4.945
 9037SOL     OW28009   2.518   4.231   5.863
 9037SOL    HW128010   2.563   4.155   5.910
 9037SOL    HW228011   2.559   4.243   5.772
 9038SOL     OW28012   4.402   5.341   5.279
 9038SOL    HW128013   4.437   5.328   5.186
 9038SOL    HW228014   4.432   5.430   5.314
 9039SOL     OW28015   2.792   4.982   6.839
 9039SOL    HW128016   2.843   5.049   6.893
 9039SOL    HW228017   2.855   4.916   6.798
 9040SOL     OW28018   3.169   1.062   2.235
 9040SOL    HW128019   3.147   1.115   2.153
 9040SOL    HW228020   3.136   1.111   2.316
 9041SOL     OW28021   2.552   2.418   5.886
 9041SOL    HW128022   2.478   2.486   5.884
 9041SOL    HW228023   2.598   2.416   5.797
 9042SOL     OW28024   1.827   5.525   2.337
 9042SOL    HW128025   1.796   5.620   2.342
 9042SOL    HW228026   1.920   5.519   2.372
 9043SOL     OW28027   0.342   1.819   6.827
 9043SOL    HW128028   0.380   1.852   6.914
 9043SOL    HW228029   0.279   1.744   6.845
 9044SOL     OW28030   0.773   4.060   0.348
 9044SOL    HW128031   0.824   4.146   0.352
 9044SOL    HW228032   0.769   4.028   0.253
 9045SOL     OW28033   2.298   5.023   4.716
 9045SOL    HW128034   2.319   5.053   4.809
 9045SOL    HW228035   2.281   5.103   4.658
 9046SOL     OW28036   3.450   4.502   6.215
 9046SOL    HW128037   3.530   4.459   6.173
 9046SOL    HW228038   3.397   4.432   6.264
 9047SOL     OW28039   1.103   4.032   4.371
 9047SOL    HW128040   1.067   3.939   4.356
 9047SOL    HW228041   1.030   4.099   4.355
 9048SOL     OW28042   1.641   2.786   5.142
 9048SOL    HW128043   1.546   2.810   5.165
 9048SOL    HW228044   1.661   2.694   5.174
 9049SOL     OW28045   4.866   6.422   5.829
 9049SOL    HW128046   4.833   6.327   5.825
 9049SOL    HW228047   4.803   6.481   5.777
 9050SOL     OW28048   6.791   4.210   6.128
 9050SOL    HW128049   6.872   4.216   6.187
 9050SOL    HW228050   6.719   4.270   6.165
 9051SOL     OW28051   6.320   6.390   6.354
 9051SOL    HW128052   6.319   6.359   6.260
 9051SOL    HW228053   6.268   6.327   6.412
 9052SOL     OW28054   2.911   5.254   4.749
 9052SOL    HW128055   2.982   5.261   4.820
 9052SOL    HW228056   2.872   5.161   4.750
 9053SOL     OW28057   2.342   1.237   2.683
 9053SOL    HW128058   2.410   1.310   2.690
 9053SOL    HW228059   2.253   1.273   2.713
 9054SOL     OW28060   1.456   0.111   1.503
 9054SOL    HW128061   1.361   0.136   1.523
 9054SOL    HW228062   1.503   0.091   1.589
 9055SOL     OW28063   1.342   2.553   5.016
 9055SOL    HW128064   1.351   2.564   4.917
 9055SOL    HW228065   1.347   2.643   5.060
 9056SOL     OW28066   5.039   2.394   1.447
 9056SOL    HW128067   5.098   2.475   1.436
 9056SOL    HW228068   5.090   2.312   1.420
 9057SOL     OW28069   3.862   6.821   6.800
 9057SOL    HW128070   3.849   6.914   6.766
 9057SOL    HW228071   3.777   6.770   6.788
 9058SOL     OW28072   2.470   2.193   3.979
 9058SOL    HW128073   2.567   2.169   3.978
 9058SOL    HW228074   2.455   2.267   4.045
 9059SOL     OW28075   7.009   0.571   2.172
 9059SOL    HW128076   0.061   0.546   2.230
 9059SOL    HW228077   6.962   0.489   2.141
 9060SOL     OW28078   6.565   5.033   6.978
 9060SOL    HW128079   6.614   5.032   0.039
 9060SOL    HW228080   6.628   5.058   6.905
 9061SOL     OW28081   4.682   4.290   2.389
 9061SOL    HW128082   4.626   4.323   2.313
 9061SOL    HW228083   4.776   4.278   2.358
 9062SOL     OW28084   0.256   5.633   2.980
 9062SOL    HW128085   0.193   5.702   3.016
 9062SOL    HW228086   0.343   5.676   2.956
 9063SOL     OW28087   5.119   0.067   1.107
 9063SOL    HW128088   5.046   0.002   1.129
 9063SOL    HW228089   5.147   0.054   1.012
 9064SOL     OW28090   1.380   5.597   3.008
 9064SOL    HW128091   1.331   5.681   2.984
 9064SOL    HW228092   1.439   5.614   3.087
 9065SOL     OW28093   3.201   4.165   6.624
 9065SOL    HW128094   3.252   4.219   6.691
 9065SOL    HW228095   3.106   4.196   6.620
 9066SOL     OW28096   5.370   4.790   3.613
 9066SOL    HW128097   5.281   4.835   3.604
 9066SOL    HW228098   5.357   4.702   3.658
 9067SOL     OW28099   1.944   6.677   4.003
 9067SOL    HW128100   1.978   6.768   4.027
 9067SOL    HW228101   1.844   6.675   4.011
 9068SOL     OW28102   5.061   0.335   5.868
 9068SOL    HW128103   4.997   0.310   5.941
 9068SOL    HW228104   5.013   0.386   5.797
 9069SOL     OW28105   4.902   2.400   1.881
 9069SOL    HW128106   4.817   2.370   1.923
 9069SOL    HW228107   4.899   2.499   1.867
 9070SOL     OW28108   1.423   0.809   6.389
 9070SOL    HW128109   1.403   0.853   6.301
 9070SOL    HW228110   1.477   0.726   6.374
 9071SOL     OW28111   5.102   2.612   7.011
 9071SOL    HW128112   5.155   2.541   0.031
 9071SOL    HW228113   5.056   2.669   0.053
 9072SOL     OW28114   6.532   0.955   1.974
 9072SOL    HW128115   6.506   0.878   2.032
 9072SOL    HW228116   6.504   0.938   1.880
 9073SOL     OW28117   4.623   2.512   5.989
 9073SOL    HW128118   4.686   2.542   5.918
 9073SOL    HW228119   4.649   2.421   6.020
 9074SOL     OW28120   2.137   1.069   3.801
 9074SOL    HW128121   2.234   1.064   3.777
 9074SOL    HW228122   2.099   1.155   3.768
 9075SOL     OW28123   5.018   5.547   0.366
 9075SOL    HW128124   5.026   5.647   0.369
 9075SOL    HW228125   5.092   5.507   0.421
 9076SOL     OW28126   1.778   5.794   2.405
 9076SOL    HW128127   1.876   5.779   2.421
 9076SOL    HW228128   1.759   5.892   2.404
 9077SOL     OW28129   6.320   1.409   6.037
 9077SOL    HW128130   6.271   1.431   5.953
 9077SOL    HW228131   6.417   1.393   6.017
 9078SOL     OW28132   5.192   6.714   6.885
 9078SOL    HW128133   5.159   6.726   6.978
 9078SOL    HW228134   5.239   6.797   6.855
 9079SOL     OW28135   1.519   1.311   6.546
 9079SOL    HW128136   1.475   1.306   6.636
 9079SOL    HW228137   1.451   1.338   6.478
 9080SOL     OW28138   6.233   4.319   1.340
 9080SOL    HW128139   6.274   4.405   1.372
 9080SOL    HW228140   6.135   4.333   1.323
 9081SOL     OW28141   5.084   1.510   0.149
 9081SOL    HW128142   5.121   1.456   0.073
 9081SOL    HW228143   5.109   1.606   0.138
 9082SOL     OW28144   3.258   4.859   6.384
 9082SOL    HW128145   3.167   4.868   6.343
 9082SOL    HW228146   3.260   4.779   6.445
 9083SOL     OW28147   4.116   0.654   1.013
 9083SOL    HW128148   4.191   0.644   1.079
 9083SOL    HW228149   4.083   0.749   1.015
 9084SOL     OW28150   6.707   4.672   4.570
 9084SOL    HW128151   6.717   4.573   4.580
 9084SOL    HW228152   6.644   4.692   4.495
 9085SOL     OW28153   2.662   4.440   1.099
 9085SOL    HW128154   2.578   4.405   1.141
 9085SOL    HW228155   2.714   4.364   1.061
 9086SOL     OW28156   6.636   2.401   0.632
 9086SOL    HW128157   6.574   2.343   0.579
 9086SOL    HW228158   6.638   2.492   0.591
 9087SOL     OW28159   4.791   1.127   1.401
 9087SOL    HW128160   4.708   1.128   1.456
 9087SOL    HW228161   4.870   1.147   1.460
 9088SOL     OW28162   5.529   6.177   6.617
 9088SOL    HW128163   5.558   6.199   6.710
 9088SOL    HW228164   5.593   6.218   6.552
 9089SOL     OW28165   5.048   5.169   2.628
 9089SOL    HW128166   5.101   5.202   2.550
 9089SOL    HW228167   5.025   5.246   2.688
 9090SOL     OW28168   6.228   5.990   5.408
 9090SOL    HW128169   6.131   5.987   5.432
 9090SOL    HW228170   6.239   5.969   5.310
 9091SOL     OW28171   2.859   1.993   1.869
 9091SOL    HW128172   2.815   1.956   1.951
 9091SOL    HW228173   2.854   2.092   1.870
 9092SOL     OW28174   2.524   1.686   5.288
 9092SOL    HW128175   2.443   1.717   5.338
 9092SOL    HW228176   2.499   1.666   5.194
 9093SOL     OW28177   2.026   3.479   0.799
 9093SOL    HW128178   2.076   3.416   0.858
 9093SOL    HW228179   2.020   3.441   0.707
 9094SOL     OW28180   6.297   2.869   0.617
 9094SOL    HW128181   6.343   2.837   0.534
 9094SOL    HW228182   6.355   2.849   0.696
 9095SOL     OW28183   1.764   2.487   0.040
 9095SOL    HW128184   1.705   2.568   0.045
 9095SOL    HW228185   1.708   2.405   0.034
 9096SOL     OW28186   6.532   4.981   2.872
 9096SOL    HW128187   6.494   4.974   2.964
 9096SOL    HW228188   6.458   4.983   2.805
 9097SOL     OW28189   6.498   5.983   5.963
 9097SOL    HW128190   6.566   6.052   5.939
 9097SOL    HW228191   6.544   5.897   5.984
 9098SOL     OW28192   3.756   3.502   5.036
 9098SOL    HW128193   3.684   3.566   5.009
 9098SOL    HW228194   3.746   3.417   4.985
 9099SOL     OW28195   1.653   2.492   6.768
 9099SOL    HW128196   1.595   2.548   6.827
 9099SOL    HW228197   1.730   2.458   6.821
 9100SOL     OW28198   1.352   2.659   0.620
 9100SOL    HW128199   1.254   2.678   0.613
 9100SOL    HW228200   1.382   2.612   0.537
 9101SOL     OW28201   1.960   2.410   6.782
 9101SOL    HW128202   1.931   2.331   6.727
 9101SOL    HW228203   2.056   2.399   6.808
 9102SOL     OW28204   4.648   6.271   1.887
 9102SOL    HW128205   4.720   6.262   1.956
 9102SOL    HW228206   4.566   6.310   1.928
 9103SOL     OW28207   0.725   4.568   6.165
 9103SOL    HW128208   0.783   4.589   6.243
 9103SOL    HW228209   0.677   4.481   6.181
 9104SOL     OW28210   4.849   0.324   3.065
 9104SOL    HW128211   4.882   0.247   3.012
 9104SOL    HW228212   4.779   0.374   3.013
 9105SOL     OW28213   2.961   2.017   6.386
 9105SOL    HW128214   3.001   2.108   6.396
 9105SOL    HW228215   2.959   1.972   6.475
 9106SOL     OW28216   6.502   5.716   1.984
 9106SOL    HW128217   6.569   5.769   2.037
 9106SOL    HW228218   6.457   5.775   1.918
 9107SOL     OW28219   5.015   6.319   6.537
 9107SOL    HW128220   5.107   6.317   6.498
 9107SOL    HW228221   4.955   6.376   6.480
 9108SOL     OW28222   3.726   5.857   0.247
 9108SOL    HW128223   3.631   5.826   0.251
 9108SOL    HW228224   3.771   5.819   0.167
 9109SOL     OW28225   3.137   1.502   3.931
 9109SOL    HW128226   3.043   1.469   3.936
 9109SOL    HW228227   3.139   1.587   3.878
 9110SOL     OW28228   1.224   3.828   3.223
 9110SOL    HW128229   1.279   3.846   3.141
 9110SOL    HW228230   1.131   3.802   3.196
 9111SOL     OW28231   4.250   3.821   1.416
 9111SOL    HW128232   4.297   3.854   1.334
 9111SOL    HW228233   4.189   3.893   1.450
 9112SOL     OW28234   0.849   5.820   2.140
 9112SOL    HW128235   0.814   5.914   2.137
 9112SOL    HW228236   0.821   5.771   2.057
 9113SOL     OW28237   2.819   5.562   6.851
 9113SOL    HW128238   2.764   5.497   6.797
 9113SOL    HW228239   2.786   5.655   6.834
 9114SOL     OW28240   2.628   3.733   1.673
 9114SOL    HW128241   2.555   3.801   1.667
 9114SOL    HW228242   2.587   3.643   1.690
 9115SOL     OW28243   2.137   4.111   4.551
 9115SOL    HW128244   2.133   4.148   4.644
 9115SOL    HW228245   2.136   4.012   4.554
 9116SOL     OW28246   2.607   1.792   6.415
 9116SOL    HW128247   2.644   1.874   6.371
 9116SOL    HW228248   2.681   1.728   6.433
 9117SOL     OW28249   0.575   3.558   0.370
 9117SOL    HW128250   0.508   3.533   0.300
 9117SOL    HW228251   0.527   3.582   0.455
 9118SOL     OW28252   0.849   6.219   1.671
 9118SOL    HW128253   0.831   6.200   1.767
 9118SOL    HW228254   0.923   6.160   1.639
 9119SOL     OW28255   6.251   0.358   1.036
 9119SOL    HW128256   6.323   0.405   0.986
 9119SOL    HW228257   6.270   0.260   1.038
 9120SOL     OW28258   6.174   0.688   6.567
 9120SOL    HW128259   6.216   0.625   6.631
 9120SOL    HW228260   6.085   0.718   6.602
 9121SOL     OW28261   1.587   1.871   6.501
 9121SOL    HW128262   1.587   1.780   6.541
 9121SOL    HW228263   1.672   1.918   6.524
 9122SOL     OW28264   0.953   2.791   1.358
 9122SOL    HW128265   0.952   2.759   1.263
 9122SOL    HW228266   0.880   2.746   1.409
 9123SOL     OW28267   2.300   6.721   6.863
 9123SOL    HW128268   2.396   6.745   6.848
 9123SOL    HW228269   2.294   6.654   6.936
 9124SOL     OW28270   6.616   4.501   5.642
 9124SOL    HW128271   6.712   4.529   5.636
 9124SOL    HW228272   6.599   4.462   5.733
 9125SOL     OW28273   4.774   5.712   0.783
 9125SOL    HW128274   4.781   5.731   0.881
 9125SOL    HW228275   4.788   5.615   0.766
 9126SOL     OW28276   5.948   6.942   3.013
 9126SOL    HW128277   5.952   6.942   2.913
 9126SOL    HW228278   5.860   6.906   3.043
 9127SOL     OW28279   5.590   5.662   5.786
 9127SOL    HW128280   5.673   5.614   5.757
 9127SOL    HW228281   5.606   5.704   5.875
 9128SOL     OW28282   4.767   2.581   5.326
 9128SOL    HW128283   4.681   2.582   5.275
 9128SOL    HW228284   4.764   2.508   5.394
 9129SOL     OW28285   2.088   1.767   7.008
 9129SOL    HW128286   2.165   1.823   6.979
 9129SOL    HW228287   2.025   1.754   6.931
 9130SOL     OW28288   6.185   6.048   1.141
 9130SOL    HW128289   6.272   6.093   1.160
 9130SOL    HW228290   6.197   5.949   1.141
 9131SOL     OW28291   1.325   4.818   4.051
 9131SOL    HW128292   1.392   4.810   4.124
 9131SOL    HW228293   1.359   4.881   3.981
 9132SOL     OW28294   1.817   2.884   4.390
 9132SOL    HW128295   1.837   2.977   4.421
 9132SOL    HW228296   1.807   2.885   4.290
 9133SOL     OW28297   1.897   5.115   1.442
 9133SOL    HW128298   1.980   5.083   1.397
 9133SOL    HW228299   1.818   5.067   1.403
 9134SOL     OW28300   2.774   4.914   6.089
 9134SOL    HW128301   2.715   4.903   6.009
 9134SOL    HW228302   2.754   4.842   6.155
 9135SOL     OW28303   1.071   6.477   4.410
 9135SOL    HW128304   1.164   6.485   4.447
 9135SOL    HW228305   1.007   6.528   4.467
 9136SOL     OW28306   3.704   5.300   5.396
 9136SOL    HW128307   3.742   5.391   5.379
 9136SOL    HW228308   3.610   5.309   5.431
 9137SOL     OW28309   3.986   0.716   1.601
 9137SOL    HW128310   3.889   0.717   1.574
 9137SOL    HW228311   4.000   0.775   1.680
 9138SOL     OW28312   3.011   4.075   1.004
 9138SOL    HW128313   3.084   4.031   1.056
 9138SOL    HW228314   3.025   4.058   0.906
 9139SOL     OW28315   3.500   0.886   5.910
 9139SOL    HW128316   3.419   0.927   5.866
 9139SOL    HW228317   3.522   0.937   5.993
 9140SOL     OW28318   6.633   2.988   3.746
 9140SOL    HW128319   6.639   2.922   3.821
 9140SOL    HW228320   6.665   3.077   3.779
 9141SOL     OW28321   5.648   0.451   5.804
 9141SOL    HW128322   5.623   0.514   5.878
 9141SOL    HW228323   5.594   0.472   5.722
 9142SOL     OW28324   1.026   4.419   6.684
 9142SOL    HW128325   0.986   4.511   6.684
 9142SOL    HW228326   1.100   4.415   6.617
 9143SOL     OW28327   5.755   4.322   0.775
 9143SOL    HW128328   5.844   4.349   0.813
 9143SOL    HW228329   5.753   4.342   0.677
 9144SOL     OW28330   1.428   5.193   4.721
 9144SOL    HW128331   1.469   5.124   4.780
 9144SOL    HW228332   1.345   5.228   4.763
 9145SOL     OW28333   0.502   4.122   6.364
 9145SOL    HW128334   0.534   4.060   6.292
 9145SOL    HW228335   0.403   4.113   6.375
 9146SOL     OW28336   0.639   1.860   1.377
 9146SOL    HW128337   0.713   1.833   1.316
 9146SOL    HW228338   0.591   1.778   1.409
 9147SOL     OW28339   4.466   6.092   5.844
 9147SOL    HW128340   4.528   6.170   5.835
 9147SOL    HW228341   4.373   6.121   5.820
 9148SOL     OW28342   3.404   5.394   3.084
 9148SOL    HW128343   3.437   5.379   2.991
 9148SOL    HW228344   3.348   5.316   3.112
 9149SOL     OW28345   6.242   2.856   4.785
 9149SOL    HW128346   6.273   2.761   4.786
 9149SOL    HW228347   6.321   2.917   4.792
 9150SOL     OW28348   4.453   1.451   2.756
 9150SOL    HW128349   4.353   1.445   2.756
 9150SOL    HW228350   4.484   1.490   2.843
 9151SOL     OW28351   0.891   3.244   1.921
 9151SOL    HW128352   0.966   3.287   1.972
 9151SOL    HW228353   0.879   3.150   1.951
 9152SOL     OW28354   2.257   5.345   3.497
 9152SOL    HW128355   2.239   5.429   3.446
 9152SOL    HW228356   2.354   5.323   3.492
 9153SOL     OW28357   1.512   2.955   6.935
 9153SOL    HW128358   1.496   2.936   6.838
 9153SOL    HW228359   1.593   3.013   6.945
 9154SOL     OW28360   1.636   5.585   0.705
 9154SOL    HW128361   1.663   5.612   0.797
 9154SOL    HW228362   1.656   5.488   0.691
 9155SOL     OW28363   1.617   4.319   6.862
 9155SOL    HW128364   1.623   4.220   6.862
 9155SOL    HW228365   1.547   4.349   6.796
 9156SOL     OW28366   5.221   2.382   1.765
 9156SOL    HW128367   5.145   2.323   1.791
 9156SOL    HW228368   5.188   2.454   1.704
 9157SOL     OW28369   5.232   3.767   5.620
 9157SOL    HW128370   5.308   3.761   5.685
 9157SOL    HW228371   5.258   3.824   5.543
 9158SOL     OW28372   0.514   3.792   3.354
 9158SOL    HW128373   0.584   3.736   3.398
 9158SOL    HW228374   0.555   3.877   3.321
 9159SOL     OW28375   7.017   4.787   2.379
 9159SOL    HW128376   7.004   4.768   2.476
 9159SOL    HW228377   0.000   4.886   2.365
 9160SOL     OW28378   0.141   0.135   0.813
 9160SOL    HW128379   0.069   0.186   0.859
 9160SOL    HW228380   0.107   0.097   0.727
 9161SOL     OW28381   5.178   4.036   2.618
 9161SOL    HW128382   5.222   4.006   2.534
 9161SOL    HW228383   5.207   3.977   2.694
 9162SOL     OW28384   5.276   2.434   2.614
 9162SOL    HW128385   5.258   2.360   2.679
 9162SOL    HW228386   5.205   2.435   2.544
 9163SOL     OW28387   3.066   1.050   4.812
 9163SOL    HW128388   3.159   1.043   4.774
 9163SOL    HW228389   3.065   1.011   4.904
 9164SOL     OW28390   2.647   0.514   0.828
 9164SOL    HW128391   2.578   0.523   0.900
 9164SOL    HW228392   2.648   0.420   0.794
 9165SOL     OW28393   4.558   5.689   0.237
 9165SOL    HW128394   4.472   5.637   0.234
 9165SOL    HW228395   4.625   5.638   0.291
 9166SOL     OW28396   2.680   5.489   1.348
 9166SOL    HW128397   2.675   5.437   1.433
 9166SOL    HW228398   2.726   5.435   1.278
 9167SOL     OW28399   0.177   3.936   4.690
 9167SOL    HW128400   0.095   3.966   4.739
 9167SOL    HW228401   0.165   3.841   4.660
 9168SOL     OW28402   3.368   0.586   0.114
 9168SOL    HW128403   3.402   0.562   0.023
 9168SOL    HW228404   3.429   0.654   0.156
 9169SOL     OW28405   0.218   6.738   3.192
 9169SOL    HW128406   0.185   6.693   3.274
 9169SOL    HW228407   0.154   6.810   3.166
 9170SOL     OW28408   6.303   6.139   6.931
 9170SOL    HW128409   6.319   6.088   7.016
 9170SOL    HW228410   6.390   6.166   6.891
 9171SOL     OW28411   2.970   5.743   5.526
 9171SOL    HW128412   2.934   5.685   5.452
 9171SOL    HW228413   2.960   5.695   5.613
 9172SOL     OW28414   2.837   2.353   4.124
 9172SOL    HW128415   2.811   2.386   4.214
 9172SOL    HW228416   2.911   2.286   4.133
 9173SOL     OW28417   0.824   5.148   5.063
 9173SOL    HW128418   0.747   5.208   5.085
 9173SOL    HW228419   0.795   5.052   5.071
 9174SOL     OW28420   0.345   5.799   6.824
 9174SOL    HW128421   0.252   5.818   6.792
 9174SOL    HW228422   0.384   5.883   6.863
 9175SOL     OW28423   1.673   6.504   5.726
 9175SOL    HW128424   1.731   6.584   5.740
 9175SOL    HW228425   1.597   6.529   5.666
 9176SOL     OW28426   1.464   1.883   5.804
 9176SOL    HW128427   1.534   1.940   5.763
 9176SOL    HW228428   1.474   1.789   5.770
 9177SOL     OW28429   1.320   4.703   3.284
 9177SOL    HW128430   1.271   4.789   3.296
 9177SOL    HW228431   1.293   4.639   3.356
 9178SOL     OW28432   2.007   4.235   0.393
 9178SOL    HW128433   2.092   4.228   0.340
 9178SOL    HW228434   2.027   4.272   0.484
 9179SOL     OW28435   2.335   5.121   4.966
 9179SOL    HW128436   2.302   5.148   5.057
 9179SOL    HW228437   2.420   5.169   4.946
 9180SOL     OW28438   5.823   2.181   2.958
 9180SOL    HW128439   5.839   2.220   2.868
 9180SOL    HW228440   5.796   2.254   3.021
 9181SOL     OW28441   3.905   1.212   2.010
 9181SOL    HW128442   3.897   1.183   1.915
 9181SOL    HW228443   3.959   1.145   2.061
 9182SOL     OW28444   2.516   6.751   1.910
 9182SOL    HW128445   2.606   6.728   1.947
 9182SOL    HW228446   2.473   6.668   1.874
 9183SOL     OW28447   5.002   5.463   5.690
 9183SOL    HW128448   4.997   5.562   5.687
 9183SOL    HW228449   4.945   5.424   5.617
 9184SOL     OW28450   4.816   6.538   6.952
 9184SOL    HW128451   4.898   6.507   6.904
 9184SOL    HW228452   4.757   6.459   6.971
 9185SOL     OW28453   4.596   1.630   4.691
 9185SOL    HW128454   4.684   1.674   4.674
 9185SOL    HW228455   4.590   1.602   4.786
 9186SOL     OW28456   5.193   6.946   6.564
 9186SOL    HW128457   5.250   6.966   6.485
 9186SOL    HW228458   5.213   7.012   6.637
 9187SOL     OW28459   2.547   6.445   2.492
 9187SOL    HW128460   2.584   6.537   2.474
 9187SOL    HW228461   2.606   6.398   2.558
 9188SOL     OW28462   2.417   6.049   0.971
 9188SOL    HW128463   2.340   6.112   0.982
 9188SOL    HW228464   2.407   5.973   1.036
 9189SOL     OW28465   5.103   5.162   1.961
 9189SOL    HW128466   5.183   5.135   2.014
 9189SOL    HW228467   5.101   5.262   1.952
 9190SOL     OW28468   0.881   5.854   0.425
 9190SOL    HW128469   0.867   5.929   0.361
 9190SOL    HW228470   0.972   5.815   0.411
 9191SOL     OW28471   6.706   0.472   6.159
 9191SOL    HW128472   6.626   0.528   6.182
 9191SOL    HW228473   6.757   0.516   6.085
 9192SOL     OW28474   1.318   3.916   4.980
 9192SOL    HW128475   1.337   3.956   4.891
 9192SOL    HW228476   1.220   3.923   4.999
 9193SOL     OW28477   2.284   3.541   0.211
 9193SOL    HW128478   2.316   3.447   0.218
 9193SOL    HW228479   2.300   3.589   0.297
 9194SOL     OW28480   2.908   0.558   4.594
 9194SOL    HW128481   2.973   0.634   4.605
 9194SOL    HW228482   2.946   0.492   4.530
 9195SOL     OW28483   1.581   1.039   3.931
 9195SOL    HW128484   1.617   0.951   3.901
 9195SOL    HW228485   1.607   1.055   4.027
 9196SOL     OW28486   5.001   1.461   5.684
 9196SOL    HW128487   4.972   1.366   5.690
 9196SOL    HW228488   4.946   1.517   5.747
 9197SOL     OW28489   2.412   3.925   0.443
 9197SOL    HW128490   2.497   3.955   0.399
 9197SOL    HW228491   2.383   3.995   0.509
 9198SOL     OW28492   0.844   5.036   4.034
 9198SOL    HW128493   0.854   5.043   4.133
 9198SOL    HW228494   0.920   4.982   3.996
 9199SOL     OW28495   5.893   3.997   4.949
 9199SOL    HW128496   5.801   4.022   4.980
 9199SOL    HW228497   5.952   3.984   5.029
 9200SOL     OW28498   3.216   0.436   0.268
 9200SOL    HW128499   3.246   0.341   0.259
 9200SOL    HW228500   3.265   0.492   0.201
 9201SOL     OW28501   1.867   4.687   0.863
 9201SOL    HW128502   1.858   4.650   0.771
 9201SOL    HW228503   1.804   4.639   0.925
 9202SOL     OW28504   2.421   0.674   3.997
 9202SOL    HW128505   2.452   0.621   3.917
 9202SOL    HW228506   2.322   0.687   3.991
 9203SOL     OW28507   6.347   6.749   0.565
 9203SOL    HW128508   6.318   6.678   0.630
 9203SOL    HW228509   6.435   6.786   0.593
 9204SOL     OW28510   5.736   0.356   5.273
 9204SOL    HW128511   5.698   0.447   5.257
 9204SOL    HW228512   5.669   0.299   5.320
 9205SOL     OW28513   0.036   5.407   1.591
 9205SOL    HW128514   6.987   5.380   1.653
 9205SOL    HW228515   0.114   5.347   1.604
 9206SOL     OW28516   3.664   6.501   0.239
 9206SOL    HW128517   3.744   6.465   0.191
 9206SOL    HW228518   3.587   6.439   0.225
 9207SOL     OW28519   5.139   5.586   6.108
 9207SOL    HW128520   5.203   5.571   6.033
 9207SOL    HW228521   5.189   5.599   6.193
 9208SOL     OW28522   1.430   3.930   2.708
 9208SOL    HW128523   1.491   3.863   2.667
 9208SOL    HW228524   1.443   4.019   2.664
 9209SOL     OW28525   2.331   0.025   6.921
 9209SOL    HW128526   2.364   0.016   7.015
 9209SOL    HW228527   2.286   6.965   6.893
 9210SOL     OW28528   6.609   0.948   3.722
 9210SOL    HW128529   6.625   1.043   3.747
 9210SOL    HW228530   6.696   0.905   3.695
 9211SOL     OW28531   0.657   1.765   2.699
 9211SOL    HW128532   0.613   1.812   2.622
 9211SOL    HW228533   0.587   1.726   2.758
 9212SOL     OW28534   3.589   5.507   4.484
 9212SOL    HW128535   3.674   5.557   4.465
 9212SOL    HW228536   3.608   5.409   4.489
 9213SOL     OW28537   6.188   4.360   6.570
 9213SOL    HW128538   6.266   4.301   6.589
 9213SOL    HW228539   6.130   4.317   6.501
 9214SOL     OW28540   0.206   5.216   0.078
 9214SOL    HW128541   0.280   5.222   0.011
 9214SOL    HW228542   0.136   5.283   0.056
 9215SOL     OW28543   1.225   1.603   0.982
 9215SOL    HW128544   1.173   1.569   1.060
 9215SOL    HW228545   1.247   1.699   0.995
 9216SOL     OW28546   2.149   0.329   3.717
 9216SOL    HW128547   2.136   0.409   3.659
 9216SOL    HW228548   2.242   0.328   3.754
 9217SOL     OW28549   0.484   2.847   0.612
 9217SOL    HW128550   0.451   2.770   0.666
 9217SOL    HW228551   0.417   2.922   0.617
 9218SOL     OW28552   1.897   1.185   0.609
 9218SOL    HW128553   1.976   1.148   0.559
 9218SOL    HW228554   1.896   1.284   0.600
 9219SOL     OW28555   6.647   1.731   0.437
 9219SOL    HW128556   6.710   1.722   0.514
 9219SOL    HW228557   6.565   1.677   0.453
 9220SOL     OW28558   3.511   5.973   0.927
 9220SOL    HW128559   3.571   5.909   0.976
 9220SOL    HW228560   3.546   5.986   0.834
 9221SOL     OW28561   2.720   4.738   4.806
 9221SOL    HW128562   2.785   4.706   4.875
 9221SOL    HW228563   2.664   4.662   4.775
 9222SOL     OW28564   3.009   2.291   6.491
 9222SOL    HW128565   3.094   2.341   6.506
 9222SOL    HW228566   2.956   2.288   6.576
 9223SOL     OW28567   2.863   3.122   5.211
 9223SOL    HW128568   2.769   3.092   5.199
 9223SOL    HW228569   2.867   3.222   5.208
 9224SOL     OW28570   2.266   4.767   5.261
 9224SOL    HW128571   2.322   4.849   5.260
 9224SOL    HW228572   2.200   4.772   5.336
 9225SOL     OW28573   1.920   6.712   0.158
 9225SOL    HW128574   1.861   6.665   0.092
 9225SOL    HW228575   1.865   6.775   0.213
 9226SOL     OW28576   4.558   6.528   0.750
 9226SOL    HW128577   4.608   6.525   0.664
 9226SOL    HW228578   4.542   6.624   0.776
 9227SOL     OW28579   1.501   6.721   2.117
 9227SOL    HW128580   1.413   6.731   2.070
 9227SOL    HW228581   1.533   6.627   2.110
 9228SOL     OW28582   0.745   6.967   6.830
 9228SOL    HW128583   0.693   6.883   6.847
 9228SOL    HW228584   0.771   6.972   6.734
 9229SOL     OW28585   0.664   5.768   5.355
 9229SOL    HW128586   0.658   5.867   5.371
 9229SOL    HW228587   0.620   5.719   5.430
 9230SOL     OW28588   4.972   1.182   3.314
 9230SOL    HW128589   4.898   1.130   3.357
 9230SOL    HW228590   4.935   1.265   3.273
 9231SOL     OW28591   2.055   3.417   3.615
 9231SOL    HW128592   2.112   3.465   3.682
 9231SOL    HW228593   2.082   3.444   3.523
 9232SOL     OW28594   4.249   4.838   0.948
 9232SOL    HW128595   4.275   4.742   0.961
 9232SOL    HW228596   4.239   4.857   0.851
 9233SOL     OW28597   4.985   4.406   0.732
 9233SOL    HW128598   4.967   4.458   0.649
 9233SOL    HW228599   5.056   4.453   0.786
 9234SOL     OW28600   1.680   6.156   3.675
 9234SOL    HW128601   1.586   6.190   3.687
 9234SOL    HW228602   1.719   6.134   3.764
 9235SOL     OW28603   0.586   2.275   3.521
 9235SOL    HW128604   0.590   2.373   3.500
 9235SOL    HW228605   0.621   2.260   3.614
 9236SOL     OW28606   4.326   2.553   5.832
 9236SOL    HW128607   4.331   2.463   5.878
 9236SOL    HW228608   4.255   2.608   5.876
 9237SOL     OW28609   1.597   3.714   3.460
 9237SOL    HW128610   1.586   3.616   3.451
 9237SOL    HW228611   1.659   3.734   3.536
 9238SOL     OW28612   4.425   3.324   6.655
 9238SOL    HW128613   4.379   3.290   6.737
 9238SOL    HW228614   4.501   3.383   6.683
 9239SOL     OW28615   1.434   3.419   6.439
 9239SOL    HW128616   1.348   3.420   6.490
 9239SOL    HW228617   1.465   3.512   6.422
 9240SOL     OW28618   4.716   0.983   1.846
 9240SOL    HW128619   4.642   1.050   1.845
 9240SOL    HW228620   4.728   0.948   1.939
 9241SOL     OW28621   0.724   5.140   6.392
 9241SOL    HW128622   0.703   5.236   6.409
 9241SOL    HW228623   0.789   5.133   6.316
 9242SOL     OW28624   5.974   6.091   1.780
 9242SOL    HW128625   6.059   6.109   1.730
 9242SOL    HW228626   5.937   6.177   1.815
 9243SOL     OW28627   5.825   6.374   4.094
 9243SOL    HW128628   5.834   6.278   4.067
 9243SOL    HW228629   5.915   6.410   4.120
 9244SOL     OW28630   3.557   5.395   0.677
 9244SOL    HW128631   3.533   5.471   0.738
 9244SOL    HW228632   3.574   5.313   0.731
 9245SOL     OW28633   0.537   6.842   1.448
 9245SOL    HW128634   0.572   6.893   1.369
 9245SOL    HW228635   0.602   6.850   1.524
 9246SOL     OW28636   6.825   4.961   4.052
 9246SOL    HW128637   6.821   5.054   4.015
 9246SOL    HW228638   6.877   4.903   3.990
 9247SOL     OW28639   1.471   0.040   3.572
 9247SOL    HW128640   1.547   0.046   3.507
 9247SOL    HW228641   1.441   0.132   3.596
 9248SOL     OW28642   3.772   2.064   6.055
 9248SOL    HW128643   3.709   2.121   6.002
 9248SOL    HW228644   3.775   1.972   6.015
 9249SOL     OW28645   4.173   6.251   3.244
 9249SOL    HW128646   4.136   6.213   3.160
 9249SOL    HW228647   4.219   6.337   3.224
 9250SOL     OW28648   5.105   3.775   3.257
 9250SOL    HW128649   5.133   3.862   3.296
 9250SOL    HW228650   5.087   3.710   3.330
 9251SOL     OW28651   3.931   1.949   2.973
 9251SOL    HW128652   3.869   1.985   2.904
 9251SOL    HW228653   3.878   1.900   3.043
 9252SOL     OW28654   1.584   6.947   4.335
 9252SOL    HW128655   1.524   6.924   4.258
 9252SOL    HW228656   1.668   6.987   4.299
 9253SOL     OW28657   1.438   6.592   5.605
 9253SOL    HW128658   1.357   6.534   5.594
 9253SOL    HW228659   1.417   6.685   5.573
 9254SOL     OW28660   5.428   2.458   1.396
 9254SOL    HW128661   5.447   2.379   1.455
 9254SOL    HW228662   5.420   2.429   1.301
 9255SOL     OW28663   7.004   5.327   0.527
 9255SOL    HW128664   0.002   5.393   0.598
 9255SOL    HW228665   0.024   5.354   0.441
 9256SOL     OW28666   3.820   5.191   2.037
 9256SOL    HW128667   3.768   5.193   1.951
 9256SOL    HW228668   3.757   5.177   2.113
 9257SOL     OW28669   0.899   3.865   0.865
 9257SOL    HW128670   0.870   3.874   0.770
 9257SOL    HW228671   0.998   3.879   0.871
 9258SOL     OW28672   3.319   3.142   3.680
 9258SOL    HW128673   3.344   3.076   3.751
 9258SOL    HW228674   3.401   3.187   3.645
 9259SOL     OW28675   1.134   2.345   0.471
 9259SOL    HW128676   1.217   2.396   0.451
 9259SOL    HW228677   1.123   2.272   0.404
 9260SOL     OW28678   6.658   3.716   0.220
 9260SOL    HW128679   6.655   3.650   0.295
 9260SOL    HW228680   6.565   3.739   0.193
 9261SOL     OW28681   3.449   6.985   6.209
 9261SOL    HW128682   3.394   6.904   6.190
 9261SOL    HW228683   3.491   7.018   6.124
 9262SOL     OW28684   5.312   0.628   5.752
 9262SOL    HW128685   5.310   0.709   5.812
 9262SOL    HW228686   5.320   0.546   5.808
 9263SOL     OW28687   6.038   4.056   2.119
 9263SOL    HW128688   6.125   4.016   2.091
 9263SOL    HW228689   5.974   4.053   2.043
 9264SOL     OW28690   5.900   2.306   0.126
 9264SOL    HW128691   5.835   2.303   0.050
 9264SOL    HW228692   5.962   2.228   0.121
 9265SOL     OW28693   1.501   1.583   5.447
 9265SOL    HW128694   1.501   1.490   5.410
 9265SOL    HW228695   1.506   1.649   5.372
 9266SOL     OW28696   2.803   6.137   1.876
 9266SOL    HW128697   2.815   6.236   1.885
 9266SOL    HW228698   2.748   6.103   1.952
 9267SOL     OW28699   2.660   5.252   5.648
 9267SOL    HW128700   2.752   5.240   5.686
 9267SOL    HW228701   2.662   5.236   5.550
 9268SOL     OW28702   0.745   1.483   3.006
 9268SOL    HW128703   0.822   1.530   3.050
 9268SOL    HW228704   0.762   1.385   3.005
 9269SOL     OW28705   3.933   1.705   5.708
 9269SOL    HW128706   3.923   1.742   5.615
 9269SOL    HW228707   4.006   1.754   5.756
 9270SOL     OW28708   1.257   0.047   6.041
 9270SOL    HW128709   1.215   6.985   6.019
 9270SOL    HW228710   1.191   0.121   6.025
 9271SOL     OW28711   0.589   5.217   5.960
 9271SOL    HW128712   0.558   5.122   5.952
 9271SOL    HW228713   0.551   5.257   6.044
 9272SOL     OW28714   2.150   5.072   6.553
 9272SOL    HW128715   2.086   5.003   6.586
 9272SOL    HW228716   2.100   5.157   6.536
 9273SOL     OW28717   4.009   5.841   5.494
 9273SOL    HW128718   4.028   5.939   5.493
 9273SOL    HW228719   3.949   5.819   5.418
 9274SOL     OW28720   5.680   2.101   1.694
 9274SOL    HW128721   5.716   2.111   1.787
 9274SOL    HW228722   5.584   2.071   1.699
 9275SOL     OW28723   0.184   0.658   6.220
 9275SOL    HW128724   0.146   0.738   6.265
 9275SOL    HW228725   0.185   0.581   6.284
 9276SOL     OW28726   4.888   6.656   3.462
 9276SOL    HW128727   4.864   6.573   3.513
 9276SOL    HW228728   4.831   6.661   3.380
 9277SOL     OW28729   3.498   2.643   0.559
 9277SOL    HW128730   3.483   2.557   0.607
 9277SOL    HW228731   3.554   2.703   0.615
 9278SOL     OW28732   1.774   2.892   1.318
 9278SOL    HW128733   1.777   2.866   1.221
 9278SOL    HW228734   1.695   2.848   1.361
 9279SOL     OW28735   1.871   6.531   0.741
 9279SOL    HW128736   1.943   6.468   0.770
 9279SOL    HW228737   1.909   6.599   0.678
 9280SOL     OW28738   2.167   0.485   2.937
 9280SOL    HW128739   2.201   0.571   2.974
 9280SOL    HW228740   2.080   0.462   2.981
 9281SOL     OW28741   2.426   2.597   0.577
 9281SOL    HW128742   2.452   2.622   0.484
 9281SOL    HW228743   2.389   2.504   0.578
 9282SOL     OW28744   4.369   1.193   6.374
 9282SOL    HW128745   4.406   1.138   6.449
 9282SOL    HW228746   4.433   1.266   6.352
 9283SOL     OW28747   5.561   2.439   2.572
 9283SOL    HW128748   5.473   2.430   2.618
 9283SOL    HW228749   5.582   2.535   2.558
 9284SOL     OW28750   3.491   3.920   1.884
 9284SOL    HW128751   3.495   3.988   1.957
 9284SOL    HW228752   3.566   3.935   1.819
 9285SOL     OW28753   6.210   2.275   6.913
 9285SOL    HW128754   6.171   2.245   7.001
 9285SOL    HW228755   6.289   2.219   6.891
 9286SOL     OW28756   5.784   5.466   4.836
 9286SOL    HW128757   5.876   5.430   4.854
 9286SOL    HW228758   5.770   5.549   4.890
 9287SOL     OW28759   2.705   6.988   1.919
 9287SOL    HW128760   2.677   6.909   1.865
 9287SOL    HW228761   2.801   7.008   1.902
 9288SOL     OW28762   5.047   1.851   6.008
 9288SOL    HW128763   5.087   1.798   5.933
 9288SOL    HW228764   5.115   1.917   6.041
 9289SOL     OW28765   5.807   3.847   2.719
 9289SOL    HW128766   5.786   3.751   2.698
 9289SOL    HW228767   5.729   3.890   2.762
 9290SOL     OW28768   4.412   1.828   4.616
 9290SOL    HW128769   4.459   1.884   4.549
 9290SOL    HW228770   4.471   1.753   4.645
 9291SOL     OW28771   1.106   1.408   5.037
 9291SOL    HW128772   1.184   1.470   5.028
 9291SOL    HW228773   1.036   1.450   5.096
 9292SOL     OW28774   0.372   3.456   0.214
 9292SOL    HW128775   0.348   3.365   0.181
 9292SOL    HW228776   0.321   3.475   0.299
 9293SOL     OW28777   6.546   3.770   6.261
 9293SOL    HW128778   6.514   3.691   6.312
 9293SOL    HW228779   6.575   3.741   6.170
 9294SOL     OW28780   5.379   5.916   6.220
 9294SOL    HW128781   5.421   5.929   6.310
 9294SOL    HW228782   5.386   6.001   6.168
 9295SOL     OW28783   4.497   1.968   3.622
 9295SOL    HW128784   4.545   2.047   3.584
 9295SOL    HW228785   4.562   1.894   3.638
 9296SOL     OW28786   6.688   6.935   5.268
 9296SOL    HW128787   6.709   6.984   5.183
 9296SOL    HW228788   6.645   6.847   5.246
 9297SOL     OW28789   0.670   0.715   1.754
 9297SOL    HW128790   0.639   0.622   1.734
 9297SOL    HW228791   0.712   0.755   1.673
 9298SOL     OW28792   0.584   6.291   4.675
 9298SOL    HW128793   0.669   6.280   4.725
 9298SOL    HW228794   0.533   6.370   4.711
 9299SOL     OW28795   1.805   3.083   3.668
 9299SOL    HW128796   1.860   3.087   3.585
 9299SOL    HW228797   1.743   3.162   3.671
 9300SOL     OW28798   5.841   4.289   3.830
 9300SOL    HW128799   5.803   4.307   3.921
 9300SOL    HW228800   5.934   4.327   3.825
 9301SOL     OW28801   6.505   4.394   1.648
 9301SOL    HW128802   6.562   4.411   1.568
 9301SOL    HW228803   6.561   4.395   1.730
 9302SOL     OW28804   2.237   2.161   2.406
 9302SOL    HW128805   2.265   2.191   2.497
 9302SOL    HW228806   2.315   2.163   2.344
 9303SOL     OW28807   4.637   4.320   0.592
 9303SOL    HW128808   4.603   4.286   0.504
 9303SOL    HW228809   4.734   4.340   0.584
 9304SOL     OW28810   4.277   3.394   0.172
 9304SOL    HW128811   4.208   3.370   0.103
 9304SOL    HW228812   4.334   3.314   0.191
 9305SOL     OW28813   4.913   3.822   2.185
 9305SOL    HW128814   4.871   3.752   2.126
 9305SOL    HW228815   4.886   3.913   2.153
 9306SOL     OW28816   6.199   4.962   4.212
 9306SOL    HW128817   6.153   4.888   4.163
 9306SOL    HW228818   6.295   4.966   4.186
 9307SOL     OW28819   2.235   0.872   6.192
 9307SOL    HW128820   2.311   0.827   6.144
 9307SOL    HW228821   2.168   0.803   6.218
 9308SOL     OW28822   6.825   2.233   0.487
 9308SOL    HW128823   6.787   2.324   0.472
 9308SOL    HW228824   6.761   2.164   0.453
 9309SOL     OW28825   5.073   2.890   6.340
 9309SOL    HW128826   5.136   2.958   6.303
 9309SOL    HW228827   5.048   2.826   6.268
 9310SOL     OW28828   4.264   6.182   0.944
 9310SOL    HW128829   4.320   6.264   0.948
 9310SOL    HW228830   4.317   6.108   0.902
 9311SOL     OW28831   6.842   3.316   1.753
 9311SOL    HW128832   6.812   3.221   1.764
 9311SOL    HW228833   6.764   3.372   1.722
 9312SOL     OW28834   1.908   4.421   5.126
 9312SOL    HW128835   1.846   4.441   5.201
 9312SOL    HW228836   1.861   4.366   5.057
 9313SOL     OW28837   6.169   6.659   2.513
 9313SOL    HW128838   6.098   6.631   2.448
 9313SOL    HW228839   6.166   6.758   2.526
 9314SOL     OW28840   5.728   4.239   6.855
 9314SOL    HW128841   5.815   4.190   6.847
 9314SOL    HW228842   5.740   4.334   6.828
 9315SOL     OW28843   0.560   6.824   6.401
 9315SOL    HW128844   0.552   6.728   6.429
 9315SOL    HW228845   0.541   6.883   6.479
 9316SOL     OW28846   3.251   6.118   4.443
 9316SOL    HW128847   3.250   6.034   4.389
 9316SOL    HW228848   3.233   6.097   4.539
 9317SOL     OW28849   4.713   4.229   5.473
 9317SOL    HW128850   4.754   4.257   5.559
 9317SOL    HW228851   4.627   4.182   5.491
 9318SOL     OW28852   6.731   6.514   6.215
 9318SOL    HW128853   6.712   6.450   6.140
 9318SOL    HW228854   6.709   6.471   6.302
 9319SOL     OW28855   6.668   2.892   4.401
 9319SOL    HW128856   6.714   2.955   4.338
 9319SOL    HW228857   6.683   2.798   4.370
 9320SOL     OW28858   4.211   2.933   6.123
 9320SOL    HW128859   4.118   2.928   6.088
 9320SOL    HW228860   4.210   2.939   6.223
 9321SOL     OW28861   5.607   6.148   4.026
 9321SOL    HW128862   5.550   6.222   4.061
 9321SOL    HW228863   5.590   6.135   3.928
 9322SOL     OW28864   0.864   6.691   0.383
 9322SOL    HW128865   0.954   6.698   0.340
 9322SOL    HW228866   0.872   6.713   0.481
 9323SOL     OW28867   0.532   1.281   6.590
 9323SOL    HW128868   0.623   1.289   6.631
 9323SOL    HW228869   0.484   1.203   6.630
 9324SOL     OW28870   1.632   5.559   6.684
 9324SOL    HW128871   1.570   5.590   6.611
 9324SOL    HW228872   1.587   5.487   6.737
 9325SOL     OW28873   0.079   2.955   0.543
 9325SOL    HW128874   7.007   2.968   0.525
 9325SOL    HW228875   0.132   2.997   0.469
 9326SOL     OW28876   2.101   5.599   1.499
 9326SOL    HW128877   2.190   5.575   1.539
 9326SOL    HW228878   2.075   5.529   1.432
 9327SOL     OW28879   3.637   1.046   3.541
 9327SOL    HW128880   3.543   1.060   3.509
 9327SOL    HW228881   3.700   1.096   3.482
 9328SOL     OW28882   2.846   0.727   1.859
 9328SOL    HW128883   2.832   0.771   1.770
 9328SOL    HW228884   2.852   0.628   1.846
 9329SOL     OW28885   1.146   4.025   2.064
 9329SOL    HW128886   1.223   3.996   2.121
 9329SOL    HW228887   1.061   3.989   2.102
 9330SOL     OW28888   5.625   6.737   6.578
 9330SOL    HW128889   5.714   6.721   6.621
 9330SOL    HW228890   5.579   6.812   6.624
 9331SOL     OW28891   0.483   1.869   0.023
 9331SOL    HW128892   0.508   1.951   0.074
 9331SOL    HW228893   0.555   1.801   0.031
 9332SOL     OW28894   3.804   3.783   5.270
 9332SOL    HW128895   3.850   3.713   5.325
 9332SOL    HW228896   3.706   3.761   5.263
 9333SOL     OW28897   5.100   5.591   1.160
 9333SOL    HW128898   5.010   5.554   1.139
 9333SOL    HW228899   5.152   5.602   1.075
 9334SOL     OW28900   2.740   0.040   4.852
 9334SOL    HW128901   2.656   7.017   4.828
 9334SOL    HW228902   2.819   7.004   4.840
 9335SOL     OW28903   0.855   0.828   2.000
 9335SOL    HW128904   0.769   0.880   1.997
 9335SOL    HW228905   0.835   0.735   2.030
 9336SOL     OW28906   3.186   6.947   5.250
 9336SOL    HW128907   3.094   6.928   5.216
 9336SOL    HW228908   3.252   6.938   5.175
 9337SOL     OW28909   4.532   6.880   2.693
 9337SOL    HW128910   4.506   6.817   2.619
 9337SOL    HW228911   4.472   6.960   2.691
 9338SOL     OW28912   3.375   6.936   1.709
 9338SOL    HW128913   3.401   6.981   1.795
 9338SOL    HW228914   3.344   7.005   1.643
 9339SOL     OW28915   3.579   5.554   1.592
 9339SOL    HW128916   3.601   5.575   1.687
 9339SOL    HW228917   3.519   5.626   1.555
 9340SOL     OW28918   6.412   3.383   0.925
 9340SOL    HW128919   6.452   3.471   0.950
 9340SOL    HW228920   6.313   3.395   0.912
 9341SOL     OW28921   6.660   4.284   5.836
 9341SOL    HW128922   6.705   4.251   5.753
 9341SOL    HW228923   6.726   4.287   5.911
 9342SOL     OW28924   1.302   7.013   6.325
 9342SOL    HW128925   1.315   6.914   6.323
 9342SOL    HW228926   1.285   0.020   6.232
 9343SOL     OW28927   6.041   6.264   3.954
 9343SOL    HW128928   6.077   6.327   4.022
 9343SOL    HW228929   6.101   6.184   3.947
 9344SOL     OW28930   4.604   6.797   1.064
 9344SOL    HW128931   4.571   6.787   0.970
 9344SOL    HW228932   4.671   6.870   1.068
 9345SOL     OW28933   0.423   3.177   1.051
 9345SOL    HW128934   0.397   3.255   1.108
 9345SOL    HW228935   0.495   3.125   1.097
 9346SOL     OW28936   6.036   0.545   0.411
 9346SOL    HW128937   5.949   0.502   0.438
 9346SOL    HW228938   6.040   0.637   0.449
 9347SOL     OW28939   2.330   6.520   1.839
 9347SOL    HW128940   2.377   6.521   1.751
 9347SOL    HW228941   2.296   6.428   1.858
 9348SOL     OW28942   3.053   4.939   0.502
 9348SOL    HW128943   2.958   4.965   0.487
 9348SOL    HW228944   3.090   4.898   0.418
 9349SOL     OW28945   2.014   5.746   2.502
 9349SOL    HW128946   2.001   5.660   2.551
 9349SOL    HW228947   2.108   5.776   2.513
 9350SOL     OW28948   6.792   2.879   5.987
 9350SOL    HW128949   6.759   2.961   5.942
 9350SOL    HW228950   6.890   2.867   5.968
 9351SOL     OW28951   3.081   0.792   6.480
 9351SOL    HW128952   3.029   0.864   6.527
 9351SOL    HW228953   3.029   0.706   6.485
 9352SOL     OW28954   2.540   5.125   5.848
 9352SOL    HW128955   2.578   5.134   5.940
 9352SOL    HW228956   2.580   5.194   5.788
 9353SOL     OW28957   5.617   0.958   0.894
 9353SOL    HW128958   5.582   0.865   0.892
 9353SOL    HW228959   5.650   0.979   0.986
 9354SOL     OW28960   0.987   1.413   6.521
 9354SOL    HW128961   0.909   1.415   6.458
 9354SOL    HW228962   1.045   1.493   6.505
 9355SOL     OW28963   0.721   1.604   5.150
 9355SOL    HW128964   0.771   1.522   5.179
 9355SOL    HW228965   0.778   1.658   5.089
 9356SOL     OW28966   4.665   7.005   3.665
 9356SOL    HW128967   4.748   6.961   3.631
 9356SOL    HW228968   4.672   7.017   3.764
 9357SOL     OW28969   1.044   2.200   0.248
 9357SOL    HW128970   0.999   2.251   0.174
 9357SOL    HW228971   1.143   2.207   0.238
 9358SOL     OW28972   1.247   2.404   1.469
 9358SOL    HW128973   1.147   2.402   1.459
 9358SOL    HW228974   1.270   2.426   1.563
 9359SOL     OW28975   0.921   0.269   5.513
 9359SOL    HW128976   0.906   0.212   5.432
 9359SOL    HW228977   0.952   0.211   5.588
 9360SOL     OW28978   0.466   0.792   6.284
 9360SOL    HW128979   0.412   0.731   6.341
 9360SOL    HW228980   0.435   0.785   6.189
 9361SOL     OW28981   2.489   5.737   4.453
 9361SOL    HW128982   2.567   5.681   4.425
 9361SOL    HW228983   2.404   5.687   4.434
 9362SOL     OW28984   2.266   0.719   2.340
 9362SOL    HW128985   2.286   0.800   2.395
 9362SOL    HW228986   2.186   0.673   2.377
 9363SOL     OW28987   1.831   3.398   2.192
 9363SOL    HW128988   1.799   3.485   2.154
 9363SOL    HW228989   1.897   3.356   2.130
 9364SOL     OW28990   6.957   2.315   0.193
 9364SOL    HW128991   0.014   2.297   0.245
 9364SOL    HW228992   6.882   2.338   0.256
 9365SOL     OW28993   2.400   0.726   5.331
 9365SOL    HW128994   2.313   0.750   5.375
 9365SOL    HW228995   2.463   0.803   5.337
 9366SOL     OW28996   3.895   6.562   2.364
 9366SOL    HW128997   3.985   6.552   2.322
 9366SOL    HW228998   3.833   6.493   2.327
 9367SOL     OW28999   6.965   0.653   1.452
 9367SOL    HW129000   6.870   0.623   1.462
 9367SOL    HW229001   6.976   0.743   1.492
 9368SOL     OW29002   2.441   0.691   2.802
 9368SOL    HW129003   2.395   0.777   2.781
 9368SOL    HW229004   2.408   0.655   2.889
 9369SOL     OW29005   3.581   4.872   1.182
 9369SOL    HW129006   3.624   4.879   1.092
 9369SOL    HW229007   3.516   4.947   1.194
 9370SOL     OW29008   4.220   2.175   5.159
 9370SOL    HW129009   4.200   2.269   5.131
 9370SOL    HW229010   4.165   2.111   5.104
 9371SOL     OW29011   4.328   4.610   0.833
 9371SOL    HW129012   4.285   4.522   0.812
 9371SOL    HW229013   4.344   4.660   0.748
 9372SOL     OW29014   4.190   6.315   1.178
 9372SOL    HW129015   4.103   6.279   1.211
 9372SOL    HW229016   4.202   6.291   1.082
 9373SOL     OW29017   0.078   2.626   1.786
 9373SOL    HW129018   0.146   2.644   1.857
 9373SOL    HW229019   0.047   2.713   1.748
 9374SOL     OW29020   6.751   5.535   6.432
 9374SOL    HW129021   6.814   5.460   6.411
 9374SOL    HW229022   6.662   5.497   6.456
 9375SOL     OW29023   1.251   1.364   7.008
 9375SOL    HW129024   1.278   1.440   0.041
 9375SOL    HW229025   1.272   1.278   0.028
 9376SOL     OW29026   2.519   3.361   0.498
 9376SOL    HW129027   2.443   3.334   0.438
 9376SOL    HW229028   2.522   3.460   0.506
 9377SOL     OW29029   1.334   0.751   3.115
 9377SOL    HW129030   1.272   0.822   3.145
 9377SOL    HW229031   1.381   0.780   3.031
 9378SOL     OW29032   3.342   1.006   4.714
 9378SOL    HW129033   3.340   1.038   4.619
 9378SOL    HW229034   3.434   1.015   4.751
 9379SOL     OW29035   4.209   0.626   4.310
 9379SOL    HW129036   4.174   0.635   4.217
 9379SOL    HW229037   4.288   0.564   4.310
 9380SOL     OW29038   4.744   5.805   0.532
 9380SOL    HW129039   4.728   5.737   0.461
 9380SOL    HW229040   4.768   5.759   0.618
 9381SOL     OW29041   5.559   0.999   4.901
 9381SOL    HW129042   5.580   0.954   4.814
 9381SOL    HW229043   5.643   1.020   4.950
 9382SOL     OW29044   3.165   5.797   6.188
 9382SOL    HW129045   3.166   5.697   6.179
 9382SOL    HW229046   3.227   5.837   6.121
 9383SOL     OW29047   5.662   3.809   1.734
 9383SOL    HW129048   5.633   3.866   1.811
 9383SOL    HW229049   5.615   3.838   1.651
 9384SOL     OW29050   3.892   0.020   1.033
 9384SOL    HW129051   3.883   0.119   1.044
 9384SOL    HW229052   3.901   7.024   0.936
 9385SOL     OW29053   4.013   2.252   4.100
 9385SOL    HW129054   4.082   2.307   4.053
 9385SOL    HW229055   4.027   2.258   4.199
 9386SOL     OW29056   5.674   7.007   1.384
 9386SOL    HW129057   5.605   7.017   1.312
 9386SOL    HW229058   5.659   0.051   1.453
 9387SOL     OW29059   1.972   2.001   6.381
 9387SOL    HW129060   1.906   2.057   6.330
 9387SOL    HW229061   2.009   1.931   6.320
 9388SOL     OW29062   2.694   0.008   4.465
 9388SOL    HW129063   2.695   0.079   4.535
 9388SOL    HW229064   2.603   6.993   4.459
 9389SOL     OW29065   2.347   4.147   1.896
 9389SOL    HW129066   2.356   4.237   1.853
 9389SOL    HW229067   2.335   4.158   1.995
 9390SOL     OW29068   5.719   4.967   3.923
 9390SOL    HW129069   5.671   4.968   4.011
 9390SOL    HW229070   5.716   4.875   3.884
 9391SOL     OW29071   1.934   4.327   4.496
 9391SOL    HW129072   1.991   4.247   4.479
 9391SOL    HW229073   1.944   4.355   4.591
 9392SOL     OW29074   5.004   4.468   2.300
 9392SOL    HW129075   4.989   4.369   2.298
 9392SOL    HW229076   4.936   4.514   2.243
 9393SOL     OW29077   1.747   5.325   6.293
 9393SOL    HW129078   1.801   5.407   6.275
 9393SOL    HW229079   1.757   5.298   6.389
 9394SOL     OW29080   4.747   0.245   0.677
 9394SOL    HW129081   4.771   0.300   0.758
 9394SOL    HW229082   4.709   0.305   0.607
 9395SOL     OW29083   1.529   1.561   1.689
 9395SOL    HW129084   1.469   1.530   1.763
 9395SOL    HW229085   1.556   1.484   1.633
 9396SOL     OW29086   0.911   0.785   6.196
 9396SOL    HW129087   0.848   0.735   6.255
 9396SOL    HW229088   0.882   0.777   6.101
 9397SOL     OW29089   3.206   1.276   4.517
 9397SOL    HW129090   3.117   1.232   4.517
 9397SOL    HW229091   3.263   1.237   4.590
 9398SOL     OW29092   6.904   1.726   0.222
 9398SOL    HW129093   7.004   1.731   0.217
 9398SOL    HW229094   6.870   1.799   0.282
 9399SOL     OW29095   1.346   2.261   5.138
 9399SOL    HW129096   1.342   2.358   5.117
 9399SOL    HW229097   1.344   2.208   5.053
 9400SOL     OW29098   5.932   1.863   1.237
 9400SOL    HW129099   5.861   1.912   1.287
 9400SOL    HW229100   5.893   1.780   1.196
 9401SOL     OW29101   0.290   2.381   3.783
 9401SOL    HW129102   0.257   2.312   3.848
 9401SOL    HW229103   0.223   2.393   3.710
 9402SOL     OW29104   3.364   6.264   5.278
 9402SOL    HW129105   3.293   6.195   5.291
 9402SOL    HW229106   3.438   6.224   5.223
 9403SOL     OW29107   5.854   2.297   1.073
 9403SOL    HW129108   5.775   2.260   1.025
 9403SOL    HW229109   5.922   2.225   1.085
 9404SOL     OW29110   2.160   2.865   0.927
 9404SOL    HW129111   2.206   2.791   0.976
 9404SOL    HW229112   2.205   2.880   0.839
 9405SOL     OW29113   6.377   5.972   4.988
 9405SOL    HW129114   6.352   5.875   4.982
 9405SOL    HW229115   6.470   5.980   5.023
 9406SOL     OW29116   1.555   2.001   1.014
 9406SOL    HW129117   1.589   1.918   0.971
 9406SOL    HW229118   1.587   2.005   1.109
 9407SOL     OW29119   1.698   4.240   4.930
 9407SOL    HW129120   1.790   4.203   4.947
 9407SOL    HW229121   1.631   4.188   4.983
 9408SOL     OW29122   5.710   4.086   4.278
 9408SOL    HW129123   5.658   4.030   4.214
 9408SOL    HW229124   5.665   4.085   4.367
 9409SOL     OW29125   5.582   5.766   1.271
 9409SOL    HW129126   5.583   5.693   1.203
 9409SOL    HW229127   5.631   5.737   1.353
 9410SOL     OW29128   4.453   0.197   1.503
 9410SOL    HW129129   4.395   0.266   1.545
 9410SOL    HW229130   4.529   0.175   1.564
 9411SOL     OW29131   3.275   4.069   3.631
 9411SOL    HW129132   3.271   4.097   3.727
 9411SOL    HW229133   3.364   4.095   3.593
 9412SOL     OW29134   4.699   6.988   1.861
 9412SOL    HW129135   4.684   6.925   1.785
 9412SOL    HW229136   4.690   6.938   1.947
 9413SOL     OW29137   3.742   4.923   3.293
 9413SOL    HW129138   3.769   5.019   3.300
 9413SOL    HW229139   3.705   4.892   3.381
 9414SOL     OW29140   2.399   1.595   2.233
 9414SOL    HW129141   2.386   1.620   2.137
 9414SOL    HW229142   2.440   1.504   2.239
 9415SOL     OW29143   5.308   0.338   1.337
 9415SOL    HW129144   5.209   0.350   1.345
 9415SOL    HW229145   5.333   0.327   1.241
 9416SOL     OW29146   6.054   5.176   5.485
 9416SOL    HW129147   5.956   5.184   5.501
 9416SOL    HW229148   6.080   5.080   5.482
 9417SOL     OW29149   3.718   5.881   2.219
 9417SOL    HW129150   3.812   5.853   2.241
 9417SOL    HW229151   3.654   5.825   2.271
 9418SOL     OW29152   3.387   2.097   4.999
 9418SOL    HW129153   3.342   2.013   5.028
 9418SOL    HW229154   3.320   2.170   4.990
 9419SOL     OW29155   2.163   2.370   6.154
 9419SOL    HW129156   2.214   2.456   6.146
 9419SOL    HW229157   2.224   2.297   6.184
 9420SOL     OW29158   5.544   3.581   5.693
 9420SOL    HW129159   5.628   3.621   5.655
 9420SOL    HW229160   5.568   3.513   5.762
 9421SOL     OW29161   4.286   6.462   6.678
 9421SOL    HW129162   4.379   6.466   6.713
 9421SOL    HW229163   4.281   6.398   6.601
 9422SOL     OW29164   2.458   6.629   5.754
 9422SOL    HW129165   2.455   6.533   5.727
 9422SOL    HW229166   2.387   6.679   5.705
 9423SOL     OW29167   4.424   5.237   1.464
 9423SOL    HW129168   4.452   5.330   1.491
 9423SOL    HW229169   4.457   5.172   1.532
 9424SOL     OW29170   6.580   0.265   4.062
 9424SOL    HW129171   6.618   0.347   4.019
 9424SOL    HW229172   6.480   0.273   4.066
 9425SOL     OW29173   0.263   5.282   0.667
 9425SOL    HW129174   0.212   5.270   0.581
 9425SOL    HW229175   0.204   5.326   0.734
 9426SOL     OW29176   4.173   3.020   6.405
 9426SOL    HW129177   4.262   3.063   6.415
 9426SOL    HW229178   4.174   2.931   6.450
 9427SOL     OW29179   3.746   5.556   1.809
 9427SOL    HW129180   3.784   5.472   1.771
 9427SOL    HW229181   3.821   5.617   1.837
 9428SOL     OW29182   0.870   6.269   5.527
 9428SOL    HW129183   0.782   6.224   5.538
 9428SOL    HW229184   0.858   6.353   5.473
 9429SOL     OW29185   3.089   2.223   4.161
 9429SOL    HW129186   3.119   2.170   4.240
 9429SOL    HW229187   3.141   2.194   4.080
 9430SOL     OW29188   1.221   0.256   4.422
 9430SOL    HW129189   1.241   0.188   4.492
 9430SOL    HW229190   1.256   0.345   4.450
 9431SOL     OW29191   1.263   4.763   5.045
 9431SOL    HW129192   1.284   4.850   5.000
 9431SOL    HW229193   1.245   4.693   4.976
 9432SOL     OW29194   6.810   1.280   3.505
 9432SOL    HW129195   6.830   1.378   3.502
 9432SOL    HW229196   6.893   1.229   3.483
 9433SOL     OW29197   4.442   5.551   1.587
 9433SOL    HW129198   4.397   5.600   1.512
 9433SOL    HW229199   4.391   5.565   1.671
 9434SOL     OW29200   4.429   5.979   4.971
 9434SOL    HW129201   4.487   6.057   4.996
 9434SOL    HW229202   4.451   5.901   5.030
 9435SOL     OW29203   6.399   4.047   0.153
 9435SOL    HW129204   6.342   3.965   0.143
 9435SOL    HW229205   6.404   4.073   0.249
 9436SOL     OW29206   3.168   1.076   2.976
 9436SOL    HW129207   3.098   1.140   3.009
 9436SOL    HW229208   3.163   0.991   3.028
 9437SOL     OW29209   5.053   0.938   4.544
 9437SOL    HW129210   5.153   0.930   4.549
 9437SOL    HW229211   5.025   0.931   4.448
 9438SOL     OW29212   5.189   0.420   2.649
 9438SOL    HW129213   5.283   0.401   2.621
 9438SOL    HW229214   5.143   0.335   2.675
 9439SOL     OW29215   2.182   4.729   0.930
 9439SOL    HW129216   2.099   4.769   0.891
 9439SOL    HW229217   2.162   4.638   0.966
 9440SOL     OW29218   1.957   5.505   5.174
 9440SOL    HW129219   1.894   5.484   5.099
 9440SOL    HW229220   2.012   5.423   5.194
 9441SOL     OW29221   0.228   6.038   4.445
 9441SOL    HW129222   0.263   6.050   4.537
 9441SOL    HW229223   0.262   6.111   4.386
 9442SOL     OW29224   6.238   3.009   1.168
 9442SOL    HW129225   6.279   3.091   1.209
 9442SOL    HW229226   6.248   2.932   1.230
 9443SOL     OW29227   2.553   4.272   1.443
 9443SOL    HW129228   2.632   4.248   1.386
 9443SOL    HW229229   2.577   4.258   1.540
 9444SOL     OW29230   2.026   5.329   6.453
 9444SOL    HW129231   1.935   5.294   6.473
 9444SOL    HW229232   2.037   5.342   6.354
 9445SOL     OW29233   0.254   0.791   4.122
 9445SOL    HW129234   0.156   0.780   4.136
 9445SOL    HW229235   0.303   0.760   4.203
 9446SOL     OW29236   6.068   4.671   4.361
 9446SOL    HW129237   6.143   4.680   4.427
 9446SOL    HW229238   6.093   4.717   4.275
 9447SOL     OW29239   5.628   5.403   1.710
 9447SOL    HW129240   5.529   5.400   1.722
 9447SOL    HW229241   5.666   5.473   1.771
 9448SOL     OW29242   5.082   2.159   6.991
 9448SOL    HW129243   5.130   2.141   6.905
 9448SOL    HW229244   5.001   2.101   6.997
 9449SOL     OW29245   4.981   6.392   2.463
 9449SOL    HW129246   4.918   6.424   2.535
 9449SOL    HW229247   5.039   6.469   2.434
 9450SOL     OW29248   0.952   0.375   2.538
 9450SOL    HW129249   0.946   0.403   2.442
 9450SOL    HW229250   0.954   0.456   2.596
 9451SOL     OW29251   4.022   5.040   0.463
 9451SOL    HW129252   4.115   5.040   0.501
 9451SOL    HW229253   4.008   4.957   0.409
 9452SOL     OW29254   5.853   3.747   6.425
 9452SOL    HW129255   5.780   3.814   6.417
 9452SOL    HW229256   5.836   3.671   6.362
 9453SOL     OW29257   0.007   5.051   2.289
 9453SOL    HW129258   0.026   5.036   2.192
 9453SOL    HW229259   0.093   5.071   2.337
 9454SOL     OW29260   5.320   5.466   0.505
 9454SOL    HW129261   5.264   5.384   0.512
 9454SOL    HW229262   5.389   5.467   0.577
 9455SOL     OW29263   4.390   0.407   1.692
 9455SOL    HW129264   4.410   0.486   1.750
 9455SOL    HW229265   4.303   0.421   1.645
 9456SOL     OW29266   6.949   2.644   2.627
 9456SOL    HW129267   6.928   2.676   2.720
 9456SOL    HW229268   6.882   2.681   2.563
 9457SOL     OW29269   6.641   6.454   4.278
 9457SOL    HW129270   6.593   6.400   4.347
 9457SOL    HW229271   6.699   6.394   4.223
 9458SOL     OW29272   6.605   3.541   0.440
 9458SOL    HW129273   6.514   3.544   0.399
 9458SOL    HW229274   6.611   3.610   0.513
 9459SOL     OW29275   5.345   4.419   4.856
 9459SOL    HW129276   5.287   4.359   4.911
 9459SOL    HW229277   5.288   4.487   4.809
 9460SOL     OW29278   1.898   3.009   3.049
 9460SOL    HW129279   1.996   3.029   3.046
 9460SOL    HW229280   1.884   2.917   3.085
 9461SOL     OW29281   2.699   1.878   1.637
 9461SOL    HW129282   2.629   1.811   1.661
 9461SOL    HW229283   2.763   1.889   1.713
 9462SOL     OW29284   0.054   1.347   5.692
 9462SOL    HW129285   6.993   1.360   5.741
 9462SOL    HW229286   0.036   1.333   5.595
 9463SOL     OW29287   6.571   4.890   0.525
 9463SOL    HW129288   6.612   4.971   0.485
 9463SOL    HW229289   6.547   4.825   0.453
 9464SOL     OW29290   1.275   6.898   1.443
 9464SOL    HW129291   1.191   6.853   1.413
 9464SOL    HW229292   1.257   6.995   1.460
 9465SOL     OW29293   6.497   5.774   0.270
 9465SOL    HW129294   6.453   5.692   0.232
 9465SOL    HW229295   6.459   5.856   0.226
 9466SOL     OW29296   4.253   3.988   5.398
 9466SOL    HW129297   4.166   4.015   5.357
 9466SOL    HW229298   4.306   4.070   5.419
 9467SOL     OW29299   1.033   4.331   1.073
 9467SOL    HW129300   1.130   4.308   1.083
 9467SOL    HW229301   0.987   4.321   1.162
 9468SOL     OW29302   6.177   1.195   1.394
 9468SOL    HW129303   6.260   1.235   1.432
 9468SOL    HW229304   6.200   1.144   1.311
 9469SOL     OW29305   6.725   6.939   2.081
 9469SOL    HW129306   6.773   6.870   2.135
 9469SOL    HW229307   6.676   6.894   2.006
 9470SOL     OW29308   3.062   2.883   1.039
 9470SOL    HW129309   3.096   2.853   0.950
 9470SOL    HW229310   3.020   2.806   1.087
 9471SOL     OW29311   6.311   3.126   4.434
 9471SOL    HW129312   6.394   3.138   4.490
 9471SOL    HW229313   6.243   3.075   4.487
 9472SOL     OW29314   2.145   3.280   6.605
 9472SOL    HW129315   2.114   3.290   6.511
 9472SOL    HW229316   2.090   3.210   6.650
 9473SOL     OW29317   2.674   3.413   1.387
 9473SOL    HW129318   2.658   3.364   1.301
 9473SOL    HW229319   2.587   3.450   1.421
 9474SOL     OW29320   5.718   4.346   0.443
 9474SOL    HW129321   5.732   4.432   0.394
 9474SOL    HW229322   5.757   4.271   0.390
 9475SOL     OW29323   5.948   3.731   6.677
 9475SOL    HW129324   5.870   3.670   6.692
 9475SOL    HW229325   5.936   3.780   6.591
 9476SOL     OW29326   4.084   3.856   0.786
 9476SOL    HW129327   4.065   3.866   0.884
 9476SOL    HW229328   4.122   3.942   0.751
 9477SOL     OW29329   1.505   4.893   0.722
 9477SOL    HW129330   1.431   4.891   0.790
 9477SOL    HW229331   1.481   4.958   0.649
 9478SOL     OW29332   6.815   3.295   5.478
 9478SOL    HW129333   6.827   3.331   5.570
 9478SOL    HW229334   6.900   3.305   5.426
 9479SOL     OW29335   4.362   0.654   2.043
 9479SOL    HW129336   4.407   0.637   2.130
 9479SOL    HW229337   4.428   0.645   1.968
 9480SOL     OW29338   5.542   0.045   0.857
 9480SOL    HW129339   5.489   7.021   0.788
 9480SOL    HW229340   5.630   0.072   0.819
 9481SOL     OW29341   4.970   0.012   3.267
 9481SOL    HW129342   5.043   0.077   3.290
 9481SOL    HW229343   4.885   0.063   3.251
 9482SOL     OW29344   5.798   4.854   5.200
 9482SOL    HW129345   5.868   4.792   5.234
 9482SOL    HW229346   5.762   4.819   5.113
 9483SOL     OW29347   5.756   4.784   6.730
 9483SOL    HW129348   5.668   4.766   6.773
 9483SOL    HW229349   5.805   4.853   6.782
 9484SOL     OW29350   1.759   6.370   4.260
 9484SOL    HW129351   1.683   6.315   4.226
 9484SOL    HW229352   1.845   6.323   4.242
 9485SOL     OW29353   0.422   1.064   5.026
 9485SOL    HW129354   0.440   1.009   4.944
 9485SOL    HW229355   0.331   1.105   5.019
 9486SOL     OW29356   6.643   5.981   0.014
 9486SOL    HW129357   6.668   6.078   0.005
 9486SOL    HW229358   6.548   5.975   0.045
 9487SOL     OW29359   3.369   3.550   3.320
 9487SOL    HW129360   3.362   3.615   3.244
 9487SOL    HW229361   3.328   3.463   3.293
 9488SOL     OW29362   1.656   1.041   1.969
 9488SOL    HW129363   1.728   0.977   1.996
 9488SOL    HW229364   1.696   1.132   1.957
 9489SOL     OW29365   6.274   4.246   7.024
 9489SOL    HW129366   6.325   4.288   6.949
 9489SOL    HW229367   6.334   4.187   0.052
 9490SOL     OW29368   5.541   3.614   4.834
 9490SOL    HW129369   5.455   3.660   4.811
 9490SOL    HW229370   5.605   3.625   4.758
 9491SOL     OW29371   5.443   0.292   2.761
 9491SOL    HW129372   5.467   0.389   2.757
 9491SOL    HW229373   5.522   0.237   2.733
 9492SOL     OW29374   4.662   2.437   4.415
 9492SOL    HW129375   4.695   2.342   4.410
 9492SOL    HW229376   4.588   2.443   4.481
 9493SOL     OW29377   2.930   6.267   2.240
 9493SOL    HW129378   2.977   6.309   2.162
 9493SOL    HW229379   2.918   6.169   2.223
 9494SOL     OW29380   4.915   2.652   2.613
 9494SOL    HW129381   4.827   2.605   2.610
 9494SOL    HW229382   4.902   2.744   2.650
 9495SOL     OW29383   5.260   3.075   1.025
 9495SOL    HW129384   5.318   3.131   0.965
 9495SOL    HW229385   5.237   3.128   1.107
 9496SOL     OW29386   5.662   2.928   1.371
 9496SOL    HW129387   5.648   2.866   1.294
 9496SOL    HW229388   5.760   2.933   1.391
 9497SOL     OW29389   5.155   4.652   5.104
 9497SOL    HW129390   5.131   4.556   5.089
 9497SOL    HW229391   5.254   4.663   5.099
 9498SOL     OW29392   0.983   5.500   6.077
 9498SOL    HW129393   0.946   5.496   6.170
 9498SOL    HW229394   0.927   5.443   6.016
 9499SOL     OW29395   5.279   6.333   3.934
 9499SOL    HW129396   5.225   6.301   3.856
 9499SOL    HW229397   5.309   6.427   3.917
 9500SOL     OW29398   2.641   1.371   0.823
 9500SOL    HW129399   2.623   1.464   0.792
 9500SOL    HW229400   2.643   1.309   0.745
 9501SOL     OW29401   2.010   3.577   5.453
 9501SOL    HW129402   1.962   3.517   5.517
 9501SOL    HW229403   2.039   3.524   5.373
 9502SOL     OW29404   5.511   4.763   3.370
 9502SOL    HW129405   5.558   4.676   3.383
 9502SOL    HW229406   5.456   4.784   3.450
 9503SOL     OW29407   5.530   1.226   0.302
 9503SOL    HW129408   5.494   1.204   0.392
 9503SOL    HW229409   5.616   1.276   0.311
 9504SOL     OW29410   6.476   5.829   2.714
 9504SOL    HW129411   6.506   5.920   2.741
 9504SOL    HW229412   6.385   5.834   2.673
 9505SOL     OW29413   4.741   3.240   6.538
 9505SOL    HW129414   4.745   3.339   6.550
 9505SOL    HW229415   4.713   3.219   6.444
 9506SOL     OW29416   3.184   1.396   1.854
 9506SOL    HW129417   3.281   1.397   1.830
 9506SOL    HW229418   3.153   1.489   1.872
 9507SOL     OW29419   6.905   6.217   1.005
 9507SOL    HW129420   6.998   6.248   1.027
 9507SOL    HW229421   6.891   6.126   1.043
 9508SOL     OW29422   5.364   0.868   1.770
 9508SOL    HW129423   5.371   0.819   1.683
 9508SOL    HW229424   5.361   0.967   1.752
 9509SOL     OW29425   5.899   1.608   4.047
 9509SOL    HW129426   5.836   1.560   3.986
 9509SOL    HW229427   5.857   1.619   4.137
 9510SOL     OW29428   1.430   3.511   2.596
 9510SOL    HW129429   1.499   3.462   2.543
 9510SOL    HW229430   1.354   3.450   2.618
 9511SOL     OW29431   1.127   1.804   1.250
 9511SOL    HW129432   1.192   1.870   1.214
 9511SOL    HW229433   1.177   1.726   1.289
 9512SOL     OW29434   6.588   2.436   1.507
 9512SOL    HW129435   6.622   2.529   1.522
 9512SOL    HW229436   6.586   2.387   1.593
 9513SOL     OW29437   4.687   4.040   5.178
 9513SOL    HW129438   4.666   4.137   5.172
 9513SOL    HW229439   4.629   3.997   5.248
 9514SOL     OW29440   3.660   2.974   1.451
 9514SOL    HW129441   3.588   3.031   1.410
 9514SOL    HW229442   3.636   2.878   1.442
 9515SOL     OW29443   0.102   6.089   2.789
 9515SOL    HW129444   0.024   6.076   2.850
 9515SOL    HW229445   0.115   6.007   2.734
 9516SOL     OW29446   0.478   4.030   5.903
 9516SOL    HW129447   0.459   3.987   5.991
 9516SOL    HW229448   0.561   4.085   5.910
 9517SOL     OW29449   1.209   5.931   1.736
 9517SOL    HW129450   1.260   6.008   1.697
 9517SOL    HW229451   1.268   5.850   1.739
 9518SOL     OW29452   0.781   0.860   1.086
 9518SOL    HW129453   0.726   0.790   1.131
 9518SOL    HW229454   0.725   0.942   1.072
 9519SOL     OW29455   1.943   2.332   5.388
 9519SOL    HW129456   1.896   2.249   5.358
 9519SOL    HW229457   1.898   2.368   5.469
 9520SOL     OW29458   4.499   6.793   1.756
 9520SOL    HW129459   4.417   6.803   1.699
 9520SOL    HW229460   4.507   6.698   1.785
 9521SOL     OW29461   5.476   4.438   3.095
 9521SOL    HW129462   5.486   4.388   3.009
 9521SOL    HW229463   5.492   4.536   3.078
 9522SOL     OW29464   3.145   4.908   5.904
 9522SOL    HW129465   3.098   4.837   5.852
 9522SOL    HW229466   3.197   4.966   5.841
 9523SOL     OW29467   1.802   0.150   5.150
 9523SOL    HW129468   1.897   0.147   5.120
 9523SOL    HW229469   1.766   0.056   5.156
 9524SOL     OW29470   5.830   3.479   0.101
 9524SOL    HW129471   5.798   3.398   0.052
 9524SOL    HW229472   5.809   3.470   0.199
 9525SOL     OW29473   3.976   0.165   4.637
 9525SOL    HW129474   3.994   0.129   4.546
 9525SOL    HW229475   4.052   0.139   4.698
 9526SOL     OW29476   5.158   5.267   0.493
 9526SOL    HW129477   5.231   5.202   0.508
 9526SOL    HW229478   5.071   5.227   0.523
 9527SOL     OW29479   0.155   2.376   0.368
 9527SOL    HW129480   0.213   2.338   0.440
 9527SOL    HW229481   0.145   2.475   0.381
 9528SOL     OW29482   6.716   1.153   2.049
 9528SOL    HW129483   6.808   1.119   2.065
 9528SOL    HW229484   6.656   1.077   2.023
 9529SOL     OW29485   2.039   2.445   5.171
 9529SOL    HW129486   2.000   2.410   5.256
 9529SOL    HW229487   2.071   2.539   5.185
 9530SOL     OW29488   2.642   1.158   3.850
 9530SOL    HW129489   2.554   1.173   3.804
 9530SOL    HW229490   2.704   1.110   3.788
 9531SOL     OW29491   2.866   6.820   3.717
 9531SOL    HW129492   2.964   6.817   3.695
 9531SOL    HW229493   2.850   6.765   3.800
 9532SOL     OW29494   3.394   1.648   1.852
 9532SOL    HW129495   3.345   1.721   1.804
 9532SOL    HW229496   3.474   1.621   1.798
 9533SOL     OW29497   0.342   1.662   4.137
 9533SOL    HW129498   0.302   1.716   4.211
 9533SOL    HW229499   0.292   1.682   4.052
 9534SOL     OW29500   5.755   1.609   4.277
 9534SOL    HW129501   5.664   1.643   4.301
 9534SOL    HW229502   5.820   1.637   4.347
 9535SOL     OW29503   3.001   1.755   4.589
 9535SOL    HW129504   3.060   1.826   4.625
 9535SOL    HW229505   2.986   1.686   4.660
 9536SOL     OW29506   2.124   6.633   6.455
 9536SOL    HW129507   2.203   6.670   6.504
 9536SOL    HW229508   2.069   6.578   6.519
 9537SOL     OW29509   1.647   1.049   0.568
 9537SOL    HW129510   1.687   0.998   0.644
 9537SOL    HW229511   1.705   1.039   0.487
 9538SOL     OW29512   6.064   3.918   2.576
 9538SOL    HW129513   5.973   3.937   2.613
 9538SOL    HW229514   6.130   3.910   2.650
 9539SOL     OW29515   0.110   3.704   6.917
 9539SOL    HW129516   0.017   3.670   6.931
 9539SOL    HW229517   0.176   3.635   6.946
 9540SOL     OW29518   5.669   3.435   5.879
 9540SOL    HW129519   5.747   3.497   5.893
 9540SOL    HW229520   5.701   3.341   5.876
 9541SOL     OW29521   6.611   2.111   3.430
 9541SOL    HW129522   6.651   2.060   3.506
 9541SOL    HW229523   6.535   2.060   3.391
 9542SOL     OW29524   4.738   4.325   4.427
 9542SOL    HW129525   4.783   4.404   4.469
 9542SOL    HW229526   4.642   4.324   4.452
 9543SOL     OW29527   3.849   2.316   0.793
 9543SOL    HW129528   3.933   2.356   0.831
 9543SOL    HW229529   3.774   2.381   0.806
 9544SOL     OW29530   5.017   0.314   1.123
 9544SOL    HW129531   5.054   0.221   1.123
 9544SOL    HW229532   5.052   0.364   1.043
 9545SOL     OW29533   1.426   7.016   4.683
 9545SOL    HW129534   1.333   0.016   4.711
 9545SOL    HW229535   1.468   0.066   4.634
 9546SOL     OW29536   2.466   4.479   1.949
 9546SOL    HW129537   2.415   4.436   1.874
 9546SOL    HW229538   2.557   4.505   1.916
 9547SOL     OW29539   5.265   5.924   2.997
 9547SOL    HW129540   5.247   5.886   2.906
 9547SOL    HW229541   5.179   5.953   3.039
 9548SOL     OW29542   5.448   6.633   2.396
 9548SOL    HW129543   5.511   6.569   2.352
 9548SOL    HW229544   5.480   6.727   2.382
 9549SOL     OW29545   2.041   5.538   0.027
 9549SOL    HW129546   1.943   5.536   0.047
 9549SOL    HW229547   2.060   5.481   6.973
 9550SOL     OW29548   1.837   1.023   0.349
 9550SOL    HW129549   1.802   1.013   0.256
 9550SOL    HW229550   1.932   1.054   0.345
 9551SOL     OW29551   1.568   5.668   5.173
 9551SOL    HW129552   1.618   5.654   5.087
 9551SOL    HW229553   1.570   5.584   5.226
 9552SOL     OW29554   0.103   5.536   2.663
 9552SOL    HW129555   0.137   5.629   2.649
 9552SOL    HW229556   0.004   5.535   2.654
 9553SOL     OW29557   5.557   4.519   6.594
 9553SOL    HW129558   5.549   4.431   6.546
 9553SOL    HW229559   5.596   4.587   6.531
 9554SOL     OW29560   2.403   1.874   2.302
 9554SOL    HW129561   2.410   1.783   2.261
 9554SOL    HW229562   2.314   1.914   2.279
 9555SOL     OW29563   6.425   2.442   6.519
 9555SOL    HW129564   6.510   2.491   6.499
 9555SOL    HW229565   6.367   2.497   6.579
 9556SOL     OW29566   6.370   0.819   1.047
 9556SOL    HW129567   6.451   0.820   0.988
 9556SOL    HW229568   6.293   0.858   0.998
 9557SOL     OW29569   4.963   1.444   1.454
 9557SOL    HW129570   5.048   1.397   1.430
 9557SOL    HW229571   4.899   1.437   1.378
 9558SOL     OW29572   0.118   4.026   1.109
 9558SOL    HW129573   0.037   4.009   1.054
 9558SOL    HW229574   0.200   4.010   1.053
 9559SOL     OW29575   0.660   4.242   2.963
 9559SOL    HW129576   0.759   4.244   2.975
 9559SOL    HW229577   0.617   4.215   3.049
 9560SOL     OW29578   3.633   1.999   5.750
 9560SOL    HW129579   3.579   1.965   5.673
 9560SOL    HW229580   3.665   1.923   5.806
 9561SOL     OW29581   3.451   5.196   6.969
 9561SOL    HW129582   3.438   5.211   0.041
 9561SOL    HW229583   3.378   5.137   6.935
 9562SOL     OW29584   6.518   5.620   4.111
 9562SOL    HW129585   6.590   5.588   4.172
 9562SOL    HW229586   6.505   5.554   4.037
 9563SOL     OW29587   0.522   7.011   6.620
 9563SOL    HW129588   0.481   7.011   6.711
 9563SOL    HW229589   0.614   0.025   6.625
 9564SOL     OW29590   0.830   0.741   5.953
 9564SOL    HW129591   0.899   0.695   5.896
 9564SOL    HW229592   0.742   0.695   5.943
 9565SOL     OW29593   2.780   5.950   5.532
 9565SOL    HW129594   2.720   5.898   5.472
 9565SOL    HW229595   2.864   5.897   5.549
 9566SOL     OW29596   2.720   5.819   5.167
 9566SOL    HW129597   2.769   5.806   5.081
 9566SOL    HW229598   2.642   5.879   5.153
 9567SOL     OW29599   5.638   4.677   4.491
 9567SOL    HW129600   5.600   4.665   4.582
 9567SOL    HW229601   5.716   4.740   4.495
 9568SOL     OW29602   6.056   3.433   5.487
 9568SOL    HW129603   5.997   3.401   5.561
 9568SOL    HW229604   6.078   3.530   5.502
 9569SOL     OW29605   5.279   6.916   1.565
 9569SOL    HW129606   5.364   6.961   1.591
 9569SOL    HW229607   5.233   6.970   1.494
 9570SOL     OW29608   0.631   2.370   6.926
 9570SOL    HW129609   0.700   2.433   6.890
 9570SOL    HW229610   0.603   2.306   6.854
 9571SOL     OW29611   3.607   1.900   0.187
 9571SOL    HW129612   3.608   1.800   0.188
 9571SOL    HW229613   3.651   1.935   0.270
 9572SOL     OW29614   0.674   4.198   0.948
 9572SOL    HW129615   0.631   4.131   1.009
 9572SOL    HW229616   0.645   4.290   0.975
 9573SOL     OW29617   5.079   2.239   1.985
 9573SOL    HW129618   5.081   2.236   2.085
 9573SOL    HW229619   5.017   2.312   1.955
 9574SOL     OW29620   2.596   1.575   3.752
 9574SOL    HW129621   2.615   1.522   3.669
 9574SOL    HW229622   2.627   1.523   3.832
 9575SOL     OW29623   3.145   1.602   3.036
 9575SOL    HW129624   3.133   1.692   2.994
 9575SOL    HW229625   3.232   1.563   3.005
 9576SOL     OW29626   3.654   3.572   5.695
 9576SOL    HW129627   3.647   3.538   5.601
 9576SOL    HW229628   3.680   3.498   5.755
 9577SOL     OW29629   0.495   5.096   3.857
 9577SOL    HW129630   0.419   5.092   3.791
 9577SOL    HW229631   0.535   5.005   3.866
 9578SOL     OW29632   6.911   4.414   1.229
 9578SOL    HW129633   6.983   4.410   1.298
 9578SOL    HW229634   6.884   4.510   1.215
 9579SOL     OW29635   1.796   4.581   3.110
 9579SOL    HW129636   1.700   4.595   3.136
 9579SOL    HW229637   1.816   4.483   3.109
 9580SOL     OW29638   4.247   3.600   5.303
 9580SOL    HW129639   4.149   3.602   5.322
 9580SOL    HW229640   4.296   3.646   5.377
 9581SOL     OW29641   1.730   6.424   5.978
 9581SOL    HW129642   1.712   6.468   5.890
 9581SOL    HW229643   1.648   6.430   6.035
 9582SOL     OW29644   3.580   5.994   3.178
 9582SOL    HW129645   3.539   5.964   3.264
 9582SOL    HW229646   3.656   6.056   3.197
 9583SOL     OW29647   1.314   5.031   1.904
 9583SOL    HW129648   1.254   5.006   1.980
 9583SOL    HW229649   1.266   5.092   1.841
 9584SOL     OW29650   5.209   3.921   6.933
 9584SOL    HW129651   5.174   3.848   6.875
 9584SOL    HW229652   5.197   4.009   6.886
 9585SOL     OW29653   5.943   1.353   3.082
 9585SOL    HW129654   5.967   1.262   3.050
 9585SOL    HW229655   5.869   1.348   3.149
 9586SOL     OW29656   5.001   4.214   2.312
 9586SOL    HW129657   5.033   4.179   2.224
 9586SOL    HW229658   5.020   4.148   2.384
 9587SOL     OW29659   4.655   6.183   1.632
 9587SOL    HW129660   4.722   6.240   1.585
 9587SOL    HW229661   4.651   6.209   1.728
 9588SOL     OW29662   5.781   1.109   3.504
 9588SOL    HW129663   5.707   1.144   3.560
 9588SOL    HW229664   5.815   1.023   3.543
 9589SOL     OW29665   3.938   1.824   5.451
 9589SOL    HW129666   3.897   1.915   5.460
 9589SOL    HW229667   3.964   1.809   5.356
 9590SOL     OW29668   6.907   4.843   4.553
 9590SOL    HW129669   6.927   4.848   4.455
 9590SOL    HW229670   6.829   4.782   4.567
 9591SOL     OW29671   0.030   4.445   2.524
 9591SOL    HW129672   0.039   4.350   2.493
 9591SOL    HW229673   6.987   4.492   2.469
 9592SOL     OW29674   4.037   5.574   0.272
 9592SOL    HW129675   4.005   5.633   0.345
 9592SOL    HW229676   3.960   5.549   0.213
 9593SOL     OW29677   1.977   2.144   3.482
 9593SOL    HW129678   1.935   2.216   3.536
 9593SOL    HW229679   1.922   2.060   3.490
 9594SOL     OW29680   5.492   0.027   1.173
 9594SOL    HW129681   5.477   7.003   1.087
 9594SOL    HW229682   5.488   0.125   1.157
 9595SOL     OW29683   2.289   5.040   5.844
 9595SOL    HW129684   2.378   5.085   5.843
 9595SOL    HW229685   2.283   4.977   5.766
 9596SOL     OW29686   5.859   5.263   2.174
 9596SOL    HW129687   5.784   5.283   2.237
 9596SOL    HW229688   5.893   5.348   2.134
 9597SOL     OW29689   2.240   4.689   1.549
 9597SOL    HW129690   2.251   4.778   1.592
 9597SOL    HW229691   2.328   4.643   1.543
 9598SOL     OW29692   0.696   6.056   5.666
 9598SOL    HW129693   0.603   6.020   5.657
 9598SOL    HW229694   0.762   5.981   5.659
 9599SOL     OW29695   3.844   2.088   5.497
 9599SOL    HW129696   3.789   2.135   5.566
 9599SOL    HW229697   3.783   2.048   5.428
 9600SOL     OW29698   1.387   6.172   6.646
 9600SOL    HW129699   1.331   6.121   6.712
 9600SOL    HW229700   1.469   6.207   6.691
 9601SOL     OW29701   1.568   6.960   4.907
 9601SOL    HW129702   1.505   6.919   4.973
 9601SOL    HW229703   1.518   6.986   4.825
 9602SOL     OW29704   1.214   5.722   6.334
 9602SOL    HW129705   1.217   5.821   6.321
 9602SOL    HW229706   1.127   5.696   6.377
 9603SOL     OW29707   0.851   5.543   1.679
 9603SOL    HW129708   0.888   5.622   1.632
 9603SOL    HW229709   0.857   5.557   1.778
 9604SOL     OW29710   6.741   0.739   6.397
 9604SOL    HW129711   6.644   0.749   6.376
 9604SOL    HW229712   6.794   0.732   6.312
 9605SOL     OW29713   3.879   4.541   1.168
 9605SOL    HW129714   3.803   4.553   1.232
 9605SOL    HW229715   3.958   4.502   1.215
 9606SOL     OW29716   0.315   1.419   5.341
 9606SOL    HW129717   0.353   1.512   5.349
 9606SOL    HW229718   0.389   1.353   5.346
 9607SOL     OW29719   6.929   2.688   3.948
 9607SOL    HW129720   6.883   2.599   3.951
 9607SOL    HW229721   7.025   2.677   3.976
 9608SOL     OW29722   6.185   0.787   1.551
 9608SOL    HW129723   6.188   0.730   1.469
 9608SOL    HW229724   6.277   0.801   1.586
 9609SOL     OW29725   1.504   2.140   4.402
 9609SOL    HW129726   1.590   2.149   4.350
 9609SOL    HW229727   1.429   2.174   4.346
 9610SOL     OW29728   5.128   0.881   5.840
 9610SOL    HW129729   5.039   0.835   5.847
 9610SOL    HW229730   5.141   0.939   5.920
 9611SOL     OW29731   4.799   5.429   0.824
 9611SOL    HW129732   4.791   5.437   0.923
 9611SOL    HW229733   4.736   5.359   0.791
 9612SOL     OW29734   5.878   4.083   3.654
 9612SOL    HW129735   5.916   4.121   3.569
 9612SOL    HW229736   5.861   4.157   3.718
 9613SOL     OW29737   5.385   0.645   4.571
 9613SOL    HW129738   5.403   0.547   4.565
 9613SOL    HW229739   5.400   0.676   4.664
 9614SOL     OW29740   2.942   2.735   0.346
 9614SOL    HW129741   2.879   2.756   0.421
 9614SOL    HW229742   2.893   2.744   0.259
 9615SOL     OW29743   6.923   5.948   3.850
 9615SOL    HW129744   6.840   5.925   3.800
 9615SOL    HW229745   6.905   5.947   3.948
 9616SOL     OW29746   0.942   2.187   0.984
 9616SOL    HW129747   0.856   2.234   0.962
 9616SOL    HW229748   0.961   2.197   1.081
 9617SOL     OW29749   0.180   3.039   3.908
 9617SOL    HW129750   0.276   3.038   3.937
 9617SOL    HW229751   0.159   2.954   3.860
 9618SOL     OW29752   5.139   3.748   1.937
 9618SOL    HW129753   5.057   3.701   1.968
 9618SOL    HW229754   5.174   3.706   1.854
 9619SOL     OW29755   0.998   0.444   0.762
 9619SOL    HW129756   0.936   0.521   0.778
 9619SOL    HW229757   1.003   0.388   0.844
 9620SOL     OW29758   4.187   0.961   6.265
 9620SOL    HW129759   4.217   1.054   6.285
 9620SOL    HW229760   4.181   0.909   6.351
 9621SOL     OW29761   0.110   1.259   1.431
 9621SOL    HW129762   0.041   1.250   1.503
 9621SOL    HW229763   0.130   1.169   1.393
 9622SOL     OW29764   6.817   6.511   4.607
 9622SOL    HW129765   6.909   6.472   4.612
 9622SOL    HW229766   6.819   6.597   4.556
 9623SOL     OW29767   2.412   6.054   6.136
 9623SOL    HW129768   2.503   6.037   6.099
 9623SOL    HW229769   2.351   5.979   6.109
 9624SOL     OW29770   4.551   4.993   6.514
 9624SOL    HW129771   4.639   4.997   6.466
 9624SOL    HW229772   4.547   4.909   6.568
 9625SOL     OW29773   5.233   4.531   5.661
 9625SOL    HW129774   5.242   4.487   5.750
 9625SOL    HW229775   5.162   4.602   5.666
 9626SOL     OW29776   2.500   2.683   6.819
 9626SOL    HW129777   2.417   2.677   6.874
 9626SOL    HW229778   2.506   2.774   6.779
 9627SOL     OW29779   6.561   6.582   0.854
 9627SOL    HW129780   6.621   6.505   0.876
 9627SOL    HW229781   6.586   6.618   0.764
 9628SOL     OW29782   5.465   1.279   5.546
 9628SOL    HW129783   5.557   1.299   5.512
 9628SOL    HW229784   5.471   1.233   5.634
 9629SOL     OW29785   0.460   5.172   4.129
 9629SOL    HW129786   0.363   5.177   4.152
 9629SOL    HW229787   0.470   5.136   4.036
 9630SOL     OW29788   6.077   7.000   6.785
 9630SOL    HW129789   6.176   7.014   6.789
 9630SOL    HW229790   6.037   7.016   6.876
 9631SOL     OW29791   5.047   5.800   0.430
 9631SOL    HW129792   5.147   5.799   0.440
 9631SOL    HW229793   5.010   5.882   0.475
 9632SOL     OW29794   3.009   5.196   2.962
 9632SOL    HW129795   2.974   5.222   2.872
 9632SOL    HW229796   2.949   5.128   3.003
 9633SOL     OW29797   3.105   2.874   5.217
 9633SOL    HW129798   3.058   2.908   5.136
 9633SOL    HW229799   3.119   2.948   5.282
 9634SOL     OW29800   6.519   4.752   2.525
 9634SOL    HW129801   6.599   4.692   2.524
 9634SOL    HW229802   6.477   4.750   2.616
 9635SOL     OW29803   0.580   5.727   4.578
 9635SOL    HW129804   0.640   5.805   4.596
 9635SOL    HW229805   0.509   5.754   4.513
 9636SOL     OW29806   5.212   3.577   3.788
 9636SOL    HW129807   5.214   3.602   3.885
 9636SOL    HW229808   5.244   3.483   3.778
 9637SOL     OW29809   2.647   2.466   6.891
 9637SOL    HW129810   2.584   2.532   6.852
 9637SOL    HW229811   2.692   2.506   6.971
 9638SOL     OW29812   0.052   4.466   5.446
 9638SOL    HW129813   0.023   4.559   5.425
 9638SOL    HW229814   0.049   4.411   5.363
 9639SOL     OW29815   4.740   2.935   1.473
 9639SOL    HW129816   4.699   2.850   1.505
 9639SOL    HW229817   4.818   2.959   1.532
 9640SOL     OW29818   3.342   6.839   3.158
 9640SOL    HW129819   3.331   6.752   3.206
 9640SOL    HW229820   3.429   6.880   3.183
 9641SOL     OW29821   0.664   3.018   4.907
 9641SOL    HW129822   0.658   2.993   4.810
 9641SOL    HW229823   0.733   3.090   4.918
 9642SOL     OW29824   0.605   3.368   5.302
 9642SOL    HW129825   0.562   3.311   5.232
 9642SOL    HW229826   0.681   3.318   5.345
 9643SOL     OW29827   5.482   5.345   4.516
 9643SOL    HW129828   5.441   5.436   4.518
 9643SOL    HW229829   5.508   5.322   4.423
 9644SOL     OW29830   0.796   4.480   3.618
 9644SOL    HW129831   0.838   4.549   3.678
 9644SOL    HW229832   0.707   4.512   3.587
 9645SOL     OW29833   1.330   4.691   6.906
 9645SOL    HW129834   1.355   4.636   6.986
 9645SOL    HW229835   1.234   4.717   6.913
 9646SOL     OW29836   2.842   5.056   0.804
 9646SOL    HW129837   2.800   5.134   0.851
 9646SOL    HW229838   2.773   4.985   0.788
 9647SOL     OW29839   5.709   0.043   3.291
 9647SOL    HW129840   5.703   6.972   3.317
 9647SOL    HW229841   5.675   0.054   3.197
 9648SOL     OW29842   3.647   2.449   1.062
 9648SOL    HW129843   3.618   2.507   1.138
 9648SOL    HW229844   3.586   2.371   1.053
 9649SOL     OW29845   6.777   6.306   1.225
 9649SOL    HW129846   6.834   6.286   1.144
 9649SOL    HW229847   6.814   6.386   1.272
 9650SOL     OW29848   0.593   5.466   4.546
 9650SOL    HW129849   0.613   5.562   4.524
 9650SOL    HW229850   0.624   5.408   4.471
 9651SOL     OW29851   4.446   1.468   6.953
 9651SOL    HW129852   4.374   1.533   6.979
 9651SOL    HW229853   4.449   1.394   7.019
 9652SOL     OW29854   0.022   3.726   0.720
 9652SOL    HW129855   6.982   3.657   0.749
 9652SOL    HW229856   0.080   3.751   0.798
 9653SOL     OW29857   5.259   3.970   5.437
 9653SOL    HW129858   5.278   4.024   5.519
 9653SOL    HW229859   5.339   3.972   5.377
 9654SOL     OW29860   3.768   2.950   4.427
 9654SOL    HW129861   3.668   2.953   4.417
 9654SOL    HW229862   3.797   2.856   4.440
 9655SOL     OW29863   4.963   0.103   0.577
 9655SOL    HW129864   5.025   0.172   0.539
 9655SOL    HW229865   4.889   0.148   0.627
 9656SOL     OW29866   5.622   4.344   6.127
 9656SOL    HW129867   5.721   4.334   6.117
 9656SOL    HW229868   5.583   4.259   6.162
 9657SOL     OW29869   4.751   5.236   2.730
 9657SOL    HW129870   4.791   5.146   2.748
 9657SOL    HW229871   4.793   5.275   2.648
 9658SOL     OW29872   5.431   0.828   2.670
 9658SOL    HW129873   5.342   0.858   2.704
 9658SOL    HW229874   5.504   0.865   2.729
 9659SOL     OW29875   3.194   2.805   0.468
 9659SOL    HW129876   3.097   2.787   0.455
 9659SOL    HW229877   3.247   2.742   0.410
 9660SOL     OW29878   2.466   6.991   1.685
 9660SOL    HW129879   2.429   6.918   1.742
 9660SOL    HW229880   2.392   0.009   1.634
 9661SOL     OW29881   4.124   3.665   2.412
 9661SOL    HW129882   4.062   3.651   2.335
 9661SOL    HW229883   4.178   3.582   2.427
 9662SOL     OW29884   4.170   0.411   5.278
 9662SOL    HW129885   4.115   0.429   5.360
 9662SOL    HW229886   4.196   0.314   5.277
 9663SOL     OW29887   1.101   5.780   2.685
 9663SOL    HW129888   1.132   5.750   2.775
 9663SOL    HW229889   1.179   5.783   2.622
 9664SOL     OW29890   1.872   4.863   3.522
 9664SOL    HW129891   1.783   4.869   3.477
 9664SOL    HW229892   1.925   4.788   3.481
 9665SOL     OW29893   6.626   4.330   6.364
 9665SOL    HW129894   6.548   4.269   6.350
 9665SOL    HW229895   6.707   4.276   6.388
 9666SOL     OW29896   5.304   3.597   0.703
 9666SOL    HW129897   5.254   3.632   0.782
 9666SOL    HW229898   5.332   3.673   0.645
 9667SOL     OW29899   5.490   5.945   6.459
 9667SOL    HW129900   5.507   6.031   6.505
 9667SOL    HW229901   5.539   5.871   6.506
 9668SOL     OW29902   2.400   0.304   0.201
 9668SOL    HW129903   2.321   0.294   0.261
 9668SOL    HW229904   2.438   0.396   0.209
 9669SOL     OW29905   3.751   0.349   6.906
 9669SOL    HW129906   3.786   0.406   6.832
 9669SOL    HW229907   3.778   0.388   6.994
 9670SOL     OW29908   0.867   0.138   1.970
 9670SOL    HW129909   0.925   0.211   1.933
 9670SOL    HW229910   0.775   0.144   1.930
 9671SOL     OW29911   0.993   6.271   6.472
 9671SOL    HW129912   1.066   6.322   6.518
 9671SOL    HW229913   0.906   6.315   6.491
 9672SOL     OW29914   1.312   4.170   4.514
 9672SOL    HW129915   1.256   4.117   4.450
 9672SOL    HW229916   1.253   4.236   4.562
 9673SOL     OW29917   2.830   3.127   6.121
 9673SOL    HW129918   2.738   3.150   6.152
 9673SOL    HW229919   2.891   3.115   6.199
 9674SOL     OW29920   1.825   0.395   3.714
 9674SOL    HW129921   1.887   0.322   3.688
 9674SOL    HW229922   1.815   0.397   3.814
 9675SOL     OW29923   5.899   4.084   5.904
 9675SOL    HW129924   5.811   4.111   5.865
 9675SOL    HW229925   5.910   3.985   5.893
 9676SOL     OW29926   1.323   3.084   6.012
 9676SOL    HW129927   1.371   3.060   5.928
 9676SOL    HW229928   1.366   3.164   6.053
 9677SOL     OW29929   0.386   4.677   2.638
 9677SOL    HW129930   0.291   4.649   2.624
 9677SOL    HW229931   0.435   4.606   2.689
 9678SOL     OW29932   4.472   2.863   6.271
 9678SOL    HW129933   4.547   2.854   6.336
 9678SOL    HW229934   4.446   2.773   6.237
 9679SOL     OW29935   0.996   1.076   3.907
 9679SOL    HW129936   0.969   1.036   3.819
 9679SOL    HW229937   1.091   1.108   3.902
 9680SOL     OW29938   4.838   0.332   1.735
 9680SOL    HW129939   4.933   0.315   1.761
 9680SOL    HW229940   4.833   0.414   1.679
 9681SOL     OW29941   0.875   3.566   1.489
 9681SOL    HW129942   0.876   3.538   1.393
 9681SOL    HW229943   0.921   3.496   1.544
 9682SOL     OW29944   4.110   6.585   5.305
 9682SOL    HW129945   4.162   6.500   5.304
 9682SOL    HW229946   4.150   6.650   5.240
 9683SOL     OW29947   3.205   5.961   3.765
 9683SOL    HW129948   3.157   6.002   3.843
 9683SOL    HW229949   3.260   6.031   3.720
 9684SOL     OW29950   0.771   2.553   6.215
 9684SOL    HW129951   0.778   2.506   6.127
 9684SOL    HW229952   0.822   2.639   6.211
 9685SOL     OW29953   3.532   4.351   1.747
 9685SOL    HW129954   3.565   4.440   1.777
 9685SOL    HW229955   3.434   4.343   1.766
 9686SOL     OW29956   0.454   1.802   6.043
 9686SOL    HW129957   0.497   1.776   5.956
 9686SOL    HW229958   0.369   1.751   6.055
 9687SOL     OW29959   5.195   1.591   3.646
 9687SOL    HW129960   5.122   1.535   3.686
 9687SOL    HW229961   5.157   1.679   3.618
 9688SOL     OW29962   0.205   5.278   2.019
 9688SOL    HW129963   0.234   5.217   2.092
 9688SOL    HW229964   0.112   5.253   1.990
 9689SOL     OW29965   1.883   5.594   1.707
 9689SOL    HW129966   1.871   5.495   1.700
 9689SOL    HW229967   1.926   5.628   1.623
 9690SOL     OW29968   5.999   4.515   4.926
 9690SOL    HW129969   5.978   4.422   4.895
 9690SOL    HW229970   6.073   4.511   4.994
 9691SOL     OW29971   3.873   3.248   2.045
 9691SOL    HW129972   3.857   3.256   2.143
 9691SOL    HW229973   3.834   3.328   1.999
 9692SOL     OW29974   5.143   4.889   0.541
 9692SOL    HW129975   5.199   4.848   0.612
 9692SOL    HW229976   5.180   4.867   0.451
 9693SOL     OW29977   4.506   2.979   6.596
 9693SOL    HW129978   4.582   2.933   6.549
 9693SOL    HW229979   4.476   3.057   6.543
 9694SOL     OW29980   2.631   6.493   1.119
 9694SOL    HW129981   2.689   6.566   1.083
 9694SOL    HW229982   2.677   6.405   1.105
 9695SOL     OW29983   2.013   2.893   3.704
 9695SOL    HW129984   1.932   2.952   3.708
 9695SOL    HW229985   2.087   2.942   3.660
 9696SOL     OW29986   4.900   3.413   3.332
 9696SOL    HW129987   4.975   3.356   3.366
 9696SOL    HW229988   4.910   3.506   3.367
 9697SOL     OW29989   6.803   6.760   1.872
 9697SOL    HW129990   6.860   6.831   1.912
 9697SOL    HW229991   6.796   6.774   1.773
 9698SOL     OW29992   6.879   3.676   2.144
 9698SOL    HW129993   6.838   3.742   2.081
 9698SOL    HW229994   6.816   3.598   2.155
 9699SOL     OW29995   1.964   6.770   2.094
 9699SOL    HW129996   1.927   6.805   2.008
 9699SOL    HW229997   1.890   6.731   2.149
 9700SOL     OW29998   6.452   0.811   5.957
 9700SOL    HW129999   6.514   0.816   5.879
 9700SOL    HW230000   6.358   0.828   5.926
 9701SOL     OW30001   5.309   3.729   6.596
 9701SOL    HW130002   5.226   3.757   6.644
 9701SOL    HW230003   5.299   3.636   6.562
 9702SOL     OW30004   3.221   3.982   1.810
 9702SOL    HW130005   3.318   3.963   1.822
 9702SOL    HW230006   3.183   3.920   1.740
 9703SOL     OW30007   6.473   5.357   2.866
 9703SOL    HW130008   6.503   5.451   2.850
 9703SOL    HW230009   6.435   5.319   2.782
 9704SOL     OW30010   0.923   4.394   1.813
 9704SOL    HW130011   0.991   4.467   1.807
 9704SOL    HW230012   0.968   4.309   1.838
 9705SOL     OW30013   0.188   3.989   5.823
 9705SOL    HW130014   0.195   3.896   5.788
 9705SOL    HW230015   0.279   4.023   5.848
 9706SOL     OW30016   1.320   6.257   2.123
 9706SOL    HW130017   1.286   6.168   2.094
 9706SOL    HW230018   1.304   6.325   2.051
 9707SOL     OW30019   1.065   5.487   2.186
 9707SOL    HW130020   1.148   5.541   2.202
 9707SOL    HW230021   1.008   5.488   2.268
 9708SOL     OW30022   2.567   1.346   2.124
 9708SOL    HW130023   2.522   1.304   2.046
 9708SOL    HW230024   2.656   1.303   2.139
 9709SOL     OW30025   4.727   1.418   1.621
 9709SOL    HW130026   4.804   1.426   1.557
 9709SOL    HW230027   4.655   1.481   1.594
 9710SOL     OW30028   4.734   4.424   4.173
 9710SOL    HW130029   4.762   4.515   4.201
 9710SOL    HW230030   4.723   4.366   4.254
 9711SOL     OW30031   2.904   0.887   6.871
 9711SOL    HW130032   2.886   0.838   6.786
 9711SOL    HW230033   2.988   0.853   6.912
 9712SOL     OW30034   4.947   6.634   5.146
 9712SOL    HW130035   5.011   6.558   5.135
 9712SOL    HW230036   4.959   6.698   5.070
 9713SOL     OW30037   1.314   0.686   2.752
 9713SOL    HW130038   1.224   0.718   2.782
 9713SOL    HW230039   1.383   0.708   2.822
 9714SOL     OW30040   2.199   2.401   4.300
 9714SOL    HW130041   2.166   2.471   4.236
 9714SOL    HW230042   2.248   2.330   4.249
 9715SOL     OW30043   0.151   1.933   6.010
 9715SOL    HW130044   0.170   2.018   6.059
 9715SOL    HW230045   0.164   1.856   6.073
 9716SOL     OW30046   2.126   6.642   0.951
 9716SOL    HW130047   2.078   6.563   0.914
 9716SOL    HW230048   2.062   6.719   0.959
 9717SOL     OW30049   3.757   2.481   6.315
 9717SOL    HW130050   3.683   2.546   6.299
 9717SOL    HW230051   3.719   2.398   6.356
 9718SOL     OW30052   3.227   2.438   6.583
 9718SOL    HW130053   3.273   2.450   6.495
 9718SOL    HW230054   3.267   2.500   6.650
 9719SOL     OW30055   4.106   6.918   5.326
 9719SOL    HW130056   4.095   7.013   5.295
 9719SOL    HW230057   4.016   6.882   5.354
 9720SOL     OW30058   1.843   2.833   2.337
 9720SOL    HW130059   1.781   2.761   2.308
 9720SOL    HW230060   1.882   2.809   2.426
 9721SOL     OW30061   1.110   2.256   1.836
 9721SOL    HW130062   1.166   2.246   1.919
 9721SOL    HW230063   1.023   2.298   1.860
 9722SOL     OW30064   3.522   2.679   5.268
 9722SOL    HW130065   3.469   2.598   5.294
 9722SOL    HW230066   3.463   2.744   5.222
 9723SOL     OW30067   5.862   0.405   4.924
 9723SOL    HW130068   5.928   0.372   4.992
 9723SOL    HW230069   5.770   0.399   4.962
 9724SOL     OW30070   2.009   5.238   1.157
 9724SOL    HW130071   2.081   5.250   1.089
 9724SOL    HW230072   2.043   5.180   1.232
 9725SOL     OW30073   5.332   5.328   4.114
 9725SOL    HW130074   5.415   5.289   4.154
 9725SOL    HW230075   5.347   5.349   4.018
 9726SOL     OW30076   0.221   0.289   3.519
 9726SOL    HW130077   0.291   0.276   3.588
 9726SOL    HW230078   0.211   0.205   3.465
 9727SOL     OW30079   6.488   2.869   1.722
 9727SOL    HW130080   6.484   2.884   1.623
 9727SOL    HW230081   6.440   2.784   1.744
 9728SOL     OW30082   5.892   2.119   4.951
 9728SOL    HW130083   5.893   2.023   4.924
 9728SOL    HW230084   5.956   2.171   4.894
 9729SOL     OW30085   0.195   3.511   2.750
 9729SOL    HW130086   0.129   3.580   2.778
 9729SOL    HW230087   0.287   3.540   2.775
 9730SOL     OW30088   0.833   5.429   3.740
 9730SOL    HW130089   0.907   5.460   3.800
 9730SOL    HW230090   0.803   5.338   3.770
 9731SOL     OW30091   6.547   1.706   1.392
 9731SOL    HW130092   6.615   1.690   1.464
 9731SOL    HW230093   6.592   1.746   1.312
 9732SOL     OW30094   0.586   2.964   3.613
 9732SOL    HW130095   0.641   3.004   3.540
 9732SOL    HW230096   0.587   2.864   3.604
 9733SOL     OW30097   5.829   5.671   0.913
 9733SOL    HW130098   5.834   5.605   0.987
 9733SOL    HW230099   5.824   5.623   0.825
 9734SOL     OW30100   4.133   3.958   6.832
 9734SOL    HW130101   4.115   3.965   6.930
 9734SOL    HW230102   4.088   4.034   6.785
 9735SOL     OW30103   1.048   1.694   0.631
 9735SOL    HW130104   1.047   1.625   0.704
 9735SOL    HW230105   1.128   1.679   0.573
 9736SOL     OW30106   5.017   2.259   5.322
 9736SOL    HW130107   5.103   2.300   5.293
 9736SOL    HW230108   4.953   2.330   5.351
 9737SOL     OW30109   5.303   3.313   4.784
 9737SOL    HW130110   5.400   3.326   4.763
 9737SOL    HW230111   5.253   3.290   4.700
 9738SOL     OW30112   2.184   6.263   1.436
 9738SOL    HW130113   2.172   6.359   1.414
 9738SOL    HW230114   2.264   6.227   1.387
 9739SOL     OW30115   5.534   6.740   0.020
 9739SOL    HW130116   5.631   6.730   7.023
 9739SOL    HW230117   5.497   6.822   7.003
 9740SOL     OW30118   6.700   1.061   0.888
 9740SOL    HW130119   6.799   1.050   0.895
 9740SOL    HW230120   6.675   1.153   0.918
 9741SOL     OW30121   2.378   2.734   3.426
 9741SOL    HW130122   2.466   2.700   3.392
 9741SOL    HW230123   2.383   2.747   3.525
 9742SOL     OW30124   4.313   0.847   6.831
 9742SOL    HW130125   4.216   0.839   6.853
 9742SOL    HW230126   4.362   0.770   6.873
 9743SOL     OW30127   6.807   3.497   4.730
 9743SOL    HW130128   6.838   3.479   4.823
 9743SOL    HW230129   6.875   3.463   4.665
 9744SOL     OW30130   1.699   2.437   2.553
 9744SOL    HW130131   1.783   2.447   2.500
 9744SOL    HW230132   1.705   2.356   2.611
 9745SOL     OW30133   1.436   6.226   6.039
 9745SOL    HW130134   1.453   6.320   6.068
 9745SOL    HW230135   1.338   6.206   6.043
 9746SOL     OW30136   3.235   6.427   6.566
 9746SOL    HW130137   3.208   6.334   6.542
 9746SOL    HW230138   3.273   6.472   6.485
 9747SOL     OW30139   4.200   1.637   3.327
 9747SOL    HW130140   4.236   1.568   3.390
 9747SOL    HW230141   4.168   1.594   3.243
 9748SOL     OW30142   0.829   2.088   3.163
 9748SOL    HW130143   0.734   2.118   3.176
 9748SOL    HW230144   0.854   2.026   3.237
 9749SOL     OW30145   6.683   0.461   1.205
 9749SOL    HW130146   6.768   0.468   1.257
 9749SOL    HW230147   6.688   0.381   1.144
 9750SOL     OW30148   5.639   2.166   4.805
 9750SOL    HW130149   5.707   2.101   4.839
 9750SOL    HW230150   5.610   2.139   4.713
 9751SOL     OW30151   2.927   6.094   0.972
 9751SOL    HW130152   2.845   6.150   0.982
 9751SOL    HW230153   2.986   6.105   1.052
 9752SOL     OW30154   3.611   3.242   0.935
 9752SOL    HW130155   3.667   3.303   0.990
 9752SOL    HW230156   3.670   3.174   0.891
 9753SOL     OW30157   6.692   6.317   3.313
 9753SOL    HW130158   6.771   6.255   3.312
 9753SOL    HW230159   6.674   6.350   3.221
 9754SOL     OW30160   3.523   1.214   2.032
 9754SOL    HW130161   3.516   1.143   2.101
 9754SOL    HW230162   3.600   1.274   2.053
 9755SOL     OW30163   3.232   3.912   1.133
 9755SOL    HW130164   3.312   3.972   1.134
 9755SOL    HW230165   3.259   3.822   1.097
 9756SOL     OW30166   5.530   6.962   6.680
 9756SOL    HW130167   5.478   0.010   6.637
 9756SOL    HW230168   5.507   6.957   6.777
 9757SOL     OW30169   5.189   4.008   4.369
 9757SOL    HW130170   5.258   4.045   4.432
 9757SOL    HW230171   5.101   4.053   4.386
 9758SOL     OW30172   3.454   0.989   2.474
 9758SOL    HW130173   3.418   0.897   2.464
 9758SOL    HW230174   3.391   1.043   2.530
 9759SOL     OW30175   0.078   2.218   1.082
 9759SOL    HW130176   0.059   2.154   1.008
 9759SOL    HW230177   0.010   2.206   1.155
 9760SOL     OW30178   4.723   0.554   6.027
 9760SOL    HW130179   4.624   0.567   6.033
 9760SOL    HW230180   4.768   0.609   6.098
 9761SOL     OW30181   0.943   1.700   1.623
 9761SOL    HW130182   0.970   1.778   1.566
 9761SOL    HW230183   0.867   1.727   1.682
 9762SOL     OW30184   3.948   1.123   6.197
 9762SOL    HW130185   4.025   1.060   6.202
 9762SOL    HW230186   3.982   1.217   6.198
 9763SOL     OW30187   6.039   2.074   1.070
 9763SOL    HW130188   6.004   1.996   1.121
 9763SOL    HW230189   6.130   2.097   1.103
 9764SOL     OW30190   0.044   2.728   3.229
 9764SOL    HW130191   0.018   2.724   3.132
 9764SOL    HW230192   0.073   2.820   3.253
 9765SOL     OW30193   6.586   2.185   1.364
 9765SOL    HW130194   6.503   2.139   1.395
 9765SOL    HW230195   6.585   2.280   1.395
 9766SOL     OW30196   0.277   2.800   3.025
 9766SOL    HW130197   0.302   2.850   2.942
 9766SOL    HW230198   0.232   2.714   2.999
 9767SOL     OW30199   3.851   1.451   5.048
 9767SOL    HW130200   3.937   1.424   5.091
 9767SOL    HW230201   3.775   1.399   5.087
 9768SOL     OW30202   4.966   1.834   6.748
 9768SOL    HW130203   4.957   1.932   6.732
 9768SOL    HW230204   5.055   1.815   6.789
 9769SOL     OW30205   3.850   1.016   5.198
 9769SOL    HW130206   3.933   1.049   5.153
 9769SOL    HW230207   3.875   0.966   5.281
 9770SOL     OW30208   1.776   3.362   5.241
 9770SOL    HW130209   1.791   3.312   5.156
 9770SOL    HW230210   1.864   3.378   5.285
 9771SOL     OW30211   3.434   0.966   2.180
 9771SOL    HW130212   3.491   0.963   2.263
 9771SOL    HW230213   3.338   0.972   2.206
 9772SOL     OW30214   0.299   0.427   2.175
 9772SOL    HW130215   0.355   0.415   2.257
 9772SOL    HW230216   0.282   0.524   2.160
 9773SOL     OW30217   5.967   6.350   1.879
 9773SOL    HW130218   5.929   6.431   1.834
 9773SOL    HW230219   6.064   6.341   1.854
 9774SOL     OW30220   1.703   6.119   4.548
 9774SOL    HW130221   1.691   6.127   4.449
 9774SOL    HW230222   1.791   6.158   4.574
 9775SOL     OW30223   1.259   1.227   3.100
 9775SOL    HW130224   1.288   1.308   3.151
 9775SOL    HW230225   1.199   1.254   3.025
 9776SOL     OW30226   1.811   5.986   1.556
 9776SOL    HW130227   1.880   5.921   1.523
 9776SOL    HW230228   1.828   6.005   1.653
 9777SOL     OW30229   4.235   1.767   5.289
 9777SOL    HW130230   4.186   1.702   5.346
 9777SOL    HW230231   4.201   1.762   5.195
 9778SOL     OW30232   1.579   3.711   3.104
 9778SOL    HW130233   1.552   3.671   3.192
 9778SOL    HW230234   1.554   3.808   3.102
 9779SOL     OW30235   3.051   0.486   3.349
 9779SOL    HW130236   2.958   0.521   3.362
 9779SOL    HW230237   3.063   0.458   3.254
 9780SOL     OW30238   0.976   1.551   0.852
 9780SOL    HW130239   1.057   1.579   0.904
 9780SOL    HW230240   0.956   1.455   0.870
 9781SOL     OW30241   1.376   1.305   2.327
 9781SOL    HW130242   1.465   1.269   2.299
 9781SOL    HW230243   1.360   1.393   2.282
 9782SOL     OW30244   6.902   2.700   0.345
 9782SOL    HW130245   6.873   2.794   0.364
 9782SOL    HW230246   6.991   2.683   0.386
 9783SOL     OW30247   5.112   1.997   2.390
 9783SOL    HW130248   5.116   2.045   2.478
 9783SOL    HW230249   5.086   1.902   2.406
 9784SOL     OW30250   1.853   1.464   0.571
 9784SOL    HW130251   1.907   1.468   0.487
 9784SOL    HW230252   1.876   1.541   0.630
 9785SOL     OW30253   1.684   3.555   4.658
 9785SOL    HW130254   1.700   3.493   4.581
 9785SOL    HW230255   1.601   3.608   4.642
 9786SOL     OW30256   2.942   4.590   6.903
 9786SOL    HW130257   2.904   4.616   6.814
 9786SOL    HW230258   2.889   4.635   6.975
 9787SOL     OW30259   2.420   3.386   0.937
 9787SOL    HW130260   2.337   3.440   0.950
 9787SOL    HW230261   2.395   3.291   0.915
 9788SOL     OW30262   2.930   6.807   2.550
 9788SOL    HW130263   3.000   6.754   2.503
 9788SOL    HW230264   2.965   6.840   2.638
 9789SOL     OW30265   4.416   1.638   0.730
 9789SOL    HW130266   4.468   1.715   0.767
 9789SOL    HW230267   4.479   1.571   0.691
 9790SOL     OW30268   4.723   5.985   4.609
 9790SOL    HW130269   4.647   5.928   4.639
 9790SOL    HW230270   4.704   6.081   4.627
 9791SOL     OW30271   0.519   1.054   1.203
 9791SOL    HW130272   0.564   1.110   1.273
 9791SOL    HW230273   0.520   1.103   1.116
 9792SOL     OW30274   3.585   3.692   0.813
 9792SOL    HW130275   3.662   3.751   0.836
 9792SOL    HW230276   3.511   3.746   0.772
 9793SOL     OW30277   6.002   1.186   2.513
 9793SOL    HW130278   6.073   1.187   2.442
 9793SOL    HW230279   5.988   1.279   2.547
 9794SOL     OW30280   4.010   5.383   4.598
 9794SOL    HW130281   4.097   5.376   4.550
 9794SOL    HW230282   4.000   5.475   4.636
 9795SOL     OW30283   1.952   4.061   3.202
 9795SOL    HW130284   1.864   4.057   3.250
 9795SOL    HW230285   2.024   4.089   3.267
 9796SOL     OW30286   3.406   3.841   4.528
 9796SOL    HW130287   3.492   3.804   4.563
 9796SOL    HW230288   3.414   3.859   4.430
 9797SOL     OW30289   3.536   5.480   6.929
 9797SOL    HW130290   3.625   5.509   6.965
 9797SOL    HW230291   3.522   5.383   6.950
 9798SOL     OW30292   0.012   4.160   6.232
 9798SOL    HW130293   0.092   4.217   6.251
 9798SOL    HW230294   0.032   4.100   6.155
 9799SOL     OW30295   4.116   6.072   6.773
 9799SOL    HW130296   4.180   6.063   6.697
 9799SOL    HW230297   4.023   6.085   6.737
 9800SOL     OW30298   6.604   4.432   4.908
 9800SOL    HW130299   6.609   4.349   4.852
 9800SOL    HW230300   6.690   4.483   4.901
 9801SOL     OW30301   4.174   0.086   0.505
 9801SOL    HW130302   4.080   0.065   0.531
 9801SOL    HW230303   4.193   0.048   0.415
 9802SOL     OW30304   3.979   3.292   0.373
 9802SOL    HW130305   4.002   3.379   0.414
 9802SOL    HW230306   3.890   3.261   0.406
 9803SOL     OW30307   2.093   3.263   7.000
 9803SOL    HW130308   2.098   3.204   0.055
 9803SOL    HW230309   2.083   3.358   0.002
 9804SOL     OW30310   1.268   4.385   2.765
 9804SOL    HW130311   1.295   4.357   2.857
 9804SOL    HW230312   1.250   4.484   2.764
 9805SOL     OW30313   0.088   5.688   4.712
 9805SOL    HW130314   0.102   5.591   4.693
 9805SOL    HW230315   0.089   5.739   4.627
 9806SOL     OW30316   3.402   1.310   6.766
 9806SOL    HW130317   3.394   1.366   6.684
 9806SOL    HW230318   3.348   1.352   6.839
 9807SOL     OW30319   3.753   3.009   3.625
 9807SOL    HW130320   3.809   3.049   3.552
 9807SOL    HW230321   3.684   2.949   3.585
 9808SOL     OW30322   3.183   5.819   2.432
 9808SOL    HW130323   3.242   5.738   2.435
 9808SOL    HW230324   3.101   5.799   2.378
 9809SOL     OW30325   5.984   2.536   0.969
 9809SOL    HW130326   6.071   2.561   1.012
 9809SOL    HW230327   5.937   2.468   1.025
 9810SOL     OW30328   2.896   2.911   0.721
 9810SOL    HW130329   2.878   2.999   0.765
 9810SOL    HW230330   2.987   2.878   0.748
 9811SOL     OW30331   5.038   3.603   4.036
 9811SOL    HW130332   4.969   3.557   3.979
 9811SOL    HW230333   5.122   3.549   4.037
 9812SOL     OW30334   3.766   5.582   6.609
 9812SOL    HW130335   3.826   5.570   6.530
 9812SOL    HW230336   3.760   5.496   6.660
 9813SOL     OW30337   4.626   1.286   2.193
 9813SOL    HW130338   4.610   1.249   2.285
 9813SOL    HW230339   4.556   1.355   2.173
 9814SOL     OW30340   6.573   1.812   6.132
 9814SOL    HW130341   6.553   1.910   6.123
 9814SOL    HW230342   6.648   1.800   6.198
 9815SOL     OW30343   5.170   2.470   4.350
 9815SOL    HW130344   5.243   2.508   4.407
 9815SOL    HW230345   5.083   2.514   4.374
 9816SOL     OW30346   3.022   0.650   0.166
 9816SOL    HW130347   3.075   0.661   0.082
 9816SOL    HW230348   3.058   0.573   0.218
 9817SOL     OW30349   6.862   0.402   1.614
 9817SOL    HW130350   6.793   0.472   1.595
 9817SOL    HW230351   6.944   0.445   1.650
 9818SOL     OW30352   3.494   2.250   5.529
 9818SOL    HW130353   3.480   2.236   5.431
 9818SOL    HW230354   3.405   2.263   5.574
 9819SOL     OW30355   2.678   0.594   1.559
 9819SOL    HW130356   2.772   0.624   1.541
 9819SOL    HW230357   2.672   0.559   1.653
 9820SOL     OW30358   3.862   2.613   6.850
 9820SOL    HW130359   3.768   2.590   6.876
 9820SOL    HW230360   3.918   2.619   6.933
 9821SOL     OW30361   6.803   5.684   0.248
 9821SOL    HW130362   6.807   5.618   0.172
 9821SOL    HW230363   6.710   5.718   0.257
 9822SOL     OW30364   0.117   0.452   2.485
 9822SOL    HW130365   0.191   0.386   2.499
 9822SOL    HW230366   0.064   0.462   2.569
 9823SOL     OW30367   3.484   6.669   1.839
 9823SOL    HW130368   3.492   6.751   1.895
 9823SOL    HW230369   3.432   6.689   1.756
 9824SOL     OW30370   1.960   3.884   5.849
 9824SOL    HW130371   1.870   3.843   5.840
 9824SOL    HW230372   1.997   3.864   5.940
 9825SOL     OW30373   4.142   5.491   4.930
 9825SOL    HW130374   4.157   5.398   4.962
 9825SOL    HW230375   4.045   5.515   4.940
 9826SOL     OW30376   5.943   6.618   5.077
 9826SOL    HW130377   5.898   6.558   5.143
 9826SOL    HW230378   6.008   6.565   5.023
 9827SOL     OW30379   1.274   4.977   4.907
 9827SOL    HW130380   1.248   4.999   4.813
 9827SOL    HW230381   1.203   5.009   4.969
 9828SOL     OW30382   2.228   2.095   0.058
 9828SOL    HW130383   2.294   2.163   0.024
 9828SOL    HW230384   2.244   2.008   0.012
 9829SOL     OW30385   2.289   4.285   1.496
 9829SOL    HW130386   2.233   4.313   1.417
 9829SOL    HW230387   2.384   4.278   1.467
 9830SOL     OW30388   6.514   1.299   0.659
 9830SOL    HW130389   6.468   1.213   0.680
 9830SOL    HW230390   6.522   1.354   0.743
 9831SOL     OW30391   5.927   6.621   1.182
 9831SOL    HW130392   5.897   6.711   1.214
 9831SOL    HW230393   5.945   6.624   1.084
 9832SOL     OW30394   3.683   4.227   1.022
 9832SOL    HW130395   3.772   4.208   0.980
 9832SOL    HW230396   3.613   4.229   0.950
 9833SOL     OW30397   4.609   4.492   6.070
 9833SOL    HW130398   4.579   4.556   6.141
 9833SOL    HW230399   4.567   4.403   6.087
 9834SOL     OW30400   2.100   2.007   3.727
 9834SOL    HW130401   2.088   2.091   3.781
 9834SOL    HW230402   2.052   2.017   3.640
 9835SOL     OW30403   5.555   1.316   4.876
 9835SOL    HW130404   5.574   1.265   4.960
 9835SOL    HW230405   5.566   1.414   4.894
 9836SOL     OW30406   4.865   5.113   1.336
 9836SOL    HW130407   4.769   5.104   1.365
 9836SOL    HW230408   4.919   5.151   1.411
 9837SOL     OW30409   2.572   6.134   5.721
 9837SOL    HW130410   2.585   6.123   5.622
 9837SOL    HW230411   2.591   6.228   5.747
 9838SOL     OW30412   6.595   5.791   4.890
 9838SOL    HW130413   6.642   5.709   4.856
 9838SOL    HW230414   6.496   5.774   4.889
 9839SOL     OW30415   5.854   2.852   2.649
 9839SOL    HW130416   5.839   2.939   2.602
 9839SOL    HW230417   5.862   2.868   2.747
 9840SOL     OW30418   5.792   0.422   0.445
 9840SOL    HW130419   5.722   0.404   0.514
 9840SOL    HW230420   5.753   0.480   0.373
 9841SOL     OW30421   2.298   2.777   4.469
 9841SOL    HW130422   2.226   2.715   4.499
 9841SOL    HW230423   2.291   2.863   4.518
 9842SOL     OW30424   3.225   3.670   3.881
 9842SOL    HW130425   3.304   3.691   3.939
 9842SOL    HW230426   3.189   3.755   3.842
 9843SOL     OW30427   5.935   4.835   3.034
 9843SOL    HW130428   5.923   4.843   2.935
 9843SOL    HW230429   5.927   4.738   3.060
 9844SOL     OW30430   5.273   0.342   2.002
 9844SOL    HW130431   5.235   0.402   2.072
 9844SOL    HW230432   5.364   0.312   2.031
 9845SOL     OW30433   1.486   1.671   3.405
 9845SOL    HW130434   1.457   1.720   3.322
 9845SOL    HW230435   1.473   1.730   3.485
 9846SOL     OW30436   3.115   3.613   3.451
 9846SOL    HW130437   3.196   3.599   3.394
 9846SOL    HW230438   3.104   3.536   3.514
 9847SOL     OW30439   2.169   4.400   5.210
 9847SOL    HW130440   2.077   4.412   5.172
 9847SOL    HW230441   2.188   4.303   5.223
 9848SOL     OW30442   5.784   3.890   0.366
 9848SOL    HW130443   5.769   3.829   0.289
 9848SOL    HW230444   5.699   3.941   0.384
 9849SOL     OW30445   0.035   6.299   5.447
 9849SOL    HW130446   0.052   6.297   5.348
 9849SOL    HW230447   0.089   6.228   5.491
 9850SOL     OW30448   4.360   0.224   2.983
 9850SOL    HW130449   4.390   0.319   2.996
 9850SOL    HW230450   4.271   0.211   3.027
 9851SOL     OW30451   5.496   3.114   5.067
 9851SOL    HW130452   5.420   3.097   5.005
 9851SOL    HW230453   5.518   3.211   5.067
 9852SOL     OW30454   5.665   1.720   4.589
 9852SOL    HW130455   5.646   1.677   4.677
 9852SOL    HW230456   5.610   1.677   4.518
 9853SOL     OW30457   0.574   4.756   1.334
 9853SOL    HW130458   0.549   4.746   1.431
 9853SOL    HW230459   0.672   4.769   1.326
 9854SOL     OW30460   4.069   6.376   3.672
 9854SOL    HW130461   4.158   6.393   3.715
 9854SOL    HW230462   4.006   6.338   3.740
 9855SOL     OW30463   1.852   4.139   0.747
 9855SOL    HW130464   1.846   4.058   0.688
 9855SOL    HW230465   1.761   4.178   0.759
 9856SOL     OW30466   3.500   3.165   1.336
 9856SOL    HW130467   3.436   3.210   1.399
 9856SOL    HW230468   3.455   3.153   1.247
 9857SOL     OW30469   6.496   4.583   2.930
 9857SOL    HW130470   6.586   4.626   2.916
 9857SOL    HW230471   6.432   4.619   2.862
 9858SOL     OW30472   3.691   1.653   1.338
 9858SOL    HW130473   3.733   1.744   1.335
 9858SOL    HW230474   3.736   1.598   1.409
 9859SOL     OW30475   0.224   0.176   1.421
 9859SOL    HW130476   0.148   0.129   1.467
 9859SOL    HW230477   0.189   0.228   1.343
 9860SOL     OW30478   0.811   0.723   2.498
 9860SOL    HW130479   0.862   0.659   2.554
 9860SOL    HW230480   0.870   0.801   2.475
 9861SOL     OW30481   2.846   6.463   4.394
 9861SOL    HW130482   2.772   6.442   4.458
 9861SOL    HW230483   2.846   6.561   4.375
 9862SOL     OW30484   0.480   2.130   1.105
 9862SOL    HW130485   0.415   2.127   1.030
 9862SOL    HW230486   0.455   2.062   1.174
 9863SOL     OW30487   3.520   6.760   0.308
 9863SOL    HW130488   3.534   6.686   0.243
 9863SOL    HW230489   3.518   6.848   0.260
 9864SOL     OW30490   4.497   5.800   3.139
 9864SOL    HW130491   4.583   5.850   3.138
 9864SOL    HW230492   4.450   5.816   3.225
 9865SOL     OW30493   1.625   2.697   3.786
 9865SOL    HW130494   1.553   2.765   3.800
 9865SOL    HW230495   1.658   2.665   3.875
 9866SOL     OW30496   3.299   5.356   3.597
 9866SOL    HW130497   3.295   5.263   3.632
 9866SOL    HW230498   3.388   5.371   3.554
 9867SOL     OW30499   4.026   0.204   6.304
 9867SOL    HW130500   4.094   0.162   6.242
 9867SOL    HW230501   4.073   0.265   6.368
 9868SOL     OW30502   0.971   5.079   5.818
 9868SOL    HW130503   0.907   5.003   5.833
 9868SOL    HW230504   1.047   5.048   5.762
 9869SOL     OW30505   1.341   4.289   3.010
 9869SOL    HW130506   1.289   4.254   3.088
 9869SOL    HW230507   1.429   4.244   3.005
 9870SOL     OW30508   4.282   4.615   1.906
 9870SOL    HW130509   4.332   4.605   1.820
 9870SOL    HW230510   4.280   4.527   1.954
 9871SOL     OW30511   1.607   2.092   5.743
 9871SOL    HW130512   1.705   2.107   5.728
 9871SOL    HW230513   1.583   2.120   5.836
 9872SOL     OW30514   1.312   4.101   3.573
 9872SOL    HW130515   1.352   4.107   3.481
 9872SOL    HW230516   1.382   4.122   3.641
 9873SOL     OW30517   1.455   2.106   0.411
 9873SOL    HW130518   1.442   2.040   0.486
 9873SOL    HW230519   1.550   2.101   0.379
 9874SOL     OW30520   1.167   3.928   4.659
 9874SOL    HW130521   1.209   3.863   4.595
 9874SOL    HW230522   1.160   4.017   4.616
 9875SOL     OW30523   0.813   1.209   2.811
 9875SOL    HW130524   0.836   1.296   2.767
 9875SOL    HW230525   0.835   1.213   2.908
 9876SOL     OW30526   6.954   5.229   1.937
 9876SOL    HW130527   6.952   5.137   1.896
 9876SOL    HW230528   6.926   5.223   2.033
 9877SOL     OW30529   3.342   6.883   1.412
 9877SOL    HW130530   3.413   6.948   1.438
 9877SOL    HW230531   3.355   6.798   1.463
 9878SOL     OW30532   0.380   0.157   4.974
 9878SOL    HW130533   0.396   0.183   4.879
 9878SOL    HW230534   0.438   0.079   4.997
 9879SOL     OW30535   5.670   5.975   5.128
 9879SOL    HW130536   5.691   5.949   5.222
 9879SOL    HW230537   5.574   5.956   5.108
 9880SOL     OW30538   1.772   1.563   3.853
 9880SOL    HW130539   1.847   1.520   3.905
 9880SOL    HW230540   1.716   1.617   3.915
 9881SOL     OW30541   7.004   1.461   6.102
 9881SOL    HW130542   0.020   1.418   6.183
 9881SOL    HW230543   0.044   1.462   6.027
 9882SOL     OW30544   2.130   2.363   3.187
 9882SOL    HW130545   2.102   2.269   3.166
 9882SOL    HW230546   2.230   2.368   3.186
 9883SOL     OW30547   2.749   1.255   2.300
 9883SOL    HW130548   2.819   1.318   2.266
 9883SOL    HW230549   2.714   1.289   2.387
 9884SOL     OW30550   3.302   0.411   4.251
 9884SOL    HW130551   3.382   0.467   4.272
 9884SOL    HW230552   3.290   0.405   4.152
 9885SOL     OW30553   6.623   4.192   4.372
 9885SOL    HW130554   6.616   4.093   4.377
 9885SOL    HW230555   6.598   4.223   4.280
 9886SOL     OW30556   0.957   3.394   1.692
 9886SOL    HW130557   0.911   3.476   1.725
 9886SOL    HW230558   0.939   3.318   1.755
 9887SOL     OW30559   4.466   6.757   6.018
 9887SOL    HW130560   4.452   6.741   6.115
 9887SOL    HW230561   4.408   6.695   5.964
 9888SOL     OW30562   6.266   5.464   6.820
 9888SOL    HW130563   6.355   5.497   6.785
 9888SOL    HW230564   6.240   5.381   6.771
 9889SOL     OW30565   0.559   5.096   0.258
 9889SOL    HW130566   0.520   5.117   0.347
 9889SOL    HW230567   0.584   5.181   0.212
 9890SOL     OW30568   1.474   3.267   0.559
 9890SOL    HW130569   1.538   3.195   0.534
 9890SOL    HW230570   1.485   3.290   0.656
 9891SOL     OW30571   5.063   1.799   1.886
 9891SOL    HW130572   5.102   1.884   1.851
 9891SOL    HW230573   5.000   1.820   1.961
 9892SOL     OW30574   0.897   6.577   6.931
 9892SOL    HW130575   0.930   6.654   6.986
 9892SOL    HW230576   0.924   6.590   6.836
 9893SOL     OW30577   2.039   1.564   0.854
 9893SOL    HW130578   1.973   1.618   0.802
 9893SOL    HW230579   2.102   1.626   0.902
 9894SOL     OW30580   1.992   1.019   1.446
 9894SOL    HW130581   2.063   1.021   1.516
 9894SOL    HW230582   2.020   1.077   1.369
 9895SOL     OW30583   4.632   2.919   5.228
 9895SOL    HW130584   4.610   2.875   5.316
 9895SOL    HW230585   4.641   3.017   5.241
 9896SOL     OW30586   0.063   6.452   6.367
 9896SOL    HW130587   0.084   6.535   6.316
 9896SOL    HW230588   0.060   6.373   6.305
 9897SOL     OW30589   5.429   5.095   4.626
 9897SOL    HW130590   5.523   5.062   4.628
 9897SOL    HW230591   5.428   5.192   4.605
 9898SOL     OW30592   2.711   6.675   5.830
 9898SOL    HW130593   2.705   6.699   5.927
 9898SOL    HW230594   2.619   6.669   5.792
 9899SOL     OW30595   7.022   5.376   0.061
 9899SOL    HW130596   6.971   5.358   7.003
 9899SOL    HW230597   6.987   5.458   0.105
 9900SOL     OW30598   2.294   4.186   3.716
 9900SOL    HW130599   2.334   4.236   3.793
 9900SOL    HW230600   2.253   4.101   3.750
 9901SOL     OW30601   2.519   3.007   5.794
 9901SOL    HW130602   2.532   2.921   5.745
 9901SOL    HW230603   2.509   3.081   5.729
 9902SOL     OW30604   2.792   4.013   0.622
 9902SOL    HW130605   2.883   4.026   0.660
 9902SOL    HW230606   2.725   4.009   0.696
 9903SOL     OW30607   5.312   0.717   4.304
 9903SOL    HW130608   5.346   0.682   4.392
 9903SOL    HW230609   5.307   0.642   4.238
 9904SOL     OW30610   6.240   2.407   0.886
 9904SOL    HW130611   6.141   2.415   0.875
 9904SOL    HW230612   6.277   2.351   0.811
 9905SOL     OW30613   5.338   0.434   0.535
 9905SOL    HW130614   5.274   0.381   0.479
 9905SOL    HW230615   5.290   0.469   0.615
 9906SOL     OW30616   3.192   3.009   4.766
 9906SOL    HW130617   3.120   2.945   4.791
 9906SOL    HW230618   3.279   2.960   4.760
 9907SOL     OW30619   1.300   6.683   1.884
 9907SOL    HW130620   1.240   6.751   1.925
 9907SOL    HW230621   1.368   6.730   1.827
 9908SOL     OW30622   4.954   3.785   2.447
 9908SOL    HW130623   4.951   3.878   2.482
 9908SOL    HW230624   4.922   3.785   2.352
 9909SOL     OW30625   2.066   0.456   5.068
 9909SOL    HW130626   2.099   0.483   4.978
 9909SOL    HW230627   2.066   0.356   5.074
 9910SOL     OW30628   0.017   5.100   3.604
 9910SOL    HW130629   0.035   5.035   3.530
 9910SOL    HW230630   7.008   5.186   3.564
 9911SOL     OW30631   2.908   5.527   2.413
 9911SOL    HW130632   2.839   5.594   2.442
 9911SOL    HW230633   2.864   5.440   2.392
 9912SOL     OW30634   4.974   0.691   6.844
 9912SOL    HW130635   5.039   0.648   6.907
 9912SOL    HW230636   4.992   0.660   6.751
 9913SOL     OW30637   4.619   3.307   0.095
 9913SOL    HW130638   4.594   3.328   0.190
 9913SOL    HW230639   4.717   3.287   0.090
 9914SOL     OW30640   0.104   4.399   4.274
 9914SOL    HW130641   0.039   4.341   4.324
 9914SOL    HW230642   0.139   4.470   4.335
 9915SOL     OW30643   5.488   1.147   3.354
 9915SOL    HW130644   5.429   1.067   3.369
 9915SOL    HW230645   5.440   1.230   3.383
 9916SOL     OW30646   1.450   3.153   2.167
 9916SOL    HW130647   1.439   3.054   2.163
 9916SOL    HW230648   1.498   3.185   2.085
 9917SOL     OW30649   6.136   4.042   5.184
 9917SOL    HW130650   6.185   4.037   5.097
 9917SOL    HW230651   6.124   4.138   5.210
 9918SOL     OW30652   4.875   2.860   2.373
 9918SOL    HW130653   4.873   2.949   2.327
 9918SOL    HW230654   4.925   2.869   2.459
 9919SOL     OW30655   5.974   6.290   0.801
 9919SOL    HW130656   6.028   6.248   0.728
 9919SOL    HW230657   5.881   6.252   0.798
 9920SOL     OW30658   4.838   1.668   2.660
 9920SOL    HW130659   4.928   1.700   2.631
 9920SOL    HW230660   4.801   1.730   2.730
 9921SOL     OW30661   3.584   5.009   6.012
 9921SOL    HW130662   3.609   5.052   6.099
 9921SOL    HW230663   3.653   4.942   5.986
 9922SOL     OW30664   0.060   5.404   0.800
 9922SOL    HW130665   0.095   5.449   0.882
 9922SOL    HW230666   0.003   5.326   0.826
 9923SOL     OW30667   5.490   4.570   1.143
 9923SOL    HW130668   5.561   4.602   1.206
 9923SOL    HW230669   5.403   4.614   1.166
 9924SOL     OW30670   1.218   3.660   4.826
 9924SOL    HW130671   1.235   3.564   4.848
 9924SOL    HW230672   1.254   3.718   4.899
 9925SOL     OW30673   5.576   1.866   3.250
 9925SOL    HW130674   5.564   1.957   3.210
 9925SOL    HW230675   5.584   1.873   3.349
 9926SOL     OW30676   2.857   5.204   0.290
 9926SOL    HW130677   2.767   5.162   0.300
 9926SOL    HW230678   2.859   5.258   0.205
 9927SOL     OW30679   5.109   0.133   3.885
 9927SOL    HW130680   5.136   0.037   3.890
 9927SOL    HW230681   5.010   0.140   3.872
 9928SOL     OW30682   4.519   4.918   2.119
 9928SOL    HW130683   4.557   4.884   2.205
 9928SOL    HW230684   4.513   5.018   2.123
 9929SOL     OW30685   1.287   4.675   2.778
 9929SOL    HW130686   1.213   4.667   2.711
 9929SOL    HW230687   1.349   4.748   2.750
 9930SOL     OW30688   5.983   0.498   3.537
 9930SOL    HW130689   6.006   0.477   3.442
 9930SOL    HW230690   5.967   0.413   3.588
 9931SOL     OW30691   0.461   5.304   6.200
 9931SOL    HW130692   0.414   5.216   6.191
 9931SOL    HW230693   0.398   5.378   6.179
 9932SOL     OW30694   0.559   6.561   5.417
 9932SOL    HW130695   0.469   6.604   5.408
 9932SOL    HW230696   0.575   6.537   5.513
 9933SOL     OW30697   0.110   6.082   2.346
 9933SOL    HW130698   0.063   5.996   2.366
 9933SOL    HW230699   0.204   6.062   2.316
 9934SOL     OW30700   6.754   2.047   5.410
 9934SOL    HW130701   6.807   2.040   5.326
 9934SOL    HW230702   6.770   1.967   5.467
 9935SOL     OW30703   2.811   0.371   6.185
 9935SOL    HW130704   2.793   0.403   6.092
 9935SOL    HW230705   2.907   0.346   6.193
 9936SOL     OW30706   1.345   4.050   4.180
 9936SOL    HW130707   1.271   4.041   4.247
 9936SOL    HW230708   1.311   4.029   4.089
 9937SOL     OW30709   6.534   2.525   6.195
 9937SOL    HW130710   6.596   2.496   6.268
 9937SOL    HW230711   6.569   2.491   6.107
 9938SOL     OW30712   7.021   6.288   2.522
 9938SOL    HW130713   0.048   6.313   2.604
 9938SOL    HW230714   0.044   6.216   2.473
 9939SOL     OW30715   3.263   3.416   2.846
 9939SOL    HW130716   3.171   3.389   2.874
 9939SOL    HW230717   3.258   3.479   2.769
 9940SOL     OW30718   0.188   0.778   1.164
 9940SOL    HW130719   0.103   0.762   1.113
 9940SOL    HW230720   0.265   0.780   1.100
 9941SOL     OW30721   3.354   5.503   4.725
 9941SOL    HW130722   3.423   5.560   4.680
 9941SOL    HW230723   3.364   5.408   4.696
 9942SOL     OW30724   2.476   5.904   4.116
 9942SOL    HW130725   2.519   5.818   4.143
 9942SOL    HW230726   2.377   5.897   4.128
 9943SOL     OW30727   0.460   0.003   5.171
 9943SOL    HW130728   0.410   0.086   5.195
 9943SOL    HW230729   0.401   6.949   5.182
 9944SOL     OW30730   1.478   4.090   6.558
 9944SOL    HW130731   1.436   4.088   6.648
 9944SOL    HW230732   1.569   4.050   6.562
 9945SOL     OW30733   0.292   6.097   0.216
 9945SOL    HW130734   0.388   6.090   0.191
 9945SOL    HW230735   0.263   6.015   0.264
 9946SOL     OW30736   5.854   1.876   4.845
 9946SOL    HW130737   5.842   1.776   4.840
 9946SOL    HW230738   5.825   1.917   4.759
 9947SOL     OW30739   5.936   4.560   3.093
 9947SOL    HW130740   5.951   4.478   3.148
 9947SOL    HW230741   5.856   4.547   3.034
 9948SOL     OW30742   5.678   3.520   4.027
 9948SOL    HW130743   5.712   3.599   3.976
 9948SOL    HW230744   5.753   3.481   4.082
 9949SOL     OW30745   6.106   5.169   1.841
 9949SOL    HW130746   6.027   5.155   1.901
 9949SOL    HW230747   6.179   5.215   1.892
 9950SOL     OW30748   2.894   6.444   6.702
 9950SOL    HW130749   2.952   6.521   6.676
 9950SOL    HW230750   2.806   6.479   6.734
 9951SOL     OW30751   6.334   2.385   3.318
 9951SOL    HW130752   6.290   2.475   3.317
 9951SOL    HW230753   6.314   2.337   3.232
 9952SOL     OW30754   6.772   4.809   6.176
 9952SOL    HW130755   6.678   4.837   6.196
 9952SOL    HW230756   6.829   4.824   6.257
 9953SOL     OW30757   5.561   2.866   3.650
 9953SOL    HW130758   5.657   2.844   3.633
 9953SOL    HW230759   5.530   2.821   3.734
 9954SOL     OW30760   4.115   0.459   4.503
 9954SOL    HW130761   4.018   0.437   4.516
 9954SOL    HW230762   4.127   0.504   4.415
 9955SOL     OW30763   0.851   4.835   4.403
 9955SOL    HW130764   0.916   4.808   4.331
 9955SOL    HW230765   0.783   4.898   4.365
 9956SOL     OW30766   0.977   6.359   0.204
 9956SOL    HW130767   1.035   6.286   0.239
 9956SOL    HW230768   0.979   6.358   0.104
 9957SOL     OW30769   5.693   5.796   2.219
 9957SOL    HW130770   5.650   5.728   2.161
 9957SOL    HW230771   5.622   5.842   2.274
 9958SOL     OW30772   2.833   4.366   0.775
 9958SOL    HW130773   2.879   4.279   0.760
 9958SOL    HW230774   2.748   4.351   0.826
 9959SOL     OW30775   3.341   3.938   1.416
 9959SOL    HW130776   3.284   3.892   1.347
 9959SOL    HW230777   3.389   3.869   1.470
 9960SOL     OW30778   0.604   1.331   2.565
 9960SOL    HW130779   0.642   1.408   2.615
 9960SOL    HW230780   0.616   1.345   2.467
 9961SOL     OW30781   2.198   3.817   4.896
 9961SOL    HW130782   2.112   3.806   4.946
 9961SOL    HW230783   2.258   3.878   4.948
 9962SOL     OW30784   5.047   6.602   4.086
 9962SOL    HW130785   5.037   6.542   4.007
 9962SOL    HW230786   5.064   6.547   4.168
 9963SOL     OW30787   3.425   1.187   0.969
 9963SOL    HW130788   3.418   1.117   0.898
 9963SOL    HW230789   3.346   1.180   1.031
 9964SOL     OW30790   5.115   6.374   4.813
 9964SOL    HW130791   5.106   6.395   4.716
 9964SOL    HW230792   5.065   6.290   4.834
 9965SOL     OW30793   4.870   6.711   0.583
 9965SOL    HW130794   4.930   6.762   0.522
 9965SOL    HW230795   4.811   6.774   0.632
 9966SOL     OW30796   6.157   1.019   3.275
 9966SOL    HW130797   6.068   0.977   3.293
 9966SOL    HW230798   6.229   0.950   3.281
 9967SOL     OW30799   1.136   4.936   0.628
 9967SOL    HW130800   1.038   4.923   0.642
 9967SOL    HW230801   1.165   4.888   0.546
 9968SOL     OW30802   3.161   3.637   3.142
 9968SOL    HW130803   3.079   3.610   3.191
 9968SOL    HW230804   3.171   3.737   3.146
 9969SOL     OW30805   1.263   3.417   1.356
 9969SOL    HW130806   1.207   3.334   1.367
 9969SOL    HW230807   1.360   3.391   1.356
 9970SOL     OW30808   6.221   4.652   1.629
 9970SOL    HW130809   6.186   4.742   1.658
 9970SOL    HW230810   6.221   4.590   1.707
 9971SOL     OW30811   2.642   0.155   6.637
 9971SOL    HW130812   2.646   0.226   6.568
 9971SOL    HW230813   2.731   0.111   6.646
 9972SOL     OW30814   6.632   5.257   1.179
 9972SOL    HW130815   6.709   5.220   1.231
 9972SOL    HW230816   6.616   5.201   1.098
 9973SOL     OW30817   5.600   0.080   3.599
 9973SOL    HW130818   5.541   7.025   3.598
 9973SOL    HW230819   5.591   0.130   3.513
 9974SOL     OW30820   2.459   0.183   4.310
 9974SOL    HW130821   2.497   0.093   4.330
 9974SOL    HW230822   2.524   0.253   4.339
 9975SOL     OW30823   6.963   4.470   0.887
 9975SOL    HW130824   6.918   4.471   0.798
 9975SOL    HW230825   6.894   4.481   0.959
 9976SOL     OW30826   2.813   6.517   5.023
 9976SOL    HW130827   2.723   6.516   5.067
 9976SOL    HW230828   2.857   6.428   5.036
 9977SOL     OW30829   6.405   4.208   3.483
 9977SOL    HW130830   6.374   4.136   3.421
 9977SOL    HW230831   6.455   4.278   3.430
 9978SOL     OW30832   6.954   2.125   4.788
 9978SOL    HW130833   6.930   2.210   4.834
 9978SOL    HW230834   6.945   2.137   4.689
 9979SOL     OW30835   0.898   4.152   4.942
 9979SOL    HW130836   0.935   4.224   4.884
 9979SOL    HW230837   0.972   4.113   4.997
 9980SOL     OW30838   2.612   6.380   5.822
 9980SOL    HW130839   2.569   6.435   5.894
 9980SOL    HW230840   2.698   6.422   5.795
 9981SOL     OW30841   4.120   2.018   3.995
 9981SOL    HW130842   4.068   2.100   4.017
 9981SOL    HW230843   4.058   1.943   3.972
 9982SOL     OW30844   6.699   6.467   3.026
 9982SOL    HW130845   6.680   6.544   3.087
 9982SOL    HW230846   6.674   6.491   2.933
 9983SOL     OW30847   6.188   0.933   0.871
 9983SOL    HW130848   6.225   1.019   0.835
 9983SOL    HW230849   6.088   0.936   0.867
 9984SOL     OW30850   3.006   1.203   6.478
 9984SOL    HW130851   2.909   1.228   6.483
 9984SOL    HW230852   3.026   1.132   6.546
 9985SOL     OW30853   2.252   1.529   1.624
 9985SOL    HW130854   2.328   1.534   1.560
 9985SOL    HW230855   2.242   1.617   1.671
 9986SOL     OW30856   4.905   4.271   4.691
 9986SOL    HW130857   4.875   4.283   4.786
 9986SOL    HW230858   4.874   4.182   4.658
 9987SOL     OW30859   0.336   4.363   5.543
 9987SOL    HW130860   0.399   4.433   5.510
 9987SOL    HW230861   0.249   4.371   5.494
 9988SOL     OW30862   6.730   0.443   4.451
 9988SOL    HW130863   6.763   0.519   4.395
 9988SOL    HW230864   6.727   0.359   4.396
 9989SOL     OW30865   1.409   3.068   4.742
 9989SOL    HW130866   1.332   3.022   4.698
 9989SOL    HW230867   1.415   3.162   4.707
 9990SOL     OW30868   1.474   5.158   1.590
 9990SOL    HW130869   1.502   5.242   1.544
 9990SOL    HW230870   1.422   5.180   1.672
 9991SOL     OW30871   4.065   2.037   3.421
 9991SOL    HW130872   4.038   2.076   3.333
 9991SOL    HW230873   4.164   2.047   3.433
 9992SOL     OW30874   6.412   5.476   6.245
 9992SOL    HW130875   6.351   5.463   6.167
 9992SOL    HW230876   6.429   5.388   6.289
 9993SOL     OW30877   1.235   0.443   1.915
 9993SOL    HW130878   1.289   0.394   1.847
 9993SOL    HW230879   1.297   0.487   1.981
 9994SOL     OW30880   6.456   5.038   3.125
 9994SOL    HW130881   6.380   5.029   3.189
 9994SOL    HW230882   6.527   5.095   3.166
 9995SOL     OW30883   5.028   1.115   4.926
 9995SOL    HW130884   5.123   1.082   4.921
 9995SOL    HW230885   4.990   1.119   4.833
 9996SOL     OW30886   2.540   2.952   0.093
 9996SOL    HW130887   2.621   2.994   0.052
 9996SOL    HW230888   2.459   3.004   0.067
 9997SOL     OW30889   2.024   0.518   4.158
 9997SOL    HW130890   2.068   0.537   4.246
 9997SOL    HW230891   2.088   0.470   4.098
 9998SOL     OW30892   5.947   6.078   5.035
 9998SOL    HW130893   5.954   6.006   5.104
 9998SOL    HW230894   5.852   6.110   5.029
 9999SOL     OW30895   0.076   0.737   4.989
 9999SOL    HW130896   0.111   0.790   5.066
 9999SOL    HW230897   0.126   0.651   4.982
10000SOL     OW30898   6.955   4.609   0.461
10000SOL    HW130899   6.927   4.562   0.377
10000SOL    HW230900   6.966   4.707   0.442
10001SOL     OW30901   3.895   0.199   3.445
10001SOL    HW130902   3.900   0.138   3.365
10001SOL    HW230903   3.987   0.218   3.478
10002SOL     OW30904   1.518   2.002   1.763
10002SOL    HW130905   1.466   2.014   1.679
10002SOL    HW230906   1.605   1.956   1.742
10003SOL     OW30907   5.142   3.463   2.765
10003SOL    HW130908   5.106   3.394   2.828
10003SOL    HW230909   5.074   3.537   2.754
10004SOL     OW30910   6.803   3.207   3.850
10004SOL    HW130911   6.773   3.245   3.937
10004SOL    HW230912   6.901   3.224   3.838
10005SOL     OW30913   4.717   0.004   3.937
10005SOL    HW130914   4.739   6.937   3.968
10005SOL    HW230915   4.672   0.055   4.011
10006SOL     OW30916   4.588   1.729   4.165
10006SOL    HW130917   4.562   1.635   4.186
10006SOL    HW230918   4.685   1.731   4.140
10007SOL     OW30919   5.720   4.303   4.096
10007SOL    HW130920   5.728   4.229   4.162
10007SOL    HW230921   5.628   4.304   4.056
10008SOL     OW30922   3.300   0.002   3.722
10008SOL    HW130923   3.267   7.001   3.632
10008SOL    HW230924   3.361   0.081   3.712
10009SOL     OW30925   2.423   4.377   1.220
10009SOL    HW130926   2.337   4.425   1.236
10009SOL    HW230927   2.458   4.343   1.307
10010SOL     OW30928   5.927   0.884   6.454
10010SOL    HW130929   5.903   0.799   6.407
10010SOL    HW230930   5.938   0.865   6.552
10011SOL     OW30931   6.863   6.306   3.597
10011SOL    HW130932   6.845   6.402   3.578
10011SOL    HW230933   6.942   6.275   3.545
10012SOL     OW30934   5.418   0.363   4.330
10012SOL    HW130935   5.421   0.298   4.254
10012SOL    HW230936   5.476   0.442   4.309
10013SOL     OW30937   1.582   0.485   1.838
10013SOL    HW130938   1.543   0.395   1.815
10013SOL    HW230939   1.632   0.520   1.759
10014SOL     OW30940   1.409   4.780   5.894
10014SOL    HW130941   1.470   4.728   5.834
10014SOL    HW230942   1.368   4.718   5.961
10015SOL     OW30943   2.396   5.733   6.290
10015SOL    HW130944   2.328   5.772   6.353
10015SOL    HW230945   2.349   5.692   6.212
10016SOL     OW30946   2.148   1.196   5.030
10016SOL    HW130947   2.205   1.274   5.004
10016SOL    HW230948   2.052   1.224   5.030
10017SOL     OW30949   0.252   1.764   3.435
10017SOL    HW130950   0.285   1.848   3.391
10017SOL    HW230951   0.277   1.685   3.379
10018SOL     OW30952   5.071   6.626   5.828
10018SOL    HW130953   5.008   6.549   5.836
10018SOL    HW230954   5.057   6.671   5.739
10019SOL     OW30955   1.104   0.858   2.814
10019SOL    HW130956   1.127   0.945   2.771
10019SOL    HW230957   1.020   0.867   2.867
10020SOL     OW30958   0.235   2.913   0.274
10020SOL    HW130959   0.323   2.868   0.291
10020SOL    HW230960   0.243   2.970   0.192
10021SOL     OW30961   4.862   2.848   1.223
10021SOL    HW130962   4.823   2.905   1.295
10021SOL    HW230963   4.861   2.897   1.136
10022SOL     OW30964   1.818   0.790   6.130
10022SOL    HW130965   1.805   0.876   6.080
10022SOL    HW230966   1.885   0.733   6.081
10023SOL     OW30967   0.789   3.617   1.005
10023SOL    HW130968   0.816   3.706   0.967
10023SOL    HW230969   0.691   3.618   1.026
10024SOL     OW30970   1.333   3.889   2.955
10024SOL    HW130971   1.254   3.950   2.945
10024SOL    HW230972   1.392   3.898   2.875
10025SOL     OW30973   0.525   1.179   0.970
10025SOL    HW130974   0.479   1.157   0.884
10025SOL    HW230975   0.584   1.258   0.957
10026SOL     OW30976   6.656   0.638   4.644
10026SOL    HW130977   6.558   0.640   4.664
10026SOL    HW230978   6.677   0.554   4.594
10027SOL     OW30979   5.976   2.917   5.599
10027SOL    HW130980   6.051   2.963   5.551
10027SOL    HW230981   5.898   2.909   5.538
10028SOL     OW30982   1.682   1.332   1.981
10028SOL    HW130983   1.608   1.390   2.015
10028SOL    HW230984   1.762   1.389   1.962
10029SOL     OW30985   3.570   1.389   3.912
10029SOL    HW130986   3.550   1.409   4.008
10029SOL    HW230987   3.587   1.291   3.901
10030SOL     OW30988   1.336   1.170   2.645
10030SOL    HW130989   1.383   1.112   2.579
10030SOL    HW230990   1.340   1.265   2.615
10031SOL     OW30991   6.376   4.717   3.991
10031SOL    HW130992   6.362   4.748   3.897
10031SOL    HW230993   6.419   4.626   3.990
10032SOL     OW30994   3.942   1.735   5.201
10032SOL    HW130995   3.953   1.733   5.102
10032SOL    HW230996   3.847   1.716   5.225
10033SOL     OW30997   5.329   3.327   3.818
10033SOL    HW130998   5.353   3.335   3.721
10033SOL    HW230999   5.411   3.307   3.871
10034SOL     OW31000   4.270   6.628   5.869
10034SOL    HW131001   4.322   6.600   5.788
10034SOL    HW231002   4.210   6.553   5.898
10035SOL     OW31003   0.995   6.696   3.722
10035SOL    HW131004   1.016   6.747   3.806
10035SOL    HW231005   0.970   6.602   3.745
10036SOL     OW31006   6.072   0.617   0.122
10036SOL    HW131007   6.155   0.571   0.093
10036SOL    HW231008   6.053   0.595   0.218
10037SOL     OW31009   0.106   6.923   1.425
10037SOL    HW131010   0.049   6.917   1.507
10037SOL    HW231011   0.162   6.841   1.417
10038SOL     OW31012   6.114   6.957   1.280
10038SOL    HW131013   6.145   6.939   1.187
10038SOL    HW231014   6.182   7.012   1.328
10039SOL     OW31015   4.256   0.674   2.683
10039SOL    HW131016   4.326   0.637   2.622
10039SOL    HW231017   4.297   0.743   2.744
10040SOL     OW31018   0.767   2.378   0.695
10040SOL    HW131019   0.845   2.434   0.667
10040SOL    HW231020   0.770   2.363   0.794
10041SOL     OW31021   1.255   6.918   0.350
10041SOL    HW131022   1.251   6.892   0.446
10041SOL    HW231023   1.334   6.977   0.334
10042SOL     OW31024   6.047   1.803   3.592
10042SOL    HW131025   5.962   1.825   3.640
10042SOL    HW231026   6.027   1.751   3.509
10043SOL     OW31027   1.808   2.449   5.586
10043SOL    HW131028   1.831   2.545   5.604
10043SOL    HW231029   1.709   2.441   5.573
10044SOL     OW31030   4.667   0.706   6.862
10044SOL    HW131031   4.661   0.803   6.882
10044SOL    HW231032   4.763   0.677   6.868
10045SOL     OW31033   2.181   1.118   1.261
10045SOL    HW131034   2.252   1.186   1.279
10045SOL    HW231035   2.181   1.095   1.164
10046SOL     OW31036   0.598   5.768   0.678
10046SOL    HW131037   0.634   5.773   0.771
10046SOL    HW231038   0.657   5.709   0.623
10047SOL     OW31039   1.463   3.371   0.813
10047SOL    HW131040   1.448   3.292   0.873
10047SOL    HW231041   1.546   3.419   0.840
10048SOL     OW31042   5.899   3.858   1.893
10048SOL    HW131043   5.820   3.916   1.874
10048SOL    HW231044   5.869   3.769   1.925
10049SOL     OW31045   6.431   1.600   5.057
10049SOL    HW131046   6.441   1.694   5.089
10049SOL    HW231047   6.335   1.572   5.061
10050SOL     OW31048   6.706   2.453   6.388
10050SOL    HW131049   6.754   2.518   6.448
10050SOL    HW231050   6.751   2.364   6.392
10051SOL     OW31051   1.922   1.202   3.650
10051SOL    HW131052   1.874   1.192   3.737
10051SOL    HW231053   1.863   1.249   3.584
10052SOL     OW31054   1.020   0.638   3.865
10052SOL    HW131055   1.052   0.557   3.914
10052SOL    HW231056   0.957   0.689   3.923
10053SOL     OW31057   6.211   5.557   2.897
10053SOL    HW131058   6.241   5.471   2.938
10053SOL    HW231059   6.263   5.574   2.814
10054SOL     OW31060   6.086   3.826   3.821
10054SOL    HW131061   6.034   3.756   3.772
10054SOL    HW231062   6.118   3.895   3.756
10055SOL     OW31063   1.849   1.787   6.841
10055SOL    HW131064   1.800   1.864   6.882
10055SOL    HW231065   1.869   1.806   6.745
10056SOL     OW31066   5.214   1.964   4.117
10056SOL    HW131067   5.150   2.041   4.117
10056SOL    HW231068   5.306   1.997   4.097
10057SOL     OW31069   6.062   4.282   5.287
10057SOL    HW131070   6.095   4.244   5.373
10057SOL    HW231071   5.963   4.294   5.292
10058SOL     OW31072   6.627   4.014   3.724
10058SOL    HW131073   6.555   3.968   3.672
10058SOL    HW231074   6.707   3.954   3.730
10059SOL     OW31075   4.934   5.831   6.227
10059SOL    HW131076   4.999   5.755   6.217
10059SOL    HW231077   4.947   5.873   6.317
10060SOL     OW31078   2.710   1.856   2.065
10060SOL    HW131079   2.691   1.882   2.160
10060SOL    HW231080   2.720   1.757   2.059
10061SOL     OW31081   3.737   6.791   3.233
10061SOL    HW131082   3.780   6.755   3.150
10061SOL    HW231083   3.683   6.872   3.211
10062SOL     OW31084   6.616   6.816   4.458
10062SOL    HW131085   6.570   6.829   4.546
10062SOL    HW231086   6.558   6.762   4.397
10063SOL     OW31087   3.635   2.111   4.437
10063SOL    HW131088   3.685   2.121   4.351
10063SOL    HW231089   3.696   2.131   4.514
10064SOL     OW31090   3.248   6.546   2.049
10064SOL    HW131091   3.341   6.508   2.043
10064SOL    HW231092   3.243   6.608   2.128
10065SOL     OW31093   0.013   1.850   1.870
10065SOL    HW131094   0.025   1.782   1.797
10065SOL    HW231095   7.015   1.938   1.830
10066SOL     OW31096   6.438   3.809   3.648
10066SOL    HW131097   6.496   3.750   3.591
10066SOL    HW231098   6.342   3.793   3.625
10067SOL     OW31099   5.553   3.439   5.324
10067SOL    HW131100   5.481   3.397   5.379
10067SOL    HW231101   5.628   3.375   5.314
10068SOL     OW31102   2.099   3.308   2.556
10068SOL    HW131103   2.095   3.389   2.498
10068SOL    HW231104   2.021   3.249   2.536
10069SOL     OW31105   2.982   5.018   1.876
10069SOL    HW131106   2.992   4.956   1.954
10069SOL    HW231107   3.063   5.011   1.818
10070SOL     OW31108   4.748   6.898   0.314
10070SOL    HW131109   4.688   6.933   0.386
10070SOL    HW231110   4.839   6.882   0.352
10071SOL     OW31111   5.368   0.680   5.257
10071SOL    HW131112   5.294   0.657   5.320
10071SOL    HW231113   5.394   0.775   5.269
10072SOL     OW31114   5.764   3.073   2.519
10072SOL    HW131115   5.673   3.082   2.560
10072SOL    HW231116   5.755   3.049   2.422
10073SOL     OW31117   5.789   6.449   5.227
10073SOL    HW131118   5.807   6.396   5.310
10073SOL    HW231119   5.753   6.388   5.157
10074SOL     OW31120   1.746   4.610   1.144
10074SOL    HW131121   1.792   4.692   1.177
10074SOL    HW231122   1.675   4.583   1.210
10075SOL     OW31123   1.164   3.182   2.370
10075SOL    HW131124   1.153   3.281   2.373
10075SOL    HW231125   1.252   3.159   2.328
10076SOL     OW31126   5.617   4.491   3.381
10076SOL    HW131127   5.643   4.440   3.463
10076SOL    HW231128   5.667   4.456   3.302
10077SOL     OW31129   4.172   3.599   6.357
10077SOL    HW131130   4.128   3.511   6.344
10077SOL    HW231131   4.166   3.626   6.453
10078SOL     OW31132   5.582   5.339   4.266
10078SOL    HW131133   5.588   5.431   4.228
10078SOL    HW231134   5.673   5.299   4.270
10079SOL     OW31135   5.702   5.054   2.938
10079SOL    HW131136   5.789   5.101   2.952
10079SOL    HW231137   5.671   5.015   3.025
10080SOL     OW31138   5.508   2.560   5.336
10080SOL    HW131139   5.543   2.621   5.265
10080SOL    HW231140   5.476   2.614   5.414
10081SOL     OW31141   1.723   5.300   0.727
10081SOL    HW131142   1.756   5.216   0.683
10081SOL    HW231143   1.800   5.348   0.769
10082SOL     OW31144   1.063   4.931   1.423
10082SOL    HW131145   1.136   4.913   1.356
10082SOL    HW231146   1.079   5.020   1.466
10083SOL     OW31147   2.933   6.359   2.495
10083SOL    HW131148   2.917   6.323   2.404
10083SOL    HW231149   2.852   6.342   2.552
10084SOL     OW31150   1.817   2.991   5.296
10084SOL    HW131151   1.763   2.997   5.212
10084SOL    HW231152   1.905   3.036   5.283
10085SOL     OW31153   3.535   0.008   1.491
10085SOL    HW131154   3.534   0.033   1.588
10085SOL    HW231155   3.619   0.040   1.449
10086SOL     OW31156   3.167   0.569   2.938
10086SOL    HW131157   3.160   0.642   2.870
10086SOL    HW231158   3.261   0.535   2.940
10087SOL     OW31159   1.862   4.946   6.096
10087SOL    HW131160   1.821   5.016   6.038
10087SOL    HW231161   1.961   4.946   6.083
10088SOL     OW31162   6.134   1.761   0.947
10088SOL    HW131163   6.113   1.663   0.941
10088SOL    HW231164   6.212   1.774   1.008
10089SOL     OW31165   3.898   6.617   2.047
10089SOL    HW131166   3.824   6.618   1.979
10089SOL    HW231167   3.870   6.669   2.127
10090SOL     OW31168   2.824   5.460   1.867
10090SOL    HW131169   2.882   5.419   1.938
10090SOL    HW231170   2.733   5.478   1.905
10091SOL     OW31171   5.669   5.407   2.657
10091SOL    HW131172   5.648   5.482   2.594
10091SOL    HW231173   5.586   5.379   2.705
10092SOL     OW31174   0.159   1.225   2.659
10092SOL    HW131175   0.149   1.254   2.564
10092SOL    HW231176   0.098   1.278   2.717
10093SOL     OW31177   4.489   4.232   6.124
10093SOL    HW131178   4.405   4.277   6.096
10093SOL    HW231179   4.468   4.141   6.159
10094SOL     OW31180   3.640   2.503   0.806
10094SOL    HW131181   3.641   2.490   0.906
10094SOL    HW231182   3.663   2.597   0.785
10095SOL     OW31183   4.334   2.751   5.277
10095SOL    HW131184   4.244   2.709   5.262
10095SOL    HW231185   4.339   2.837   5.225
10096SOL     OW31186   6.711   4.964   1.998
10096SOL    HW131187   6.678   4.911   2.076
10096SOL    HW231188   6.639   5.025   1.965
10097SOL     OW31189   1.211   1.170   1.225
10097SOL    HW131190   1.137   1.104   1.212
10097SOL    HW231191   1.254   1.155   1.314
10098SOL     OW31192   4.093   5.287   0.106
10098SOL    HW131193   4.032   5.274   0.184
10098SOL    HW231194   4.156   5.363   0.125
10099SOL     OW31195   6.992   6.255   3.333
10099SOL    HW131196   6.993   6.282   3.237
10099SOL    HW231197   0.058   6.228   3.362
10100SOL     OW31198   5.109   5.114   3.908
10100SOL    HW131199   5.025   5.061   3.892
10100SOL    HW231200   5.088   5.191   3.967
10101SOL     OW31201   0.028   2.402   6.929
10101SOL    HW131202   7.021   2.359   6.844
10101SOL    HW231203   0.000   2.347   7.007
10102SOL     OW31204   6.947   4.833   3.000
10102SOL    HW131205   6.995   4.773   3.064
10102SOL    HW231206   7.011   4.897   2.959
10103SOL     OW31207   6.869   0.248   0.075
10103SOL    HW131208   6.968   0.248   0.060
10103SOL    HW231209   6.850   0.276   0.168
10104SOL     OW31210   2.310   1.362   4.853
10104SOL    HW131211   2.275   1.403   4.769
10104SOL    HW231212   2.406   1.336   4.841
10105SOL     OW31213   3.007   1.452   4.322
10105SOL    HW131214   3.089   1.483   4.368
10105SOL    HW231215   3.031   1.379   4.257
10106SOL     OW31216   5.892   3.844   1.328
10106SOL    HW131217   5.817   3.779   1.340
10106SOL    HW231218   5.978   3.793   1.321
10107SOL     OW31219   5.225   5.854   5.937
10107SOL    HW131220   5.233   5.954   5.932
10107SOL    HW231221   5.220   5.826   6.033
10108SOL     OW31222   2.491   2.064   5.126
10108SOL    HW131223   2.441   2.142   5.090
10108SOL    HW231224   2.512   2.078   5.222
10109SOL     OW31225   1.009   3.078   1.328
10109SOL    HW131226   1.069   3.092   1.250
10109SOL    HW231227   0.978   2.983   1.330
10110SOL     OW31228   6.018   6.559   2.182
10110SOL    HW131229   6.100   6.548   2.239
10110SOL    HW231230   5.969   6.472   2.176
10111SOL     OW31231   0.141   2.895   1.673
10111SOL    HW131232   0.046   2.925   1.672
10111SOL    HW231233   0.180   2.903   1.581
10112SOL     OW31234   7.010   2.990   4.083
10112SOL    HW131235   0.041   2.907   4.087
10112SOL    HW231236   0.007   3.041   4.000
10113SOL     OW31237   6.929   6.430   6.590
10113SOL    HW131238   6.989   6.457   6.515
10113SOL    HW231239   6.945   6.335   6.614
10114SOL     OW31240   5.251   4.082   1.464
10114SOL    HW131241   5.196   4.137   1.527
10114SOL    HW231242   5.268   4.135   1.381
10115SOL     OW31243   3.921   1.745   6.600
10115SOL    HW131244   3.912   1.657   6.645
10115SOL    HW231245   3.830   1.779   6.574
10116SOL     OW31246   0.291   0.123   6.550
10116SOL    HW131247   0.370   0.070   6.583
10116SOL    HW231248   0.213   0.108   6.611
10117SOL     OW31249   0.358   4.366   1.513
10117SOL    HW131250   0.335   4.366   1.415
10117SOL    HW231251   0.450   4.402   1.525
10118SOL     OW31252   4.062   5.252   3.551
10118SOL    HW131253   4.076   5.172   3.492
10118SOL    HW231254   4.073   5.336   3.496
10119SOL     OW31255   5.856   6.023   6.788
10119SOL    HW131256   5.870   6.114   6.827
10119SOL    HW231257   5.788   5.973   6.843
10120SOL     OW31258   2.398   2.505   3.124
10120SOL    HW131259   2.438   2.506   3.216
10120SOL    HW231260   2.458   2.455   3.062
10121SOL     OW31261   6.531   5.712   1.487
10121SOL    HW131262   6.567   5.779   1.423
10121SOL    HW231263   6.431   5.707   1.477
10122SOL     OW31264   1.681   0.291   3.205
10122SOL    HW131265   1.651   0.196   3.198
10122SOL    HW231266   1.619   0.341   3.265
10123SOL     OW31267   6.185   6.459   6.696
10123SOL    HW131268   6.221   6.394   6.630
10123SOL    HW231269   6.131   6.529   6.649
10124SOL     OW31270   1.104   4.406   3.173
10124SOL    HW131271   1.144   4.470   3.108
10124SOL    HW231272   1.145   4.420   3.264
10125SOL     OW31273   1.793   1.887   4.749
10125SOL    HW131274   1.811   1.985   4.745
10125SOL    HW231275   1.879   1.837   4.738
10126SOL     OW31276   6.745   6.078   4.490
10126SOL    HW131277   6.680   6.138   4.444
10126SOL    HW231278   6.838   6.101   4.461
10127SOL     OW31279   2.177   0.761   5.090
10127SOL    HW131280   2.174   0.691   5.019
10127SOL    HW231281   2.203   0.849   5.048
10128SOL     OW31282   3.189   1.086   0.387
10128SOL    HW131283   3.194   1.183   0.410
10128SOL    HW231284   3.099   1.050   0.411
10129SOL     OW31285   6.507   2.001   5.525
10129SOL    HW131286   6.446   1.932   5.487
10129SOL    HW231287   6.593   2.001   5.474
10130SOL     OW31288   1.447   2.504   3.165
10130SOL    HW131289   1.511   2.562   3.114
10130SOL    HW231290   1.456   2.521   3.263
10131SOL     OW31291   2.106   0.856   5.340
10131SOL    HW131292   2.119   0.827   5.245
10131SOL    HW231293   2.018   0.822   5.373
10132SOL     OW31294   6.004   0.592   2.119
10132SOL    HW131295   6.065   0.574   2.042
10132SOL    HW231296   5.993   0.691   2.130
10133SOL     OW31297   4.703   5.221   1.036
10133SOL    HW131298   4.662   5.267   1.115
10133SOL    HW231299   4.638   5.154   1.000
10134SOL     OW31300   6.314   0.490   3.104
10134SOL    HW131301   6.356   0.545   3.032
10134SOL    HW231302   6.341   0.527   3.193
10135SOL     OW31303   5.951   6.730   3.398
10135SOL    HW131304   5.855   6.747   3.377
10135SOL    HW231305   5.969   6.758   3.493
10136SOL     OW31306   4.700   0.810   2.751
10136SOL    HW131307   4.726   0.817   2.655
10136SOL    HW231308   4.779   0.778   2.804
10137SOL     OW31309   6.479   5.624   3.143
10137SOL    HW131310   6.409   5.574   3.193
10137SOL    HW231311   6.508   5.703   3.198
10138SOL     OW31312   0.337   1.806   2.290
10138SOL    HW131313   0.348   1.709   2.267
10138SOL    HW231314   0.250   1.819   2.339
10139SOL     OW31315   4.002   2.589   1.129
10139SOL    HW131316   3.912   2.552   1.153
10139SOL    HW231317   4.062   2.584   1.209
10140SOL     OW31318   5.968   6.673   4.278
10140SOL    HW131319   6.018   6.760   4.273
10140SOL    HW231320   5.883   6.681   4.227
10141SOL     OW31321   0.831   2.036   4.444
10141SOL    HW131322   0.827   2.105   4.516
10141SOL    HW231323   0.756   1.970   4.456
10142SOL     OW31324   4.439   6.213   1.492
10142SOL    HW131325   4.528   6.215   1.538
10142SOL    HW231326   4.369   6.248   1.554
10143SOL     OW31327   6.542   3.345   6.896
10143SOL    HW131328   6.493   3.313   6.977
10143SOL    HW231329   6.477   3.365   6.823
10144SOL     OW31330   3.951   0.892   1.331
10144SOL    HW131331   3.991   0.930   1.248
10144SOL    HW231332   3.963   0.793   1.332
10145SOL     OW31333   6.381   0.442   5.126
10145SOL    HW131334   6.433   0.526   5.140
10145SOL    HW231335   6.392   0.382   5.205
10146SOL     OW31336   1.700   1.265   5.557
10146SOL    HW131337   1.608   1.227   5.543
10146SOL    HW231338   1.694   1.343   5.619
10147SOL     OW31339   3.257   4.765   0.604
10147SOL    HW131340   3.166   4.785   0.568
10147SOL    HW231341   3.319   4.839   0.580
10148SOL     OW31342   0.220   5.550   6.485
10148SOL    HW131343   0.159   5.552   6.564
10148SOL    HW231344   0.185   5.486   6.417
10149SOL     OW31345   3.140   3.446   3.702
10149SOL    HW131346   3.187   3.361   3.725
10149SOL    HW231347   3.186   3.524   3.745
10150SOL     OW31348   5.716   4.576   0.232
10150SOL    HW131349   5.695   4.651   0.168
10150SOL    HW231350   5.814   4.577   0.252
10151SOL     OW31351   0.333   0.953   0.336
10151SOL    HW131352   0.277   0.870   0.325
10151SOL    HW231353   0.320   0.989   0.429
10152SOL     OW31354   3.194   6.391   3.687
10152SOL    HW131355   3.223   6.313   3.631
10152SOL    HW231356   3.102   6.418   3.659
10153SOL     OW31357   4.867   3.994   1.314
10153SOL    HW131358   4.831   4.057   1.245
10153SOL    HW231359   4.823   3.904   1.302
10154SOL     OW31360   4.586   5.399   5.653
10154SOL    HW131361   4.525   5.470   5.688
10154SOL    HW231362   4.636   5.434   5.574
10155SOL     OW31363   4.990   2.617   4.722
10155SOL    HW131364   4.907   2.623   4.777
10155SOL    HW231365   4.975   2.556   4.645
10156SOL     OW31366   3.287   1.675   6.837
10156SOL    HW131367   3.375   1.633   6.856
10156SOL    HW231368   3.270   1.750   6.901
10157SOL     OW31369   0.600   5.058   1.781
10157SOL    HW131370   0.575   5.054   1.684
10157SOL    HW231371   0.615   5.153   1.808
10158SOL     OW31372   6.452   4.932   6.695
10158SOL    HW131373   6.435   4.931   6.597
10158SOL    HW231374   6.398   4.860   6.739
10159SOL     OW31375   3.758   3.142   1.648
10159SOL    HW131376   3.746   3.238   1.623
10159SOL    HW231377   3.730   3.084   1.572
10160SOL     OW31378   0.160   4.203   2.524
10160SOL    HW131379   0.240   4.261   2.530
10160SOL    HW231380   0.188   4.107   2.530
10161SOL     OW31381   6.349   3.062   0.318
10161SOL    HW131382   6.375   3.148   0.273
10161SOL    HW231383   6.292   3.082   0.398
10162SOL     OW31384   2.259   2.340   1.956
10162SOL    HW131385   2.160   2.351   1.954
10162SOL    HW231386   2.302   2.426   1.983
10163SOL     OW31387   3.606   5.236   4.937
10163SOL    HW131388   3.702   5.239   4.964
10163SOL    HW231389   3.598   5.255   4.839
10164SOL     OW31390   0.256   0.833   3.864
10164SOL    HW131391   0.270   0.841   3.963
10164SOL    HW231392   0.283   0.742   3.834
10165SOL     OW31393   2.165   3.379   4.001
10165SOL    HW131394   2.182   3.471   3.965
10165SOL    HW231395   2.144   3.318   3.925
10166SOL     OW31396   2.872   6.329   3.051
10166SOL    HW131397   2.967   6.313   3.025
10166SOL    HW231398   2.851   6.279   3.134
10167SOL     OW31399   4.127   1.610   6.743
10167SOL    HW131400   4.088   1.699   6.716
10167SOL    HW231401   4.091   1.539   6.683
10168SOL     OW31402   0.739   0.987   6.659
10168SOL    HW131403   0.780   0.988   6.750
10168SOL    HW231404   0.810   0.979   6.590
10169SOL     OW31405   4.392   4.853   2.865
10169SOL    HW131406   4.385   4.760   2.899
10169SOL    HW231407   4.449   4.907   2.928
10170SOL     OW31408   4.808   6.155   6.615
10170SOL    HW131409   4.900   6.192   6.619
10170SOL    HW231410   4.742   6.228   6.637
10171SOL     OW31411   1.551   3.947   3.343
10171SOL    HW131412   1.541   3.851   3.369
10171SOL    HW231413   1.646   3.976   3.357
10172SOL     OW31414   0.628   1.259   3.317
10172SOL    HW131415   0.602   1.170   3.355
10172SOL    HW231416   0.659   1.246   3.222
10173SOL     OW31417   4.753   2.877   4.976
10173SOL    HW131418   4.717   2.895   5.067
10173SOL    HW231419   4.804   2.957   4.944
10174SOL     OW31420   4.927   4.565   1.121
10174SOL    HW131421   4.989   4.491   1.148
10174SOL    HW231422   4.866   4.587   1.197
10175SOL     OW31423   6.367   0.153   3.451
10175SOL    HW131424   6.430   0.151   3.373
10175SOL    HW231425   6.415   0.128   3.534
10176SOL     OW31426   6.803   1.295   4.906
10176SOL    HW131427   6.826   1.261   4.815
10176SOL    HW231428   6.720   1.351   4.901
10177SOL     OW31429   2.877   0.994   4.323
10177SOL    HW131430   2.880   1.035   4.231
10177SOL    HW231431   2.830   0.906   4.319
10178SOL     OW31432   0.079   1.761   2.425
10178SOL    HW131433   0.085   1.855   2.459
10178SOL    HW231434   7.008   1.734   2.420
10179SOL     OW31435   0.155   5.952   0.732
10179SOL    HW131436   0.208   5.931   0.814
10179SOL    HW231437   0.096   6.031   0.750
10180SOL     OW31438   2.249   0.156   6.209
10180SOL    HW131439   2.311   0.194   6.278
10180SOL    HW231440   2.194   0.083   6.250
10181SOL     OW31441   6.794   4.035   2.086
10181SOL    HW131442   6.852   4.019   2.166
10181SOL    HW231443   6.847   4.019   2.003
10182SOL     OW31444   3.602   6.754   6.633
10182SOL    HW131445   3.604   6.693   6.553
10182SOL    HW231446   3.520   6.736   6.686
10183SOL     OW31447   3.914   6.116   5.967
10183SOL    HW131448   3.923   6.016   5.968
10183SOL    HW231449   3.978   6.155   6.033
10184SOL     OW31450   5.096   2.295   4.117
10184SOL    HW131451   5.028   2.226   4.143
10184SOL    HW231452   5.151   2.318   4.197
10185SOL     OW31453   2.937   4.841   2.087
10185SOL    HW131454   2.897   4.757   2.052
10185SOL    HW231455   2.864   4.899   2.124
10186SOL     OW31456   3.403   2.962   1.681
10186SOL    HW131457   3.484   2.975   1.625
10186SOL    HW231458   3.410   2.875   1.730
10187SOL     OW31459   1.727   3.839   5.515
10187SOL    HW131460   1.658   3.788   5.567
10187SOL    HW231461   1.749   3.789   5.431
10188SOL     OW31462   2.223   0.488   6.476
10188SOL    HW131463   2.143   0.469   6.532
10188SOL    HW231464   2.195   0.538   6.394
10189SOL     OW31465   1.957   2.037   5.185
10189SOL    HW131466   1.940   1.944   5.154
10189SOL    HW231467   1.959   2.099   5.107
10190SOL     OW31468   3.390   3.862   0.677
10190SOL    HW131469   3.294   3.840   0.696
10190SOL    HW231470   3.410   3.842   0.581
10191SOL     OW31471   5.624   0.613   0.265
10191SOL    HW131472   5.644   0.695   0.212
10191SOL    HW231473   5.549   0.631   0.329
10192SOL     OW31474   2.654   0.363   4.406
10192SOL    HW131475   2.683   0.309   4.485
10192SOL    HW231476   2.633   0.456   4.434
10193SOL     OW31477   4.019   3.446   3.896
10193SOL    HW131478   4.064   3.387   3.829
10193SOL    HW231479   3.966   3.390   3.960
10194SOL     OW31480   2.980   5.741   3.389
10194SOL    HW131481   3.033   5.811   3.438
10194SOL    HW231482   3.033   5.708   3.311
10195SOL     OW31483   5.365   0.343   2.408
10195SOL    HW131484   5.451   0.308   2.371
10195SOL    HW231485   5.294   0.273   2.398
10196SOL     OW31486   4.498   4.645   3.842
10196SOL    HW131487   4.560   4.574   3.876
10196SOL    HW231488   4.493   4.720   3.908
10197SOL     OW31489   5.138   1.734   2.834
10197SOL    HW131490   5.067   1.727   2.905
10197SOL    HW231491   5.211   1.795   2.866
10198SOL     OW31492   3.405   1.767   2.083
10198SOL    HW131493   3.423   1.725   1.994
10198SOL    HW231494   3.311   1.800   2.087
10199SOL     OW31495   1.345   1.843   0.001
10199SOL    HW131496   1.273   1.841   0.071
10199SOL    HW231497   1.375   1.937   7.012
10200SOL     OW31498   5.792   6.968   3.753
10200SOL    HW131499   5.718   7.023   3.716
10200SOL    HW231500   5.834   6.915   3.679
10201SOL     OW31501   1.175   5.027   2.962
10201SOL    HW131502   1.093   4.991   2.916
10201SOL    HW231503   1.151   5.110   3.013
10202SOL     OW31504   1.360   2.228   3.470
10202SOL    HW131505   1.307   2.307   3.504
10202SOL    HW231506   1.457   2.242   3.489
10203SOL     OW31507   6.835   2.459   0.829
10203SOL    HW131508   6.773   2.476   0.752
10203SOL    HW231509   6.883   2.372   0.814
10204SOL     OW31510   1.973   6.214   4.220
10204SOL    HW131511   2.056   6.206   4.275
10204SOL    HW231512   1.991   6.272   4.141
10205SOL     OW31513   3.201   6.838   0.879
10205SOL    HW131514   3.119   6.893   0.865
10205SOL    HW231515   3.243   6.862   0.966
10206SOL     OW31516   5.930   6.266   6.933
10206SOL    HW131517   5.930   6.347   6.874
10206SOL    HW231518   5.976   6.288   7.019
10207SOL     OW31519   3.445   1.217   2.682
10207SOL    HW131520   3.400   1.251   2.600
10207SOL    HW231521   3.384   1.229   2.761
10208SOL     OW31522   0.068   2.751   6.360
10208SOL    HW131523   0.062   2.716   6.453
10208SOL    HW231524   7.002   2.768   6.324
10209SOL     OW31525   3.965   5.988   6.997
10209SOL    HW131526   3.899   6.059   7.022
10209SOL    HW231527   4.042   6.031   6.950
10210SOL     OW31528   4.633   6.374   6.619
10210SOL    HW131529   4.641   6.442   6.546
10210SOL    HW231530   4.612   6.421   6.705
10211SOL     OW31531   3.461   5.223   5.178
10211SOL    HW131532   3.529   5.264   5.239
10211SOL    HW231533   3.500   5.215   5.086
10212SOL     OW31534   6.340   6.140   5.725
10212SOL    HW131535   6.401   6.148   5.805
10212SOL    HW231536   6.389   6.171   5.644
10213SOL     OW31537   4.083   0.063   4.409
10213SOL    HW131538   4.171   0.027   4.380
10213SOL    HW231539   4.010   0.016   4.359
10214SOL     OW31540   0.095   0.726   0.305
10214SOL    HW131541   0.045   0.663   0.245
10214SOL    HW231542   0.049   0.815   0.305
10215SOL     OW31543   4.450   2.446   0.501
10215SOL    HW131544   4.367   2.458   0.447
10215SOL    HW231545   4.425   2.418   0.594
10216SOL     OW31546   5.085   0.644   2.566
10216SOL    HW131547   5.117   0.558   2.605
10216SOL    HW231548   5.140   0.668   2.486
10217SOL     OW31549   3.214   2.078   5.851
10217SOL    HW131550   3.183   2.137   5.776
10217SOL    HW231551   3.143   2.012   5.873
10218SOL     OW31552   4.039   0.675   6.517
10218SOL    HW131553   4.128   0.720   6.522
10218SOL    HW231554   3.971   0.733   6.563
10219SOL     OW31555   0.342   4.741   6.918
10219SOL    HW131556   0.259   4.731   6.973
10219SOL    HW231557   0.412   4.789   6.970
10220SOL     OW31558   4.031   2.408   6.766
10220SOL    HW131559   4.045   2.446   6.858
10220SOL    HW231560   3.979   2.474   6.711
10221SOL     OW31561   2.460   0.655   4.281
10221SOL    HW131562   2.472   0.649   4.182
10221SOL    HW231563   2.426   0.568   4.315
10222SOL     OW31564   2.443   4.547   5.227
10222SOL    HW131565   2.429   4.448   5.225
10222SOL    HW231566   2.354   4.593   5.229
10223SOL     OW31567   1.080   4.890   6.062
10223SOL    HW131568   1.151   4.956   6.086
10223SOL    HW231569   0.998   4.939   6.031
10224SOL     OW31570   3.294   5.813   5.665
10224SOL    HW131571   3.370   5.875   5.685
10224SOL    HW231572   3.266   5.824   5.570
10225SOL     OW31573   5.249   0.009   4.552
10225SOL    HW131574   5.307   6.973   4.605
10225SOL    HW231575   5.187   0.058   4.614
10226SOL     OW31576   0.026   2.512   6.227
10226SOL    HW131577   0.052   2.447   6.299
10226SOL    HW231578   0.029   2.605   6.263
10227SOL     OW31579   4.824   4.581   5.175
10227SOL    HW131580   4.881   4.603   5.095
10227SOL    HW231581   4.877   4.523   5.237
10228SOL     OW31582   0.829   2.693   1.824
10228SOL    HW131583   0.789   2.716   1.913
10228SOL    HW231584   0.901   2.759   1.803
10229SOL     OW31585   2.781   1.142   1.943
10229SOL    HW131586   2.877   1.165   1.928
10229SOL    HW231587   2.775   1.060   1.999
10230SOL     OW31588   5.234   6.859   3.349
10230SOL    HW131589   5.239   6.958   3.341
10230SOL    HW231590   5.158   6.824   3.294
10231SOL     OW31591   4.698   5.827   4.377
10231SOL    HW131592   4.724   5.871   4.291
10231SOL    HW231593   4.714   5.890   4.453
10232SOL     OW31594   4.232   2.312   3.309
10232SOL    HW131595   4.191   2.301   3.399
10232SOL    HW231596   4.164   2.293   3.238
10233SOL     OW31597   4.712   6.529   5.639
10233SOL    HW131598   4.697   6.624   5.666
10233SOL    HW231599   4.765   6.526   5.554
10234SOL     OW31600   4.261   4.345   1.054
10234SOL    HW131601   4.242   4.443   1.061
10234SOL    HW231602   4.245   4.315   0.960
10235SOL     OW31603   4.589   0.229   6.993
10235SOL    HW131604   4.520   0.163   7.022
10235SOL    HW231605   4.557   0.322   7.011
10236SOL     OW31606   1.420   5.111   1.192
10236SOL    HW131607   1.402   5.096   1.095
10236SOL    HW231608   1.467   5.198   1.204
10237SOL     OW31609   6.030   2.862   3.342
10237SOL    HW131610   5.938   2.884   3.310
10237SOL    HW231611   6.023   2.817   3.431
10238SOL     OW31612   4.776   5.345   6.183
10238SOL    HW131613   4.863   5.358   6.136
10238SOL    HW231614   4.720   5.427   6.173
10239SOL     OW31615   5.544   3.461   4.432
10239SOL    HW131616   5.548   3.410   4.518
10239SOL    HW231617   5.588   3.407   4.360
10240SOL     OW31618   4.883   3.795   2.870
10240SOL    HW131619   4.957   3.859   2.894
10240SOL    HW231620   4.883   3.720   2.936
10241SOL     OW31621   1.385   2.392   2.918
10241SOL    HW131622   1.383   2.449   2.836
10241SOL    HW231623   1.386   2.449   3.000
10242SOL     OW31624   1.332   5.448   6.500
10242SOL    HW131625   1.371   5.372   6.551
10242SOL    HW231626   1.232   5.444   6.505
10243SOL     OW31627   0.435   5.881   3.418
10243SOL    HW131628   0.344   5.842   3.423
10243SOL    HW231629   0.503   5.808   3.431
10244SOL     OW31630   2.297   5.814   6.798
10244SOL    HW131631   2.352   5.868   6.861
10244SOL    HW231632   2.273   5.869   6.718
10245SOL     OW31633   3.386   3.042   0.747
10245SOL    HW131634   3.306   3.010   0.797
10245SOL    HW231635   3.362   3.056   0.651
10246SOL     OW31636   3.943   4.123   4.931
10246SOL    HW131637   4.024   4.164   4.888
10246SOL    HW231638   3.968   4.034   4.970
10247SOL     OW31639   1.264   5.989   6.259
10247SOL    HW131640   1.270   6.014   6.356
10247SOL    HW231641   1.356   5.986   6.220
10248SOL     OW31642   6.103   0.724   3.748
10248SOL    HW131643   6.057   0.646   3.705
10248SOL    HW231644   6.187   0.692   3.791
10249SOL     OW31645   4.596   0.872   6.125
10249SOL    HW131646   4.616   0.917   6.212
10249SOL    HW231647   4.659   0.904   6.055
10250SOL     OW31648   4.330   5.586   0.922
10250SOL    HW131649   4.381   5.578   0.836
10250SOL    HW231650   4.370   5.659   0.977
10251SOL     OW31651   4.087   4.329   1.416
10251SOL    HW131652   4.027   4.293   1.487
10251SOL    HW231653   4.098   4.428   1.429
10252SOL     OW31654   0.354   3.940   0.931
10252SOL    HW131655   0.297   4.015   0.898
10252SOL    HW231656   0.296   3.861   0.950
10253SOL     OW31657   4.273   4.200   0.014
10253SOL    HW131658   4.336   4.123   0.001
10253SOL    HW231659   4.316   4.284   7.003
10254SOL     OW31660   2.738   1.852   5.194
10254SOL    HW131661   2.647   1.812   5.206
10254SOL    HW231662   2.772   1.884   5.282
10255SOL     OW31663   3.335   5.002   3.970
10255SOL    HW131664   3.255   4.944   3.982
10255SOL    HW231665   3.370   5.031   4.059
10256SOL     OW31666   5.385   5.808   0.101
10256SOL    HW131667   5.366   5.904   0.081
10256SOL    HW231668   5.317   5.773   0.165
10257SOL     OW31669   1.950   4.637   5.648
10257SOL    HW131670   1.969   4.540   5.628
10257SOL    HW231671   1.999   4.664   5.730
10258SOL     OW31672   4.584   1.183   2.461
10258SOL    HW131673   4.557   1.280   2.463
10258SOL    HW231674   4.505   1.126   2.483
10259SOL     OW31675   6.854   3.359   4.476
10259SOL    HW131676   6.911   3.430   4.436
10259SOL    HW231677   6.890   3.269   4.452
10260SOL     OW31678   0.213   5.679   1.948
10260SOL    HW131679   0.194   5.654   1.853
10260SOL    HW231680   0.296   5.634   1.979
10261SOL     OW31681   2.076   0.332   2.038
10261SOL    HW131682   2.140   0.322   2.115
10261SOL    HW231683   2.111   0.282   1.959
10262SOL     OW31684   0.122   6.129   4.075
10262SOL    HW131685   0.144   6.161   3.983
10262SOL    HW231686   0.155   6.195   4.142
10263SOL     OW31687   6.590   3.113   4.575
10263SOL    HW131688   6.632   3.026   4.550
10263SOL    HW231689   6.621   3.140   4.666
10264SOL     OW31690   0.685   0.397   0.587
10264SOL    HW131691   0.712   0.303   0.566
10264SOL    HW231692   0.721   0.423   0.677
10265SOL     OW31693   4.956   2.573   4.062
10265SOL    HW131694   4.991   2.622   4.141
10265SOL    HW231695   4.993   2.480   4.061
10266SOL     OW31696   3.514   3.718   0.012
10266SOL    HW131697   3.582   3.697   0.082
10266SOL    HW231698   3.429   3.671   0.034
10267SOL     OW31699   6.968   0.936   6.540
10267SOL    HW131700   6.877   0.970   6.516
10267SOL    HW231701   7.019   0.918   6.456
10268SOL     OW31702   6.848   3.992   0.457
10268SOL    HW131703   6.946   4.012   0.458
10268SOL    HW231704   6.832   3.909   0.404
10269SOL     OW31705   3.956   1.622   6.049
10269SOL    HW131706   3.932   1.538   6.000
10269SOL    HW231707   4.055   1.636   6.046
10270SOL     OW31708   3.814   5.927   2.681
10270SOL    HW131709   3.800   6.025   2.667
10270SOL    HW231710   3.732   5.878   2.651
10271SOL     OW31711   1.990   4.693   1.443
10271SOL    HW131712   2.080   4.691   1.487
10271SOL    HW231713   1.920   4.720   1.510
10272SOL     OW31714   1.783   2.870   4.125
10272SOL    HW131715   1.780   2.781   4.082
10272SOL    HW231716   1.829   2.935   4.065
10273SOL     OW31717   4.424   6.109   3.410
10273SOL    HW131718   4.439   6.151   3.321
10273SOL    HW231719   4.407   6.179   3.478
10274SOL     OW31720   2.335   4.438   6.631
10274SOL    HW131721   2.311   4.358   6.577
10274SOL    HW231722   2.373   4.409   6.719
10275SOL     OW31723   0.962   5.970   1.826
10275SOL    HW131724   1.054   5.982   1.791
10275SOL    HW231725   0.957   6.004   1.920
10276SOL     OW31726   1.484   0.054   0.315
10276SOL    HW131727   1.470   0.106   0.398
10276SOL    HW231728   1.532   0.110   0.247
10277SOL     OW31729   6.767   6.120   2.372
10277SOL    HW131730   6.840   6.182   2.343
10277SOL    HW231731   6.803   6.026   2.376
10278SOL     OW31732   6.061   1.124   5.528
10278SOL    HW131733   6.134   1.147   5.464
10278SOL    HW231734   5.972   1.132   5.481
10279SOL     OW31735   3.837   6.143   4.289
10279SOL    HW131736   3.755   6.186   4.326
10279SOL    HW231737   3.909   6.211   4.277
10280SOL     OW31738   2.288   2.644   0.250
10280SOL    HW131739   2.290   2.545   0.268
10280SOL    HW231740   2.243   2.690   0.326
10281SOL     OW31741   4.355   0.822   4.434
10281SOL    HW131742   4.302   0.753   4.384
10281SOL    HW231743   4.294   0.892   4.470
10282SOL     OW31744   1.547   3.165   4.347
10282SOL    HW131745   1.613   3.132   4.416
10282SOL    HW231746   1.594   3.175   4.259
10283SOL     OW31747   1.724   5.248   6.026
10283SOL    HW131748   1.649   5.188   5.997
10283SOL    HW231749   1.706   5.281   6.119
10284SOL     OW31750   5.009   2.784   0.165
10284SOL    HW131751   5.028   2.878   0.135
10284SOL    HW231752   4.916   2.779   0.202
10285SOL     OW31753   5.199   1.516   1.166
10285SOL    HW131754   5.201   1.616   1.173
10285SOL    HW231755   5.113   1.487   1.124
10286SOL     OW31756   3.579   0.140   3.926
10286SOL    HW131757   3.636   0.209   3.971
10286SOL    HW231758   3.636   0.066   3.892
10287SOL     OW31759   2.010   4.255   2.004
10287SOL    HW131760   2.051   4.291   1.920
10287SOL    HW231761   2.082   4.217   2.062
10288SOL     OW31762   4.193   6.020   4.246
10288SOL    HW131763   4.165   6.109   4.281
10288SOL    HW231764   4.112   5.962   4.234
10289SOL     OW31765   2.753   1.472   1.556
10289SOL    HW131766   2.768   1.464   1.655
10289SOL    HW231767   2.839   1.453   1.508
10290SOL     OW31768   3.287   2.987   3.345
10290SOL    HW131769   3.305   2.895   3.378
10290SOL    HW231770   3.344   3.005   3.265
10291SOL     OW31771   3.823   0.250   4.156
10291SOL    HW131772   3.792   0.182   4.222
10291SOL    HW231773   3.914   0.282   4.181
10292SOL     OW31774   6.738   2.445   3.971
10292SOL    HW131775   6.776   2.404   3.888
10292SOL    HW231776   6.772   2.396   4.051
10293SOL     OW31777   1.750   4.909   3.081
10293SOL    HW131778   1.781   4.815   3.067
10293SOL    HW231779   1.741   4.955   2.993
10294SOL     OW31780   5.546   0.753   3.191
10294SOL    HW131781   5.550   0.847   3.156
10294SOL    HW231782   5.591   0.749   3.280
10295SOL     OW31783   1.716   3.712   3.714
10295SOL    HW131784   1.767   3.786   3.757
10295SOL    HW231785   1.751   3.624   3.746
10296SOL     OW31786   6.212   3.199   1.564
10296SOL    HW131787   6.159   3.156   1.638
10296SOL    HW231788   6.155   3.208   1.483
10297SOL     OW31789   3.773   4.964   4.959
10297SOL    HW131790   3.678   4.963   4.929
10297SOL    HW231791   3.808   5.058   4.957
10298SOL     OW31792   5.948   3.144   3.041
10298SOL    HW131793   5.850   3.147   3.060
10298SOL    HW231794   5.967   3.194   2.956
10299SOL     OW31795   4.080   4.784   2.044
10299SOL    HW131796   4.146   4.725   1.998
10299SOL    HW231797   4.075   4.760   2.141
10300SOL     OW31798   0.410   6.125   2.250
10300SOL    HW131799   0.489   6.183   2.271
10300SOL    HW231800   0.442   6.036   2.216
10301SOL     OW31801   4.469   0.145   1.854
10301SOL    HW131802   4.545   0.081   1.841
10301SOL    HW231803   4.502   0.239   1.841
10302SOL     OW31804   0.988   3.639   3.310
10302SOL    HW131805   0.910   3.589   3.346
10302SOL    HW231806   0.955   3.713   3.250
10303SOL     OW31807   4.428   3.326   1.113
10303SOL    HW131808   4.527   3.320   1.101
10303SOL    HW231809   4.399   3.258   1.181
10304SOL     OW31810   5.701   5.751   3.333
10304SOL    HW131811   5.782   5.807   3.314
10304SOL    HW231812   5.625   5.785   3.278
10305SOL     OW31813   2.409   5.465   1.378
10305SOL    HW131814   2.505   5.466   1.352
10305SOL    HW231815   2.399   5.506   1.469
10306SOL     OW31816   4.691   3.909   6.962
10306SOL    HW131817   4.691   3.847   0.015
10306SOL    HW231818   4.763   3.977   6.973
10307SOL     OW31819   2.772   1.892   6.180
10307SOL    HW131820   2.841   1.909   6.251
10307SOL    HW231821   2.798   1.810   6.128
10308SOL     OW31822   3.042   5.178   4.172
10308SOL    HW131823   3.039   5.177   4.072
10308SOL    HW231824   2.948   5.176   4.207
10309SOL     OW31825   0.234   6.341   3.882
10309SOL    HW131826   0.201   6.260   3.833
10309SOL    HW231827   0.326   6.364   3.849
10310SOL     OW31828   3.677   4.084   4.813
10310SOL    HW131829   3.640   4.114   4.726
10310SOL    HW231830   3.752   4.144   4.841
10311SOL     OW31831   1.018   0.215   1.262
10311SOL    HW131832   0.920   0.234   1.275
10311SOL    HW231833   1.030   0.163   1.177
10312SOL     OW31834   3.074   4.559   0.312
10312SOL    HW131835   3.018   4.522   0.386
10312SOL    HW231836   3.101   4.652   0.335
10313SOL     OW31837   6.608   5.933   4.145
10313SOL    HW131838   6.529   5.894   4.098
10313SOL    HW231839   6.652   5.863   4.201
10314SOL     OW31840   0.028   5.633   5.321
10314SOL    HW131841   0.033   5.574   5.401
10314SOL    HW231842   0.089   5.711   5.333
10315SOL     OW31843   4.467   6.363   5.918
10315SOL    HW131844   4.419   6.373   5.830
10315SOL    HW231845   4.495   6.453   5.951
10316SOL     OW31846   0.773   3.406   4.199
10316SOL    HW131847   0.708   3.458   4.254
10316SOL    HW231848   0.788   3.316   4.241
10317SOL     OW31849   5.734   4.505   6.340
10317SOL    HW131850   5.709   4.597   6.371
10317SOL    HW231851   5.663   4.472   6.277
10318SOL     OW31852   5.345   4.802   2.949
10318SOL    HW131853   5.338   4.873   2.879
10318SOL    HW231854   5.277   4.731   2.933
10319SOL     OW31855   4.665   6.633   3.307
10319SOL    HW131856   4.699   6.557   3.251
10319SOL    HW231857   4.577   6.664   3.271
10320SOL     OW31858   4.033   6.495   1.760
10320SOL    HW131859   3.964   6.563   1.735
10320SOL    HW231860   4.004   6.446   1.842
10321SOL     OW31861   4.570   6.331   4.442
10321SOL    HW131862   4.601   6.426   4.443
10321SOL    HW231863   4.485   6.323   4.493
10322SOL     OW31864   6.703   1.552   6.709
10322SOL    HW131865   6.617   1.594   6.738
10322SOL    HW231866   6.778   1.615   6.727
10323SOL     OW31867   0.680   2.310   5.286
10323SOL    HW131868   0.581   2.323   5.278
10323SOL    HW231869   0.724   2.334   5.200
10324SOL     OW31870   2.992   3.256   4.266
10324SOL    HW131871   2.980   3.217   4.358
10324SOL    HW231872   3.003   3.355   4.273
10325SOL     OW31873   0.789   3.365   3.695
10325SOL    HW131874   0.825   3.275   3.720
10325SOL    HW231875   0.755   3.411   3.776
10326SOL     OW31876   5.697   1.813   1.540
10326SOL    HW131877   5.770   1.882   1.545
10326SOL    HW231878   5.681   1.776   1.632
10327SOL     OW31879   5.905   1.523   3.761
10327SOL    HW131880   5.888   1.615   3.795
10327SOL    HW231881   5.877   1.517   3.665
10328SOL     OW31882   6.905   3.899   2.340
10328SOL    HW131883   6.911   3.816   2.285
10328SOL    HW231884   6.836   3.887   2.411
10329SOL     OW31885   2.847   5.892   3.190
10329SOL    HW131886   2.872   5.829   3.264
10329SOL    HW231887   2.868   5.850   3.102
10330SOL     OW31888   2.995   3.643   0.910
10330SOL    HW131889   3.080   3.637   0.961
10330SOL    HW231890   2.918   3.648   0.974
10331SOL     OW31891   4.994   1.514   4.501
10331SOL    HW131892   5.035   1.437   4.451
10331SOL    HW231893   5.053   1.538   4.578
10332SOL     OW31894   1.372   2.607   6.840
10332SOL    HW131895   1.337   2.563   6.922
10332SOL    HW231896   1.324   2.573   6.760
10333SOL     OW31897   6.995   4.710   5.372
10333SOL    HW131898   6.935   4.682   5.296
10333SOL    HW231899   6.961   4.795   5.411
10334SOL     OW31900   0.543   5.023   5.279
10334SOL    HW131901   0.603   4.965   5.225
10334SOL    HW231902   0.574   5.118   5.273
10335SOL     OW31903   3.097   5.091   3.303
10335SOL    HW131904   3.101   5.186   3.333
10335SOL    HW231905   3.001   5.065   3.288
10336SOL     OW31906   4.567   0.045   3.026
10336SOL    HW131907   4.537   6.989   2.977
10336SOL    HW231908   4.499   0.117   3.015
10337SOL     OW31909   1.120   3.706   6.461
10337SOL    HW131910   1.084   3.644   6.530
10337SOL    HW231911   1.076   3.795   6.469
10338SOL     OW31912   2.613   4.624   2.581
10338SOL    HW131913   2.699   4.608   2.532
10338SOL    HW231914   2.542   4.652   2.518
10339SOL     OW31915   3.442   5.953   6.974
10339SOL    HW131916   3.471   5.896   0.025
10339SOL    HW231917   3.508   5.945   6.899
10340SOL     OW31918   1.873   6.736   1.060
10340SOL    HW131919   1.950   6.741   1.123
10340SOL    HW231920   1.817   6.656   1.081
10341SOL     OW31921   0.560   3.139   2.127
10341SOL    HW131922   0.624   3.175   2.195
10341SOL    HW231923   0.482   3.097   2.173
10342SOL     OW31924   2.854   5.690   4.071
10342SOL    HW131925   2.822   5.623   4.139
10342SOL    HW231926   2.952   5.703   4.082
10343SOL     OW31927   2.772   2.315   4.977
10343SOL    HW131928   2.701   2.263   5.025
10343SOL    HW231929   2.855   2.319   5.033
10344SOL     OW31930   4.797   3.734   1.367
10344SOL    HW131931   4.717   3.684   1.333
10344SOL    HW231932   4.807   3.717   1.465
10345SOL     OW31933   3.590   1.581   6.675
10345SOL    HW131934   3.608   1.535   6.588
10345SOL    HW231935   3.600   1.680   6.662
10346SOL     OW31936   6.183   5.813   0.172
10346SOL    HW131937   6.177   5.740   0.240
10346SOL    HW231938   6.106   5.806   0.109
10347SOL     OW31939   3.967   0.042   2.109
10347SOL    HW131940   3.945   0.115   2.044
10347SOL    HW231941   4.031   7.004   2.066
10348SOL     OW31942   6.763   3.931   5.434
10348SOL    HW131943   6.859   3.953   5.419
10348SOL    HW231944   6.731   3.870   5.361
10349SOL     OW31945   5.774   2.030   0.165
10349SOL    HW131946   5.822   1.951   0.204
10349SOL    HW231947   5.748   2.093   0.238
10350SOL     OW31948   2.186   4.807   4.416
10350SOL    HW131949   2.117   4.814   4.488
10350SOL    HW231950   2.144   4.823   4.327
10351SOL     OW31951   3.890   5.537   4.919
10351SOL    HW131952   3.889   5.609   4.849
10351SOL    HW231953   3.798   5.529   4.958
10352SOL     OW31954   0.437   1.158   1.658
10352SOL    HW131955   0.456   1.226   1.587
10352SOL    HW231956   0.469   1.068   1.628
10353SOL     OW31957   5.787   3.088   3.501
10353SOL    HW131958   5.781   2.990   3.485
10353SOL    HW231959   5.884   3.115   3.504
10354SOL     OW31960   6.896   2.890   1.597
10354SOL    HW131961   6.878   2.957   1.526
10354SOL    HW231962   6.847   2.805   1.577
10355SOL     OW31963   6.965   2.237   0.716
10355SOL    HW131964   6.916   2.214   0.632
10355SOL    HW231965   0.037   2.241   0.698
10356SOL     OW31966   5.709   2.504   6.688
10356SOL    HW131967   5.752   2.463   6.769
10356SOL    HW231968   5.779   2.548   6.632
10357SOL     OW31969   0.388   0.597   6.430
10357SOL    HW131970   0.353   0.578   6.521
10357SOL    HW231971   0.442   0.519   6.398
10358SOL     OW31972   0.707   2.612   3.810
10358SOL    HW131973   0.656   2.551   3.871
10358SOL    HW231974   0.802   2.582   3.804
10359SOL     OW31975   0.786   2.584   2.508
10359SOL    HW131976   0.875   2.591   2.555
10359SOL    HW231977   0.791   2.512   2.439
10360SOL     OW31978   6.123   4.670   0.962
10360SOL    HW131979   6.031   4.710   0.969
10360SOL    HW231980   6.153   4.673   0.867
10361SOL     OW31981   6.015   2.005   3.081
10361SOL    HW131982   5.943   2.057   3.036
10361SOL    HW231983   6.009   1.909   3.054
10362SOL     OW31984   0.630   6.289   1.355
10362SOL    HW131985   0.629   6.221   1.429
10362SOL    HW231986   0.712   6.275   1.299
10363SOL     OW31987   5.303   5.352   5.987
10363SOL    HW131988   5.379   5.288   5.973
10363SOL    HW231989   5.332   5.444   5.963
10364SOL     OW31990   6.047   5.176   1.557
10364SOL    HW131991   5.950   5.200   1.552
10364SOL    HW231992   6.075   5.174   1.653
10365SOL     OW31993   5.952   5.778   0.044
10365SOL    HW131994   5.979   5.724   6.990
10365SOL    HW231995   5.864   5.822   0.026
10366SOL     OW31996   2.924   6.968   3.258
10366SOL    HW131997   2.825   6.973   3.263
10366SOL    HW231998   2.964   0.016   3.313
10367SOL     OW31999   5.345   5.930   1.647
10367SOL    HW132000   5.375   5.868   1.720
10367SOL    HW232001   5.245   5.926   1.639
10368SOL     OW32002   1.403   5.755   1.765
10368SOL    HW132003   1.445   5.766   1.855
10368SOL    HW232004   1.472   5.768   1.694
10369SOL     OW32005   2.468   0.653   5.641
10369SOL    HW132006   2.408   0.728   5.669
10369SOL    HW232007   2.440   0.620   5.550
10370SOL     OW32008   1.549   2.149   6.118
10370SOL    HW132009   1.565   2.221   6.051
10370SOL    HW232010   1.621   2.150   6.187
10371SOL     OW32011   3.670   5.443   3.174
10371SOL    HW132012   3.712   5.522   3.131
10371SOL    HW232013   3.579   5.427   3.134
10372SOL     OW32014   1.391   6.125   1.259
10372SOL    HW132015   1.408   6.177   1.175
10372SOL    HW232016   1.339   6.182   1.323
10373SOL     OW32017   6.287   0.453   6.288
10373SOL    HW132018   6.359   0.421   6.349
10373SOL    HW232019   6.213   0.385   6.285
10374SOL     OW32020   2.840   4.841   3.241
10374SOL    HW132021   2.801   4.861   3.331
10374SOL    HW232022   2.794   4.761   3.203
10375SOL     OW32023   2.276   5.496   6.609
10375SOL    HW132024   2.348   5.478   6.543
10375SOL    HW232025   2.299   5.577   6.662
10376SOL     OW32026   2.108   4.913   4.147
10376SOL    HW132027   2.030   4.963   4.110
10376SOL    HW232028   2.156   4.868   4.072
10377SOL     OW32029   2.496   0.616   3.746
10377SOL    HW132030   2.470   0.622   3.650
10377SOL    HW232031   2.596   0.615   3.754
10378SOL     OW32032   0.620   6.901   5.969
10378SOL    HW132033   0.579   6.992   5.971
10378SOL    HW232034   0.612   6.863   5.877
10379SOL     OW32035   0.882   5.762   3.615
10379SOL    HW132036   0.915   5.807   3.532
10379SOL    HW232037   0.961   5.735   3.671
10380SOL     OW32038   2.862   1.094   4.057
10380SOL    HW132039   2.769   1.089   4.022
10380SOL    HW232040   2.922   1.039   3.998
10381SOL     OW32041   2.818   0.478   2.595
10381SOL    HW132042   2.812   0.385   2.560
10381SOL    HW232043   2.885   0.529   2.541
10382SOL     OW32044   4.238   5.525   1.823
10382SOL    HW132045   4.177   5.545   1.747
10382SOL    HW232046   4.262   5.428   1.823
10383SOL     OW32047   0.406   0.023   6.870
10383SOL    HW132048   0.451   7.003   6.947
10383SOL    HW232049   0.432   0.120   6.870
10384SOL     OW32050   4.919   5.000   0.949
10384SOL    HW132051   4.983   4.929   0.978
10384SOL    HW232052   4.826   4.968   0.961
10385SOL     OW32053   4.276   4.758   6.517
10385SOL    HW132054   4.279   4.854   6.544
10385SOL    HW232055   4.192   4.740   6.466
10386SOL     OW32056   0.191   0.178   2.169
10386SOL    HW132057   0.135   0.161   2.088
10386SOL    HW232058   0.233   0.269   2.162
10387SOL     OW32059   5.441   1.870   1.461
10387SOL    HW132060   5.539   1.855   1.478
10387SOL    HW232061   5.405   1.795   1.405
10388SOL     OW32062   1.209   0.314   4.903
10388SOL    HW132063   1.255   0.238   4.948
10388SOL    HW232064   1.142   0.354   4.966
10389SOL     OW32065   0.551   3.543   0.699
10389SOL    HW132066   0.651   3.543   0.703
10389SOL    HW232067   0.520   3.621   0.645
10390SOL     OW32068   2.243   2.051   2.027
10390SOL    HW132069   2.224   2.143   1.992
10390SOL    HW232070   2.334   2.022   1.996
10391SOL     OW32071   6.277   6.929   3.075
10391SOL    HW132072   6.330   6.848   3.051
10391SOL    HW232073   6.233   6.966   2.993
10392SOL     OW32074   6.608   3.698   4.192
10392SOL    HW132075   6.593   3.758   4.113
10392SOL    HW232076   6.558   3.612   4.179
10393SOL     OW32077   1.953   2.343   2.286
10393SOL    HW132078   1.866   2.344   2.237
10393SOL    HW232079   1.997   2.254   2.273
10394SOL     OW32080   2.957   6.517   3.638
10394SOL    HW132081   2.954   6.608   3.595
10394SOL    HW232082   2.893   6.457   3.592
10395SOL     OW32083   0.834   0.938   1.597
10395SOL    HW132084   0.903   0.885   1.646
10395SOL    HW232085   0.827   1.029   1.637
10396SOL     OW32086   3.448   2.206   5.248
10396SOL    HW132087   3.374   2.272   5.240
10396SOL    HW232088   3.476   2.175   5.157
10397SOL     OW32089   5.174   1.362   4.059
10397SOL    HW132090   5.243   1.434   4.046
10397SOL    HW232091   5.114   1.359   3.980
10398SOL     OW32092   5.232   2.628   2.297
10398SOL    HW132093   5.316   2.574   2.296
10398SOL    HW232094   5.213   2.663   2.205
10399SOL     OW32095   0.463   4.047   2.293
10399SOL    HW132096   0.444   3.968   2.351
10399SOL    HW232097   0.417   4.036   2.205
10400SOL     OW32098   1.996   6.727   0.554
10400SOL    HW132099   1.932   6.801   0.532
10400SOL    HW232100   2.090   6.762   0.549
10401SOL     OW32101   6.932   0.549   6.025
10401SOL    HW132102   7.008   0.605   5.993
10401SOL    HW232103   6.965   0.457   6.044
10402SOL     OW32104   6.909   4.358   5.046
10402SOL    HW132105   6.882   4.265   5.068
10402SOL    HW232106   6.917   4.367   4.946
10403SOL     OW32107   2.965   7.021   0.899
10403SOL    HW132108   2.867   7.012   0.886
10403SOL    HW232109   2.991   0.092   0.894
10404SOL     OW32110   0.362   5.593   5.973
10404SOL    HW132111   0.402   5.527   5.909
10404SOL    HW232112   0.276   5.628   5.935
10405SOL     OW32113   0.130   1.708   6.962
10405SOL    HW132114   0.171   1.724   0.026
10405SOL    HW232115   0.037   1.745   6.962
10406SOL     OW32116   1.271   5.625   0.804
10406SOL    HW132117   1.293   5.684   0.882
10406SOL    HW232118   1.174   5.636   0.781
10407SOL     OW32119   1.994   6.216   6.669
10407SOL    HW132120   1.921   6.152   6.696
10407SOL    HW232121   2.031   6.188   6.580
10408SOL     OW32122   4.598   0.737   0.324
10408SOL    HW132123   4.600   0.723   0.423
10408SOL    HW232124   4.666   0.806   0.300
10409SOL     OW32125   6.090   4.196   0.775
10409SOL    HW132126   6.032   4.273   0.800
10409SOL    HW232127   6.185   4.217   0.796
10410SOL     OW32128   4.246   6.994   0.972
10410SOL    HW132129   4.221   0.028   0.896
10410SOL    HW232130   4.288   0.023   1.045
10411SOL     OW32131   2.236   5.162   4.277
10411SOL    HW132132   2.205   5.207   4.193
10411SOL    HW232133   2.277   5.074   4.254
10412SOL     OW32134   5.520   0.008   1.666
10412SOL    HW132135   5.551   0.101   1.649
10412SOL    HW232136   5.571   6.996   1.743
10413SOL     OW32137   6.097   2.598   2.761
10413SOL    HW132138   6.017   2.543   2.785
10413SOL    HW232139   6.121   2.657   2.838
10414SOL     OW32140   5.772   3.376   4.255
10414SOL    HW132141   5.735   3.308   4.318
10414SOL    HW232142   5.858   3.342   4.216
10415SOL     OW32143   0.860   0.995   6.901
10415SOL    HW132144   0.909   1.074   6.938
10415SOL    HW232145   0.831   0.936   6.976
10416SOL     OW32146   5.114   3.045   4.116
10416SOL    HW132147   5.016   3.044   4.137
10416SOL    HW232148   5.130   2.991   4.034
10417SOL     OW32149   1.871   4.319   3.102
10417SOL    HW132150   1.898   4.246   3.165
10417SOL    HW232151   1.936   4.324   3.027
10418SOL     OW32152   1.759   5.663   6.339
10418SOL    HW132153   1.839   5.658   6.399
10418SOL    HW232154   1.678   5.631   6.388
10419SOL     OW32155   1.181   0.728   6.971
10419SOL    HW132156   1.170   0.826   6.950
10419SOL    HW232157   1.103   0.677   6.936
10420SOL     OW32158   0.384   2.940   2.784
10420SOL    HW132159   0.457   2.873   2.776
10420SOL    HW232160   0.329   2.941   2.701
10421SOL     OW32161   0.870   2.282   2.975
10421SOL    HW132162   0.830   2.232   3.051
10421SOL    HW232163   0.899   2.218   2.904
10422SOL     OW32164   5.271   3.162   7.023
10422SOL    HW132165   5.281   3.253   0.037
10422SOL    HW232166   5.347   3.144   6.961
10423SOL     OW32167   5.156   5.025   2.852
10423SOL    HW132168   5.111   5.055   2.768
10423SOL    HW232169   5.124   5.081   2.929
10424SOL     OW32170   4.416   1.672   6.512
10424SOL    HW132171   4.365   1.756   6.530
10424SOL    HW232172   4.379   1.598   6.567
10425SOL     OW32173   1.672   6.931   2.067
10425SOL    HW132174   1.737   6.900   1.998
10425SOL    HW232175   1.597   6.866   2.074
10426SOL     OW32176   6.681   4.101   0.069
10426SOL    HW132177   6.745   4.173   0.097
10426SOL    HW232178   6.595   4.112   0.120
10427SOL     OW32179   5.163   0.826   1.081
10427SOL    HW132180   5.187   0.891   1.009
10427SOL    HW232181   5.215   0.847   1.163
10428SOL     OW32182   4.873   1.456   3.473
10428SOL    HW132183   4.854   1.430   3.568
10428SOL    HW232184   4.948   1.522   3.471
10429SOL     OW32185   5.927   5.649   1.935
10429SOL    HW132186   6.000   5.706   1.896
10429SOL    HW232187   5.968   5.574   1.986
10430SOL     OW32188   4.407   5.941   2.658
10430SOL    HW132189   4.469   5.863   2.667
10430SOL    HW232190   4.418   5.982   2.568
10431SOL     OW32191   2.414   1.310   5.303
10431SOL    HW132192   2.361   1.364   5.368
10431SOL    HW232193   2.354   1.247   5.254
10432SOL     OW32194   4.313   0.353   4.693
10432SOL    HW132195   4.311   0.421   4.766
10432SOL    HW232196   4.247   0.378   4.622
10433SOL     OW32197   2.676   6.598   0.787
10433SOL    HW132198   2.748   6.532   0.764
10433SOL    HW232199   2.708   6.657   0.861
10434SOL     OW32200   2.855   1.869   4.948
10434SOL    HW132201   2.809   1.825   5.025
10434SOL    HW232202   2.925   1.932   4.983
10435SOL     OW32203   5.663   5.591   6.209
10435SOL    HW132204   5.717   5.655   6.154
10435SOL    HW232205   5.575   5.634   6.231
10436SOL     OW32206   0.753   0.817   2.823
10436SOL    HW132207   0.746   0.855   2.730
10436SOL    HW232208   0.681   0.749   2.836
10437SOL     OW32209   0.607   4.302   5.978
10437SOL    HW132210   0.510   4.290   5.960
10437SOL    HW232211   0.622   4.306   6.077
10438SOL     OW32212   3.242   6.719   6.140
10438SOL    HW132213   3.299   6.736   6.060
10438SOL    HW232214   3.154   6.766   6.130
10439SOL     OW32215   3.549   0.626   5.001
10439SOL    HW132216   3.542   0.527   5.014
10439SOL    HW232217   3.458   0.667   5.009
10440SOL     OW32218   0.822   5.604   0.741
10440SOL    HW132219   0.842   5.536   0.811
10440SOL    HW232220   0.907   5.647   0.710
10441SOL     OW32221   3.930   6.985   0.482
10441SOL    HW132222   3.831   6.993   0.492
10441SOL    HW232223   3.951   6.943   0.394
10442SOL     OW32224   5.057   6.034   5.086
10442SOL    HW132225   4.995   5.989   5.021
10442SOL    HW232226   5.151   6.012   5.063
10443SOL     OW32227   6.175   2.543   4.496
10443SOL    HW132228   6.190   2.561   4.399
10443SOL    HW232229   6.110   2.610   4.532
10444SOL     OW32230   3.699   4.988   4.594
10444SOL    HW132231   3.762   4.910   4.592
10444SOL    HW232232   3.616   4.962   4.645
10445SOL     OW32233   6.269   6.374   2.306
10445SOL    HW132234   6.346   6.417   2.261
10445SOL    HW232235   6.301   6.301   2.367
10446SOL     OW32236   1.114   6.457   6.665
10446SOL    HW132237   1.111   6.410   6.753
10446SOL    HW232238   1.072   6.547   6.674
10447SOL     OW32239   5.636   1.689   0.323
10447SOL    HW132240   5.542   1.693   0.289
10447SOL    HW232241   5.695   1.743   0.264
10448SOL     OW32242   3.349   3.808   2.538
10448SOL    HW132243   3.316   3.901   2.550
10448SOL    HW232244   3.441   3.799   2.577
10449SOL     OW32245   1.806   5.401   4.965
10449SOL    HW132246   1.715   5.365   4.982
10449SOL    HW232247   1.804   5.459   4.883
10450SOL     OW32248   0.063   3.436   1.088
10450SOL    HW132249   0.152   3.481   1.088
10450SOL    HW232250   0.074   3.339   1.110
10451SOL     OW32251   2.379   4.550   2.383
10451SOL    HW132252   2.319   4.474   2.407
10451SOL    HW232253   2.444   4.522   2.314
10452SOL     OW32254   1.842   2.980   5.896
10452SOL    HW132255   1.888   2.893   5.914
10452SOL    HW232256   1.812   3.020   5.982
10453SOL     OW32257   5.087   0.510   1.380
10453SOL    HW132258   5.086   0.608   1.398
10453SOL    HW232259   5.012   0.487   1.318
10454SOL     OW32260   5.471   4.174   1.849
10454SOL    HW132261   5.432   4.111   1.781
10454SOL    HW232262   5.398   4.231   1.887
10455SOL     OW32263   0.649   4.569   3.206
10455SOL    HW132264   0.746   4.564   3.227
10455SOL    HW232265   0.637   4.583   3.108
10456SOL     OW32266   3.818   6.207   1.122
10456SOL    HW132267   3.798   6.288   1.067
10456SOL    HW232268   3.887   6.151   1.077
10457SOL     OW32269   3.927   3.083   3.818
10457SOL    HW132270   3.850   3.062   3.757
10457SOL    HW232271   3.923   3.024   3.899
10458SOL     OW32272   0.318   6.127   1.689
10458SOL    HW132273   0.285   6.045   1.735
10458SOL    HW232274   0.301   6.207   1.746
10459SOL     OW32275   6.889   4.772   1.668
10459SOL    HW132276   6.912   4.712   1.591
10459SOL    HW232277   6.792   4.798   1.662
10460SOL     OW32278   1.358   4.280   1.684
10460SOL    HW132279   1.361   4.351   1.615
10460SOL    HW232280   1.309   4.313   1.765
10461SOL     OW32281   3.300   0.448   6.295
10461SOL    HW132282   3.281   0.506   6.375
10461SOL    HW232283   3.357   0.371   6.322
10462SOL     OW32284   5.317   6.377   1.069
10462SOL    HW132285   5.275   6.289   1.048
10462SOL    HW232286   5.298   6.441   0.994
10463SOL     OW32287   3.245   3.377   0.909
10463SOL    HW132288   3.163   3.397   0.962
10463SOL    HW232289   3.237   3.284   0.871
10464SOL     OW32290   5.820   6.353   2.121
10464SOL    HW132291   5.722   6.359   2.099
10464SOL    HW232292   5.873   6.353   2.037
10465SOL     OW32293   0.275   5.053   4.618
10465SOL    HW132294   0.281   5.003   4.705
10465SOL    HW232295   0.366   5.083   4.592
10466SOL     OW32296   4.891   6.536   5.396
10466SOL    HW132297   4.967   6.480   5.431
10466SOL    HW232298   4.915   6.572   5.306
10467SOL     OW32299   4.758   1.266   3.678
10467SOL    HW132300   4.670   1.231   3.709
10467SOL    HW232301   4.819   1.189   3.658
10468SOL     OW32302   2.907   5.160   3.542
10468SOL    HW132303   2.956   5.239   3.579
10468SOL    HW232304   2.832   5.136   3.603
10469SOL     OW32305   0.856   4.646   6.402
10469SOL    HW132306   0.876   4.660   6.499
10469SOL    HW232307   0.928   4.688   6.347
10470SOL     OW32308   2.790   2.199   4.741
10470SOL    HW132309   2.832   2.263   4.677
10470SOL    HW232310   2.770   2.246   4.827
10471SOL     OW32311   4.420   3.976   7.015
10471SOL    HW132312   4.383   3.914   0.058
10471SOL    HW232313   4.506   3.939   6.980
10472SOL     OW32314   3.894   1.373   3.293
10472SOL    HW132315   3.969   1.375   3.359
10472SOL    HW232316   3.859   1.280   3.285
10473SOL     OW32317   5.109   5.144   0.076
10473SOL    HW132318   5.115   5.238   0.110
10473SOL    HW232319   5.082   5.083   0.152
10474SOL     OW32320   5.319   0.935   3.436
10474SOL    HW132321   5.363   0.855   3.478
10474SOL    HW232322   5.221   0.919   3.429
10475SOL     OW32323   4.428   6.396   1.269
10475SOL    HW132324   4.340   6.371   1.226
10475SOL    HW232325   4.439   6.345   1.354
10476SOL     OW32326   0.277   4.828   6.481
10476SOL    HW132327   0.334   4.908   6.463
10476SOL    HW232328   0.212   4.849   6.554
10477SOL     OW32329   4.796   4.311   4.911
10477SOL    HW132330   4.763   4.280   5.000
10477SOL    HW232331   4.721   4.356   4.862
10478SOL     OW32332   0.692   6.320   3.316
10478SOL    HW132333   0.701   6.420   3.309
10478SOL    HW232334   0.776   6.277   3.285
10479SOL     OW32335   0.953   4.282   2.186
10479SOL    HW132336   0.984   4.319   2.098
10479SOL    HW232337   1.031   4.271   2.247
10480SOL     OW32338   5.052   1.060   0.724
10480SOL    HW132339   5.113   0.982   0.710
10480SOL    HW232340   5.005   1.080   0.638
10481SOL     OW32341   2.608   1.527   4.475
10481SOL    HW132342   2.676   1.457   4.499
10481SOL    HW232343   2.642   1.617   4.503
10482SOL     OW32344   1.089   6.303   6.888
10482SOL    HW132345   1.114   6.208   6.871
10482SOL    HW232346   0.992   6.309   6.909
10483SOL     OW32347   0.156   5.686   0.557
10483SOL    HW132348   0.171   5.757   0.625
10483SOL    HW232349   0.186   5.719   0.467
10484SOL     OW32350   6.721   1.711   1.645
10484SOL    HW132351   6.679   1.670   1.726
10484SOL    HW232352   6.814   1.677   1.633
10485SOL     OW32353   3.720   4.162   4.531
10485SOL    HW132354   3.668   4.129   4.453
10485SOL    HW232355   3.805   4.205   4.499
10486SOL     OW32356   6.121   5.673   5.936
10486SOL    HW132357   6.160   5.642   5.849
10486SOL    HW232358   6.134   5.603   6.006
10487SOL     OW32359   5.562   3.801   2.842
10487SOL    HW132360   5.581   3.788   2.939
10487SOL    HW232361   5.506   3.725   2.809
10488SOL     OW32362   0.426   2.260   5.566
10488SOL    HW132363   0.503   2.323   5.553
10488SOL    HW232364   0.362   2.298   5.632
10489SOL     OW32365   5.892   4.880   2.781
10489SOL    HW132366   5.900   4.895   2.682
10489SOL    HW232367   5.814   4.930   2.816
10490SOL     OW32368   5.279   6.340   6.468
10490SOL    HW132369   5.305   6.430   6.502
10490SOL    HW232370   5.345   6.272   6.498
10491SOL     OW32371   2.114   2.413   5.720
10491SOL    HW132372   2.092   2.317   5.735
10491SOL    HW232373   2.163   2.422   5.633
10492SOL     OW32374   2.638   6.322   0.415
10492SOL    HW132375   2.730   6.298   0.445
10492SOL    HW232376   2.596   6.384   0.480
10493SOL     OW32377   3.533   5.611   0.854
10493SOL    HW132378   3.585   5.688   0.815
10493SOL    HW232379   3.581   5.576   0.935
10494SOL     OW32380   0.194   5.179   4.149
10494SOL    HW132381   0.182   5.145   4.242
10494SOL    HW232382   0.105   5.185   4.104
10495SOL     OW32383   6.154   6.728   0.349
10495SOL    HW132384   6.220   6.755   0.419
10495SOL    HW232385   6.130   6.632   0.363
10496SOL     OW32386   0.531   4.956   5.947
10496SOL    HW132387   0.455   4.948   5.882
10496SOL    HW232388   0.520   4.888   6.019
10497SOL     OW32389   3.463   6.419   0.726
10497SOL    HW132390   3.527   6.390   0.655
10497SOL    HW232391   3.474   6.361   0.806
10498SOL     OW32392   3.226   3.370   6.931
10498SOL    HW132393   3.268   3.357   7.021
10498SOL    HW232394   3.295   3.404   6.867
10499SOL     OW32395   4.135   4.823   3.030
10499SOL    HW132396   4.112   4.840   2.934
10499SOL    HW232397   4.171   4.731   3.039
10500SOL     OW32398   1.893   2.952   4.986
10500SOL    HW132399   1.968   2.899   5.024
10500SOL    HW232400   1.813   2.892   4.973
10501SOL     OW32401   3.595   4.937   3.533
10501SOL    HW132402   3.566   4.903   3.622
10501SOL    HW232403   3.514   4.948   3.474
10502SOL     OW32404   3.005   3.817   2.549
10502SOL    HW132405   3.007   3.835   2.450
10502SOL    HW232406   2.954   3.732   2.566
10503SOL     OW32407   6.652   0.893   0.396
10503SOL    HW132408   6.680   0.978   0.351
10503SOL    HW232409   6.574   0.912   0.456
10504SOL     OW32410   1.416   3.065   5.738
10504SOL    HW132411   1.355   3.097   5.666
10504SOL    HW232412   1.487   3.007   5.699
10505SOL     OW32413   5.886   6.580   0.766
10505SOL    HW132414   5.947   6.506   0.796
10505SOL    HW232415   5.895   6.658   0.829
10506SOL     OW32416   1.551   4.769   5.038
10506SOL    HW132417   1.459   4.732   5.033
10506SOL    HW232418   1.606   4.715   5.102
10507SOL     OW32419   1.884   6.175   5.679
10507SOL    HW132420   1.788   6.179   5.652
10507SOL    HW232421   1.891   6.178   5.778
10508SOL     OW32422   1.795   6.334   0.999
10508SOL    HW132423   1.773   6.417   1.051
10508SOL    HW232424   1.730   6.323   0.925
10509SOL     OW32425   4.910   3.429   2.329
10509SOL    HW132426   4.849   3.459   2.403
10509SOL    HW232427   4.998   3.475   2.338
10510SOL     OW32428   5.884   6.168   2.860
10510SOL    HW132429   5.909   6.179   2.764
10510SOL    HW232430   5.859   6.072   2.877
10511SOL     OW32431   3.881   1.690   0.762
10511SOL    HW132432   3.978   1.680   0.741
10511SOL    HW232433   3.827   1.679   0.679
10512SOL     OW32434   4.287   0.857   4.923
10512SOL    HW132435   4.333   0.797   4.858
10512SOL    HW232436   4.191   0.830   4.932
10513SOL     OW32437   3.698   3.629   0.475
10513SOL    HW132438   3.708   3.681   0.559
10513SOL    HW232439   3.652   3.542   0.494
10514SOL     OW32440   1.303   5.508   1.633
10514SOL    HW132441   1.257   5.485   1.547
10514SOL    HW232442   1.299   5.607   1.647
10515SOL     OW32443   2.146   3.860   4.617
10515SOL    HW132444   2.173   3.844   4.712
10515SOL    HW232445   2.073   3.796   4.592
10516SOL     OW32446   5.331   1.511   2.103
10516SOL    HW132447   5.360   1.585   2.164
10516SOL    HW232448   5.232   1.517   2.088
10517SOL     OW32449   0.741   1.778   1.759
10517SOL    HW132450   0.667   1.806   1.697
10517SOL    HW232451   0.712   1.698   1.811
10518SOL     OW32452   0.881   6.108   2.241
10518SOL    HW132453   0.906   6.023   2.289
10518SOL    HW232454   0.956   6.173   2.247
10519SOL     OW32455   2.267   6.384   0.666
10519SOL    HW132456   2.245   6.330   0.584
10519SOL    HW232457   2.187   6.389   0.725
10520SOL     OW32458   2.806   2.629   6.293
10520SOL    HW132459   2.732   2.653   6.230
10520SOL    HW232460   2.823   2.530   6.288
10521SOL     OW32461   6.289   2.276   2.868
10521SOL    HW132462   6.255   2.283   2.961
10521SOL    HW232463   6.328   2.185   2.853
10522SOL     OW32464   5.025   1.745   3.464
10522SOL    HW132465   5.071   1.754   3.377
10522SOL    HW232466   4.928   1.770   3.454
10523SOL     OW32467   0.667   4.157   1.776
10523SOL    HW132468   0.680   4.198   1.866
10523SOL    HW232469   0.751   4.111   1.747
10524SOL     OW32470   5.744   6.330   4.438
10524SOL    HW132471   5.700   6.241   4.446
10524SOL    HW232472   5.842   6.317   4.422
10525SOL     OW32473   4.772   1.813   3.391
10525SOL    HW132474   4.735   1.771   3.308
10525SOL    HW232475   4.713   1.791   3.469
10526SOL     OW32476   1.464   5.999   5.759
10526SOL    HW132477   1.369   5.971   5.771
10526SOL    HW232478   1.517   5.923   5.723
10527SOL     OW32479   0.284   6.399   5.838
10527SOL    HW132480   0.345   6.449   5.900
10527SOL    HW232481   0.189   6.426   5.857
10528SOL     OW32482   2.301   5.694   5.335
10528SOL    HW132483   2.369   5.721   5.403
10528SOL    HW232484   2.219   5.659   5.382
10529SOL     OW32485   6.703   5.104   0.183
10529SOL    HW132486   6.736   5.065   0.268
10529SOL    HW232487   6.655   5.190   0.203
10530SOL     OW32488   6.316   0.666   1.356
10530SOL    HW132489   6.335   0.568   1.353
10530SOL    HW232490   6.400   0.717   1.338
10531SOL     OW32491   3.345   1.716   6.281
10531SOL    HW132492   3.290   1.656   6.340
10531SOL    HW232493   3.288   1.790   6.247
10532SOL     OW32494   4.646   5.894   5.742
10532SOL    HW132495   4.593   5.978   5.751
10532SOL    HW232496   4.683   5.868   5.831
10533SOL     OW32497   4.432   6.700   3.174
10533SOL    HW132498   4.373   6.776   3.199
10533SOL    HW232499   4.482   6.722   3.090
10534SOL     OW32500   1.080   6.593   4.142
10534SOL    HW132501   1.116   6.507   4.106
10534SOL    HW232502   1.048   6.579   4.236
10535SOL     OW32503   4.317   1.717   2.217
10535SOL    HW132504   4.293   1.785   2.287
10535SOL    HW232505   4.342   1.631   2.262
10536SOL     OW32506   5.891   3.851   4.322
10536SOL    HW132507   5.861   3.891   4.236
10536SOL    HW232508   5.854   3.904   4.398
10537SOL     OW32509   3.661   1.003   3.077
10537SOL    HW132510   3.601   0.948   3.135
10537SOL    HW232511   3.655   0.971   2.982
10538SOL     OW32512   6.102   2.739   3.590
10538SOL    HW132513   6.130   2.764   3.682
10538SOL    HW232514   6.088   2.640   3.585
10539SOL     OW32515   6.452   6.832   2.641
10539SOL    HW132516   6.478   6.833   2.545
10539SOL    HW232517   6.433   6.925   2.672
10540SOL     OW32518   1.774   3.524   6.240
10540SOL    HW132519   1.796   3.512   6.337
10540SOL    HW232520   1.844   3.479   6.185
10541SOL     OW32521   3.255   2.343   6.113
10541SOL    HW132522   3.231   2.261   6.062
10541SOL    HW232523   3.207   2.422   6.074
10542SOL     OW32524   4.149   6.358   2.019
10542SOL    HW132525   4.057   6.324   2.002
10542SOL    HW232526   4.148   6.420   2.098
10543SOL     OW32527   1.791   2.614   4.402
10543SOL    HW132528   1.763   2.710   4.399
10543SOL    HW232529   1.715   2.556   4.373
10544SOL     OW32530   2.847   2.288   2.339
10544SOL    HW132531   2.865   2.383   2.313
10544SOL    HW232532   2.793   2.244   2.268
10545SOL     OW32533   1.536   3.196   1.928
10545SOL    HW132534   1.632   3.178   1.905
10545SOL    HW232535   1.484   3.207   1.844
10546SOL     OW32536   1.960   6.795   5.474
10546SOL    HW132537   2.029   6.760   5.536
10546SOL    HW232538   1.998   6.801   5.382
10547SOL     OW32539   3.798   6.603   6.173
10547SOL    HW132540   3.820   6.517   6.219
10547SOL    HW232541   3.807   6.591   6.074
10548SOL     OW32542   0.922   5.324   3.442
10548SOL    HW132543   0.930   5.385   3.521
10548SOL    HW232544   1.005   5.269   3.433
10549SOL     OW32545   0.088   1.457   2.786
10549SOL    HW132546   0.057   1.539   2.739
10549SOL    HW232547   0.147   1.482   2.863
10550SOL     OW32548   6.058   5.762   3.136
10550SOL    HW132549   6.038   5.668   3.165
10550SOL    HW232550   5.995   5.788   3.063
10551SOL     OW32551   4.466   0.222   4.481
10551SOL    HW132552   4.431   0.268   4.563
10551SOL    HW232553   4.564   0.241   4.472
10552SOL     OW32554   2.662   0.013   3.177
10552SOL    HW132555   2.590   0.069   3.137
10552SOL    HW232556   2.638   7.014   3.271
10553SOL     OW32557   5.189   5.210   1.312
10553SOL    HW132558   5.208   5.308   1.317
10553SOL    HW232559   5.112   5.194   1.250
10554SOL     OW32560   6.238   5.330   1.360
10554SOL    HW132561   6.179   5.329   1.441
10554SOL    HW232562   6.333   5.337   1.388
10555SOL     OW32563   3.454   3.201   2.029
10555SOL    HW132564   3.495   3.254   1.954
10555SOL    HW232565   3.355   3.201   2.019
10556SOL     OW32566   2.534   2.218   1.914
10556SOL    HW132567   2.441   2.249   1.894
10556SOL    HW232568   2.594   2.242   1.837
10557SOL     OW32569   0.700   3.788   3.009
10557SOL    HW132570   0.606   3.817   3.023
10557SOL    HW232571   0.743   3.846   2.940
10558SOL     OW32572   4.538   4.980   4.396
10558SOL    HW132573   4.465   5.002   4.332
10558SOL    HW232574   4.619   4.949   4.346
10559SOL     OW32575   3.745   5.832   1.059
10559SOL    HW132576   3.833   5.880   1.063
10559SOL    HW232577   3.761   5.734   1.053
10560SOL     OW32578   5.503   7.005   3.858
10560SOL    HW132579   5.539   0.070   3.836
10560SOL    HW232580   5.419   6.989   3.805
10561SOL     OW32581   0.852   5.300   5.929
10561SOL    HW132582   0.757   5.270   5.937
10561SOL    HW232583   0.906   5.229   5.883
10562SOL     OW32584   3.765   6.668   2.807
10562SOL    HW132585   3.804   6.733   2.741
10562SOL    HW232586   3.667   6.685   2.817
10563SOL     OW32587   2.022   6.065   2.039
10563SOL    HW132588   2.028   5.975   2.082
10563SOL    HW232589   2.000   6.134   2.108
10564SOL     OW32590   5.292   4.569   3.299
10564SOL    HW132591   5.263   4.665   3.303
10564SOL    HW232592   5.364   4.559   3.230
10565SOL     OW32593   0.227   1.570   4.966
10565SOL    HW132594   0.195   1.551   4.874
10565SOL    HW232595   0.316   1.526   4.980
10566SOL     OW32596   4.005   1.948   0.770
10566SOL    HW132597   3.962   1.860   0.752
10566SOL    HW232598   3.953   2.021   0.724
10567SOL     OW32599   3.219   2.581   6.825
10567SOL    HW132600   3.124   2.564   6.798
10567SOL    HW232601   3.226   2.577   6.925
10568SOL     OW32602   5.670   2.309   5.768
10568SOL    HW132603   5.573   2.304   5.745
10568SOL    HW232604   5.709   2.392   5.728
10569SOL     OW32605   5.274   0.538   1.013
10569SOL    HW132606   5.265   0.637   1.028
10569SOL    HW232607   5.215   0.511   0.936
10570SOL     OW32608   1.607   4.170   3.048
10570SOL    HW132609   1.662   4.244   3.009
10570SOL    HW232610   1.631   4.084   3.005
10571SOL     OW32611   0.420   3.943   5.313
10571SOL    HW132612   0.458   4.000   5.386
10571SOL    HW232613   0.494   3.891   5.269
10572SOL     OW32614   6.573   4.706   0.751
10572SOL    HW132615   6.579   4.784   0.689
10572SOL    HW232616   6.656   4.651   0.743
10573SOL     OW32617   6.208   2.799   3.895
10573SOL    HW132618   6.307   2.805   3.881
10573SOL    HW232619   6.186   2.709   3.935
10574SOL     OW32620   5.660   2.685   2.578
10574SOL    HW132621   5.752   2.715   2.602
10574SOL    HW232622   5.594   2.756   2.603
10575SOL     OW32623   5.043   6.967   2.656
10575SOL    HW132624   5.122   7.024   2.676
10575SOL    HW232625   5.007   6.990   2.565
10576SOL     OW32626   1.790   3.211   5.025
10576SOL    HW132627   1.811   3.115   5.006
10576SOL    HW232628   1.702   3.235   4.985
10577SOL     OW32629   3.593   4.491   6.799
10577SOL    HW132630   3.645   4.409   6.822
10577SOL    HW232631   3.648   4.551   6.741
10578SOL     OW32632   1.554   3.750   2.552
10578SOL    HW132633   1.499   3.667   2.561
10578SOL    HW232634   1.593   3.754   2.459
10579SOL     OW32635   6.874   3.053   7.013
10579SOL    HW132636   6.932   2.974   0.004
10579SOL    HW232637   6.831   3.046   6.923
10580SOL     OW32638   5.621   6.206   6.869
10580SOL    HW132639   5.599   6.303   6.879
10580SOL    HW232640   5.678   6.178   6.947
10581SOL     OW32641   4.382   0.989   2.469
10581SOL    HW132642   4.433   0.907   2.442
10581SOL    HW232643   4.346   0.975   2.561
10582SOL     OW32644   0.024   3.258   0.040
10582SOL    HW132645   6.977   3.194   0.018
10582SOL    HW232646   0.000   3.310   0.122
10583SOL     OW32647   4.535   2.303   5.488
10583SOL    HW132648   4.548   2.293   5.587
10583SOL    HW232649   4.551   2.216   5.443
10584SOL     OW32650   6.416   1.004   3.536
10584SOL    HW132651   6.484   0.984   3.606
10584SOL    HW232652   6.354   0.926   3.525
10585SOL     OW32653   1.450   1.338   5.313
10585SOL    HW132654   1.463   1.239   5.315
10585SOL    HW232655   1.483   1.374   5.226
10586SOL     OW32656   4.610   3.690   5.927
10586SOL    HW132657   4.701   3.669   5.963
10586SOL    HW232658   4.617   3.762   5.858
10587SOL     OW32659   2.102   5.216   4.862
10587SOL    HW132660   2.183   5.157   4.867
10587SOL    HW232661   2.127   5.308   4.892
10588SOL     OW32662   1.335   3.943   3.935
10588SOL    HW132663   1.392   3.960   3.854
10588SOL    HW232664   1.353   3.851   3.969
10589SOL     OW32665   6.189   0.341   3.749
10589SOL    HW132666   6.158   0.266   3.691
10589SOL    HW232667   6.111   0.400   3.771
10590SOL     OW32668   0.512   6.051   1.918
10590SOL    HW132669   0.455   6.009   1.847
10590SOL    HW232670   0.525   6.148   1.897
10591SOL     OW32671   6.500   4.103   2.488
10591SOL    HW132672   6.568   4.176   2.496
10591SOL    HW232673   6.423   4.135   2.433
10592SOL     OW32674   6.934   3.104   4.751
10592SOL    HW132675   7.019   3.155   4.745
10592SOL    HW232676   6.910   3.068   4.660
10593SOL     OW32677   3.691   5.966   3.464
10593SOL    HW132678   3.711   5.974   3.562
10593SOL    HW232679   3.593   5.950   3.450
10594SOL     OW32680   3.729   5.804   3.915
10594SOL    HW132681   3.652   5.867   3.917
10594SOL    HW232682   3.790   5.823   3.991
10595SOL     OW32683   5.189   6.148   0.880
10595SOL    HW132684   5.259   6.082   0.906
10595SOL    HW232685   5.111   6.141   0.942
10596SOL     OW32686   5.656   3.747   0.147
10596SOL    HW132687   5.591   3.807   0.099
10596SOL    HW232688   5.733   3.727   0.087
10597SOL     OW32689   1.579   6.754   5.315
10597SOL    HW132690   1.588   6.655   5.320
10597SOL    HW232691   1.494   6.783   5.358
10598SOL     OW32692   3.551   1.407   0.845
10598SOL    HW132693   3.513   1.333   0.901
10598SOL    HW232694   3.591   1.476   0.905
10599SOL     OW32695   0.743   2.039   0.747
10599SOL    HW132696   0.815   2.087   0.797
10599SOL    HW232697   0.681   2.106   0.706
10600SOL     OW32698   4.288   1.477   1.529
10600SOL    HW132699   4.265   1.532   1.610
10600SOL    HW232700   4.224   1.400   1.522
10601SOL     OW32701   1.936   1.651   4.775
10601SOL    HW132702   2.032   1.636   4.749
10601SOL    HW232703   1.899   1.567   4.815
10602SOL     OW32704   6.862   6.757   1.580
10602SOL    HW132705   6.831   6.774   1.486
10602SOL    HW232706   6.874   6.658   1.593
10603SOL     OW32707   5.877   0.502   2.740
10603SOL    HW132708   5.830   0.488   2.828
10603SOL    HW232709   5.813   0.483   2.665
10604SOL     OW32710   5.488   2.639   5.019
10604SOL    HW132711   5.497   2.718   4.958
10604SOL    HW232712   5.493   2.555   4.966
10605SOL     OW32713   4.315   2.267   1.461
10605SOL    HW132714   4.226   2.267   1.416
10605SOL    HW232715   4.303   2.288   1.558
10606SOL     OW32716   5.980   1.468   0.605
10606SOL    HW132717   6.029   1.491   0.521
10606SOL    HW232718   5.886   1.503   0.600
10607SOL     OW32719   2.390   4.808   0.759
10607SOL    HW132720   2.354   4.883   0.703
10607SOL    HW232721   2.317   4.773   0.818
10608SOL     OW32722   5.358   4.122   3.050
10608SOL    HW132723   5.398   4.179   2.979
10608SOL    HW232724   5.302   4.178   3.111
10609SOL     OW32725   5.831   6.567   6.426
10609SOL    HW132726   5.919   6.519   6.417
10609SOL    HW232727   5.838   6.636   6.499
10610SOL     OW32728   0.622   2.113   2.859
10610SOL    HW132729   0.643   2.065   2.774
10610SOL    HW232730   0.687   2.086   2.930
10611SOL     OW32731   4.113   5.095   5.212
10611SOL    HW132732   4.209   5.069   5.224
10611SOL    HW232733   4.059   5.014   5.189
10612SOL     OW32734   5.326   2.604   3.427
10612SOL    HW132735   5.334   2.703   3.438
10612SOL    HW232736   5.320   2.561   3.517
10613SOL     OW32737   5.040   5.167   4.910
10613SOL    HW132738   4.953   5.148   4.865
10613SOL    HW232739   5.029   5.245   4.973
10614SOL     OW32740   3.873   2.198   6.838
10614SOL    HW132741   3.828   2.157   6.758
10614SOL    HW232742   3.924   2.279   6.809
10615SOL     OW32743   2.751   2.328   5.364
10615SOL    HW132744   2.658   2.364   5.366
10615SOL    HW232745   2.763   2.273   5.280
10616SOL     OW32746   1.399   5.429   0.085
10616SOL    HW132747   1.309   5.395   0.113
10616SOL    HW232748   1.466   5.411   0.158
10617SOL     OW32749   1.945   2.509   0.325
10617SOL    HW132750   1.853   2.541   0.349
10617SOL    HW232751   1.959   2.519   0.227
10618SOL     OW32752   0.600   4.873   4.055
10618SOL    HW132753   0.680   4.929   4.038
10618SOL    HW232754   0.618   4.779   4.027
10619SOL     OW32755   1.200   2.836   0.988
10619SOL    HW132756   1.238   2.908   1.046
10619SOL    HW232757   1.159   2.876   0.907
10620SOL     OW32758   3.904   1.033   5.543
10620SOL    HW132759   3.840   1.074   5.608
10620SOL    HW232760   3.891   0.933   5.542
10621SOL     OW32761   0.899   4.226   4.338
10621SOL    HW132762   0.886   4.295   4.409
10621SOL    HW232763   0.810   4.195   4.305
10622SOL     OW32764   4.133   1.875   5.797
10622SOL    HW132765   4.088   1.912   5.878
10622SOL    HW232766   4.117   1.935   5.719
10623SOL     OW32767   5.519   4.548   5.527
10623SOL    HW132768   5.440   4.561   5.588
10623SOL    HW232769   5.593   4.608   5.557
10624SOL     OW32770   6.800   1.738   6.339
10624SOL    HW132771   6.751   1.778   6.417
10624SOL    HW232772   6.898   1.755   6.349
10625SOL     OW32773   5.747   5.648   6.833
10625SOL    HW132774   5.697   5.591   6.898
10625SOL    HW232775   5.843   5.623   6.833
10626SOL     OW32776   5.580   3.428   2.399
10626SOL    HW132777   5.594   3.452   2.495
10626SOL    HW232778   5.492   3.382   2.388
10627SOL     OW32779   5.862   4.524   5.469
10627SOL    HW132780   5.818   4.493   5.384
10627SOL    HW232781   5.817   4.608   5.501
10628SOL     OW32782   2.636   5.732   1.550
10628SOL    HW132783   2.538   5.751   1.550
10628SOL    HW232784   2.658   5.673   1.472
10629SOL     OW32785   4.418   5.292   3.958
10629SOL    HW132786   4.374   5.355   3.895
10629SOL    HW232787   4.388   5.312   4.052
10630SOL     OW32788   3.692   0.969   1.348
10630SOL    HW132789   3.682   1.065   1.322
10630SOL    HW232790   3.779   0.935   1.312
10631SOL     OW32791   3.693   5.969   1.729
10631SOL    HW132792   3.759   6.001   1.796
10631SOL    HW232793   3.665   6.045   1.670
10632SOL     OW32794   5.725   0.247   4.427
10632SOL    HW132795   5.649   0.310   4.409
10632SOL    HW232796   5.782   0.239   4.345
10633SOL     OW32797   2.293   2.826   0.688
10633SOL    HW132798   2.326   2.737   0.659
10633SOL    HW232799   2.355   2.897   0.654
10634SOL     OW32800   0.772   4.402   0.138
10634SOL    HW132801   0.849   4.417   0.199
10634SOL    HW232802   0.769   4.306   0.110
10635SOL     OW32803   3.026   4.350   6.997
10635SOL    HW132804   2.972   4.426   6.960
10635SOL    HW232805   2.971   4.266   6.994
10636SOL     OW32806   6.475   3.119   0.869
10636SOL    HW132807   6.558   3.127   0.814
10636SOL    HW232808   6.447   3.209   0.901
10637SOL     OW32809   2.486   0.487   5.863
10637SOL    HW132810   2.504   0.550   5.788
10637SOL    HW232811   2.387   0.482   5.881
10638SOL     OW32812   5.650   5.238   6.555
10638SOL    HW132813   5.640   5.259   6.653
10638SOL    HW232814   5.725   5.291   6.517
10639SOL     OW32815   6.330   5.153   6.994
10639SOL    HW132816   6.255   5.099   6.955
10639SOL    HW232817   6.416   5.102   6.984
10640SOL     OW32818   3.514   6.168   4.029
10640SOL    HW132819   3.546   6.203   4.118
10640SOL    HW232820   3.543   6.230   3.957
10641SOL     OW32821   1.102   1.400   3.781
10641SOL    HW132822   1.082   1.412   3.878
10641SOL    HW232823   1.017   1.402   3.728
10642SOL     OW32824   0.136   2.307   6.378
10642SOL    HW132825   0.143   2.309   6.477
10642SOL    HW232826   0.227   2.293   6.338
10643SOL     OW32827   2.912   5.212   5.736
10643SOL    HW132828   2.985   5.260   5.687
10643SOL    HW232829   2.950   5.167   5.817
10644SOL     OW32830   0.332   3.686   3.645
10644SOL    HW132831   0.361   3.650   3.557
10644SOL    HW232832   0.235   3.708   3.643
10645SOL     OW32833   2.237   2.997   3.596
10645SOL    HW132834   2.314   2.933   3.605
10645SOL    HW232835   2.250   3.053   3.515
10646SOL     OW32836   4.934   0.778   2.881
10646SOL    HW132837   4.899   0.811   2.969
10646SOL    HW232838   5.021   0.731   2.895
10647SOL     OW32839   4.314   5.646   4.726
10647SOL    HW132840   4.376   5.569   4.716
10647SOL    HW232841   4.245   5.625   4.795
10648SOL     OW32842   4.804   3.803   5.640
10648SOL    HW132843   4.728   3.862   5.665
10648SOL    HW232844   4.888   3.857   5.633
10649SOL     OW32845   6.069   3.327   3.789
10649SOL    HW132846   6.117   3.264   3.850
10649SOL    HW232847   6.120   3.413   3.783
10650SOL     OW32848   1.033   6.921   2.678
10650SOL    HW132849   0.973   6.842   2.661
10650SOL    HW232850   1.060   6.923   2.774
10651SOL     OW32851   2.025   5.568   6.006
10651SOL    HW132852   2.033   5.662   6.041
10651SOL    HW232853   1.934   5.556   5.965
10652SOL     OW32854   2.801   0.486   6.853
10652SOL    HW132855   2.764   0.479   6.760
10652SOL    HW232856   2.797   0.396   6.897
10653SOL     OW32857   5.536   6.129   4.496
10653SOL    HW132858   5.473   6.203   4.519
10653SOL    HW232859   5.592   6.106   4.575
10654SOL     OW32860   6.221   1.368   4.412
10654SOL    HW132861   6.310   1.414   4.407
10654SOL    HW232862   6.235   1.272   4.434
10655SOL     OW32863   6.526   5.533   0.713
10655SOL    HW132864   6.469   5.455   0.686
10655SOL    HW232865   6.467   5.606   0.748
10656SOL     OW32866   6.285   0.524   6.019
10656SOL    HW132867   6.315   0.493   6.109
10656SOL    HW232868   6.241   0.613   6.027
10657SOL     OW32869   4.651   6.800   5.668
10657SOL    HW132870   4.745   6.827   5.687
10657SOL    HW232871   4.590   6.844   5.733
10658SOL     OW32872   0.952   1.748   6.040
10658SOL    HW132873   1.051   1.756   6.039
10658SOL    HW232874   0.915   1.775   5.951
10659SOL     OW32875   0.514   5.724   0.185
10659SOL    HW132876   0.547   5.807   0.140
10659SOL    HW232877   0.585   5.688   0.245
10660SOL     OW32878   6.142   2.475   6.693
10660SOL    HW132879   6.116   2.413   6.620
10660SOL    HW232880   6.130   2.430   6.782
10661SOL     OW32881   3.470   5.621   5.566
10661SOL    HW132882   3.433   5.667   5.648
10661SOL    HW232883   3.561   5.657   5.546
10662SOL     OW32884   3.008   1.295   0.699
10662SOL    HW132885   2.915   1.259   0.689
10662SOL    HW232886   3.064   1.229   0.749
10663SOL     OW32887   0.231   3.212   4.270
10663SOL    HW132888   0.306   3.274   4.291
10663SOL    HW232889   0.184   3.244   4.187
10664SOL     OW32890   1.100   6.232   5.029
10664SOL    HW132891   1.036   6.155   5.025
10664SOL    HW232892   1.116   6.267   4.937
10665SOL     OW32893   3.427   3.811   0.408
10665SOL    HW132894   3.480   3.896   0.401
10665SOL    HW232895   3.461   3.745   0.341
10666SOL     OW32896   4.337   3.620   1.102
10666SOL    HW132897   4.431   3.642   1.126
10666SOL    HW232898   4.331   3.524   1.074
10667SOL     OW32899   5.653   2.629   3.918
10667SOL    HW132900   5.611   2.707   3.964
10667SOL    HW232901   5.753   2.638   3.921
10668SOL     OW32902   3.704   3.649   6.010
10668SOL    HW132903   3.632   3.704   6.052
10668SOL    HW232904   3.672   3.555   5.998
10669SOL     OW32905   6.311   2.663   1.752
10669SOL    HW132906   6.232   2.642   1.695
10669SOL    HW232907   6.324   2.591   1.820
10670SOL     OW32908   4.979   4.647   3.805
10670SOL    HW132909   5.073   4.612   3.799
10670SOL    HW232910   4.929   4.596   3.875
10671SOL     OW32911   2.153   3.297   4.774
10671SOL    HW132912   2.152   3.397   4.782
10671SOL    HW232913   2.198   3.258   4.855
10672SOL     OW32914   6.195   4.750   1.367
10672SOL    HW132915   6.206   4.699   1.452
10672SOL    HW232916   6.198   4.848   1.387
10673SOL     OW32917   3.177   1.478   1.205
10673SOL    HW132918   3.081   1.502   1.190
10673SOL    HW232919   3.193   1.383   1.177
10674SOL     OW32920   3.758   3.406   4.403
10674SOL    HW132921   3.756   3.411   4.503
10674SOL    HW232922   3.767   3.311   4.374
10675SOL     OW32923   3.636   6.388   5.369
10675SOL    HW132924   3.608   6.361   5.462
10675SOL    HW232925   3.559   6.434   5.324
10676SOL     OW32926   1.196   1.006   4.770
10676SOL    HW132927   1.177   1.092   4.722
10676SOL    HW232928   1.263   1.023   4.843
10677SOL     OW32929   0.068   2.025   7.025
10677SOL    HW132930   0.097   2.016   0.095
10677SOL    HW232931   7.014   1.967   7.009
10678SOL     OW32932   3.784   5.209   2.433
10678SOL    HW132933   3.732   5.180   2.513
10678SOL    HW232934   3.817   5.129   2.383
10679SOL     OW32935   5.107   3.946   0.517
10679SOL    HW132936   5.037   4.001   0.562
10679SOL    HW232937   5.149   3.999   0.444
10680SOL     OW32938   4.934   1.181   5.676
10680SOL    HW132939   4.972   1.191   5.584
10680SOL    HW232940   4.836   1.165   5.669
10681SOL     OW32941   2.633   3.238   5.396
10681SOL    HW132942   2.658   3.330   5.363
10681SOL    HW232943   2.609   3.180   5.318
10682SOL     OW32944   4.841   3.312   6.073
10682SOL    HW132945   4.892   3.247   6.129
10682SOL    HW232946   4.841   3.282   5.978
10683SOL     OW32947   1.970   0.829   3.078
10683SOL    HW132948   2.067   0.839   3.059
10683SOL    HW232949   1.953   0.744   3.127
10684SOL     OW32950   4.988   4.314   1.342
10684SOL    HW132951   5.006   4.315   1.441
10684SOL    HW232952   4.898   4.274   1.325
10685SOL     OW32953   1.213   6.870   2.456
10685SOL    HW132954   1.142   6.928   2.495
10685SOL    HW232955   1.264   6.922   2.387
10686SOL     OW32956   2.552   1.442   6.523
10686SOL    HW132957   2.514   1.349   6.523
10686SOL    HW232958   2.487   1.505   6.564
10687SOL     OW32959   0.918   3.328   3.255
10687SOL    HW132960   0.868   3.384   3.321
10687SOL    HW232961   1.007   3.304   3.292
10688SOL     OW32962   5.210   1.146   3.647
10688SOL    HW132963   5.219   1.167   3.550
10688SOL    HW232964   5.286   1.089   3.677
10689SOL     OW32965   1.140   1.375   2.909
10689SOL    HW132966   1.062   1.438   2.913
10689SOL    HW232967   1.212   1.415   2.853
10690SOL     OW32968   1.130   6.483   5.179
10690SOL    HW132969   1.175   6.538   5.108
10690SOL    HW232970   1.110   6.392   5.144
10691SOL     OW32971   3.203   6.586   1.244
10691SOL    HW132972   3.224   6.671   1.195
10691SOL    HW232973   3.252   6.585   1.331
10692SOL     OW32974   2.771   2.048   4.390
10692SOL    HW132975   2.761   1.951   4.415
10692SOL    HW232976   2.836   2.056   4.315
10693SOL     OW32977   1.189   4.849   0.388
10693SOL    HW132978   1.176   4.759   0.347
10693SOL    HW232979   1.187   4.919   0.316
10694SOL     OW32980   4.588   0.726   5.035
10694SOL    HW132981   4.587   0.826   5.041
10694SOL    HW232982   4.528   0.689   5.106
10695SOL     OW32983   5.036   4.566   1.702
10695SOL    HW132984   4.937   4.580   1.701
10695SOL    HW232985   5.082   4.654   1.697
10696SOL     OW32986   6.451   4.431   4.450
10696SOL    HW132987   6.509   4.504   4.413
10696SOL    HW232988   6.506   4.349   4.464
10697SOL     OW32989   2.910   5.629   4.840
10697SOL    HW132990   2.979   5.572   4.886
10697SOL    HW232991   2.865   5.575   4.769
10698SOL     OW32992   3.865   4.134   0.219
10698SOL    HW132993   3.773   4.094   0.221
10698SOL    HW232994   3.861   4.225   0.180
10699SOL     OW32995   3.984   3.373   1.177
10699SOL    HW132996   3.942   3.292   1.136
10699SOL    HW232997   3.987   3.447   1.110
10700SOL     OW32998   4.815   0.447   1.287
10700SOL    HW132999   4.867   0.380   1.234
10700SOL    HW233000   4.732   0.404   1.323
10701SOL     OW33001   3.399   6.222   6.392
10701SOL    HW133002   3.311   6.174   6.383
10701SOL    HW233003   3.414   6.245   6.488
10702SOL     OW33004   5.775   2.075   1.957
10702SOL    HW133005   5.745   2.014   2.030
10702SOL    HW233006   5.737   2.167   1.973
10703SOL     OW33007   0.443   1.921   5.423
10703SOL    HW133008   0.503   1.949   5.498
10703SOL    HW233009   0.356   1.971   5.429
10704SOL     OW33010   5.177   6.850   2.392
10704SOL    HW133011   5.131   6.775   2.441
10704SOL    HW233012   5.111   6.923   2.375
10705SOL     OW33013   4.663   3.367   0.810
10705SOL    HW133014   4.676   3.305   0.733
10705SOL    HW233015   4.565   3.385   0.822
10706SOL     OW33016   3.290   1.001   1.612
10706SOL    HW133017   3.341   1.079   1.650
10706SOL    HW233018   3.322   0.982   1.520
10707SOL     OW33019   4.754   6.449   3.152
10707SOL    HW133020   4.781   6.516   3.083
10707SOL    HW233021   4.730   6.363   3.107
10708SOL     OW33022   4.209   1.050   1.771
10708SOL    HW133023   4.166   1.128   1.816
10708SOL    HW233024   4.152   0.969   1.784
10709SOL     OW33025   6.256   4.641   2.359
10709SOL    HW133026   6.233   4.715   2.422
10709SOL    HW233027   6.249   4.553   2.406
10710SOL     OW33028   4.516   1.675   3.461
10710SOL    HW133029   4.537   1.583   3.494
10710SOL    HW233030   4.448   1.718   3.521
10711SOL     OW33031   2.676   6.708   2.511
10711SOL    HW133032   2.635   6.792   2.476
10711SOL    HW233033   2.775   6.721   2.521
10712SOL     OW33034   5.488   0.412   3.519
10712SOL    HW133035   5.468   0.396   3.422
10712SOL    HW233036   5.436   0.346   3.574
10713SOL     OW33037   1.643   3.991   1.674
10713SOL    HW133038   1.553   3.989   1.629
10713SOL    HW233039   1.688   4.078   1.655
10714SOL     OW33040   3.054   4.068   5.196
10714SOL    HW133041   2.959   4.040   5.213
10714SOL    HW233042   3.073   4.064   5.098
10715SOL     OW33043   5.905   0.858   2.107
10715SOL    HW133044   5.910   0.903   2.018
10715SOL    HW233045   5.815   0.877   2.148
10716SOL     OW33046   5.109   0.944   3.174
10716SOL    HW133047   5.015   0.923   3.149
10716SOL    HW233048   5.111   1.023   3.235
10717SOL     OW33049   2.588   2.521   0.158
10717SOL    HW133050   2.649   2.536   0.236
10717SOL    HW233051   2.508   2.580   0.167
10718SOL     OW33052   1.486   4.653   6.318
10718SOL    HW133053   1.562   4.718   6.316
10718SOL    HW233054   1.516   4.568   6.361
10719SOL     OW33055   0.378   5.645   4.787
10719SOL    HW133056   0.459   5.681   4.740
10719SOL    HW233057   0.296   5.675   4.739
10720SOL     OW33058   0.294   5.111   3.387
10720SOL    HW133059   0.390   5.120   3.411
10720SOL    HW233060   0.281   5.133   3.290
10721SOL     OW33061   4.943   2.732   6.150
10721SOL    HW133062   4.871   2.671   6.184
10721SOL    HW233063   4.900   2.808   6.101
10722SOL     OW33064   0.417   3.420   5.475
10722SOL    HW133065   0.485   3.388   5.410
10722SOL    HW233066   0.454   3.416   5.568
10723SOL     OW33067   5.488   6.744   0.550
10723SOL    HW133068   5.554   6.708   0.483
10723SOL    HW233069   5.406   6.688   0.549
10724SOL     OW33070   0.201   6.563   6.734
10724SOL    HW133071   0.135   6.506   6.783
10724SOL    HW233072   0.160   6.653   6.715
10725SOL     OW33073   2.328   6.065   5.783
10725SOL    HW133074   2.314   5.969   5.807
10725SOL    HW233075   2.424   6.080   5.759
10726SOL     OW33076   4.012   1.033   3.577
10726SOL    HW133077   3.947   0.974   3.528
10726SOL    HW233078   3.962   1.106   3.622
10727SOL     OW33079   2.237   6.524   6.196
10727SOL    HW133080   2.190   6.526   6.284
10727SOL    HW233081   2.226   6.433   6.154
10728SOL     OW33082   5.122   5.654   0.710
10728SOL    HW133083   5.036   5.697   0.685
10728SOL    HW233084   5.109   5.555   0.720
10729SOL     OW33085   6.258   2.164   1.205
10729SOL    HW133086   6.317   2.119   1.273
10729SOL    HW233087   6.298   2.252   1.180
10730SOL     OW33088   4.419   0.308   2.382
10730SOL    HW133089   4.443   0.314   2.285
10730SOL    HW233090   4.485   0.249   2.429
10731SOL     OW33091   4.858   0.088   1.594
10731SOL    HW133092   4.810   0.161   1.642
10731SOL    HW233093   4.797   0.009   1.584
10732SOL     OW33094   0.882   3.609   5.748
10732SOL    HW133095   0.935   3.524   5.758
10732SOL    HW233096   0.945   3.685   5.733
10733SOL     OW33097   5.686   1.551   0.558
10733SOL    HW133098   5.635   1.599   0.487
10733SOL    HW233099   5.657   1.583   0.648
10734SOL     OW33100   6.666   2.889   1.993
10734SOL    HW133101   6.621   2.913   2.079
10734SOL    HW233102   6.753   2.938   1.985
10735SOL     OW33103   0.340   4.927   2.772
10735SOL    HW133104   0.438   4.939   2.787
10735SOL    HW233105   0.320   4.830   2.757
10736SOL     OW33106   2.135   0.779   4.023
10736SOL    HW133107   2.067   0.844   3.986
10736SOL    HW233108   2.091   0.720   4.090
10737SOL     OW33109   6.615   2.179   0.819
10737SOL    HW133110   6.677   2.105   0.793
10737SOL    HW233111   6.621   2.252   0.751
10738SOL     OW33112   3.846   0.260   3.751
10738SOL    HW133113   3.831   0.163   3.770
10738SOL    HW233114   3.918   0.270   3.682
10739SOL     OW33115   2.939   1.716   1.892
10739SOL    HW133116   2.871   1.663   1.942
10739SOL    HW233117   2.918   1.814   1.902
10740SOL     OW33118   4.528   5.312   3.339
10740SOL    HW133119   4.460   5.376   3.374
10740SOL    HW233120   4.511   5.296   3.241
10741SOL     OW33121   3.682   0.683   2.627
10741SOL    HW133122   3.597   0.637   2.602
10741SOL    HW233123   3.723   0.723   2.546
10742SOL     OW33124   6.652   5.265   0.493
10742SOL    HW133125   6.729   5.203   0.512
10742SOL    HW233126   6.626   5.313   0.576
10743SOL     OW33127   2.514   2.646   5.305
10743SOL    HW133128   2.482   2.694   5.223
10743SOL    HW233129   2.612   2.662   5.317
10744SOL     OW33130   5.461   1.929   0.605
10744SOL    HW133131   5.431   1.997   0.672
10744SOL    HW233132   5.561   1.919   0.611
10745SOL     OW33133   6.745   5.754   6.267
10745SOL    HW133134   6.781   5.671   6.309
10745SOL    HW233135   6.650   5.767   6.295
10746SOL     OW33136   1.154   4.365   5.937
10746SOL    HW133137   1.252   4.367   5.955
10746SOL    HW233138   1.121   4.457   5.919
10747SOL     OW33139   3.471   1.950   4.280
10747SOL    HW133140   3.506   1.962   4.187
10747SOL    HW233141   3.507   2.023   4.338
10748SOL     OW33142   5.068   1.453   2.351
10748SOL    HW133143   4.974   1.486   2.341
10748SOL    HW233144   5.080   1.370   2.296
10749SOL     OW33145   2.421   0.213   6.759
10749SOL    HW133146   2.498   0.177   6.707
10749SOL    HW233147   2.384   0.141   6.818
10750SOL     OW33148   3.995   6.847   6.135
10750SOL    HW133149   3.920   6.887   6.188
10750SOL    HW233150   4.066   6.814   6.198
10751SOL     OW33151   2.294   5.514   4.009
10751SOL    HW133152   2.343   5.588   3.964
10751SOL    HW233153   2.298   5.432   3.951
10752SOL     OW33154   5.294   4.933   3.926
10752SOL    HW133155   5.221   5.002   3.933
10752SOL    HW233156   5.253   4.842   3.924
10753SOL     OW33157   6.557   3.444   4.472
10753SOL    HW133158   6.548   3.358   4.522
10753SOL    HW233159   6.653   3.471   4.468
10754SOL     OW33160   0.976   0.127   2.432
10754SOL    HW133161   0.937   0.142   2.341
10754SOL    HW233162   0.942   0.197   2.495
10755SOL     OW33163   6.446   5.860   2.389
10755SOL    HW133164   6.454   5.773   2.437
10755SOL    HW233165   6.432   5.842   2.291
10756SOL     OW33166   0.706   7.023   5.539
10756SOL    HW133167   0.796   0.009   5.497
10756SOL    HW233168   0.714   6.960   5.617
10757SOL     OW33169   2.708   3.038   1.179
10757SOL    HW133170   2.794   3.013   1.225
10757SOL    HW233171   2.696   2.980   1.099
10758SOL     OW33172   0.754   5.201   3.848
10758SOL    HW133173   0.657   5.178   3.841
10758SOL    HW233174   0.792   5.159   3.931
10759SOL     OW33175   6.979   1.440   6.562
10759SOL    HW133176   6.965   1.524   6.614
10759SOL    HW233177   7.001   1.365   6.624
10760SOL     OW33178   5.606   1.635   4.840
10760SOL    HW133179   5.548   1.714   4.859
10760SOL    HW233180   5.670   1.621   4.915
10761SOL     OW33181   2.713   5.225   5.383
10761SOL    HW133182   2.693   5.252   5.289
10761SOL    HW233183   2.766   5.140   5.383
10762SOL     OW33184   2.882   1.311   4.805
10762SOL    HW133185   2.862   1.279   4.712
10762SOL    HW233186   2.948   1.249   4.847
10763SOL     OW33187   4.329   6.371   3.825
10763SOL    HW133188   4.385   6.451   3.804
10763SOL    HW233189   4.385   6.288   3.815
10764SOL     OW33190   4.756   0.340   4.855
10764SOL    HW133191   4.822   0.341   4.780
10764SOL    HW233192   4.701   0.257   4.851
10765SOL     OW33193   6.040   3.866   0.398
10765SOL    HW133194   6.071   3.919   0.477
10765SOL    HW233195   5.940   3.857   0.401
10766SOL     OW33196   3.600   3.497   1.366
10766SOL    HW133197   3.656   3.418   1.343
10766SOL    HW233198   3.512   3.465   1.404
10767SOL     OW33199   4.845   1.836   2.094
10767SOL    HW133200   4.810   1.911   2.150
10767SOL    HW233201   4.776   1.763   2.090
10768SOL     OW33202   6.312   4.731   6.812
10768SOL    HW133203   6.357   4.665   6.871
10768SOL    HW233204   6.233   4.688   6.767
10769SOL     OW33205   1.871   3.738   5.280
10769SOL    HW133206   1.929   3.678   5.334
10769SOL    HW233207   1.777   3.703   5.280
10770SOL     OW33208   3.802   5.982   3.723
10770SOL    HW133209   3.866   6.014   3.792
10770SOL    HW233210   3.753   5.902   3.758
10771SOL     OW33211   2.292   1.273   4.037
10771SOL    HW133212   2.352   1.352   4.050
10771SOL    HW233213   2.346   1.189   4.039
10772SOL     OW33214   5.372   5.622   3.241
10772SOL    HW133215   5.273   5.636   3.246
10772SOL    HW233216   5.409   5.614   3.333
10773SOL     OW33217   5.740   4.557   2.896
10773SOL    HW133218   5.743   4.496   2.817
10773SOL    HW233219   5.660   4.616   2.890
10774SOL     OW33220   0.341   0.049   3.319
10774SOL    HW133221   0.293   0.012   3.398
10774SOL    HW233222   0.434   0.011   3.315
10775SOL     OW33223   0.466   3.540   1.716
10775SOL    HW133224   0.561   3.522   1.742
10775SOL    HW233225   0.452   3.639   1.707
10776SOL     OW33226   1.351   0.518   6.125
10776SOL    HW133227   1.305   0.602   6.153
10776SOL    HW233228   1.376   0.464   6.205
10777SOL     OW33229   2.727   5.984   1.301
10777SOL    HW133230   2.765   5.993   1.393
10777SOL    HW233231   2.673   5.900   1.295
10778SOL     OW33232   5.983   5.760   2.216
10778SOL    HW133233   6.020   5.685   2.162
10778SOL    HW233234   5.897   5.792   2.176
10779SOL     OW33235   4.827   2.689   3.857
10779SOL    HW133236   4.876   2.670   3.942
10779SOL    HW233237   4.839   2.786   3.833
10780SOL     OW33238   6.592   0.479   2.445
10780SOL    HW133239   6.639   0.440   2.366
10780SOL    HW233240   6.646   0.554   2.482
10781SOL     OW33241   3.373   0.009   4.065
10781SOL    HW133242   3.290   7.010   4.015
10781SOL    HW233243   3.436   0.057   4.003
10782SOL     OW33244   5.994   5.119   3.645
10782SOL    HW133245   6.065   5.169   3.695
10782SOL    HW233246   5.908   5.169   3.651
10783SOL     OW33247   0.100   2.152   3.447
10783SOL    HW133248   0.018   2.177   3.395
10783SOL    HW233249   0.152   2.083   3.397
10784SOL     OW33250   2.714   1.778   4.526
10784SOL    HW133251   2.808   1.749   4.545
10784SOL    HW233252   2.682   1.835   4.602
10785SOL     OW33253   1.104   3.339   6.104
10785SOL    HW133254   1.075   3.414   6.164
10785SOL    HW233255   1.202   3.323   6.117
10786SOL     OW33256   0.309   4.568   3.830
10786SOL    HW133257   0.330   4.654   3.784
10786SOL    HW233258   0.286   4.586   3.925
10787SOL     OW33259   1.963   2.622   6.301
10787SOL    HW133260   1.967   2.720   6.283
10787SOL    HW233261   2.025   2.600   6.376
10788SOL     OW33262   5.870   3.812   5.869
10788SOL    HW133263   5.816   3.801   5.785
10788SOL    HW233264   5.893   3.721   5.905
10789SOL     OW33265   5.828   1.805   0.987
10789SOL    HW133266   5.907   1.864   0.977
10789SOL    HW233267   5.858   1.714   1.016
10790SOL     OW33268   6.972   6.328   3.062
10790SOL    HW133269   0.028   6.365   3.018
10790SOL    HW233270   6.894   6.388   3.044
10791SOL     OW33271   0.710   6.218   2.461
10791SOL    HW133272   0.693   6.314   2.438
10791SOL    HW233273   0.781   6.181   2.401
10792SOL     OW33274   3.985   4.072   5.598
10792SOL    HW133275   3.896   4.113   5.620
10792SOL    HW233276   3.991   4.057   5.500
10793SOL     OW33277   6.339   3.745   3.966
10793SOL    HW133278   6.421   3.763   3.913
10793SOL    HW233279   6.259   3.751   3.907
10794SOL     OW33280   3.114   4.080   4.391
10794SOL    HW133281   3.037   4.132   4.427
10794SOL    HW233282   3.192   4.089   4.452
10795SOL     OW33283   6.965   5.244   2.826
10795SOL    HW133284   6.888   5.215   2.884
10795SOL    HW233285   0.011   5.283   2.883
10796SOL     OW33286   1.615   6.197   5.642
10796SOL    HW133287   1.574   6.121   5.693
10796SOL    HW233288   1.601   6.282   5.691
10797SOL     OW33289   3.406   2.630   0.296
10797SOL    HW133290   3.477   2.571   0.258
10797SOL    HW233291   3.422   2.642   0.394
10798SOL     OW33292   6.558   1.421   0.926
10798SOL    HW133293   6.520   1.501   0.973
10798SOL    HW233294   6.596   1.358   0.994
10799SOL     OW33295   4.941   1.873   0.992
10799SOL    HW133296   4.935   1.951   1.054
10799SOL    HW233297   4.866   1.809   1.012
10800SOL     OW33298   7.007   6.600   1.830
10800SOL    HW133299   6.933   6.659   1.859
10800SOL    HW233300   6.975   6.540   1.756
10801SOL     OW33301   2.020   0.735   0.937
10801SOL    HW133302   2.089   0.666   0.961
10801SOL    HW233303   2.063   0.825   0.936
10802SOL     OW33304   6.319   1.262   3.292
10802SOL    HW133305   6.270   1.176   3.279
10802SOL    HW233306   6.404   1.245   3.342
10803SOL     OW33307   2.273   5.201   6.117
10803SOL    HW133308   2.314   5.124   6.166
10803SOL    HW233309   2.204   5.167   6.053
10804SOL     OW33310   7.021   3.166   4.415
10804SOL    HW133311   0.074   3.197   4.361
10804SOL    HW233312   6.985   3.082   4.375
10805SOL     OW33313   6.551   0.963   6.354
10805SOL    HW133314   6.460   0.921   6.358
10805SOL    HW233315   6.591   0.948   6.264
10806SOL     OW33316   1.491   5.381   6.870
10806SOL    HW133317   1.562   5.319   6.903
10806SOL    HW233318   1.446   5.425   6.948
10807SOL     OW33319   3.134   5.978   5.452
10807SOL    HW133320   3.186   5.963   5.367
10807SOL    HW233321   3.076   5.899   5.470
10808SOL     OW33322   1.051   3.047   6.216
10808SOL    HW133323   1.007   3.086   6.296
10808SOL    HW233324   1.083   3.120   6.156
10809SOL     OW33325   1.428   0.177   5.009
10809SOL    HW133326   1.470   0.104   4.956
10809SOL    HW233327   1.494   0.251   5.023
10810SOL     OW33328   6.492   0.628   4.216
10810SOL    HW133329   6.462   0.717   4.252
10810SOL    HW233330   6.463   0.620   4.120
10811SOL     OW33331   4.752   5.242   4.817
10811SOL    HW133332   4.794   5.223   4.728
10811SOL    HW233333   4.735   5.340   4.826
10812SOL     OW33334   6.819   3.189   0.356
10812SOL    HW133335   6.828   3.260   0.427
10812SOL    HW233336   6.786   3.231   0.271
10813SOL     OW33337   0.678   3.089   6.484
10813SOL    HW133338   0.617   3.056   6.412
10813SOL    HW233339   0.666   3.188   6.494
10814SOL     OW33340   3.310   1.779   0.732
10814SOL    HW133341   3.296   1.878   0.734
10814SOL    HW233342   3.300   1.742   0.825
10815SOL     OW33343   5.322   0.951   4.621
10815SOL    HW133344   5.399   1.013   4.637
10815SOL    HW233345   5.357   0.862   4.592
10816SOL     OW33346   3.043   3.161   4.572
10816SOL    HW133347   2.995   3.243   4.606
10816SOL    HW233348   3.110   3.131   4.640
10817SOL     OW33349   1.550   6.431   3.988
10817SOL    HW133350   1.474   6.458   4.046
10817SOL    HW233351   1.624   6.498   3.995
10818SOL     OW33352   3.794   4.297   6.837
10818SOL    HW133353   3.842   4.307   6.925
10818SOL    HW233354   3.859   4.268   6.767
10819SOL     OW33355   6.667   6.489   5.641
10819SOL    HW133356   6.621   6.540   5.568
10819SOL    HW233357   6.621   6.507   5.728
10820SOL     OW33358   2.670   4.578   6.043
10820SOL    HW133359   2.577   4.540   6.047
10820SOL    HW233360   2.677   4.656   6.105
10821SOL     OW33361   4.581   5.603   2.966
10821SOL    HW133362   4.676   5.602   2.999
10821SOL    HW233363   4.534   5.682   3.003
10822SOL     OW33364   5.751   1.252   2.415
10822SOL    HW133365   5.717   1.180   2.354
10822SOL    HW233366   5.846   1.232   2.440
10823SOL     OW33367   5.403   6.506   1.308
10823SOL    HW133368   5.388   6.605   1.305
10823SOL    HW233369   5.345   6.461   1.240
10824SOL     OW33370   1.081   3.034   3.979
10824SOL    HW133371   1.087   3.044   4.078
10824SOL    HW233372   1.118   3.116   3.934
10825SOL     OW33373   0.333   2.677   0.807
10825SOL    HW133374   0.239   2.645   0.791
10825SOL    HW233375   0.332   2.748   0.877
10826SOL     OW33376   6.711   3.437   2.943
10826SOL    HW133377   6.728   3.516   2.885
10826SOL    HW233378   6.613   3.418   2.946
10827SOL     OW33379   0.342   3.618   4.828
10827SOL    HW133380   0.421   3.660   4.784
10827SOL    HW233381   0.373   3.560   4.904
10828SOL     OW33382   6.541   4.036   4.977
10828SOL    HW133383   6.536   4.061   5.074
10828SOL    HW233384   6.450   4.015   4.943
10829SOL     OW33385   3.494   2.834   5.519
10829SOL    HW133386   3.559   2.817   5.593
10829SOL    HW233387   3.530   2.796   5.434
10830SOL     OW33388   4.920   2.090   3.036
10830SOL    HW133389   4.913   2.167   2.972
10830SOL    HW233390   4.834   2.082   3.087
10831SOL     OW33391   4.215   0.024   3.677
10831SOL    HW133392   4.244   0.010   3.583
10831SOL    HW233393   4.158   0.106   3.683
10832SOL     OW33394   6.529   2.542   0.197
10832SOL    HW133395   6.606   2.543   0.133
10832SOL    HW233396   6.450   2.500   0.153
10833SOL     OW33397   0.497   1.182   6.949
10833SOL    HW133398   0.504   1.105   6.885
10833SOL    HW233399   0.588   1.201   6.987
10834SOL     OW33400   6.205   6.466   1.559
10834SOL    HW133401   6.239   6.508   1.643
10834SOL    HW233402   6.125   6.515   1.526
10835SOL     OW33403   6.931   2.410   5.271
10835SOL    HW133404   6.961   2.493   5.318
10835SOL    HW233405   6.990   2.394   5.191
10836SOL     OW33406   0.073   1.203   3.490
10836SOL    HW133407   0.148   1.137   3.490
10836SOL    HW233408   0.103   1.288   3.447
10837SOL     OW33409   0.626   3.146   4.150
10837SOL    HW133410   0.619   3.239   4.114
10837SOL    HW233411   0.544   3.094   4.124
10838SOL     OW33412   0.596   5.823   2.401
10838SOL    HW133413   0.576   5.855   2.309
10838SOL    HW233414   0.600   5.900   2.464
10839SOL     OW33415   4.505   2.973   0.555
10839SOL    HW133416   4.575   2.924   0.504
10839SOL    HW233417   4.414   2.941   0.528
10840SOL     OW33418   2.241   0.237   1.839
10840SOL    HW133419   2.264   0.153   1.888
10840SOL    HW233420   2.261   0.225   1.742
10841SOL     OW33421   2.231   5.450   4.920
10841SOL    HW133422   2.262   5.462   5.015
10841SOL    HW233423   2.279   5.515   4.861
10842SOL     OW33424   5.910   4.743   2.231
10842SOL    HW133425   5.860   4.767   2.315
10842SOL    HW233426   5.934   4.646   2.232
10843SOL     OW33427   3.000   1.798   1.377
10843SOL    HW133428   3.015   1.889   1.417
10843SOL    HW233429   2.902   1.780   1.372
10844SOL     OW33430   1.580   5.443   5.306
10844SOL    HW133431   1.567   5.468   5.402
10844SOL    HW233432   1.597   5.344   5.300
10845SOL     OW33433   3.800   6.952   4.373
10845SOL    HW133434   3.862   6.909   4.439
10845SOL    HW233435   3.706   6.929   4.395
10846SOL     OW33436   5.922   0.082   5.977
10846SOL    HW133437   5.979   0.096   5.896
10846SOL    HW233438   5.964   0.011   6.035
10847SOL     OW33439   3.325   0.462   6.703
10847SOL    HW133440   3.226   0.471   6.718
10847SOL    HW233441   3.350   0.365   6.702
10848SOL     OW33442   1.633   3.868   1.925
10848SOL    HW133443   1.612   3.907   1.835
10848SOL    HW233444   1.719   3.905   1.958
10849SOL     OW33445   2.273   6.560   2.962
10849SOL    HW133446   2.326   6.585   2.882
10849SOL    HW233447   2.218   6.479   2.942
10850SOL     OW33448   4.532   4.132   0.753
10850SOL    HW133449   4.599   4.069   0.792
10850SOL    HW233450   4.580   4.210   0.712
10851SOL     OW33451   1.442   4.154   0.441
10851SOL    HW133452   1.378   4.080   0.465
10851SOL    HW233453   1.513   4.118   0.381
10852SOL     OW33454   2.481   2.039   2.676
10852SOL    HW133455   2.564   2.068   2.629
10852SOL    HW233456   2.412   2.111   2.669
10853SOL     OW33457   3.535   1.232   5.925
10853SOL    HW133458   3.445   1.269   5.948
10853SOL    HW233459   3.577   1.192   6.006
10854SOL     OW33460   3.150   6.139   5.888
10854SOL    HW133461   3.179   6.137   5.792
10854SOL    HW233462   3.050   6.146   5.892
10855SOL     OW33463   4.204   1.593   6.996
10855SOL    HW133464   4.181   1.571   6.901
10855SOL    HW233465   4.124   1.631   0.016
10856SOL     OW33466   0.796   1.446   0.560
10856SOL    HW133467   0.886   1.434   0.518
10856SOL    HW233468   0.768   1.359   0.602
10857SOL     OW33469   6.936   2.814   2.119
10857SOL    HW133470   6.920   2.740   2.054
10857SOL    HW233471   6.917   2.781   2.212
10858SOL     OW33472   2.630   6.178   2.200
10858SOL    HW133473   2.564   6.205   2.270
10858SOL    HW233474   2.713   6.232   2.210
10859SOL     OW33475   1.665   5.316   3.387
10859SOL    HW133476   1.588   5.287   3.329
10859SOL    HW233477   1.629   5.349   3.474
10860SOL     OW33478   6.821   3.897   3.358
10860SOL    HW133479   6.731   3.894   3.316
10860SOL    HW233480   6.814   3.935   3.450
10861SOL     OW33481   3.691   2.706   5.685
10861SOL    HW133482   3.720   2.712   5.781
10861SOL    HW233483   3.698   2.612   5.653
10862SOL     OW33484   0.525   0.838   5.209
10862SOL    HW133485   0.555   0.874   5.121
10862SOL    HW233486   0.546   0.740   5.214
10863SOL     OW33487   2.537   6.548   4.343
10863SOL    HW133488   2.578   6.459   4.365
10863SOL    HW233489   2.606   6.619   4.351
10864SOL     OW33490   3.607   6.355   2.848
10864SOL    HW133491   3.581   6.284   2.914
10864SOL    HW233492   3.686   6.324   2.796
10865SOL     OW33493   6.317   1.674   6.109
10865SOL    HW133494   6.309   1.576   6.087
10865SOL    HW233495   6.411   1.704   6.095
10866SOL     OW33496   5.535   4.984   6.499
10866SOL    HW133497   5.453   5.018   6.452
10866SOL    HW233498   5.594   5.061   6.524
10867SOL     OW33499   2.871   1.333   6.710
10867SOL    HW133500   2.809   1.280   6.652
10867SOL    HW233501   2.898   1.278   6.789
10868SOL     OW33502   2.584   2.516   3.358
10868SOL    HW133503   2.629   2.568   3.431
10868SOL    HW233504   2.598   2.418   3.374
10869NA      NA33505   6.208   2.520   5.643
10870NA      NA33506   4.310   4.696   5.203
10871NA      NA33507   2.156   3.574   1.774
10872NA      NA33508   4.916   3.659   5.230
10873NA      NA33509   4.091   2.446   5.367
10874NA      NA33510   3.714   4.754   1.685
10875NA      NA33511   6.658   5.935   4.668
10876NA      NA33512   3.471   3.452   4.819
10877NA      NA33513   4.628   6.675   6.285
10878NA      NA33514   2.628   0.500   5.175
10879NA      NA33515   0.490   4.782   2.475
10880NA      NA33516   2.616   0.589   2.692
10881NA      NA33517   3.430   4.401   1.325
10882NA      NA33518   3.485   3.363   2.881
   7.02561   7.02561   7.02561
