Generated by trjconv : CNT in water t= 193.00000
33518
    1C        C    1   2.843   2.765   4.744
    1C        C    2   2.893   2.715   4.866
    1C        C    3   2.842   2.768   4.986
    1C        C    4   2.851   2.774   4.256
    1C        C    5   2.898   2.723   4.379
    1C        C    6   2.850   2.777   4.500
    1C        C    7   3.013   2.640   4.624
    1C        C    8   2.898   2.722   4.621
    1C        C    9   3.074   2.599   4.744
    1C        C   10   3.005   2.628   4.864
    1C        C   11   3.180   2.492   4.975
    1C        C   12   3.058   2.560   4.974
    1C        C   13   2.856   2.777   3.770
    1C        C   14   2.903   2.724   3.892
    1C        C   15   2.849   2.772   4.013
    1C        C   16   3.020   2.645   4.137
    1C        C   17   2.904   2.725   4.135
    1C        C   18   3.082   2.616   4.261
    1C        C   19   3.020   2.652   4.383
    1C        C   20   3.213   2.560   4.503
    1C        C   21   3.081   2.610   4.503
    1C        C   22   3.279   2.532   4.625
    1C        C   23   3.204   2.543   4.744
    1C        C   24   3.411   2.481   4.865
    1C        C   25   3.269   2.498   4.863
    1C        C   26   3.488   2.466   4.981
    1C        C   27   2.848   2.767   3.281
    1C        C   28   2.901   2.721   3.403
    1C        C   29   2.856   2.773   3.527
    1C        C   30   3.021   2.640   3.650
    1C        C   31   2.911   2.728   3.649
    1C        C   32   3.080   2.602   3.773
    1C        C   33   3.014   2.636   3.894
    1C        C   34   3.207   2.547   4.016
    1C        C   35   3.076   2.601   4.015
    1C        C   36   3.277   2.531   4.137
    1C        C   37   3.211   2.557   4.259
    1C        C   38   3.417   2.502   4.379
    1C        C   39   3.279   2.533   4.381
    1C        C   40   3.485   2.494   4.502
    1C        C   41   3.415   2.496   4.625
    1C        C   42   3.629   2.473   4.743
    1C        C   43   3.487   2.475   4.745
    1C        C   44   3.703   2.477   4.862
    1C        C   45   3.627   2.474   4.980
    1C        C   46   2.836   2.750   2.792
    1C        C   47   2.894   2.711   2.914
    1C        C   48   2.845   2.764   3.036
    1C        C   49   3.018   2.643   3.159
    1C        C   50   2.900   2.721   3.158
    1C        C   51   3.079   2.612   3.283
    1C        C   52   3.018   2.643   3.407
    1C        C   53   3.208   2.545   3.526
    1C        C   54   3.079   2.601   3.527
    1C        C   55   3.277   2.523   3.647
    1C        C   56   3.212   2.552   3.769
    1C        C   57   3.414   2.502   3.893
    1C        C   58   3.276   2.533   3.894
    1C        C   59   3.487   2.496   4.014
    1C        C   60   3.416   2.503   4.136
    1C        C   61   3.628   2.488   4.256
    1C        C   62   3.487   2.488   4.257
    1C        C   63   3.698   2.500   4.378
    1C        C   64   3.626   2.494   4.499
    1C        C   65   3.834   2.531   4.621
    1C        C   66   3.698   2.493   4.621
    1C        C   67   3.901   2.560   4.742
    1C        C   68   3.838   2.518   4.861
    1C        C   69   4.052   2.579   4.974
    1C        C   70   3.924   2.524   4.972
    1C        C   71   2.822   2.735   2.306
    1C        C   72   2.883   2.693   2.426
    1C        C   73   2.830   2.744   2.547
    1C        C   74   3.004   2.624   2.672
    1C        C   75   2.884   2.699   2.669
    1C        C   76   3.070   2.595   2.793
    1C        C   77   3.010   2.630   2.916
    1C        C   78   3.207   2.547   3.037
    1C        C   79   3.077   2.602   3.037
    1C        C   80   3.271   2.520   3.159
    1C        C   81   3.205   2.548   3.281
    1C        C   82   3.413   2.499   3.400
    1C        C   83   3.275   2.527   3.402
    1C        C   84   3.484   2.493   3.523
    1C        C   85   3.416   2.500   3.647
    1C        C   86   3.626   2.489   3.766
    1C        C   87   3.484   2.491   3.770
    1C        C   88   3.697   2.500   3.887
    1C        C   89   3.628   2.497   4.010
    1C        C   90   3.834   2.535   4.135
    1C        C   91   3.697   2.501   4.133
    1C        C   92   3.901   2.566   4.255
    1C        C   93   3.834   2.540   4.377
    1C        C   94   4.024   2.629   4.498
    1C        C   95   3.900   2.561   4.500
    1C        C   96   4.087   2.665   4.619
    1C        C   97   4.030   2.619   4.739
    1C        C   98   4.186   2.765   4.861
    1C        C   99   4.099   2.652   4.860
    1C        C  100   4.211   2.843   4.975
    1C        C  101   2.815   2.726   2.066
    1C        C  102   2.985   2.591   2.189
    1C        C  103   2.874   2.680   2.185
    1C        C  104   3.060   2.572   2.309
    1C        C  105   3.000   2.614   2.430
    1C        C  106   3.198   2.533   2.548
    1C        C  107   3.066   2.582   2.551
    1C        C  108   3.268   2.520   2.670
    1C        C  109   3.201   2.541   2.792
    1C        C  110   3.410   2.494   2.911
    1C        C  111   3.272   2.523   2.913
    1C        C  112   3.479   2.487   3.034
    1C        C  113   3.411   2.498   3.157
    1C        C  114   3.625   2.488   3.275
    1C        C  115   3.483   2.491   3.278
    1C        C  116   3.693   2.498   3.398
    1C        C  117   3.625   2.490   3.521
    1C        C  118   3.832   2.536   3.646
    1C        C  119   3.695   2.499   3.643
    1C        C  120   3.899   2.563   3.768
    1C        C  121   3.833   2.539   3.890
    1C        C  122   4.022   2.632   4.010
    1C        C  123   3.899   2.562   4.013
    1C        C  124   4.085   2.671   4.131
    1C        C  125   4.024   2.635   4.253
    1C        C  126   4.188   2.766   4.374
    1C        C  127   4.081   2.674   4.377
    1C        C  128   4.236   2.820   4.496
    1C        C  129   4.190   2.762   4.617
    1C        C  130   4.315   2.935   4.738
    1C        C  131   4.238   2.815   4.739
    1C        C  132   4.345   3.007   4.855
    1C        C  133   4.277   2.965   4.970
    1C        C  134   3.174   2.471   2.077
    1C        C  135   3.040   2.510   2.084
    1C        C  136   3.257   2.477   2.190
    1C        C  137   3.193   2.522   2.308
    1C        C  138   3.405   2.478   2.426
    1C        C  139   3.267   2.509   2.427
    1C        C  140   3.479   2.473   2.546
    1C        C  141   3.406   2.490   2.666
    1C        C  142   3.619   2.489   2.787
    1C        C  143   3.478   2.485   2.788
    1C        C  144   3.691   2.498   2.908
    1C        C  145   3.621   2.489   3.030
    1C        C  146   3.830   2.528   3.151
    1C        C  147   3.693   2.495   3.151
    1C        C  148   3.897   2.551   3.274
    1C        C  149   3.831   2.531   3.397
    1C        C  150   4.019   2.622   3.520
    1C        C  151   3.894   2.557   3.521
    1C        C  152   4.078   2.666   3.640
    1C        C  153   4.022   2.632   3.766
    1C        C  154   4.189   2.764   3.886
    1C        C  155   4.079   2.674   3.888
    1C        C  156   4.246   2.806   4.007
    1C        C  157   4.194   2.761   4.131
    1C        C  158   4.329   2.923   4.249
    1C        C  159   4.245   2.810   4.253
    1C        C  160   4.362   2.987   4.371
    1C        C  161   4.320   2.933   4.494
    1C        C  162   4.428   3.116   4.613
    1C        C  163   4.356   2.994   4.617
    1C        C  164   4.460   3.183   4.733
    1C        C  165   4.427   3.122   4.856
    1C        C  166   4.511   3.317   4.969
    1C        C  167   4.474   3.184   4.973
    1C        C  168   3.476   2.438   2.073
    1C        C  169   3.396   2.454   2.187
    1C        C  170   3.616   2.463   2.305
    1C        C  171   3.474   2.453   2.305
    1C        C  172   3.692   2.481   2.422
    1C        C  173   3.620   2.476   2.544
    1C        C  174   3.826   2.535   2.664
    1C        C  175   3.690   2.497   2.665
    1C        C  176   3.895   2.556   2.786
    1C        C  177   3.829   2.531   2.908
    1C        C  178   4.025   2.614   3.029
    1C        C  179   3.897   2.553   3.030
    1C        C  180   4.083   2.650   3.153
    1C        C  181   4.024   2.613   3.275
    1C        C  182   4.189   2.745   3.395
    1C        C  183   4.083   2.653   3.398
    1C        C  184   4.233   2.804   3.516
    1C        C  185   4.188   2.755   3.641
    1C        C  186   4.325   2.921   3.761
    1C        C  187   4.238   2.809   3.761
    1C        C  188   4.372   2.978   3.881
    1C        C  189   4.335   2.916   4.003
    1C        C  190   4.436   3.103   4.123
    1C        C  191   4.368   2.979   4.125
    1C        C  192   4.460   3.170   4.246
    1C        C  193   4.432   3.109   4.370
    1C        C  194   4.502   3.312   4.486
    1C        C  195   4.464   3.176   4.490
    1C        C  196   4.521   3.382   4.607
    1C        C  197   4.507   3.317   4.732
    1C        C  198   4.552   3.532   4.847
    1C        C  199   4.534   3.390   4.851
    1C        C  200   4.582   3.615   4.960
    1C        C  201   3.614   2.415   2.070
    1C        C  202   3.825   2.506   2.178
    1C        C  203   3.690   2.459   2.184
    1C        C  204   3.897   2.534   2.298
    1C        C  205   3.829   2.516   2.420
    1C        C  206   4.020   2.614   2.540
    1C        C  207   3.893   2.553   2.541
    1C        C  208   4.079   2.655   2.661
    1C        C  209   4.019   2.622   2.785
    1C        C  210   4.196   2.739   2.905
    1C        C  211   4.085   2.652   2.907
    1C        C  212   4.240   2.794   3.027
    1C        C  213   4.192   2.741   3.149
    1C        C  214   4.320   2.908   3.270
    1C        C  215   4.241   2.791   3.272
    1C        C  216   4.354   2.972   3.391
    1C        C  217   4.319   2.916   3.516
    1C        C  218   4.425   3.103   3.635
    1C        C  219   4.361   2.977   3.636
    1C        C  220   4.456   3.171   3.755
    1C        C  221   4.432   3.106   3.878
    1C        C  222   4.502   3.304   3.997
    1C        C  223   4.462   3.169   4.001
    1C        C  224   4.511   3.374   4.120
    1C        C  225   4.499   3.306   4.243
    1C        C  226   4.516   3.522   4.364
    1C        C  227   4.508   3.381   4.362
    1C        C  228   4.517   3.594   4.485
    1C        C  229   4.528   3.523   4.606
    1C        C  230   4.496   3.738   4.726
    1C        C  231   4.532   3.600   4.725
    1C        C  232   4.489   3.816   4.843
    1C        C  233   4.542   3.750   4.955
    1C        C  234   4.015   2.608   2.058
    1C        C  235   3.895   2.539   2.062
    1C        C  236   4.084   2.643   2.176
    1C        C  237   4.022   2.602   2.296
    1C        C  238   4.195   2.730   2.418
    1C        C  239   4.082   2.644   2.417
    1C        C  240   4.250   2.781   2.538
    1C        C  241   4.192   2.740   2.660
    1C        C  242   4.330   2.902   2.781
    1C        C  243   4.243   2.790   2.782
    1C        C  244   4.372   2.959   2.904
    1C        C  245   4.328   2.905   3.027
    1C        C  246   4.421   3.095   3.146
    1C        C  247   4.364   2.966   3.149
    1C        C  248   4.447   3.162   3.268
    1C        C  249   4.419   3.098   3.391
    1C        C  250   4.485   3.303   3.509
    1C        C  251   4.445   3.168   3.511
    1C        C  252   4.503   3.374   3.631
    1C        C  253   4.495   3.307   3.754
    1C        C  254   4.521   3.516   3.876
    1C        C  255   4.517   3.375   3.876
    1C        C  256   4.516   3.588   3.997
    1C        C  257   4.516   3.516   4.118
    1C        C  258   4.493   3.728   4.240
    1C        C  259   4.513   3.589   4.239
    1C        C  260   4.473   3.802   4.360
    1C        C  261   4.485   3.732   4.482
    1C        C  262   4.419   3.934   4.600
    1C        C  263   4.468   3.802   4.603
    1C        C  264   4.398   4.007   4.719
    1C        C  265   4.434   3.946   4.841
    1C        C  266   4.318   4.126   4.955
    1C        C  267   4.387   4.006   4.959
    1C        C  268   4.265   2.762   2.058
    1C        C  269   4.198   2.726   2.176
    1C        C  270   4.342   2.886   2.296
    1C        C  271   4.249   2.779   2.297
    1C        C  272   4.381   2.950   2.417
    1C        C  273   4.337   2.892   2.538
    1C        C  274   4.440   3.081   2.656
    1C        C  275   4.371   2.958   2.658
    1C        C  276   4.464   3.148   2.778
    1C        C  277   4.437   3.084   2.901
    1C        C  278   4.501   3.288   3.022
    1C        C  279   4.454   3.155   3.022
    1C        C  280   4.511   3.363   3.142
    1C        C  281   4.495   3.295   3.264
    1C        C  282   4.515   3.508   3.385
    1C        C  283   4.501   3.368   3.385
    1C        C  284   4.509   3.580   3.507
    1C        C  285   4.513   3.515   3.632
    1C        C  286   4.488   3.727   3.753
    1C        C  287   4.514   3.588   3.754
    1C        C  288   4.474   3.796   3.875
    1C        C  289   4.495   3.728   3.998
    1C        C  290   4.426   3.930   4.116
    1C        C  291   4.479   3.799   4.119
    1C        C  292   4.392   3.996   4.236
    1C        C  293   4.427   3.935   4.359
    1C        C  294   4.324   4.125   4.475
    1C        C  295   4.393   4.002   4.478
    1C        C  296   4.285   4.188   4.595
    1C        C  297   4.323   4.127   4.717
    1C        C  298   4.194   4.306   4.837
    1C        C  299   4.277   4.189   4.837
    1C        C  300   4.172   4.402   4.941
    1C        C  301   4.343   2.877   2.062
    1C        C  302   4.468   3.063   2.172
    1C        C  303   4.393   2.942   2.176
    1C        C  304   4.476   3.140   2.292
    1C        C  305   4.445   3.076   2.414
    1C        C  306   4.505   3.282   2.535
    1C        C  307   4.474   3.144   2.534
    1C        C  308   4.513   3.356   2.656
    1C        C  309   4.497   3.286   2.777
    1C        C  310   4.524   3.496   2.897
    1C        C  311   4.515   3.355   2.899
    1C        C  312   4.517   3.572   3.016
    1C        C  313   4.515   3.505   3.141
    1C        C  314   4.494   3.717   3.260
    1C        C  315   4.517   3.577   3.262
    1C        C  316   4.477   3.787   3.382
    1C        C  317   4.492   3.720   3.505
    1C        C  318   4.422   3.921   3.626
    1C        C  319   4.472   3.789   3.627
    1C        C  320   4.395   3.987   3.748
    1C        C  321   4.426   3.928   3.873
    1C        C  322   4.319   4.113   3.986
    1C        C  323   4.397   3.995   3.994
    1C        C  324   4.274   4.169   4.108
    1C        C  325   4.321   4.118   4.232
    1C        C  326   4.185   4.283   4.351
    1C        C  327   4.284   4.183   4.352
    1C        C  328   4.130   4.332   4.472
    1C        C  329   4.188   4.290   4.594
    1C        C  330   4.017   4.424   4.711
    1C        C  331   4.132   4.341   4.714
    1C        C  332   3.966   4.485   4.828
    1C        C  333   4.052   4.473   4.939
    1C        C  334   4.541   3.265   2.058
    1C        C  335   4.536   3.125   2.062
    1C        C  336   4.535   3.347   2.171
    1C        C  337   4.507   3.279   2.291
    1C        C  338   4.517   3.492   2.409
    1C        C  339   4.518   3.351   2.413
    1C        C  340   4.521   3.566   2.529
    1C        C  341   4.524   3.497   2.653
    1C        C  342   4.494   3.706   2.770
    1C        C  343   4.515   3.567   2.775
    1C        C  344   4.475   3.778   2.890
    1C        C  345   4.487   3.710   3.013
    1C        C  346   4.422   3.911   3.135
    1C        C  347   4.474   3.780   3.135
    1C        C  348   4.397   3.981   3.256
    1C        C  349   4.427   3.919   3.379
    1C        C  350   4.321   4.103   3.498
    1C        C  351   4.394   3.982   3.501
    1C        C  352   4.275   4.160   3.619
    1C        C  353   4.318   4.105   3.742
    1C        C  354   4.176   4.266   3.865
    1C        C  355   4.272   4.162   3.863
    1C        C  356   4.124   4.318   3.985
    1C        C  357   4.177   4.271   4.107
    1C        C  358   4.006   4.396   4.227
    1C        C  359   4.127   4.323   4.229
    1C        C  360   3.947   4.434   4.350
    1C        C  361   4.014   4.412   4.472
    1C        C  362   3.826   4.520   4.589
    1C        C  363   3.955   4.462   4.590
    1C        C  364   3.761   4.548   4.711
    1C        C  365   3.836   4.539   4.830
    1C        C  366   3.627   4.588   4.944
    1C        C  367   3.764   4.567   4.947
    1C        C  368   4.507   3.563   2.050
    1C        C  369   4.526   3.488   2.168
    1C        C  370   4.506   3.704   2.283
    1C        C  371   4.514   3.563   2.287
    1C        C  372   4.489   3.777   2.403
    1C        C  373   4.500   3.705   2.524
    1C        C  374   4.428   3.905   2.646
    1C        C  375   4.475   3.772   2.646
    1C        C  376   4.399   3.976   2.766
    1C        C  377   4.430   3.912   2.888
    1C        C  378   4.320   4.091   3.009
    1C        C  379   4.399   3.974   3.011
    1C        C  380   4.273   4.148   3.129
    1C        C  381   4.318   4.098   3.254
    1C        C  382   4.173   4.254   3.372
    1C        C  383   4.275   4.156   3.375
    1C        C  384   4.121   4.302   3.494
    1C        C  385   4.172   4.256   3.618
    1C        C  386   4.001   4.380   3.740
    1C        C  387   4.119   4.302   3.741
    1C        C  388   3.940   4.422   3.860
    1C        C  389   4.003   4.392   3.983
    1C        C  390   3.813   4.486   4.104
    1C        C  391   3.941   4.427   4.105
    1C        C  392   3.749   4.510   4.227
    1C        C  393   3.817   4.488   4.349
    1C        C  394   3.613   4.548   4.470
    1C        C  395   3.753   4.527   4.469
    1C        C  396   3.544   4.557   4.593
    1C        C  397   3.620   4.561   4.712
    1C        C  398   3.407   4.546   4.836
    1C        C  399   3.546   4.574   4.831
    1C        C  400   3.338   4.517   4.954
    1C        C  401   4.504   3.702   2.046
    1C        C  402   4.444   3.910   2.162
    1C        C  403   4.490   3.777   2.163
    1C        C  404   4.408   3.973   2.283
    1C        C  405   4.440   3.909   2.405
    1C        C  406   4.332   4.095   2.522
    1C        C  407   4.406   3.975   2.525
    1C        C  408   4.283   4.150   2.642
    1C        C  409   4.322   4.094   2.766
    1C        C  410   4.179   4.252   2.884
    1C        C  411   4.278   4.151   2.888
    1C        C  412   4.124   4.296   3.006
    1C        C  413   4.176   4.251   3.129
    1C        C  414   3.999   4.374   3.251
    1C        C  415   4.118   4.297   3.249
    1C        C  416   3.938   4.408   3.373
    1C        C  417   4.002   4.379   3.495
    1C        C  418   3.810   4.469   3.615
    1C        C  419   3.940   4.413   3.617
    1C        C  420   3.744   4.497   3.737
    1C        C  421   3.810   4.478   3.860
    1C        C  422   3.605   4.529   3.983
    1C        C  423   3.743   4.502   3.982
    1C        C  424   3.537   4.538   4.106
    1C        C  425   3.609   4.534   4.227
    1C        C  426   3.399   4.541   4.354
    1C        C  427   3.540   4.552   4.349
    1C        C  428   3.328   4.541   4.477
    1C        C  429   3.403   4.555   4.596
    1C        C  430   3.192   4.519   4.721
    1C        C  431   3.331   4.550   4.717
    1C        C  432   3.125   4.489   4.842
    1C        C  433   3.201   4.494   4.960
    1C        C  434   4.380   4.120   2.051
    1C        C  435   4.435   3.991   2.048
    1C        C  436   4.303   4.163   2.164
    1C        C  437   4.341   4.099   2.284
    1C        C  438   4.179   4.246   2.401
    1C        C  439   4.285   4.153   2.402
    1C        C  440   4.124   4.292   2.522
    1C        C  441   4.180   4.247   2.644
    1C        C  442   4.004   4.373   2.763
    1C        C  443   4.123   4.297   2.763
    1C        C  444   3.940   4.404   2.885
    1C        C  445   4.004   4.371   3.007
    1C        C  446   3.808   4.459   3.126
    1C        C  447   3.939   4.406   3.127
    1C        C  448   3.741   4.487   3.248
    1C        C  449   3.809   4.466   3.369
    1C        C  450   3.607   4.524   3.494
    1C        C  451   3.745   4.493   3.492
    1C        C  452   3.536   4.536   3.616
    1C        C  453   3.607   4.529   3.738
    1C        C  454   3.394   4.537   3.862
    1C        C  455   3.535   4.540   3.860
    1C        C  456   3.327   4.532   3.986
    1C        C  457   3.396   4.541   4.109
    1C        C  458   3.190   4.502   4.232
    1C        C  459   3.329   4.528   4.233
    1C        C  460   3.125   4.485   4.356
    1C        C  461   3.190   4.510   4.478
    1C        C  462   2.993   4.436   4.599
    1C        C  463   3.124   4.489   4.601
    1C        C  464   2.932   4.401   4.721
    1C        C  465   2.989   4.445   4.845
    1C        C  466   2.801   4.332   4.957
    1C        C  467   2.909   4.421   4.961
    1C        C  468   4.122   4.284   2.040
    1C        C  469   4.188   4.249   2.158
    1C        C  470   4.002   4.361   2.278
    1C        C  471   4.126   4.293   2.278
    1C        C  472   3.942   4.402   2.399
    1C        C  473   4.007   4.371   2.521
    1C        C  474   3.811   4.462   2.641
    1C        C  475   3.941   4.407   2.641
    1C        C  476   3.744   4.485   2.763
    1C        C  477   3.812   4.464   2.884
    1C        C  478   3.603   4.512   3.004
    1C        C  479   3.741   4.486   3.005
    1C        C  480   3.533   4.526   3.127
    1C        C  481   3.602   4.515   3.250
    1C        C  482   3.393   4.529   3.374
    1C        C  483   3.534   4.528   3.373
    1C        C  484   3.323   4.534   3.496
    1C        C  485   3.395   4.540   3.618
    1C        C  486   3.187   4.500   3.742
    1C        C  487   3.324   4.536   3.740
    1C        C  488   3.122   4.479   3.866
    1C        C  489   3.188   4.505   3.988
    1C        C  490   2.999   4.411   4.110
    1C        C  491   3.121   4.482   4.110
    1C        C  492   2.943   4.377   4.235
    1C        C  493   2.998   4.422   4.356
    1C        C  494   2.825   4.302   4.481
    1C        C  495   2.932   4.395   4.478
    1C        C  496   2.777   4.253   4.604
    1C        C  497   2.821   4.313   4.724
    1C        C  498   2.665   4.161   4.841
    1C        C  499   2.751   4.273   4.840
    1C        C  500   2.601   4.112   4.956
    1C        C  501   4.003   4.355   2.037
    1C        C  502   3.810   4.452   2.154
    1C        C  503   3.939   4.393   2.155
    1C        C  504   3.741   4.476   2.274
    1C        C  505   3.809   4.451   2.396
    1C        C  506   3.604   4.502   2.520
    1C        C  507   3.743   4.476   2.518
    1C        C  508   3.531   4.507   2.641
    1C        C  509   3.604   4.509   2.761
    1C        C  510   3.391   4.519   2.883
    1C        C  511   3.532   4.516   2.882
    1C        C  512   3.321   4.515   3.006
    1C        C  513   3.392   4.527   3.127
    1C        C  514   3.186   4.488   3.251
    1C        C  515   3.324   4.518   3.251
    1C        C  516   3.122   4.466   3.376
    1C        C  517   3.186   4.500   3.497
    1C        C  518   2.996   4.407   3.622
    1C        C  519   3.120   4.475   3.620
    1C        C  520   2.937   4.369   3.744
    1C        C  521   3.000   4.407   3.865
    1C        C  522   2.832   4.280   3.993
    1C        C  523   2.943   4.367   3.988
    1C        C  524   2.780   4.238   4.118
    1C        C  525   2.831   4.291   4.238
    1C        C  526   2.696   4.129   4.363
    1C        C  527   2.778   4.245   4.361
    1C        C  528   2.652   4.074   4.485
    1C        C  529   2.689   4.143   4.603
    1C        C  530   2.592   3.954   4.732
    1C        C  531   2.640   4.088   4.723
    1C        C  532   2.543   3.898   4.853
    1C        C  533   2.519   3.998   4.953
    1C        C  534   3.614   4.552   2.038
    1C        C  535   3.747   4.508   2.042
    1C        C  536   3.533   4.530   2.154
    1C        C  537   3.602   4.503   2.276
    1C        C  538   3.391   4.510   2.399
    1C        C  539   3.532   4.512   2.399
    1C        C  540   3.318   4.509   2.520
    1C        C  541   3.390   4.514   2.642
    1C        C  542   3.179   4.482   2.761
    1C        C  543   3.317   4.511   2.763
    1C        C  544   3.114   4.461   2.885
    1C        C  545   3.183   4.481   3.007
    1C        C  546   2.993   4.395   3.132
    1C        C  547   3.118   4.463   3.131
    1C        C  548   2.938   4.359   3.257
    1C        C  549   2.998   4.398   3.378
    1C        C  550   2.826   4.277   3.502
    1C        C  551   2.938   4.363   3.501
    1C        C  552   2.777   4.226   3.625
    1C        C  553   2.829   4.278   3.746
    1C        C  554   2.703   4.113   3.873
    1C        C  555   2.787   4.227   3.870
    1C        C  556   2.659   4.062   3.997
    1C        C  557   2.695   4.125   4.118
    1C        C  558   2.599   3.939   4.245
    1C        C  559   2.662   4.066   4.242
    1C        C  560   2.569   3.876   4.368
    1C        C  561   2.592   3.946   4.488
    1C        C  562   2.532   3.747   4.614
    1C        C  563   2.565   3.885   4.612
    1C        C  564   2.512   3.678   4.735
    1C        C  565   2.520   3.757   4.854
    1C        C  566   2.529   3.541   4.973
    1C        C  567   2.532   3.680   4.970
    1C        C  568   3.319   4.482   2.039
    1C        C  569   3.393   4.506   2.155
    1C        C  570   3.183   4.467   2.278
    1C        C  571   3.320   4.502   2.277
    1C        C  572   3.113   4.449   2.399
    1C        C  573   3.181   4.475   2.520
    1C        C  574   2.983   4.395   2.644
    1C        C  575   3.110   4.458   2.640
    1C        C  576   2.925   4.357   2.767
    1C        C  577   2.990   4.394   2.886
    1C        C  578   2.822   4.270   3.013
    1C        C  579   2.931   4.360   3.010
    1C        C  580   2.775   4.218   3.136
    1C        C  581   2.828   4.271   3.256
    1C        C  582   2.693   4.112   3.382
    1C        C  583   2.777   4.226   3.380
    1C        C  584   2.657   4.053   3.505
    1C        C  585   2.694   4.112   3.628
    1C        C  586   2.593   3.930   3.756
    1C        C  587   2.659   4.055   3.752
    1C        C  588   2.572   3.865   3.880
    1C        C  589   2.598   3.935   4.001
    1C        C  590   2.532   3.735   4.126
    1C        C  591   2.573   3.870   4.124
    1C        C  592   2.519   3.670   4.250
    1C        C  593   2.529   3.741   4.372
    1C        C  594   2.510   3.531   4.495
    1C        C  595   2.520   3.672   4.495
    1C        C  596   2.517   3.461   4.617
    1C        C  597   2.512   3.536   4.737
    1C        C  598   2.536   3.322   4.860
    1C        C  599   2.524   3.463   4.858
    1C        C  600   2.531   3.244   4.976
    1C        C  601   3.189   4.434   2.038
    1C        C  602   2.978   4.393   2.155
    1C        C  603   3.114   4.436   2.157
    1C        C  604   2.924   4.348   2.279
    1C        C  605   2.985   4.389   2.400
    1C        C  606   2.815   4.266   2.525
    1C        C  607   2.923   4.356   2.522
    1C        C  608   2.764   4.215   2.647
    1C        C  609   2.816   4.266   2.768
    1C        C  610   2.680   4.109   2.893
    1C        C  611   2.771   4.217   2.893
    1C        C  612   2.642   4.052   3.016
    1C        C  613   2.688   4.107   3.138
    1C        C  614   2.579   3.929   3.263
    1C        C  615   2.651   4.050   3.262
    1C        C  616   2.555   3.867   3.388
    1C        C  617   2.590   3.929   3.510
    1C        C  618   2.527   3.729   3.635
    1C        C  619   2.566   3.865   3.634
    1C        C  620   2.514   3.661   3.758
    1C        C  621   2.528   3.731   3.881
    1C        C  622   2.508   3.523   4.007
    1C        C  623   2.521   3.663   4.004
    1C        C  624   2.507   3.455   4.131
    1C        C  625   2.506   3.529   4.252
    1C        C  626   2.535   3.319   4.378
    1C        C  627   2.513   3.459   4.374
    1C        C  628   2.551   3.247   4.499
    1C        C  629   2.540   3.322   4.618
    1C        C  630   2.595   3.115   4.744
    1C        C  631   2.553   3.251   4.739
    1C        C  632   2.617   3.043   4.865
    1C        C  633   2.561   3.107   4.980
    1C        C  634   2.782   4.299   2.051
    1C        C  635   2.887   4.391   2.044
    1C        C  636   2.742   4.229   2.166
    1C        C  637   2.807   4.268   2.284
    1C        C  638   2.667   4.108   2.405
    1C        C  639   2.757   4.216   2.406
    1C        C  640   2.629   4.049   2.528
    1C        C  641   2.675   4.105   2.649
    1C        C  642   2.581   3.919   2.775
    1C        C  643   2.639   4.047   2.772
    1C        C  644   2.556   3.855   2.899
    1C        C  645   2.581   3.925   3.019
    1C        C  646   2.524   3.722   3.146
    1C        C  647   2.555   3.860   3.142
    1C        C  648   2.516   3.654   3.270
    1C        C  649   2.531   3.728   3.390
    1C        C  650   2.509   3.519   3.516
    1C        C  651   2.514   3.660   3.513
    1C        C  652   2.511   3.449   3.639
    1C        C  653   2.507   3.520   3.761
    1C        C  654   2.529   3.312   3.888
    1C        C  655   2.507   3.452   3.885
    1C        C  656   2.553   3.249   4.012
    1C        C  657   2.530   3.315   4.135
    1C        C  658   2.604   3.117   4.253
    1C        C  659   2.550   3.248   4.257
    1C        C  660   2.632   3.055   4.377
    1C        C  661   2.597   3.114   4.500
    1C        C  662   2.711   2.937   4.624
    1C        C  663   2.627   3.050   4.623
    1C        C  664   2.752   2.874   4.744
    1C        C  665   2.694   2.922   4.864
    1C        C  666   2.744   2.867   4.983
    1C        C  667   2.680   4.022   2.050
    1C        C  668   2.679   4.102   2.164
    1C        C  669   2.588   3.908   2.291
    1C        C  670   2.635   4.042   2.284
    1C        C  671   2.552   3.844   2.412
    1C        C  672   2.572   3.919   2.530
    1C        C  673   2.518   3.716   2.657
    1C        C  674   2.554   3.853   2.653
    1C        C  675   2.503   3.648   2.780
    1C        C  676   2.521   3.718   2.901
    1C        C  677   2.502   3.510   3.029
    1C        C  678   2.514   3.650   3.025
    1C        C  679   2.507   3.440   3.152
    1C        C  680   2.506   3.513   3.273
    1C        C  681   2.528   3.305   3.400
    1C        C  682   2.510   3.445   3.396
    1C        C  683   2.544   3.237   3.523
    1C        C  684   2.534   3.310   3.643
    1C        C  685   2.601   3.113   3.768
    1C        C  686   2.543   3.242   3.767
    1C        C  687   2.635   3.051   3.890
    1C        C  688   2.600   3.116   4.011
    1C        C  689   2.709   2.932   4.137
    1C        C  690   2.632   3.050   4.132
    1C        C  691   2.755   2.878   4.259
    1C        C  692   2.710   2.937   4.379
    1C        C  693   2.755   2.882   4.501
    1C        C  694   2.627   3.892   2.056
    1C        C  695   2.520   3.704   2.172
    1C        C  696   2.575   3.834   2.172
    1C        C  697   2.504   3.634   2.295
    1C        C  698   2.512   3.709   2.414
    1C        C  699   2.488   3.502   2.540
    1C        C  700   2.496   3.643   2.538
    1C        C  701   2.497   3.433   2.663
    1C        C  702   2.493   3.507   2.784
    1C        C  703   2.526   3.299   2.909
    1C        C  704   2.501   3.438   2.907
    1C        C  705   2.540   3.230   3.032
    1C        C  706   2.525   3.300   3.154
    1C        C  707   2.591   3.102   3.278
    1C        C  708   2.544   3.236   3.278
    1C        C  709   2.623   3.039   3.400
    1C        C  710   2.594   3.105   3.522
    1C        C  711   2.714   2.933   3.647
    1C        C  712   2.633   3.049   3.645
    1C        C  713   2.757   2.878   3.770
    1C        C  714   2.714   2.934   3.892
    1C        C  715   2.755   2.878   4.015
    1C        C  716   2.449   3.496   2.059
    1C        C  717   2.486   3.631   2.058
    1C        C  718   2.462   3.420   2.180
    1C        C  719   2.479   3.495   2.300
    1C        C  720   2.507   3.285   2.423
    1C        C  721   2.486   3.424   2.422
    1C        C  722   2.527   3.218   2.546
    1C        C  723   2.519   3.294   2.665
    1C        C  724   2.591   3.096   2.790
    1C        C  725   2.542   3.228   2.788
    1C        C  726   2.625   3.034   2.912
    1C        C  727   2.594   3.099   3.034
    1C        C  728   2.701   2.919   3.159
    1C        C  729   2.625   3.037   3.157
    1C        C  730   2.755   2.874   3.282
    1C        C  731   2.713   2.930   3.404
    1C        C  732   2.756   2.873   3.526
    1C        C  733   2.485   3.194   2.071
    1C        C  734   2.484   3.279   2.183
    1C        C  735   2.572   3.079   2.305
    1C        C  736   2.520   3.212   2.303
    1C        C  737   2.599   3.013   2.427
    1C        C  738   2.580   3.086   2.547
    1C        C  739   2.693   2.908   2.669
    1C        C  740   2.619   3.028   2.669
    1C        C  741   2.738   2.852   2.791
    1C        C  742   2.701   2.915   2.912
    1C        C  743   2.745   2.864   3.036
    1C        C  744   2.539   3.066   2.073
    1C        C  745   2.684   2.897   2.184
    1C        C  746   2.604   3.013   2.185
    1C        C  747   2.728   2.841   2.306
    1C        C  748   2.683   2.900   2.427
    1C        C  749   2.738   2.851   2.547
    1C        C  750   2.727   2.833   2.066
    1C        C  751   3.656   2.308   1.978
    1C        O  752   3.701   2.194   2.009
    1C        O  753   3.652   2.323   1.838
    1C        C  754   4.616   3.063   1.954
    1C        O  755   4.550   3.024   1.854
    1C        O  756   4.721   2.974   1.976
    1C        C  757   4.456   4.229   1.986
    1C        O  758   4.571   4.246   2.035
    1C        O  759   4.426   4.264   1.854
    1C        C  760   3.582   4.660   1.943
    1C        O  761   3.613   4.782   1.953
    1C        O  762   3.539   4.636   1.812
    1C        C  763   2.881   4.487   1.932
    1C        O  764   2.872   4.454   1.811
    1C        O  765   2.854   4.622   1.958
    1C        C  766   2.347   3.465   1.956
    1C        O  767   2.391   3.410   1.852
    1C        O  768   2.207   3.463   1.963
    1C        C  769   4.706   3.597   5.039
    1C        O  770   4.692   3.571   5.161
    1C        O  771   4.829   3.572   4.977
    1C        C  772   4.271   4.456   5.037
    1C        O  773   4.253   4.425   5.157
    1C        O  774   4.405   4.490   5.013
    1C        C  775   4.151   2.531   5.073
    1C        O  776   4.256   2.474   5.033
    1C        O  777   4.178   2.586   5.199
    1C        C  778   2.880   4.520   5.068
    1C        O  779   2.847   4.633   5.022
    1C        O  780   2.922   4.506   5.200
    1C        C  781   2.473   3.030   5.070
    1C        O  782   2.371   2.964   5.036
    1C        O  783   2.500   3.046   5.206
    1C        C  784   2.384   4.030   5.002
    1C        O  785   2.289   4.045   4.921
    1C        O  786   2.337   3.971   5.120
    1C        C  787   2.963   2.423   1.992
    1C        O  788   2.942   2.457   1.873
    1C        O  789   2.896   2.309   2.034
    1C        C  790   3.172   2.365   5.051
    1C        O  791   3.125   2.263   4.994
    1C        O  792   3.160   2.350   5.189
    1C        H  793   4.271   3.024   5.060
    1C        H  794   4.177   2.805   5.069
    1C        H  795   4.522   3.121   5.046
    1C        H  796   4.525   3.365   5.063
    1C        H  797   4.573   3.813   5.035
    1C        H  798   4.392   3.953   5.052
    1C        H  799   4.325   4.180   5.047
    1C        H  800   4.020   4.524   5.028
    1C        H  801   3.802   4.546   5.045
    1C        H  802   3.577   4.602   5.038
    1C        H  803   3.395   4.467   5.029
    1C        H  804   3.154   4.536   5.046
    1C        H  805   3.895   2.458   5.052
    1C        H  806   3.667   2.514   5.071
    1C        H  807   2.995   2.554   5.061
    1C        H  808   3.441   2.493   5.073
    1C        H  809   2.883   2.744   5.082
    1C        H  810   2.744   2.937   5.064
    1C        H  811   2.500   3.292   5.067
    1C        H  812   2.479   3.504   5.060
    1C        H  813   2.508   3.723   5.065
    1C        H  814   2.630   4.145   5.053
    1C        H  815   2.751   4.317   5.050
    1C        H  816   2.677   2.858   1.975
    1C        H  817   2.869   2.707   1.976
    1C        H  818   3.218   2.470   1.980
    1C        H  819   3.428   2.428   1.978
    1C        H  820   3.848   2.536   1.966
    1C        H  821   4.071   2.601   1.967
    1C        H  822   4.279   2.692   1.978
    1C        H  823   4.411   2.880   1.979
    1C        H  824   4.511   3.310   1.966
    1C        H  825   4.441   3.522   1.976
    1C        H  826   4.534   3.747   1.953
    1C        H  827   3.805   4.529   1.955
    1C        H  828   3.963   4.385   1.942
    1C        H  829   4.160   4.255   1.944
    1C        H  830   4.459   3.950   1.952
    1C        H  831   2.669   3.831   1.979
    1C        H  832   2.716   4.059   1.956
    1C        H  833   2.700   4.319   1.985
    1C        H  834   3.342   4.535   1.949
    1C        H  835   3.161   4.368   1.959
    1C        H  836   2.523   3.007   1.985
    1C        H  837   2.412   3.207   1.994
    1C        H  838   2.446   3.694   1.980
    2V3OU   H29  839   2.792   3.551   1.972
    2V3OU   C27  840   2.783   3.501   2.072
    2V3OU   H27  841   2.731   3.566   2.147
    2V3OU   H28  842   2.729   3.405   2.051
    2V3OU   O11  843   2.908   3.477   2.137
    2V3OU   C15  844   2.925   3.399   2.250
    2V3OU   C13  845   3.053   3.377   2.304
    2V3OU   C14  846   3.077   3.267   2.387
    2V3OU   C16  847   2.972   3.184   2.424
    2V3OU    H6  848   2.986   3.099   2.492
    2V3OU   C12  849   3.211   3.229   2.437
    2V3OU    O2  850   3.236   3.122   2.497
    2V3OU   C10  851   3.322   3.302   2.373
    2V3OU    C8  852   3.454   3.264   2.393
    2V3OU   O10  853   3.483   3.153   2.466
    2V3OU   H26  854   3.397   3.112   2.486
    2V3OU    C6  855   3.564   3.346   2.354
    2V3OU    C5  856   3.538   3.466   2.288
    2V3OU    C4  857   3.703   3.293   2.365
    2V3OU    H4  858   3.723   3.228   2.456
    2V3OU    H5  859   3.712   3.230   2.272
    2V3OU    C2  860   3.816   3.397   2.362
    2V3OU    O6  861   3.803   3.474   2.481
    2V3OU   H21  862   3.758   3.554   2.450
    2V3OU    C3  863   3.782   3.490   2.246
    2V3OU    H2  864   3.869   3.560   2.241
    2V3OU    H3  865   3.780   3.433   2.150
    2V3OU   C25  866   3.952   3.329   2.343
    2V3OU    O7  867   3.995   3.295   2.233
    2V3OU   C26  868   4.027   3.286   2.468
    2V3OU   H22  869   4.064   3.374   2.527
    2V3OU   H23  870   4.119   3.228   2.441
    2V3OU    O8  871   3.959   3.200   2.556
    2V3OU   H24  872   3.920   3.261   2.621
    2V3OU    C1  873   3.649   3.563   2.258
    2V3OU    H1  874   3.622   3.614   2.161
    2V3OU    O3  875   3.660   3.654   2.367
    2V3OU   C19  876   3.619   3.791   2.359
    2V3OU    H9  877   3.516   3.801   2.312
    2V3OU    O4  878   3.714   3.848   2.272
    2V3OU   C20  879   3.844   3.870   2.326
    2V3OU   H10  880   3.893   3.769   2.340
    2V3OU   C24  881   3.609   3.853   2.498
    2V3OU   H16  882   3.540   3.794   2.565
    2V3OU   H17  883   3.566   3.955   2.478
    2V3OU   C23  884   3.747   3.877   2.559
    2V3OU   H15  885   3.792   3.774   2.581
    2V3OU    N1  886   3.732   3.952   2.682
    2V3OU   H19  887   3.801   3.916   2.745
    2V3OU   H20  888   3.644   3.935   2.726
    2V3OU   C21  889   3.847   3.945   2.460
    2V3OU   H11  890   3.952   3.929   2.498
    2V3OU    O5  891   3.826   4.085   2.458
    2V3OU   H18  892   3.786   4.106   2.544
    2V3OU   C22  893   3.910   3.943   2.211
    2V3OU   H12  894   3.862   4.044   2.201
    2V3OU   H13  895   3.903   3.883   2.117
    2V3OU   H14  896   4.018   3.962   2.233
    2V3OU   C11  897   3.162   3.470   2.268
    2V3OU    O1  898   3.139   3.580   2.214
    2V3OU    C9  899   3.297   3.426   2.307
    2V3OU    C7  900   3.403   3.505   2.263
    2V3OU    O9  901   3.385   3.605   2.171
    2V3OU   H25  902   3.290   3.625   2.183
    2V3OU   C17  903   2.818   3.317   2.292
    2V3OU    H7  904   2.721   3.338   2.248
    2V3OU   C18  905   2.844   3.210   2.377
    2V3OU    H8  906   2.768   3.162   2.440
    3SOL     OW  907   3.534   4.721   0.783
    3SOL    HW1  908   3.524   4.768   0.871
    3SOL    HW2  909   3.556   4.625   0.799
    4SOL     OW  910   6.843   6.156   1.859
    4SOL    HW1  911   6.917   6.127   1.920
    4SOL    HW2  912   6.791   6.229   1.904
    5SOL     OW  913   4.257   1.486   2.801
    5SOL    HW1  914   4.232   1.390   2.815
    5SOL    HW2  915   4.227   1.516   2.711
    6SOL     OW  916   4.407   1.458   0.944
    6SOL    HW1  917   4.390   1.359   0.941
    6SOL    HW2  918   4.322   1.506   0.965
    7SOL     OW  919   6.610   3.565   2.537
    7SOL    HW1  920   6.663   3.480   2.539
    7SOL    HW2  921   6.672   3.643   2.548
    8SOL     OW  922   2.689   0.068   6.439
    8SOL    HW1  923   2.735   6.999   6.421
    8SOL    HW2  924   2.672   0.078   6.537
    9SOL     OW  925   6.865   5.497   6.350
    9SOL    HW1  926   6.889   5.491   6.447
    9SOL    HW2  927   6.769   5.470   6.338
   10SOL     OW  928   0.806   5.168   5.925
   10SOL    HW1  929   0.733   5.237   5.914
   10SOL    HW2  930   0.803   5.105   5.848
   11SOL     OW  931   2.872   0.051   6.818
   11SOL    HW1  932   2.859   7.005   6.894
   11SOL    HW2  933   2.950   0.022   6.763
   12SOL     OW  934   3.789   6.293   4.235
   12SOL    HW1  935   3.778   6.321   4.139
   12SOL    HW2  936   3.779   6.194   4.242
   13SOL     OW  937   3.344   5.367   3.702
   13SOL    HW1  938   3.321   5.425   3.781
   13SOL    HW2  939   3.278   5.383   3.629
   14SOL     OW  940   5.158   5.036   6.240
   14SOL    HW1  941   5.192   5.124   6.209
   14SOL    HW2  942   5.185   5.021   6.336
   15SOL     OW  943   1.382   5.687   1.334
   15SOL    HW1  944   1.375   5.706   1.432
   15SOL    HW2  945   1.309   5.735   1.286
   16SOL     OW  946   5.350   3.124   5.773
   16SOL    HW1  947   5.423   3.181   5.810
   16SOL    HW2  948   5.345   3.135   5.674
   17SOL     OW  949   5.290   6.493   5.591
   17SOL    HW1  950   5.241   6.579   5.580
   17SOL    HW2  951   5.225   6.417   5.590
   18SOL     OW  952   3.342   0.911   5.985
   18SOL    HW1  953   3.402   0.843   5.944
   18SOL    HW2  954   3.274   0.941   5.918
   19SOL     OW  955   0.530   7.013   3.397
   19SOL    HW1  956   0.571   0.050   3.471
   19SOL    HW2  957   0.486   0.056   3.331
   20SOL     OW  958   5.504   2.581   4.552
   20SOL    HW1  959   5.443   2.559   4.629
   20SOL    HW2  960   5.599   2.585   4.585
   21SOL     OW  961   3.167   2.034   2.349
   21SOL    HW1  962   3.140   2.014   2.443
   21SOL    HW2  963   3.104   2.101   2.309
   22SOL     OW  964   2.313   6.859   0.020
   22SOL    HW1  965   2.397   6.890   0.065
   22SOL    HW2  966   2.253   6.817   0.087
   23SOL     OW  967   4.791   6.505   3.309
   23SOL    HW1  968   4.743   6.457   3.383
   23SOL    HW2  969   4.724   6.546   3.247
   24SOL     OW  970   4.984   0.754   3.397
   24SOL    HW1  971   4.970   0.694   3.318
   24SOL    HW2  972   4.978   0.701   3.481
   25SOL     OW  973   2.994   7.002   5.189
   25SOL    HW1  974   3.063   6.958   5.133
   25SOL    HW2  975   2.969   0.072   5.149
   26SOL     OW  976   6.267   0.944   0.621
   26SOL    HW1  977   6.314   1.030   0.639
   26SOL    HW2  978   6.314   0.869   0.667
   27SOL     OW  979   0.782   1.599   1.679
   27SOL    HW1  980   0.878   1.621   1.660
   27SOL    HW2  981   0.771   1.500   1.682
   28SOL     OW  982   3.715   1.299   6.632
   28SOL    HW1  983   3.756   1.243   6.705
   28SOL    HW2  984   3.782   1.367   6.601
   29SOL     OW  985   4.963   2.866   1.598
   29SOL    HW1  986   4.949   2.959   1.565
   29SOL    HW2  987   4.992   2.869   1.694
   30SOL     OW  988   3.243   0.907   4.552
   30SOL    HW1  989   3.321   0.888   4.493
   30SOL    HW2  990   3.268   0.973   4.622
   31SOL     OW  991   0.808   2.474   5.742
   31SOL    HW1  992   0.740   2.444   5.808
   31SOL    HW2  993   0.763   2.530   5.671
   32SOL     OW  994   0.287   1.723   3.161
   32SOL    HW1  995   0.207   1.781   3.149
   32SOL    HW2  996   0.303   1.671   3.077
   33SOL     OW  997   2.393   3.585   6.981
   33SOL    HW1  998   2.457   3.662   6.985
   33SOL    HW2  999   2.348   3.574   0.052
   34SOL     OW 1000   2.265   1.463   3.324
   34SOL    HW1 1001   2.301   1.534   3.386
   34SOL    HW2 1002   2.273   1.495   3.229
   35SOL     OW 1003   3.502   2.647   6.933
   35SOL    HW1 1004   3.576   2.711   6.912
   35SOL    HW2 1005   3.414   2.687   6.908
   36SOL     OW 1006   6.298   0.859   5.730
   36SOL    HW1 1007   6.261   0.947   5.701
   36SOL    HW2 1008   6.337   0.812   5.652
   37SOL     OW 1009   1.148   0.185   0.619
   37SOL    HW1 1010   1.226   0.123   0.617
   37SOL    HW2 1011   1.083   0.161   0.547
   38SOL     OW 1012   6.955   4.573   2.427
   38SOL    HW1 1013   6.875   4.545   2.479
   38SOL    HW2 1014   6.934   4.568   2.329
   39SOL     OW 1015   0.033   5.089   6.835
   39SOL    HW1 1016   7.002   5.138   6.763
   39SOL    HW2 1017   0.035   4.991   6.814
   40SOL     OW 1018   5.391   2.002   1.399
   40SOL    HW1 1019   5.293   2.001   1.378
   40SOL    HW2 1020   5.443   1.967   1.321
   41SOL     OW 1021   6.689   6.539   4.007
   41SOL    HW1 1022   6.705   6.622   3.953
   41SOL    HW2 1023   6.652   6.563   4.097
   42SOL     OW 1024   2.556   5.570   5.218
   42SOL    HW1 1025   2.488   5.501   5.244
   42SOL    HW2 1026   2.509   5.656   5.198
   43SOL     OW 1027   5.579   6.482   5.195
   43SOL    HW1 1028   5.542   6.412   5.255
   43SOL    HW2 1029   5.671   6.508   5.225
   44SOL     OW 1030   5.622   2.010   6.516
   44SOL    HW1 1031   5.587   2.082   6.576
   44SOL    HW2 1032   5.599   1.920   6.554
   45SOL     OW 1033   3.339   6.549   3.204
   45SOL    HW1 1034   3.399   6.568   3.126
   45SOL    HW2 1035   3.246   6.535   3.171
   46SOL     OW 1036   1.256   3.205   3.316
   46SOL    HW1 1037   1.234   3.272   3.386
   46SOL    HW2 1038   1.173   3.179   3.266
   47SOL     OW 1039   4.881   4.730   1.171
   47SOL    HW1 1040   4.969   4.743   1.217
   47SOL    HW2 1041   4.863   4.807   1.111
   48SOL     OW 1042   6.875   2.732   6.004
   48SOL    HW1 1043   6.895   2.776   6.092
   48SOL    HW2 1044   6.889   2.797   5.930
   49SOL     OW 1045   4.747   4.099   1.896
   49SOL    HW1 1046   4.709   4.033   1.830
   49SOL    HW2 1047   4.673   4.151   1.938
   50SOL     OW 1048   6.316   2.584   5.554
   50SOL    HW1 1049   6.231   2.637   5.549
   50SOL    HW2 1050   6.329   2.534   5.468
   51SOL     OW 1051   3.130   6.419   2.663
   51SOL    HW1 1052   3.138   6.518   2.657
   51SOL    HW2 1053   3.047   6.395   2.713
   52SOL     OW 1054   5.321   2.268   3.224
   52SOL    HW1 1055   5.324   2.310   3.133
   52SOL    HW2 1056   5.411   2.232   3.248
   53SOL     OW 1057   4.008   6.810   4.489
   53SOL    HW1 1058   4.107   6.810   4.497
   53SOL    HW2 1059   3.978   6.731   4.436
   54SOL     OW 1060   3.765   4.763   1.077
   54SOL    HW1 1061   3.821   4.713   1.011
   54SOL    HW2 1062   3.672   4.772   1.042
   55SOL     OW 1063   3.290   1.553   6.072
   55SOL    HW1 1064   3.303   1.651   6.083
   55SOL    HW2 1065   3.194   1.529   6.085
   56SOL     OW 1066   0.135   0.610   1.314
   56SOL    HW1 1067   0.213   0.559   1.351
   56SOL    HW2 1068   0.128   0.594   1.216
   57SOL     OW 1069   5.236   0.151   0.643
   57SOL    HW1 1070   5.193   0.242   0.647
   57SOL    HW2 1071   5.282   0.133   0.730
   58SOL     OW 1072   6.638   6.696   6.001
   58SOL    HW1 1073   6.598   6.780   6.037
   58SOL    HW2 1074   6.728   6.681   6.043
   59SOL     OW 1075   1.519   1.427   5.698
   59SOL    HW1 1076   1.529   1.470   5.609
   59SOL    HW2 1077   1.564   1.337   5.697
   60SOL     OW 1078   5.514   0.970   5.922
   60SOL    HW1 1079   5.522   0.874   5.892
   60SOL    HW2 1080   5.420   0.989   5.947
   61SOL     OW 1081   4.971   1.956   4.919
   61SOL    HW1 1082   4.912   1.881   4.948
   61SOL    HW2 1083   4.987   2.017   4.997
   62SOL     OW 1084   6.579   1.208   3.142
   62SOL    HW1 1085   6.633   1.124   3.146
   62SOL    HW2 1086   6.630   1.283   3.185
   63SOL     OW 1087   5.492   1.489   3.919
   63SOL    HW1 1088   5.518   1.553   3.847
   63SOL    HW2 1089   5.487   1.396   3.881
   64SOL     OW 1090   0.343   3.825   5.870
   64SOL    HW1 1091   0.297   3.739   5.853
   64SOL    HW2 1092   0.277   3.900   5.864
   65SOL     OW 1093   6.782   4.651   5.423
   65SOL    HW1 1094   6.693   4.695   5.432
   65SOL    HW2 1095   6.828   4.650   5.512
   66SOL     OW 1096   3.848   0.708   5.537
   66SOL    HW1 1097   3.900   0.765   5.472
   66SOL    HW2 1098   3.762   0.680   5.494
   67SOL     OW 1099   5.072   4.293   5.805
   67SOL    HW1 1100   4.982   4.335   5.797
   67SOL    HW2 1101   5.141   4.365   5.816
   68SOL     OW 1102   5.446   0.770   6.711
   68SOL    HW1 1103   5.495   0.843   6.760
   68SOL    HW2 1104   5.370   0.738   6.767
   69SOL     OW 1105   1.067   3.925   6.166
   69SOL    HW1 1106   0.995   3.992   6.149
   69SOL    HW2 1107   1.076   3.909   6.264
   70SOL     OW 1108   5.753   4.934   4.207
   70SOL    HW1 1109   5.727   4.926   4.304
   70SOL    HW2 1110   5.850   4.954   4.200
   71SOL     OW 1111   4.288   1.672   3.262
   71SOL    HW1 1112   4.323   1.583   3.292
   71SOL    HW2 1113   4.323   1.692   3.170
   72SOL     OW 1114   2.502   6.320   4.411
   72SOL    HW1 1115   2.488   6.222   4.427
   72SOL    HW2 1116   2.574   6.332   4.343
   73SOL     OW 1117   3.361   1.096   0.844
   73SOL    HW1 1118   3.421   1.176   0.834
   73SOL    HW2 1119   3.268   1.120   0.815
   74SOL     OW 1120   5.362   6.272   6.403
   74SOL    HW1 1121   5.298   6.304   6.473
   74SOL    HW2 1122   5.324   6.190   6.359
   75SOL     OW 1123   3.865   0.129   0.054
   75SOL    HW1 1124   3.959   0.107   0.079
   75SOL    HW2 1125   3.814   0.044   0.039
   76SOL     OW 1126   2.598   2.636   1.079
   76SOL    HW1 1127   2.576   2.541   1.057
   76SOL    HW2 1128   2.567   2.696   1.005
   77SOL     OW 1129   6.171   6.500   3.379
   77SOL    HW1 1130   6.109   6.554   3.322
   77SOL    HW2 1131   6.118   6.455   3.452
   78SOL     OW 1132   5.899   0.496   6.585
   78SOL    HW1 1133   5.847   0.463   6.506
   78SOL    HW2 1134   5.995   0.508   6.560
   79SOL     OW 1135   3.167   5.946   0.219
   79SOL    HW1 1136   3.210   5.989   0.139
   79SOL    HW2 1137   3.187   5.848   0.219
   80SOL     OW 1138   5.625   2.000   3.683
   80SOL    HW1 1139   5.691   1.928   3.706
   80SOL    HW2 1140   5.563   1.967   3.613
   81SOL     OW 1141   2.126   0.478   3.294
   81SOL    HW1 1142   2.111   0.544   3.367
   81SOL    HW2 1143   2.062   0.402   3.303
   82SOL     OW 1144   6.670   5.045   0.917
   82SOL    HW1 1145   6.572   5.025   0.906
   82SOL    HW2 1146   6.719   4.960   0.939
   83SOL     OW 1147   0.294   0.630   0.774
   83SOL    HW1 1148   0.375   0.572   0.762
   83SOL    HW2 1149   0.243   0.633   0.689
   84SOL     OW 1150   5.284   2.882   3.598
   84SOL    HW1 1151   5.367   2.913   3.552
   84SOL    HW2 1152   5.247   2.802   3.550
   85SOL     OW 1153   2.073   2.150   4.653
   85SOL    HW1 1154   2.026   2.063   4.633
   85SOL    HW2 1155   2.012   2.209   4.705
   86SOL     OW 1156   6.967   0.659   5.320
   86SOL    HW1 1157   6.884   0.605   5.334
   86SOL    HW2 1158   6.943   0.755   5.309
   87SOL     OW 1159   5.353   3.622   0.451
   87SOL    HW1 1160   5.320   3.630   0.357
   87SOL    HW2 1161   5.290   3.669   0.513
   88SOL     OW 1162   3.680   1.442   6.177
   88SOL    HW1 1163   3.688   1.525   6.123
   88SOL    HW2 1164   3.651   1.366   6.117
   89SOL     OW 1165   0.945   2.532   5.399
   89SOL    HW1 1166   0.976   2.509   5.491
   89SOL    HW2 1167   0.931   2.448   5.346
   90SOL     OW 1168   3.935   5.953   2.581
   90SOL    HW1 1169   3.909   6.044   2.548
   90SOL    HW2 1170   3.903   5.884   2.516
   91SOL     OW 1171   4.575   4.321   5.115
   91SOL    HW1 1172   4.650   4.380   5.087
   91SOL    HW2 1173   4.489   4.354   5.075
   92SOL     OW 1174   3.509   4.088   0.229
   92SOL    HW1 1175   3.581   4.146   0.266
   92SOL    HW2 1176   3.538   4.048   0.142
   93SOL     OW 1177   2.649   3.936   6.562
   93SOL    HW1 1178   2.618   3.845   6.589
   93SOL    HW2 1179   2.599   3.966   6.481
   94SOL     OW 1180   2.648   6.122   6.152
   94SOL    HW1 1181   2.608   6.072   6.075
   94SOL    HW2 1182   2.700   6.200   6.117
   95SOL     OW 1183   1.352   0.573   3.042
   95SOL    HW1 1184   1.260   0.597   3.072
   95SOL    HW2 1185   1.362   0.592   2.945
   96SOL     OW 1186   3.140   0.296   5.393
   96SOL    HW1 1187   3.131   0.211   5.445
   96SOL    HW2 1188   3.236   0.313   5.372
   97SOL     OW 1189   2.019   2.967   5.928
   97SOL    HW1 1190   1.986   2.972   5.834
   97SOL    HW2 1191   2.117   2.950   5.929
   98SOL     OW 1192   6.530   3.682   0.723
   98SOL    HW1 1193   6.580   3.631   0.793
   98SOL    HW2 1194   6.457   3.735   0.766
   99SOL     OW 1195   4.177   3.740   1.122
   99SOL    HW1 1196   4.081   3.713   1.110
   99SOL    HW2 1197   4.232   3.700   1.049
  100SOL     OW 1198   6.883   6.669   5.100
  100SOL    HW1 1199   6.860   6.673   5.003
  100SOL    HW2 1200   6.900   6.762   5.134
  101SOL     OW 1201   1.660   5.585   2.326
  101SOL    HW1 1202   1.637   5.536   2.242
  101SOL    HW2 1203   1.713   5.667   2.304
  102SOL     OW 1204   3.757   0.121   2.841
  102SOL    HW1 1205   3.828   0.169   2.894
  102SOL    HW2 1206   3.700   0.187   2.793
  103SOL     OW 1207   2.776   1.157   2.267
  103SOL    HW1 1208   2.749   1.061   2.261
  103SOL    HW2 1209   2.697   1.215   2.250
  104SOL     OW 1210   0.344   5.439   2.898
  104SOL    HW1 1211   0.273   5.507   2.913
  104SOL    HW2 1212   0.323   5.356   2.950
  105SOL     OW 1213   6.830   2.708   6.636
  105SOL    HW1 1214   6.834   2.613   6.669
  105SOL    HW2 1215   6.735   2.736   6.625
  106SOL     OW 1216   3.550   6.338   4.943
  106SOL    HW1 1217   3.572   6.433   4.922
  106SOL    HW2 1218   3.533   6.329   5.042
  107SOL     OW 1219   2.069   1.313   1.749
  107SOL    HW1 1220   2.107   1.395   1.706
  107SOL    HW2 1221   2.032   1.337   1.839
  108SOL     OW 1222   3.802   5.298   5.801
  108SOL    HW1 1223   3.821   5.202   5.818
  108SOL    HW2 1224   3.709   5.319   5.830
  109SOL     OW 1225   6.991   0.846   1.710
  109SOL    HW1 1226   6.995   0.781   1.634
  109SOL    HW2 1227   6.962   0.798   1.793
  110SOL     OW 1228   3.245   5.418   5.088
  110SOL    HW1 1229   3.333   5.466   5.088
  110SOL    HW2 1230   3.241   5.354   5.164
  111SOL     OW 1231   2.716   1.499   4.261
  111SOL    HW1 1232   2.651   1.496   4.336
  111SOL    HW2 1233   2.676   1.550   4.184
  112SOL     OW 1234   4.825   7.004   6.365
  112SOL    HW1 1235   4.832   6.932   6.297
  112SOL    HW2 1236   4.789   0.070   6.323
  113SOL     OW 1237   5.957   5.960   3.041
  113SOL    HW1 1238   6.017   5.959   2.960
  113SOL    HW2 1239   5.917   5.869   3.053
  114SOL     OW 1240   0.407   0.548   1.368
  114SOL    HW1 1241   0.370   0.456   1.354
  114SOL    HW2 1242   0.481   0.564   1.303
  115SOL     OW 1243   3.969   1.448   3.559
  115SOL    HW1 1244   4.000   1.541   3.578
  115SOL    HW2 1245   3.916   1.446   3.475
  116SOL     OW 1246   5.638   4.759   1.668
  116SOL    HW1 1247   5.703   4.821   1.711
  116SOL    HW2 1248   5.621   4.789   1.574
  117SOL     OW 1249   1.246   1.792   0.621
  117SOL    HW1 1250   1.260   1.728   0.697
  117SOL    HW2 1251   1.189   1.749   0.551
  118SOL     OW 1252   1.695   1.214   3.477
  118SOL    HW1 1253   1.655   1.219   3.569
  118SOL    HW2 1254   1.788   1.178   3.483
  119SOL     OW 1255   0.411   1.267   6.902
  119SOL    HW1 1256   0.341   1.215   6.951
  119SOL    HW2 1257   0.466   1.205   6.846
  120SOL     OW 1258   6.545   6.531   0.279
  120SOL    HW1 1259   6.626   6.532   0.337
  120SOL    HW2 1260   6.572   6.527   0.183
  121SOL     OW 1261   2.065   3.569   6.374
  121SOL    HW1 1262   2.122   3.498   6.416
  121SOL    HW2 1263   2.059   3.648   6.435
  122SOL     OW 1264   2.192   4.136   6.439
  122SOL    HW1 1265   2.173   4.089   6.525
  122SOL    HW2 1266   2.113   4.128   6.378
  123SOL     OW 1267   0.249   1.189   2.000
  123SOL    HW1 1268   0.341   1.153   1.985
  123SOL    HW2 1269   0.212   1.223   1.913
  124SOL     OW 1270   4.489   3.231   0.907
  124SOL    HW1 1271   4.520   3.138   0.926
  124SOL    HW2 1272   4.522   3.260   0.817
  125SOL     OW 1273   3.571   1.728   1.566
  125SOL    HW1 1274   3.515   1.808   1.590
  125SOL    HW2 1275   3.666   1.745   1.592
  126SOL     OW 1276   2.557   3.741   0.951
  126SOL    HW1 1277   2.519   3.738   1.043
  126SOL    HW2 1278   2.529   3.659   0.901
  127SOL     OW 1279   0.826   5.439   6.472
  127SOL    HW1 1280   0.871   5.352   6.449
  127SOL    HW2 1281   0.766   5.466   6.397
  128SOL     OW 1282   4.888   3.128   1.248
  128SOL    HW1 1283   4.935   3.044   1.273
  128SOL    HW2 1284   4.871   3.129   1.149
  129SOL     OW 1285   2.403   2.926   6.172
  129SOL    HW1 1286   2.489   2.875   6.181
  129SOL    HW2 1287   2.365   2.912   6.081
  130SOL     OW 1288   0.959   1.947   3.711
  130SOL    HW1 1289   0.985   1.850   3.708
  130SOL    HW2 1290   1.034   2.002   3.672
  131SOL     OW 1291   5.083   1.803   3.845
  131SOL    HW1 1292   5.025   1.851   3.911
  131SOL    HW2 1293   5.171   1.850   3.837
  132SOL     OW 1294   2.167   2.277   1.318
  132SOL    HW1 1295   2.134   2.270   1.413
  132SOL    HW2 1296   2.265   2.295   1.319
  133SOL     OW 1297   4.703   6.501   3.960
  133SOL    HW1 1298   4.728   6.524   3.866
  133SOL    HW2 1299   4.605   6.481   3.965
  134SOL     OW 1300   6.518   1.353   2.381
  134SOL    HW1 1301   6.476   1.330   2.469
  134SOL    HW2 1302   6.617   1.352   2.389
  135SOL     OW 1303   5.768   3.673   3.760
  135SOL    HW1 1304   5.703   3.635   3.826
  135SOL    HW2 1305   5.808   3.598   3.707
  136SOL     OW 1306   3.533   3.788   5.783
  136SOL    HW1 1307   3.539   3.697   5.823
  136SOL    HW2 1308   3.620   3.811   5.739
  137SOL     OW 1309   5.670   2.053   4.488
  137SOL    HW1 1310   5.638   2.038   4.395
  137SOL    HW2 1311   5.617   2.127   4.530
  138SOL     OW 1312   0.985   4.095   2.783
  138SOL    HW1 1313   0.889   4.109   2.761
  138SOL    HW2 1314   1.042   4.122   2.705
  139SOL     OW 1315   2.067   0.047   4.683
  139SOL    HW1 1316   2.012   0.131   4.689
  139SOL    HW2 1317   2.077   0.020   4.587
  140SOL     OW 1318   0.885   5.409   2.741
  140SOL    HW1 1319   0.931   5.371   2.822
  140SOL    HW2 1320   0.877   5.339   2.671
  141SOL     OW 1321   6.173   3.199   5.238
  141SOL    HW1 1322   6.088   3.187   5.290
  141SOL    HW2 1323   6.211   3.290   5.258
  142SOL     OW 1324   1.323   3.773   0.652
  142SOL    HW1 1325   1.231   3.800   0.624
  142SOL    HW2 1326   1.320   3.683   0.694
  143SOL     OW 1327   6.016   4.627   1.376
  143SOL    HW1 1328   6.033   4.529   1.369
  143SOL    HW2 1329   5.921   4.643   1.403
  144SOL     OW 1330   1.048   6.604   6.070
  144SOL    HW1 1331   0.991   6.606   5.988
  144SOL    HW2 1332   1.069   6.509   6.094
  145SOL     OW 1333   6.948   5.925   0.214
  145SOL    HW1 1334   6.966   5.853   0.147
  145SOL    HW2 1335   6.851   5.923   0.240
  146SOL     OW 1336   4.664   6.969   6.764
  146SOL    HW1 1337   4.703   6.878   6.774
  146SOL    HW2 1338   4.736   0.016   6.739
  147SOL     OW 1339   6.458   3.839   6.906
  147SOL    HW1 1340   6.451   3.894   6.823
  147SOL    HW2 1341   6.439   3.896   6.985
  148SOL     OW 1342   0.126   5.370   6.209
  148SOL    HW1 1343   0.144   5.286   6.261
  148SOL    HW2 1344   0.081   5.436   6.268
  149SOL     OW 1345   2.953   1.627   4.225
  149SOL    HW1 1346   2.885   1.558   4.203
  149SOL    HW2 1347   2.939   1.659   4.319
  150SOL     OW 1348   5.901   5.616   6.752
  150SOL    HW1 1349   5.973   5.668   6.800
  150SOL    HW2 1350   5.926   5.608   6.655
  151SOL     OW 1351   2.984   2.029   0.835
  151SOL    HW1 1352   2.886   2.047   0.829
  151SOL    HW2 1353   3.004   1.940   0.793
  152SOL     OW 1354   1.450   0.826   2.593
  152SOL    HW1 1355   1.452   0.834   2.493
  152SOL    HW2 1356   1.541   0.844   2.630
  153SOL     OW 1357   2.656   0.748   1.768
  153SOL    HW1 1358   2.706   0.822   1.724
  153SOL    HW2 1359   2.684   0.740   1.864
  154SOL     OW 1360   0.539   2.113   2.406
  154SOL    HW1 1361   0.531   2.142   2.311
  154SOL    HW2 1362   0.626   2.145   2.444
  155SOL     OW 1363   6.796   1.878   3.257
  155SOL    HW1 1364   6.804   1.959   3.315
  155SOL    HW2 1365   6.720   1.822   3.288
  156SOL     OW 1366   0.406   1.979   0.639
  156SOL    HW1 1367   0.411   2.030   0.726
  156SOL    HW2 1368   0.340   1.904   0.648
  157SOL     OW 1369   5.697   2.882   1.363
  157SOL    HW1 1370   5.647   2.941   1.426
  157SOL    HW2 1371   5.685   2.787   1.390
  158SOL     OW 1372   2.096   5.639   2.644
  158SOL    HW1 1373   2.044   5.713   2.687
  158SOL    HW2 1374   2.133   5.671   2.557
  159SOL     OW 1375   4.447   4.659   2.418
  159SOL    HW1 1376   4.482   4.591   2.482
  159SOL    HW2 1377   4.452   4.624   2.325
  160SOL     OW 1378   5.888   5.252   0.191
  160SOL    HW1 1379   5.843   5.219   0.108
  160SOL    HW2 1380   5.905   5.350   0.183
  161SOL     OW 1381   1.693   5.928   4.190
  161SOL    HW1 1382   1.689   5.918   4.090
  161SOL    HW2 1383   1.786   5.907   4.222
  162SOL     OW 1384   3.622   5.800   0.289
  162SOL    HW1 1385   3.551   5.749   0.240
  162SOL    HW2 1386   3.652   5.877   0.233
  163SOL     OW 1387   5.804   5.681   0.718
  163SOL    HW1 1388   5.825   5.701   0.814
  163SOL    HW2 1389   5.711   5.646   0.711
  164SOL     OW 1390   6.561   4.486   0.226
  164SOL    HW1 1391   6.547   4.388   0.245
  164SOL    HW2 1392   6.641   4.518   0.277
  165SOL     OW 1393   4.868   3.111   1.534
  165SOL    HW1 1394   4.862   3.110   1.434
  165SOL    HW2 1395   4.778   3.129   1.573
  166SOL     OW 1396   0.063   4.494   3.089
  166SOL    HW1 1397   0.073   4.488   3.188
  166SOL    HW2 1398   0.154   4.494   3.046
  167SOL     OW 1399   5.053   2.771   0.619
  167SOL    HW1 1400   5.147   2.797   0.598
  167SOL    HW2 1401   4.998   2.776   0.535
  168SOL     OW 1402   2.428   2.984   1.294
  168SOL    HW1 1403   2.381   3.047   1.231
  168SOL    HW2 1404   2.445   3.031   1.381
  169SOL     OW 1405   4.691   0.980   1.266
  169SOL    HW1 1406   4.670   0.922   1.345
  169SOL    HW2 1407   4.632   0.954   1.189
  170SOL     OW 1408   1.535   1.391   3.116
  170SOL    HW1 1409   1.508   1.399   3.212
  170SOL    HW2 1410   1.596   1.313   3.105
  171SOL     OW 1411   3.794   4.299   6.692
  171SOL    HW1 1412   3.770   4.333   6.601
  171SOL    HW2 1413   3.710   4.282   6.744
  172SOL     OW 1414   6.112   1.975   3.752
  172SOL    HW1 1415   6.188   1.945   3.809
  172SOL    HW2 1416   6.059   2.045   3.802
  173SOL     OW 1417   6.905   1.926   4.622
  173SOL    HW1 1418   6.881   2.014   4.580
  173SOL    HW2 1419   6.984   1.887   4.573
  174SOL     OW 1420   3.635   5.247   3.441
  174SOL    HW1 1421   3.666   5.203   3.357
  174SOL    HW2 1422   3.615   5.177   3.510
  175SOL     OW 1423   2.279   0.440   1.667
  175SOL    HW1 1424   2.284   0.358   1.609
  175SOL    HW2 1425   2.219   0.422   1.745
  176SOL     OW 1426   1.019   4.736   0.582
  176SOL    HW1 1427   1.005   4.743   0.483
  176SOL    HW2 1428   0.974   4.654   0.617
  177SOL     OW 1429   5.944   3.249   2.973
  177SOL    HW1 1430   5.916   3.332   3.021
  177SOL    HW2 1431   5.938   3.265   2.874
  178SOL     OW 1432   2.354   2.606   6.845
  178SOL    HW1 1433   2.391   2.675   6.907
  178SOL    HW2 1434   2.414   2.527   6.842
  179SOL     OW 1435   3.095   0.991   5.814
  179SOL    HW1 1436   3.009   1.028   5.850
  179SOL    HW2 1437   3.076   0.928   5.739
  180SOL     OW 1438   1.963   6.709   0.393
  180SOL    HW1 1439   1.948   6.610   0.398
  180SOL    HW2 1440   1.899   6.755   0.454
  181SOL     OW 1441   3.310   2.441   6.422
  181SOL    HW1 1442   3.363   2.515   6.382
  181SOL    HW2 1443   3.356   2.407   6.504
  182SOL     OW 1444   4.032   1.347   4.477
  182SOL    HW1 1445   3.967   1.415   4.511
  182SOL    HW2 1446   4.113   1.347   4.535
  183SOL     OW 1447   3.444   2.105   3.228
  183SOL    HW1 1448   3.431   2.080   3.324
  183SOL    HW2 1449   3.541   2.121   3.210
  184SOL     OW 1450   1.773   6.394   4.310
  184SOL    HW1 1451   1.747   6.308   4.265
  184SOL    HW2 1452   1.697   6.458   4.307
  185SOL     OW 1453   0.217   1.573   6.038
  185SOL    HW1 1454   0.165   1.504   5.987
  185SOL    HW2 1455   0.303   1.591   5.990
  186SOL     OW 1456   5.419   1.133   4.680
  186SOL    HW1 1457   5.477   1.202   4.722
  186SOL    HW2 1458   5.454   1.111   4.589
  187SOL     OW 1459   4.135   7.010   3.330
  187SOL    HW1 1460   4.117   0.074   3.384
  187SOL    HW2 1461   4.091   6.931   3.372
  188SOL     OW 1462   0.668   1.713   2.648
  188SOL    HW1 1463   0.644   1.619   2.669
  188SOL    HW2 1464   0.663   1.769   2.731
  189SOL     OW 1465   1.888   5.475   1.675
  189SOL    HW1 1466   1.879   5.376   1.662
  189SOL    HW2 1467   1.960   5.493   1.741
  190SOL     OW 1468   5.374   2.040   4.662
  190SOL    HW1 1469   5.274   2.039   4.673
  190SOL    HW2 1470   5.417   2.022   4.750
  191SOL     OW 1471   5.941   6.196   7.015
  191SOL    HW1 1472   6.000   6.120   6.989
  191SOL    HW2 1473   5.850   6.162   0.022
  192SOL     OW 1474   0.775   6.012   2.087
  192SOL    HW1 1475   0.813   6.098   2.052
  192SOL    HW2 1476   0.707   5.977   2.024
  193SOL     OW 1477   4.985   2.821   5.445
  193SOL    HW1 1478   5.059   2.827   5.513
  193SOL    HW2 1479   5.020   2.846   5.355
  194SOL     OW 1480   3.768   0.520   2.717
  194SOL    HW1 1481   3.696   0.462   2.677
  194SOL    HW2 1482   3.729   0.608   2.743
  195SOL     OW 1483   1.636   0.068   4.917
  195SOL    HW1 1484   1.658   0.118   4.833
  195SOL    HW2 1485   1.548   0.099   4.952
  196SOL     OW 1486   2.754   0.460   0.729
  196SOL    HW1 1487   2.688   0.434   0.800
  196SOL    HW2 1488   2.717   0.436   0.639
  197SOL     OW 1489   2.783   6.971   1.482
  197SOL    HW1 1490   2.795   0.043   1.525
  197SOL    HW2 1491   2.686   6.956   1.464
  198SOL     OW 1492   4.455   0.637   2.813
  198SOL    HW1 1493   4.402   0.554   2.793
  198SOL    HW2 1494   4.446   0.701   2.737
  199SOL     OW 1495   6.840   2.061   3.810
  199SOL    HW1 1496   6.786   2.100   3.884
  199SOL    HW2 1497   6.785   1.995   3.759
  200SOL     OW 1498   1.294   3.498   0.643
  200SOL    HW1 1499   1.208   3.454   0.671
  200SOL    HW2 1500   1.299   3.502   0.544
  201SOL     OW 1501   0.353   0.068   6.006
  201SOL    HW1 1502   0.284   0.132   6.039
  201SOL    HW2 1503   0.439   0.084   6.054
  202SOL     OW 1504   3.702   1.055   0.024
  202SOL    HW1 1505   3.747   0.993   0.088
  202SOL    HW2 1506   3.608   1.072   0.055
  203SOL     OW 1507   5.635   2.620   5.507
  203SOL    HW1 1508   5.626   2.573   5.595
  203SOL    HW2 1509   5.593   2.710   5.513
  204SOL     OW 1510   1.070   0.706   4.890
  204SOL    HW1 1511   1.020   0.710   4.804
  204SOL    HW2 1512   1.006   0.721   4.966
  205SOL     OW 1513   0.026   2.214   3.143
  205SOL    HW1 1514   6.955   2.226   3.097
  205SOL    HW2 1515   0.012   2.166   3.229
  206SOL     OW 1516   0.660   4.445   0.924
  206SOL    HW1 1517   0.586   4.498   0.883
  206SOL    HW2 1518   0.736   4.506   0.946
  207SOL     OW 1519   6.458   1.650   3.849
  207SOL    HW1 1520   6.521   1.582   3.888
  207SOL    HW2 1521   6.384   1.667   3.914
  208SOL     OW 1522   6.579   4.583   5.668
  208SOL    HW1 1523   6.666   4.536   5.680
  208SOL    HW2 1524   6.574   4.662   5.729
  209SOL     OW 1525   0.623   5.692   4.367
  209SOL    HW1 1526   0.535   5.738   4.377
  209SOL    HW2 1527   0.695   5.749   4.407
  210SOL     OW 1528   4.731   1.618   0.658
  210SOL    HW1 1529   4.793   1.597   0.583
  210SOL    HW2 1530   4.746   1.713   0.688
  211SOL     OW 1531   2.060   6.487   2.502
  211SOL    HW1 1532   2.038   6.421   2.574
  211SOL    HW2 1533   2.153   6.470   2.469
  212SOL     OW 1534   0.969   3.826   1.658
  212SOL    HW1 1535   0.947   3.861   1.567
  212SOL    HW2 1536   0.995   3.729   1.650
  213SOL     OW 1537   2.943   0.187   0.582
  213SOL    HW1 1538   2.845   0.196   0.603
  213SOL    HW2 1539   2.994   0.259   0.629
  214SOL     OW 1540   4.034   5.495   2.661
  214SOL    HW1 1541   4.114   5.467   2.713
  214SOL    HW2 1542   3.962   5.524   2.725
  215SOL     OW 1543   2.834   3.816   0.662
  215SOL    HW1 1544   2.869   3.910   0.663
  215SOL    HW2 1545   2.869   3.766   0.741
  216SOL     OW 1546   1.207   5.928   3.534
  216SOL    HW1 1547   1.206   6.028   3.530
  216SOL    HW2 1548   1.290   5.897   3.580
  217SOL     OW 1549   1.267   3.026   3.673
  217SOL    HW1 1550   1.180   3.069   3.650
  217SOL    HW2 1551   1.301   2.975   3.594
  218SOL     OW 1552   0.746   3.494   4.237
  218SOL    HW1 1553   0.774   3.494   4.141
  218SOL    HW2 1554   0.825   3.509   4.295
  219SOL     OW 1555   4.233   0.826   0.185
  219SOL    HW1 1556   4.328   0.842   0.211
  219SOL    HW2 1557   4.188   0.772   0.256
  220SOL     OW 1558   3.218   6.978   1.714
  220SOL    HW1 1559   3.250   0.024   1.784
  220SOL    HW2 1560   3.129   6.941   1.741
  221SOL     OW 1561   6.068   4.319   1.095
  221SOL    HW1 1562   5.990   4.377   1.117
  221SOL    HW2 1563   6.063   4.234   1.149
  222SOL     OW 1564   1.845   4.667   5.493
  222SOL    HW1 1565   1.886   4.581   5.522
  222SOL    HW2 1566   1.750   4.651   5.465
  223SOL     OW 1567   6.705   3.335   6.370
  223SOL    HW1 1568   6.634   3.343   6.300
  223SOL    HW2 1569   6.691   3.404   6.441
  224SOL     OW 1570   2.642   1.575   5.710
  224SOL    HW1 1571   2.655   1.527   5.797
  224SOL    HW2 1572   2.709   1.543   5.644
  225SOL     OW 1573   4.891   3.923   6.861
  225SOL    HW1 1574   4.858   3.977   6.783
  225SOL    HW2 1575   4.885   3.826   6.839
  226SOL     OW 1576   1.091   1.521   5.735
  226SOL    HW1 1577   1.132   1.612   5.738
  226SOL    HW2 1578   1.133   1.467   5.662
  227SOL     OW 1579   0.910   3.756   1.235
  227SOL    HW1 1580   0.914   3.824   1.162
  227SOL    HW2 1581   0.895   3.801   1.323
  228SOL     OW 1582   2.706   0.122   3.707
  228SOL    HW1 1583   2.768   0.054   3.746
  228SOL    HW2 1584   2.711   0.118   3.607
  229SOL     OW 1585   6.152   6.316   6.097
  229SOL    HW1 1586   6.157   6.399   6.153
  229SOL    HW2 1587   6.226   6.318   6.029
  230SOL     OW 1588   3.608   4.893   3.361
  230SOL    HW1 1589   3.530   4.956   3.368
  230SOL    HW2 1590   3.575   4.800   3.352
  231SOL     OW 1591   5.996   1.354   6.975
  231SOL    HW1 1592   6.093   1.332   6.983
  231SOL    HW2 1593   5.941   1.272   6.992
  232SOL     OW 1594   0.470   3.360   6.568
  232SOL    HW1 1595   0.529   3.411   6.506
  232SOL    HW2 1596   0.380   3.348   6.526
  233SOL     OW 1597   3.604   1.179   3.069
  233SOL    HW1 1598   3.635   1.274   3.075
  233SOL    HW2 1599   3.534   1.162   3.139
  234SOL     OW 1600   5.290   0.611   6.436
  234SOL    HW1 1601   5.321   0.648   6.524
  234SOL    HW2 1602   5.278   0.685   6.371
  235SOL     OW 1603   4.598   2.556   1.666
  235SOL    HW1 1604   4.662   2.632   1.678
  235SOL    HW2 1605   4.515   2.574   1.719
  236SOL     OW 1606   5.874   2.786   6.800
  236SOL    HW1 1607   5.791   2.776   6.745
  236SOL    HW2 1608   5.888   2.883   6.822
  237SOL     OW 1609   6.920   4.795   1.999
  237SOL    HW1 1610   6.869   4.745   1.929
  237SOL    HW2 1611   6.955   4.881   1.961
  238SOL     OW 1612   5.388   0.746   0.406
  238SOL    HW1 1613   5.458   0.762   0.476
  238SOL    HW2 1614   5.321   0.680   0.440
  239SOL     OW 1615   0.920   5.222   6.767
  239SOL    HW1 1616   0.922   5.274   6.853
  239SOL    HW2 1617   0.829   5.183   6.754
  240SOL     OW 1618   6.719   2.747   3.430
  240SOL    HW1 1619   6.670   2.811   3.490
  240SOL    HW2 1620   6.817   2.767   3.432
  241SOL     OW 1621   2.886   2.177   5.082
  241SOL    HW1 1622   2.961   2.216   5.029
  241SOL    HW2 1623   2.888   2.213   5.176
  242SOL     OW 1624   3.765   3.850   4.237
  242SOL    HW1 1625   3.736   3.755   4.251
  242SOL    HW2 1626   3.856   3.863   4.277
  243SOL     OW 1627   4.337   0.733   6.479
  243SOL    HW1 1628   4.266   0.759   6.415
  243SOL    HW2 1629   4.296   0.713   6.569
  244SOL     OW 1630   5.893   3.177   5.452
  244SOL    HW1 1631   5.822   3.140   5.511
  244SOL    HW2 1632   5.936   3.256   5.496
  245SOL     OW 1633   4.997   2.679   4.242
  245SOL    HW1 1634   4.911   2.720   4.212
  245SOL    HW2 1635   5.073   2.721   4.193
  246SOL     OW 1636   4.885   2.076   3.234
  246SOL    HW1 1637   4.826   2.142   3.189
  246SOL    HW2 1638   4.831   2.022   3.299
  247SOL     OW 1639   2.824   1.375   6.903
  247SOL    HW1 1640   2.794   1.453   6.959
  247SOL    HW2 1641   2.781   1.291   6.938
  248SOL     OW 1642   4.033   1.527   2.534
  248SOL    HW1 1643   4.027   1.437   2.492
  248SOL    HW2 1644   4.084   1.588   2.474
  249SOL     OW 1645   4.325   0.215   4.823
  249SOL    HW1 1646   4.300   0.127   4.782
  249SOL    HW2 1647   4.277   0.227   4.910
  250SOL     OW 1648   4.990   3.234   0.706
  250SOL    HW1 1649   4.935   3.315   0.686
  250SOL    HW2 1650   4.946   3.181   0.780
  251SOL     OW 1651   4.496   3.747   5.781
  251SOL    HW1 1652   4.467   3.652   5.793
  251SOL    HW2 1653   4.589   3.758   5.815
  252SOL     OW 1654   0.078   5.987   5.354
  252SOL    HW1 1655   0.059   6.072   5.306
  252SOL    HW2 1656   0.093   5.914   5.287
  253SOL     OW 1657   2.583   4.883   6.205
  253SOL    HW1 1658   2.644   4.913   6.278
  253SOL    HW2 1659   2.633   4.877   6.119
  254SOL     OW 1660   6.099   2.221   3.872
  254SOL    HW1 1661   6.173   2.286   3.887
  254SOL    HW2 1662   6.019   2.248   3.926
  255SOL     OW 1663   1.540   4.897   5.306
  255SOL    HW1 1664   1.506   4.926   5.395
  255SOL    HW2 1665   1.545   4.797   5.303
  256SOL     OW 1666   6.237   3.772   5.910
  256SOL    HW1 1667   6.245   3.857   5.857
  256SOL    HW2 1668   6.155   3.776   5.967
  257SOL     OW 1669   4.924   0.412   4.097
  257SOL    HW1 1670   4.956   0.484   4.159
  257SOL    HW2 1671   4.952   0.323   4.131
  258SOL     OW 1672   2.382   4.980   5.116
  258SOL    HW1 1673   2.370   5.007   5.020
  258SOL    HW2 1674   2.318   5.031   5.173
  259SOL     OW 1675   6.527   2.342   3.040
  259SOL    HW1 1676   6.456   2.321   2.973
  259SOL    HW2 1677   6.538   2.441   3.046
  260SOL     OW 1678   4.316   0.130   1.690
  260SOL    HW1 1679   4.322   0.202   1.759
  260SOL    HW2 1680   4.232   0.078   1.704
  261SOL     OW 1681   6.386   3.289   0.561
  261SOL    HW1 1682   6.288   3.304   0.569
  261SOL    HW2 1683   6.403   3.220   0.491
  262SOL     OW 1684   0.787   3.615   6.980
  262SOL    HW1 1685   0.799   3.516   6.991
  262SOL    HW2 1686   0.730   3.650   0.036
  263SOL     OW 1687   2.190   1.022   4.636
  263SOL    HW1 1688   2.107   1.075   4.651
  263SOL    HW2 1689   2.177   0.929   4.671
  264SOL     OW 1690   5.960   3.359   6.919
  264SOL    HW1 1691   5.924   3.439   6.870
  264SOL    HW2 1692   6.024   3.390   6.989
  265SOL     OW 1693   5.404   6.610   3.131
  265SOL    HW1 1694   5.381   6.529   3.078
  265SOL    HW2 1695   5.486   6.654   3.092
  266SOL     OW 1696   3.524   2.651   5.915
  266SOL    HW1 1697   3.433   2.633   5.877
  266SOL    HW2 1698   3.557   2.739   5.880
  267SOL     OW 1699   0.663   1.423   6.419
  267SOL    HW1 1700   0.592   1.363   6.383
  267SOL    HW2 1701   0.690   1.392   6.510
  268SOL     OW 1702   3.734   1.172   6.028
  268SOL    HW1 1703   3.635   1.186   6.022
  268SOL    HW2 1704   3.755   1.075   6.012
  269SOL     OW 1705   1.692   3.479   1.199
  269SOL    HW1 1706   1.600   3.453   1.169
  269SOL    HW2 1707   1.742   3.521   1.124
  270SOL     OW 1708   1.011   6.839   0.593
  270SOL    HW1 1709   1.050   6.748   0.579
  270SOL    HW2 1710   0.984   6.849   0.689
  271SOL     OW 1711   6.782   1.700   6.842
  271SOL    HW1 1712   6.774   1.732   6.747
  271SOL    HW2 1713   6.702   1.729   6.894
  272SOL     OW 1714   3.743   5.543   4.195
  272SOL    HW1 1715   3.732   5.521   4.098
  272SOL    HW2 1716   3.660   5.518   4.244
  273SOL     OW 1717   2.220   4.608   4.631
  273SOL    HW1 1718   2.292   4.588   4.565
  273SOL    HW2 1719   2.155   4.532   4.633
  274SOL     OW 1720   3.991   2.126   3.236
  274SOL    HW1 1721   4.013   2.030   3.251
  274SOL    HW2 1722   4.020   2.153   3.144
  275SOL     OW 1723   6.276   4.692   3.776
  275SOL    HW1 1724   6.248   4.770   3.719
  275SOL    HW2 1725   6.295   4.725   3.868
  276SOL     OW 1726   6.514   6.963   3.050
  276SOL    HW1 1727   6.586   0.003   3.011
  276SOL    HW2 1728   6.471   6.909   2.978
  277SOL     OW 1729   1.617   4.358   0.308
  277SOL    HW1 1730   1.630   4.448   0.351
  277SOL    HW2 1731   1.690   4.342   0.241
  278SOL     OW 1732   0.117   5.277   1.793
  278SOL    HW1 1733   0.126   5.178   1.785
  278SOL    HW2 1734   0.028   5.300   1.831
  279SOL     OW 1735   5.993   3.572   4.253
  279SOL    HW1 1736   5.908   3.520   4.256
  279SOL    HW2 1737   5.981   3.660   4.299
  280SOL     OW 1738   3.131   6.598   3.430
  280SOL    HW1 1739   3.202   6.569   3.366
  280SOL    HW2 1740   3.173   6.631   3.514
  281SOL     OW 1741   2.748   4.234   1.693
  281SOL    HW1 1742   2.759   4.244   1.594
  281SOL    HW2 1743   2.795   4.310   1.739
  282SOL     OW 1744   3.195   1.315   5.919
  282SOL    HW1 1745   3.148   1.251   5.980
  282SOL    HW2 1746   3.243   1.263   5.848
  283SOL     OW 1747   6.350   1.470   6.442
  283SOL    HW1 1748   6.323   1.454   6.537
  283SOL    HW2 1749   6.426   1.534   6.439
  284SOL     OW 1750   1.524   4.427   3.339
  284SOL    HW1 1751   1.610   4.377   3.349
  284SOL    HW2 1752   1.461   4.375   3.281
  285SOL     OW 1753   5.807   4.703   4.685
  285SOL    HW1 1754   5.860   4.704   4.770
  285SOL    HW2 1755   5.710   4.696   4.705
  286SOL     OW 1756   3.424   5.584   5.786
  286SOL    HW1 1757   3.329   5.560   5.763
  286SOL    HW2 1758   3.430   5.682   5.804
  287SOL     OW 1759   0.958   3.667   0.425
  287SOL    HW1 1760   0.878   3.726   0.440
  287SOL    HW2 1761   1.021   3.677   0.502
  288SOL     OW 1762   3.839   1.216   6.299
  288SOL    HW1 1763   3.840   1.303   6.249
  288SOL    HW2 1764   3.871   1.142   6.240
  289SOL     OW 1765   0.656   4.346   5.347
  289SOL    HW1 1766   0.679   4.434   5.306
  289SOL    HW2 1767   0.664   4.274   5.278
  290SOL     OW 1768   6.278   2.006   4.891
  290SOL    HW1 1769   6.376   1.997   4.906
  290SOL    HW2 1770   6.229   1.976   4.973
  291SOL     OW 1771   1.747   2.209   4.390
  291SOL    HW1 1772   1.734   2.110   4.385
  291SOL    HW2 1773   1.842   2.229   4.414
  292SOL     OW 1774   1.319   2.814   3.104
  292SOL    HW1 1775   1.376   2.753   3.160
  292SOL    HW2 1776   1.377   2.863   3.039
  293SOL     OW 1777   4.269   5.850   2.349
  293SOL    HW1 1778   4.257   5.851   2.448
  293SOL    HW2 1779   4.204   5.913   2.307
  294SOL     OW 1780   1.261   5.378   6.405
  294SOL    HW1 1781   1.225   5.452   6.349
  294SOL    HW2 1782   1.185   5.330   6.450
  295SOL     OW 1783   3.500   1.848   3.909
  295SOL    HW1 1784   3.474   1.884   3.999
  295SOL    HW2 1785   3.500   1.922   3.842
  296SOL     OW 1786   3.709   2.117   3.178
  296SOL    HW1 1787   3.703   2.118   3.078
  296SOL    HW2 1788   3.803   2.141   3.205
  297SOL     OW 1789   2.514   4.536   3.506
  297SOL    HW1 1790   2.525   4.592   3.589
  297SOL    HW2 1791   2.444   4.577   3.448
  298SOL     OW 1792   3.760   6.021   1.394
  298SOL    HW1 1793   3.752   6.060   1.302
  298SOL    HW2 1794   3.797   5.929   1.388
  299SOL     OW 1795   5.110   2.973   6.338
  299SOL    HW1 1796   5.061   3.060   6.348
  299SOL    HW2 1797   5.181   2.967   6.408
  300SOL     OW 1798   6.510   0.857   2.625
  300SOL    HW1 1799   6.487   0.835   2.720
  300SOL    HW2 1800   6.426   0.865   2.571
  301SOL     OW 1801   4.846   3.484   1.492
  301SOL    HW1 1802   4.920   3.469   1.426
  301SOL    HW2 1803   4.763   3.437   1.461
  302SOL     OW 1804   0.679   0.701   3.239
  302SOL    HW1 1805   0.741   0.775   3.265
  302SOL    HW2 1806   0.589   0.718   3.278
  303SOL     OW 1807   5.620   0.677   2.169
  303SOL    HW1 1808   5.709   0.659   2.127
  303SOL    HW2 1809   5.548   0.666   2.101
  304SOL     OW 1810   2.662   0.480   3.982
  304SOL    HW1 1811   2.718   0.531   3.918
  304SOL    HW2 1812   2.721   0.439   4.052
  305SOL     OW 1813   0.975   3.231   0.308
  305SOL    HW1 1814   0.958   3.143   0.353
  305SOL    HW2 1815   0.992   3.216   0.211
  306SOL     OW 1816   1.797   1.648   3.434
  306SOL    HW1 1817   1.827   1.663   3.340
  306SOL    HW2 1818   1.863   1.690   3.497
  307SOL     OW 1819   4.565   7.001   0.820
  307SOL    HW1 1820   4.635   6.933   0.842
  307SOL    HW2 1821   4.605   0.075   0.823
  308SOL     OW 1822   6.290   3.629   5.190
  308SOL    HW1 1823   6.220   3.698   5.206
  308SOL    HW2 1824   6.378   3.675   5.175
  309SOL     OW 1825   3.383   4.459   6.603
  309SOL    HW1 1826   3.298   4.421   6.567
  309SOL    HW2 1827   3.452   4.460   6.530
  310SOL     OW 1828   6.542   6.579   5.800
  310SOL    HW1 1829   6.573   6.618   5.887
  310SOL    HW2 1830   6.560   6.644   5.726
  311SOL     OW 1831   6.055   5.513   1.490
  311SOL    HW1 1832   6.077   5.514   1.392
  311SOL    HW2 1833   6.043   5.418   1.521
  312SOL     OW 1834   4.530   1.872   5.638
  312SOL    HW1 1835   4.515   1.968   5.615
  312SOL    HW2 1836   4.454   1.838   5.693
  313SOL     OW 1837   2.975   4.041   1.800
  313SOL    HW1 1838   3.046   4.101   1.762
  313SOL    HW2 1839   2.885   4.069   1.764
  314SOL     OW 1840   3.416   5.181   6.727
  314SOL    HW1 1841   3.331   5.189   6.674
  314SOL    HW2 1842   3.469   5.104   6.693
  315SOL     OW 1843   1.197   3.442   3.452
  315SOL    HW1 1844   1.186   3.425   3.549
  315SOL    HW2 1845   1.241   3.531   3.438
  316SOL     OW 1846   2.534   2.457   3.946
  316SOL    HW1 1847   2.543   2.387   3.875
  316SOL    HW2 1848   2.493   2.416   4.028
  317SOL     OW 1849   0.843   0.314   1.239
  317SOL    HW1 1850   0.800   0.253   1.305
  317SOL    HW2 1851   0.926   0.271   1.203
  318SOL     OW 1852   0.766   6.057   6.972
  318SOL    HW1 1853   0.690   6.112   7.007
  318SOL    HW2 1854   0.775   6.073   6.873
  319SOL     OW 1855   0.117   0.813   3.459
  319SOL    HW1 1856   0.212   0.786   3.472
  319SOL    HW2 1857   0.111   0.885   3.390
  320SOL     OW 1858   5.851   2.241   0.163
  320SOL    HW1 1859   5.811   2.149   0.161
  320SOL    HW2 1860   5.792   2.304   0.113
  321SOL     OW 1861   2.807   1.492   1.588
  321SOL    HW1 1862   2.819   1.552   1.667
  321SOL    HW2 1863   2.896   1.466   1.551
  322SOL     OW 1864   3.536   3.506   4.845
  322SOL    HW1 1865   3.510   3.498   4.748
  322SOL    HW2 1866   3.454   3.508   4.901
  323SOL     OW 1867   0.510   3.539   6.833
  323SOL    HW1 1868   0.603   3.528   6.797
  323SOL    HW2 1869   0.450   3.471   6.792
  324SOL     OW 1870   2.258   2.976   3.969
  324SOL    HW1 1871   2.161   3.001   3.959
  324SOL    HW2 1872   2.298   2.962   3.878
  325SOL     OW 1873   1.752   2.931   1.637
  325SOL    HW1 1874   1.791   2.884   1.716
  325SOL    HW2 1875   1.794   3.021   1.627
  326SOL     OW 1876   1.803   5.346   6.069
  326SOL    HW1 1877   1.880   5.395   6.030
  326SOL    HW2 1878   1.765   5.398   6.146
  327SOL     OW 1879   1.622   5.377   4.068
  327SOL    HW1 1880   1.524   5.396   4.072
  327SOL    HW2 1881   1.648   5.352   3.975
  328SOL     OW 1882   2.819   5.640   2.117
  328SOL    HW1 1883   2.757   5.697   2.170
  328SOL    HW2 1884   2.913   5.672   2.129
  329SOL     OW 1885   3.104   4.019   4.388
  329SOL    HW1 1886   3.045   4.037   4.309
  329SOL    HW2 1887   3.198   4.040   4.364
  330SOL     OW 1888   3.230   6.693   1.931
  330SOL    HW1 1889   3.272   6.629   1.994
  330SOL    HW2 1890   3.298   6.725   1.865
  331SOL     OW 1891   4.122   4.957   6.446
  331SOL    HW1 1892   4.174   4.915   6.372
  331SOL    HW2 1893   4.172   4.945   6.532
  332SOL     OW 1894   3.573   1.921   4.570
  332SOL    HW1 1895   3.541   1.940   4.663
  332SOL    HW2 1896   3.496   1.895   4.513
  333SOL     OW 1897   3.405   6.925   6.812
  333SOL    HW1 1898   3.385   6.831   6.838
  333SOL    HW2 1899   3.503   6.942   6.822
  334SOL     OW 1900   2.583   0.314   0.984
  334SOL    HW1 1901   2.625   0.236   1.032
  334SOL    HW2 1902   2.592   0.396   1.041
  335SOL     OW 1903   3.602   6.385   4.463
  335SOL    HW1 1904   3.673   6.336   4.413
  335SOL    HW2 1905   3.640   6.470   4.500
  336SOL     OW 1906   2.774   1.329   3.944
  336SOL    HW1 1907   2.823   1.408   3.907
  336SOL    HW2 1908   2.678   1.353   3.958
  337SOL     OW 1909   6.868   3.538   0.684
  337SOL    HW1 1910   6.873   3.486   0.599
  337SOL    HW2 1911   6.947   3.599   0.691
  338SOL     OW 1912   3.066   2.395   0.778
  338SOL    HW1 1913   2.978   2.388   0.826
  338SOL    HW2 1914   3.132   2.332   0.820
  339SOL     OW 1915   3.730   6.590   4.571
  339SOL    HW1 1916   3.805   6.572   4.634
  339SOL    HW2 1917   3.670   6.660   4.610
  340SOL     OW 1918   4.930   4.059   4.724
  340SOL    HW1 1919   4.918   4.107   4.810
  340SOL    HW2 1920   5.013   4.004   4.727
  341SOL     OW 1921   6.527   6.974   4.329
  341SOL    HW1 1922   6.470   6.892   4.329
  341SOL    HW2 1923   6.497   0.019   4.258
  342SOL     OW 1924   5.662   3.621   0.169
  342SOL    HW1 1925   5.610   3.590   0.090
  342SOL    HW2 1926   5.697   3.714   0.151
  343SOL     OW 1927   1.978   5.913   0.889
  343SOL    HW1 1928   2.046   5.937   0.958
  343SOL    HW2 1929   1.965   5.814   0.888
  344SOL     OW 1930   1.527   4.998   1.892
  344SOL    HW1 1931   1.606   4.937   1.901
  344SOL    HW2 1932   1.473   4.995   1.977
  345SOL     OW 1933   6.464   1.226   5.335
  345SOL    HW1 1934   6.456   1.216   5.434
  345SOL    HW2 1935   6.561   1.231   5.310
  346SOL     OW 1936   1.794   0.752   1.825
  346SOL    HW1 1937   1.792   0.799   1.913
  346SOL    HW2 1938   1.887   0.754   1.788
  347SOL     OW 1939   3.951   6.404   6.556
  347SOL    HW1 1940   3.853   6.413   6.574
  347SOL    HW2 1941   3.977   6.469   6.484
  348SOL     OW 1942   4.908   5.428   1.218
  348SOL    HW1 1943   4.892   5.404   1.314
  348SOL    HW2 1944   4.821   5.448   1.174
  349SOL     OW 1945   6.761   4.686   1.819
  349SOL    HW1 1946   6.792   4.673   1.725
  349SOL    HW2 1947   6.724   4.600   1.855
  350SOL     OW 1948   3.749   3.293   1.780
  350SOL    HW1 1949   3.764   3.244   1.867
  350SOL    HW2 1950   3.836   3.327   1.746
  351SOL     OW 1951   2.541   2.292   0.135
  351SOL    HW1 1952   2.560   2.347   0.216
  351SOL    HW2 1953   2.591   2.206   0.141
  352SOL     OW 1954   3.688   0.052   4.757
  352SOL    HW1 1955   3.624   0.109   4.705
  352SOL    HW2 1956   3.745   0.110   4.815
  353SOL     OW 1957   2.754   0.189   1.186
  353SOL    HW1 1958   2.831   0.133   1.155
  353SOL    HW2 1959   2.678   0.129   1.214
  354SOL     OW 1960   4.369   2.302   0.524
  354SOL    HW1 1961   4.455   2.353   0.515
  354SOL    HW2 1962   4.325   2.297   0.434
  355SOL     OW 1963   6.949   3.210   2.902
  355SOL    HW1 1964   6.939   3.111   2.903
  355SOL    HW2 1965   7.013   3.238   2.974
  356SOL     OW 1966   4.027   5.863   4.378
  356SOL    HW1 1967   4.111   5.811   4.367
  356SOL    HW2 1968   4.022   5.900   4.471
  357SOL     OW 1969   6.525   0.157   5.680
  357SOL    HW1 1970   6.426   0.148   5.674
  357SOL    HW2 1971   6.565   0.151   5.588
  358SOL     OW 1972   5.368   0.115   2.205
  358SOL    HW1 1973   5.438   0.104   2.134
  358SOL    HW2 1974   5.410   0.102   2.295
  359SOL     OW 1975   1.874   2.232   2.602
  359SOL    HW1 1976   1.969   2.206   2.620
  359SOL    HW2 1977   1.827   2.246   2.690
  360SOL     OW 1978   2.264   5.804   6.383
  360SOL    HW1 1979   2.234   5.899   6.390
  360SOL    HW2 1980   2.361   5.799   6.407
  361SOL     OW 1981   5.435   5.565   2.707
  361SOL    HW1 1982   5.404   5.515   2.626
  361SOL    HW2 1983   5.457   5.501   2.780
  362SOL     OW 1984   3.470   4.197   0.812
  362SOL    HW1 1985   3.531   4.164   0.740
  362SOL    HW2 1986   3.415   4.273   0.776
  363SOL     OW 1987   4.449   4.892   3.467
  363SOL    HW1 1988   4.527   4.891   3.404
  363SOL    HW2 1989   4.464   4.962   3.537
  364SOL     OW 1990   0.487   5.701   5.393
  364SOL    HW1 1991   0.413   5.647   5.352
  364SOL    HW2 1992   0.486   5.689   5.492
  365SOL     OW 1993   4.800   5.505   2.566
  365SOL    HW1 1994   4.755   5.418   2.545
  365SOL    HW2 1995   4.733   5.571   2.598
  366SOL     OW 1996   5.652   0.873   0.549
  366SOL    HW1 1997   5.750   0.882   0.537
  366SOL    HW2 1998   5.606   0.952   0.508
  367SOL     OW 1999   5.322   2.806   0.589
  367SOL    HW1 2000   5.382   2.862   0.531
  367SOL    HW2 2001   5.372   2.779   0.672
  368SOL     OW 2002   0.808   3.862   4.603
  368SOL    HW1 2003   0.755   3.943   4.627
  368SOL    HW2 2004   0.805   3.848   4.504
  369SOL     OW 2005   6.541   4.877   1.831
  369SOL    HW1 2006   6.621   4.817   1.833
  369SOL    HW2 2007   6.490   4.862   1.746
  370SOL     OW 2008   3.160   1.891   5.651
  370SOL    HW1 2009   3.101   1.904   5.571
  370SOL    HW2 2010   3.181   1.980   5.692
  371SOL     OW 2011   2.388   3.574   6.528
  371SOL    HW1 2012   2.302   3.584   6.578
  371SOL    HW2 2013   2.465   3.594   6.588
  372SOL     OW 2014   6.399   0.861   5.190
  372SOL    HW1 2015   6.402   0.941   5.129
  372SOL    HW2 2016   6.363   0.782   5.140
  373SOL     OW 2017   6.233   6.635   5.236
  373SOL    HW1 2018   6.172   6.701   5.280
  373SOL    HW2 2019   6.241   6.554   5.294
  374SOL     OW 2020   3.793   6.948   2.613
  374SOL    HW1 2021   3.810   6.856   2.649
  374SOL    HW2 2022   3.764   7.008   2.687
  375SOL     OW 2023   0.271   5.047   3.915
  375SOL    HW1 2024   0.359   5.056   3.870
  375SOL    HW2 2025   0.218   4.975   3.870
  376SOL     OW 2026   1.747   3.182   3.890
  376SOL    HW1 2027   1.697   3.118   3.831
  376SOL    HW2 2028   1.688   3.206   3.968
  377SOL     OW 2029   6.139   2.898   2.071
  377SOL    HW1 2030   6.138   2.812   2.019
  377SOL    HW2 2031   6.160   2.974   2.010
  378SOL     OW 2032   3.320   2.453   5.748
  378SOL    HW1 2033   3.353   2.359   5.755
  378SOL    HW2 2034   3.301   2.475   5.652
  379SOL     OW 2035   6.013   4.396   1.724
  379SOL    HW1 2036   5.915   4.413   1.730
  379SOL    HW2 2037   6.036   4.365   1.631
  380SOL     OW 2038   2.507   1.711   1.924
  380SOL    HW1 2039   2.456   1.759   1.853
  380SOL    HW2 2040   2.580   1.770   1.959
  381SOL     OW 2041   1.910   4.721   1.539
  381SOL    HW1 2042   1.925   4.638   1.484
  381SOL    HW2 2043   1.989   4.737   1.598
  382SOL     OW 2044   4.982   5.632   6.266
  382SOL    HW1 2045   5.020   5.658   6.178
  382SOL    HW2 2046   5.036   5.673   6.340
  383SOL     OW 2047   6.405   3.101   6.496
  383SOL    HW1 2048   6.434   3.158   6.573
  383SOL    HW2 2049   6.480   3.093   6.430
  384SOL     OW 2050   0.695   4.125   4.930
  384SOL    HW1 2051   0.670   4.033   4.900
  384SOL    HW2 2052   0.724   4.179   4.851
  385SOL     OW 2053   4.539   6.089   6.950
  385SOL    HW1 2054   4.560   6.060   6.857
  385SOL    HW2 2055   4.440   6.087   6.964
  386SOL     OW 2056   3.793   0.046   5.134
  386SOL    HW1 2057   3.777   0.130   5.083
  386SOL    HW2 2058   3.887   0.015   5.120
  387SOL     OW 2059   0.148   6.032   3.570
  387SOL    HW1 2060   0.126   6.099   3.641
  387SOL    HW2 2061   0.114   6.064   3.482
  388SOL     OW 2062   0.393   1.866   4.512
  388SOL    HW1 2063   0.293   1.859   4.512
  388SOL    HW2 2064   0.422   1.929   4.439
  389SOL     OW 2065   4.256   4.143   1.689
  389SOL    HW1 2066   4.215   4.055   1.713
  389SOL    HW2 2067   4.304   4.180   1.769
  390SOL     OW 2068   3.419   1.092   0.053
  390SOL    HW1 2069   3.424   1.147   0.136
  390SOL    HW2 2070   3.372   1.144   6.999
  391SOL     OW 2071   2.095   4.061   5.144
  391SOL    HW1 2072   2.049   4.119   5.077
  391SOL    HW2 2073   2.184   4.032   5.108
  392SOL     OW 2074   1.928   3.179   2.138
  392SOL    HW1 2075   1.830   3.193   2.157
  392SOL    HW2 2076   1.971   3.268   2.122
  393SOL     OW 2077   1.452   5.715   0.307
  393SOL    HW1 2078   1.533   5.770   0.289
  393SOL    HW2 2079   1.458   5.628   0.258
  394SOL     OW 2080   1.038   3.114   6.571
  394SOL    HW1 2081   1.049   3.172   6.490
  394SOL    HW2 2082   0.954   3.141   6.619
  395SOL     OW 2083   5.200   4.078   2.317
  395SOL    HW1 2084   5.138   4.086   2.240
  395SOL    HW2 2085   5.208   3.981   2.344
  396SOL     OW 2086   2.336   2.117   2.352
  396SOL    HW1 2087   2.289   2.041   2.397
  396SOL    HW2 2088   2.415   2.081   2.301
  397SOL     OW 2089   5.608   1.388   5.883
  397SOL    HW1 2090   5.566   1.376   5.973
  397SOL    HW2 2091   5.599   1.304   5.830
  398SOL     OW 2092   1.257   6.310   4.599
  398SOL    HW1 2093   1.227   6.349   4.512
  398SOL    HW2 2094   1.353   6.334   4.614
  399SOL     OW 2095   6.393   5.914   4.213
  399SOL    HW1 2096   6.478   5.955   4.245
  399SOL    HW2 2097   6.316   5.973   4.236
  400SOL     OW 2098   6.734   6.429   5.119
  400SOL    HW1 2099   6.738   6.396   5.025
  400SOL    HW2 2100   6.801   6.501   5.133
  401SOL     OW 2101   5.830   0.073   6.185
  401SOL    HW1 2102   5.776   0.104   6.106
  401SOL    HW2 2103   5.923   0.108   6.177
  402SOL     OW 2104   6.216   0.378   2.276
  402SOL    HW1 2105   6.240   0.447   2.208
  402SOL    HW2 2106   6.296   0.359   2.333
  403SOL     OW 2107   3.267   0.091   6.678
  403SOL    HW1 2108   3.180   0.053   6.645
  403SOL    HW2 2109   3.317   0.021   6.728
  404SOL     OW 2110   3.092   5.763   5.523
  404SOL    HW1 2111   3.015   5.713   5.483
  404SOL    HW2 2112   3.120   5.719   5.608
  405SOL     OW 2113   2.307   4.154   3.395
  405SOL    HW1 2114   2.402   4.123   3.399
  405SOL    HW2 2115   2.248   4.089   3.444
  406SOL     OW 2116   0.502   4.881   5.216
  406SOL    HW1 2117   0.481   4.786   5.189
  406SOL    HW2 2118   0.599   4.898   5.202
  407SOL     OW 2119   1.484   3.253   3.676
  407SOL    HW1 2120   1.402   3.210   3.714
  407SOL    HW2 2121   1.564   3.225   3.729
  408SOL     OW 2122   3.441   2.079   2.923
  408SOL    HW1 2123   3.431   2.114   3.016
  408SOL    HW2 2124   3.535   2.096   2.892
  409SOL     OW 2125   6.943   3.595   1.844
  409SOL    HW1 2126   6.848   3.590   1.813
  409SOL    HW2 2127   6.969   3.691   1.853
  410SOL     OW 2128   1.637   1.919   1.268
  410SOL    HW1 2129   1.722   1.971   1.259
  410SOL    HW2 2130   1.636   1.870   1.355
  411SOL     OW 2131   6.421   2.069   1.911
  411SOL    HW1 2132   6.435   2.041   1.816
  411SOL    HW2 2133   6.483   2.017   1.970
  412SOL     OW 2134   3.065   5.241   2.750
  412SOL    HW1 2135   3.129   5.265   2.823
  412SOL    HW2 2136   3.113   5.189   2.679
  413SOL     OW 2137   3.936   5.291   1.938
  413SOL    HW1 2138   3.926   5.389   1.926
  413SOL    HW2 2139   4.000   5.255   1.869
  414SOL     OW 2140   3.391   0.388   3.689
  414SOL    HW1 2141   3.393   0.488   3.696
  414SOL    HW2 2142   3.394   0.361   3.593
  415SOL     OW 2143   0.080   1.661   0.396
  415SOL    HW1 2144   0.145   1.656   0.320
  415SOL    HW2 2145   0.095   1.584   0.458
  416SOL     OW 2146   5.035   4.259   4.544
  416SOL    HW1 2147   4.979   4.267   4.462
  416SOL    HW2 2148   4.990   4.199   4.610
  417SOL     OW 2149   1.964   1.526   6.413
  417SOL    HW1 2150   1.917   1.451   6.367
  417SOL    HW2 2151   2.050   1.546   6.365
  418SOL     OW 2152   3.041   0.042   5.447
  418SOL    HW1 2153   3.022   0.034   5.349
  418SOL    HW2 2154   3.092   6.979   5.477
  419SOL     OW 2155   6.809   6.826   2.972
  419SOL    HW1 2156   6.873   6.779   2.912
  419SOL    HW2 2157   6.781   6.912   2.931
  420SOL     OW 2158   5.603   0.854   6.524
  420SOL    HW1 2159   5.586   0.951   6.504
  420SOL    HW2 2160   5.538   0.822   6.592
  421SOL     OW 2161   5.912   4.015   5.401
  421SOL    HW1 2162   5.921   4.055   5.492
  421SOL    HW2 2163   5.816   4.017   5.373
  422SOL     OW 2164   4.942   1.831   0.739
  422SOL    HW1 2165   4.981   1.749   0.781
  422SOL    HW2 2166   4.904   1.890   0.810
  423SOL     OW 2167   2.609   0.838   6.542
  423SOL    HW1 2168   2.583   0.852   6.446
  423SOL    HW2 2169   2.595   0.742   6.566
  424SOL     OW 2170   2.076   5.206   3.121
  424SOL    HW1 2171   2.134   5.140   3.169
  424SOL    HW2 2172   1.981   5.196   3.152
  425SOL     OW 2173   5.088   0.964   5.120
  425SOL    HW1 2174   5.027   1.013   5.058
  425SOL    HW2 2175   5.147   0.902   5.067
  426SOL     OW 2176   2.388   2.716   5.204
  426SOL    HW1 2177   2.403   2.769   5.288
  426SOL    HW2 2178   2.374   2.778   5.128
  427SOL     OW 2179   5.153   1.104   4.435
  427SOL    HW1 2180   5.080   1.130   4.499
  427SOL    HW2 2181   5.229   1.168   4.446
  428SOL     OW 2182   2.456   1.082   4.552
  428SOL    HW1 2183   2.498   1.154   4.608
  428SOL    HW2 2184   2.360   1.071   4.578
  429SOL     OW 2185   0.680   5.545   4.123
  429SOL    HW1 2186   0.679   5.592   4.211
  429SOL    HW2 2187   0.735   5.462   4.130
  430SOL     OW 2188   1.436   0.339   3.736
  430SOL    HW1 2189   1.502   0.264   3.743
  430SOL    HW2 2190   1.398   0.358   3.827
  431SOL     OW 2191   2.457   2.117   0.915
  431SOL    HW1 2192   2.484   2.058   0.991
  431SOL    HW2 2193   2.400   2.192   0.949
  432SOL     OW 2194   5.755   2.029   1.138
  432SOL    HW1 2195   5.832   1.964   1.141
  432SOL    HW2 2196   5.767   2.090   1.060
  433SOL     OW 2197   3.877   6.230   6.254
  433SOL    HW1 2198   3.942   6.270   6.318
  433SOL    HW2 2199   3.924   6.167   6.193
  434SOL     OW 2200   3.634   6.281   3.593
  434SOL    HW1 2201   3.625   6.229   3.508
  434SOL    HW2 2202   3.546   6.321   3.618
  435SOL     OW 2203   4.071   1.600   5.689
  435SOL    HW1 2204   4.062   1.509   5.729
  435SOL    HW2 2205   4.028   1.668   5.749
  436SOL     OW 2206   3.677   6.261   2.787
  436SOL    HW1 2207   3.736   6.196   2.834
  436SOL    HW2 2208   3.702   6.265   2.690
  437SOL     OW 2209   7.011   1.220   4.710
  437SOL    HW1 2210   0.028   1.275   4.634
  437SOL    HW2 2211   7.007   1.124   4.682
  438SOL     OW 2212   1.332   4.693   3.055
  438SOL    HW1 2213   1.359   4.655   2.967
  438SOL    HW2 2214   1.386   4.775   3.074
  439SOL     OW 2215   5.815   0.899   2.888
  439SOL    HW1 2216   5.895   0.922   2.945
  439SOL    HW2 2217   5.845   0.885   2.793
  440SOL     OW 2218   3.496   1.020   6.720
  440SOL    HW1 2219   3.488   0.961   6.800
  440SOL    HW2 2220   3.587   1.063   6.720
  441SOL     OW 2221   6.327   4.329   3.043
  441SOL    HW1 2222   6.229   4.347   3.058
  441SOL    HW2 2223   6.377   4.416   3.040
  442SOL     OW 2224   4.766   4.008   5.956
  442SOL    HW1 2225   4.713   4.081   5.914
  442SOL    HW2 2226   4.777   3.933   5.890
  443SOL     OW 2227   5.133   4.719   3.083
  443SOL    HW1 2228   5.049   4.705   3.030
  443SOL    HW2 2229   5.129   4.665   3.167
  444SOL     OW 2230   3.799   1.046   6.733
  444SOL    HW1 2231   3.897   1.043   6.716
  444SOL    HW2 2232   3.782   1.066   6.830
  445SOL     OW 2233   2.931   6.278   2.777
  445SOL    HW1 2234   2.844   6.320   2.751
  445SOL    HW2 2235   2.921   6.235   2.867
  446SOL     OW 2236   4.804   6.155   2.813
  446SOL    HW1 2237   4.835   6.086   2.748
  446SOL    HW2 2238   4.845   6.138   2.902
  447SOL     OW 2239   6.272   3.511   5.803
  447SOL    HW1 2240   6.295   3.541   5.710
  447SOL    HW2 2241   6.265   3.590   5.863
  448SOL     OW 2242   2.169   1.373   2.799
  448SOL    HW1 2243   2.227   1.317   2.859
  448SOL    HW2 2244   2.172   1.337   2.706
  449SOL     OW 2245   2.050   2.712   3.469
  449SOL    HW1 2246   2.149   2.725   3.475
  449SOL    HW2 2247   2.025   2.623   3.506
  450SOL     OW 2248   0.484   4.417   3.224
  450SOL    HW1 2249   0.529   4.428   3.313
  450SOL    HW2 2250   0.550   4.382   3.157
  451SOL     OW 2251   6.979   2.192   3.560
  451SOL    HW1 2252   6.903   2.147   3.607
  451SOL    HW2 2253   6.947   2.278   3.521
  452SOL     OW 2254   3.467   6.500   2.711
  452SOL    HW1 2255   3.483   6.401   2.720
  452SOL    HW2 2256   3.543   6.549   2.753
  453SOL     OW 2257   4.464   0.408   6.915
  453SOL    HW1 2258   4.545   0.370   6.870
  453SOL    HW2 2259   4.444   0.356   6.998
  454SOL     OW 2260   6.846   4.145   6.336
  454SOL    HW1 2261   6.841   4.052   6.301
  454SOL    HW2 2262   6.933   4.159   6.384
  455SOL     OW 2263   7.005   4.103   5.364
  455SOL    HW1 2264   6.907   4.116   5.378
  455SOL    HW2 2265   0.009   4.006   5.374
  456SOL     OW 2266   1.632   1.173   3.742
  456SOL    HW1 2267   1.679   1.244   3.793
  456SOL    HW2 2268   1.600   1.101   3.805
  457SOL     OW 2269   2.115   5.943   5.908
  457SOL    HW1 2270   2.167   5.897   5.981
  457SOL    HW2 2271   2.116   5.886   5.826
  458SOL     OW 2272   2.827   1.204   3.160
  458SOL    HW1 2273   2.868   1.117   3.186
  458SOL    HW2 2274   2.727   1.198   3.168
  459SOL     OW 2275   2.301   0.478   5.125
  459SOL    HW1 2276   2.355   0.470   5.208
  459SOL    HW2 2277   2.269   0.573   5.115
  460SOL     OW 2278   0.978   1.571   5.299
  460SOL    HW1 2279   1.073   1.599   5.315
  460SOL    HW2 2280   0.962   1.564   5.200
  461SOL     OW 2281   6.973   4.764   5.632
  461SOL    HW1 2282   6.913   4.792   5.707
  461SOL    HW2 2283   7.012   4.845   5.589
  462SOL     OW 2284   3.419   3.476   4.601
  462SOL    HW1 2285   3.448   3.485   4.506
  462SOL    HW2 2286   3.324   3.445   4.604
  463SOL     OW 2287   5.917   6.877   2.794
  463SOL    HW1 2288   5.978   6.826   2.854
  463SOL    HW2 2289   5.971   6.939   2.736
  464SOL     OW 2290   3.373   6.106   5.959
  464SOL    HW1 2291   3.398   6.170   6.033
  464SOL    HW2 2292   3.332   6.024   5.999
  465SOL     OW 2293   1.376   1.997   0.770
  465SOL    HW1 2294   1.374   1.970   0.866
  465SOL    HW2 2295   1.313   1.939   0.717
  466SOL     OW 2296   3.459   6.120   4.794
  466SOL    HW1 2297   3.448   6.159   4.703
  466SOL    HW2 2298   3.503   6.188   4.854
  467SOL     OW 2299   0.761   1.768   2.220
  467SOL    HW1 2300   0.672   1.742   2.185
  467SOL    HW2 2301   0.812   1.687   2.247
  468SOL     OW 2302   4.663   0.258   6.802
  468SOL    HW1 2303   4.653   0.311   6.718
  468SOL    HW2 2304   4.590   0.189   6.806
  469SOL     OW 2305   3.037   4.345   5.614
  469SOL    HW1 2306   3.073   4.252   5.603
  469SOL    HW2 2307   2.975   4.365   5.539
  470SOL     OW 2308   2.839   5.692   2.770
  470SOL    HW1 2309   2.773   5.757   2.808
  470SOL    HW2 2310   2.853   5.617   2.835
  471SOL     OW 2311   2.811   2.327   3.830
  471SOL    HW1 2312   2.848   2.286   3.746
  471SOL    HW2 2313   2.843   2.421   3.837
  472SOL     OW 2314   5.971   4.098   6.495
  472SOL    HW1 2315   5.932   4.033   6.430
  472SOL    HW2 2316   5.908   4.112   6.571
  473SOL     OW 2317   6.588   2.163   2.635
  473SOL    HW1 2318   6.632   2.194   2.551
  473SOL    HW2 2319   6.652   2.105   2.686
  474SOL     OW 2320   6.185   5.966   4.925
  474SOL    HW1 2321   6.193   6.047   4.984
  474SOL    HW2 2322   6.259   5.902   4.946
  475SOL     OW 2323   5.667   2.806   0.615
  475SOL    HW1 2324   5.716   2.878   0.663
  475SOL    HW2 2325   5.626   2.844   0.531
  476SOL     OW 2326   0.370   4.090   1.649
  476SOL    HW1 2327   0.417   4.117   1.733
  476SOL    HW2 2328   0.367   3.990   1.643
  477SOL     OW 2329   2.850   6.104   3.888
  477SOL    HW1 2330   2.791   6.145   3.819
  477SOL    HW2 2331   2.946   6.118   3.863
  478SOL     OW 2332   4.652   5.887   2.826
  478SOL    HW1 2333   4.607   5.909   2.912
  478SOL    HW2 2334   4.680   5.972   2.781
  479SOL     OW 2335   3.999   3.100   4.150
  479SOL    HW1 2336   3.912   3.091   4.103
  479SOL    HW2 2337   4.068   3.137   4.087
  480SOL     OW 2338   1.507   6.994   3.004
  480SOL    HW1 2339   1.553   0.051   2.956
  480SOL    HW2 2340   1.465   6.933   2.936
  481SOL     OW 2341   1.310   5.941   1.239
  481SOL    HW1 2342   1.210   5.942   1.247
  481SOL    HW2 2343   1.350   5.968   1.326
  482SOL     OW 2344   5.648   4.334   2.948
  482SOL    HW1 2345   5.651   4.240   2.982
  482SOL    HW2 2346   5.680   4.396   3.020
  483SOL     OW 2347   5.842   1.855   2.802
  483SOL    HW1 2348   5.844   1.849   2.902
  483SOL    HW2 2349   5.845   1.762   2.763
  484SOL     OW 2350   2.037   4.375   4.621
  484SOL    HW1 2351   2.102   4.353   4.548
  484SOL    HW2 2352   1.966   4.304   4.623
  485SOL     OW 2353   5.557   3.425   2.526
  485SOL    HW1 2354   5.610   3.386   2.450
  485SOL    HW2 2355   5.618   3.445   2.602
  486SOL     OW 2356   6.046   0.219   6.547
  486SOL    HW1 2357   5.954   0.202   6.584
  486SOL    HW2 2358   6.039   0.241   6.450
  487SOL     OW 2359   0.309   6.833   3.444
  487SOL    HW1 2360   0.397   6.876   3.423
  487SOL    HW2 2361   0.265   6.881   3.520
  488SOL     OW 2362   2.001   6.837   3.463
  488SOL    HW1 2363   2.023   6.748   3.423
  488SOL    HW2 2364   1.989   6.905   3.390
  489SOL     OW 2365   6.543   6.109   4.543
  489SOL    HW1 2366   6.447   6.094   4.569
  489SOL    HW2 2367   6.567   6.204   4.561
  490SOL     OW 2368   1.852   5.716   6.093
  490SOL    HW1 2369   1.793   5.662   6.153
  490SOL    HW2 2370   1.932   5.661   6.068
  491SOL     OW 2371   6.956   3.079   0.096
  491SOL    HW1 2372   6.942   3.027   0.012
  491SOL    HW2 2373   6.871   3.080   0.149
  492SOL     OW 2374   1.790   1.485   5.571
  492SOL    HW1 2375   1.840   1.416   5.623
  492SOL    HW2 2376   1.847   1.567   5.563
  493SOL     OW 2377   2.618   6.663   5.403
  493SOL    HW1 2378   2.662   6.737   5.352
  493SOL    HW2 2379   2.574   6.600   5.339
  494SOL     OW 2380   2.612   0.614   5.577
  494SOL    HW1 2381   2.568   0.692   5.623
  494SOL    HW2 2382   2.679   0.572   5.639
  495SOL     OW 2383   4.170   6.275   5.523
  495SOL    HW1 2384   4.207   6.269   5.616
  495SOL    HW2 2385   4.106   6.351   5.518
  496SOL     OW 2386   6.456   2.034   2.960
  496SOL    HW1 2387   6.409   2.106   2.908
  496SOL    HW2 2388   6.434   2.044   3.057
  497SOL     OW 2389   3.614   1.262   5.755
  497SOL    HW1 2390   3.553   1.269   5.834
  497SOL    HW2 2391   3.569   1.299   5.674
  498SOL     OW 2392   0.025   6.030   1.983
  498SOL    HW1 2393   0.001   5.935   1.963
  498SOL    HW2 2394   0.109   6.033   2.036
  499SOL     OW 2395   3.371   4.891   6.130
  499SOL    HW1 2396   3.312   4.886   6.210
  499SOL    HW2 2397   3.322   4.858   6.049
  500SOL     OW 2398   5.725   2.943   6.559
  500SOL    HW1 2399   5.651   2.938   6.493
  500SOL    HW2 2400   5.806   2.897   6.523
  501SOL     OW 2401   1.733   6.793   2.866
  501SOL    HW1 2402   1.830   6.791   2.891
  501SOL    HW2 2403   1.724   6.822   2.770
  502SOL     OW 2404   1.709   4.714   5.995
  502SOL    HW1 2405   1.789   4.670   6.035
  502SOL    HW2 2406   1.626   4.664   6.022
  503SOL     OW 2407   3.122   4.348   6.558
  503SOL    HW1 2408   3.089   4.265   6.603
  503SOL    HW2 2409   3.058   4.374   6.485
  504SOL     OW 2410   6.697   6.348   1.973
  504SOL    HW1 2411   6.781   6.402   1.984
  504SOL    HW2 2412   6.679   6.297   2.057
  505SOL     OW 2413   4.060   7.006   5.196
  505SOL    HW1 2414   4.146   0.014   5.239
  505SOL    HW2 2415   4.006   6.950   5.259
  506SOL     OW 2416   3.085   6.128   2.610
  506SOL    HW1 2417   3.021   6.186   2.661
  506SOL    HW2 2418   3.171   6.122   2.660
  507SOL     OW 2419   4.198   1.127   1.779
  507SOL    HW1 2420   4.233   1.081   1.697
  507SOL    HW2 2421   4.123   1.188   1.753
  508SOL     OW 2422   0.099   3.722   4.029
  508SOL    HW1 2423   0.135   3.666   4.103
  508SOL    HW2 2424   0.013   3.764   4.058
  509SOL     OW 2425   4.740   0.484   0.024
  509SOL    HW1 2426   4.685   0.566   0.007
  509SOL    HW2 2427   4.810   0.504   0.093
  510SOL     OW 2428   6.227   4.529   6.042
  510SOL    HW1 2429   6.138   4.482   6.042
  510SOL    HW2 2430   6.267   4.524   5.951
  511SOL     OW 2431   1.311   1.422   6.567
  511SOL    HW1 2432   1.399   1.453   6.530
  511SOL    HW2 2433   1.282   1.484   6.640
  512SOL     OW 2434   5.537   2.376   0.132
  512SOL    HW1 2435   5.469   2.443   0.161
  512SOL    HW2 2436   5.564   2.320   0.211
  513SOL     OW 2437   6.013   0.010   2.575
  513SOL    HW1 2438   6.037   6.935   2.545
  513SOL    HW2 2439   6.041   0.076   2.506
  514SOL     OW 2440   6.951   6.610   3.732
  514SOL    HW1 2441   6.894   6.603   3.813
  514SOL    HW2 2442   6.937   6.700   3.689
  515SOL     OW 2443   2.910   0.607   6.482
  515SOL    HW1 2444   2.941   0.669   6.554
  515SOL    HW2 2445   2.811   0.596   6.488
  516SOL     OW 2446   2.381   4.287   1.434
  516SOL    HW1 2447   2.377   4.233   1.518
  516SOL    HW2 2448   2.288   4.303   1.401
  517SOL     OW 2449   3.217   5.343   2.495
  517SOL    HW1 2450   3.131   5.357   2.446
  517SOL    HW2 2451   3.231   5.418   2.560
  518SOL     OW 2452   2.103   3.346   3.691
  518SOL    HW1 2453   2.110   3.342   3.790
  518SOL    HW2 2454   2.131   3.258   3.652
  519SOL     OW 2455   6.634   6.325   3.838
  519SOL    HW1 2456   6.655   6.401   3.900
  519SOL    HW2 2457   6.613   6.243   3.891
  520SOL     OW 2458   1.248   3.208   6.731
  520SOL    HW1 2459   1.169   3.173   6.680
  520SOL    HW2 2460   1.309   3.132   6.753
  521SOL     OW 2461   4.593   4.815   4.262
  521SOL    HW1 2462   4.633   4.783   4.176
  521SOL    HW2 2463   4.514   4.873   4.243
  522SOL     OW 2464   4.201   3.713   1.534
  522SOL    HW1 2465   4.290   3.756   1.519
  522SOL    HW2 2466   4.177   3.718   1.631
  523SOL     OW 2467   6.965   6.750   1.822
  523SOL    HW1 2468   6.925   6.841   1.836
  523SOL    HW2 2469   0.045   6.753   1.843
  524SOL     OW 2470   0.459   3.162   2.232
  524SOL    HW1 2471   0.510   3.245   2.210
  524SOL    HW2 2472   0.362   3.176   2.212
  525SOL     OW 2473   0.814   3.214   6.736
  525SOL    HW1 2474   0.804   3.150   6.813
  525SOL    HW2 2475   0.836   3.305   6.771
  526SOL     OW 2476   3.559   0.161   4.541
  526SOL    HW1 2477   3.597   0.074   4.509
  526SOL    HW2 2478   3.543   0.221   4.463
  527SOL     OW 2479   1.138   2.504   6.971
  527SOL    HW1 2480   1.131   2.422   6.915
  527SOL    HW2 2481   1.091   2.490   0.040
  528SOL     OW 2482   0.754   3.496   3.402
  528SOL    HW1 2483   0.779   3.468   3.495
  528SOL    HW2 2484   0.665   3.457   3.378
  529SOL     OW 2485   2.709   0.417   5.757
  529SOL    HW1 2486   2.728   0.367   5.672
  529SOL    HW2 2487   2.703   0.352   5.833
  530SOL     OW 2488   3.508   3.015   2.049
  530SOL    HW1 2489   3.413   2.992   2.072
  530SOL    HW2 2490   3.569   2.971   2.114
  531SOL     OW 2491   2.309   0.861   2.863
  531SOL    HW1 2492   2.351   0.804   2.933
  531SOL    HW2 2493   2.223   0.820   2.833
  532SOL     OW 2494   1.861   3.739   0.383
  532SOL    HW1 2495   1.800   3.816   0.364
  532SOL    HW2 2496   1.908   3.755   0.470
  533SOL     OW 2497   4.902   0.186   3.688
  533SOL    HW1 2498   4.815   0.231   3.710
  533SOL    HW2 2499   4.976   0.233   3.735
  534SOL     OW 2500   1.084   5.674   1.425
  534SOL    HW1 2501   1.010   5.740   1.410
  534SOL    HW2 2502   1.124   5.690   1.515
  535SOL     OW 2503   6.494   4.080   3.508
  535SOL    HW1 2504   6.535   4.171   3.504
  535SOL    HW2 2505   6.425   4.072   3.435
  536SOL     OW 2506   6.415   5.649   3.355
  536SOL    HW1 2507   6.361   5.700   3.423
  536SOL    HW2 2508   6.476   5.712   3.307
  537SOL     OW 2509   3.670   6.996   4.398
  537SOL    HW1 2510   3.643   6.932   4.470
  537SOL    HW2 2511   3.768   7.014   4.404
  538SOL     OW 2512   1.469   5.229   5.727
  538SOL    HW1 2513   1.494   5.143   5.684
  538SOL    HW2 2514   1.529   5.246   5.805
  539SOL     OW 2515   1.133   5.747   1.698
  539SOL    HW1 2516   1.100   5.660   1.736
  539SOL    HW2 2517   1.225   5.766   1.732
  540SOL     OW 2518   1.659   1.212   4.137
  540SOL    HW1 2519   1.734   1.158   4.176
  540SOL    HW2 2520   1.687   1.249   4.049
  541SOL     OW 2521   4.110   5.639   3.569
  541SOL    HW1 2522   4.053   5.716   3.541
  541SOL    HW2 2523   4.107   5.630   3.668
  542SOL     OW 2524   3.948   5.731   6.510
  542SOL    HW1 2525   3.935   5.642   6.554
  542SOL    HW2 2526   3.889   5.737   6.430
  543SOL     OW 2527   5.557   3.659   3.927
  543SOL    HW1 2528   5.504   3.582   3.891
  543SOL    HW2 2529   5.534   3.672   4.023
  544SOL     OW 2530   0.594   4.827   6.981
  544SOL    HW1 2531   0.495   4.820   6.973
  544SOL    HW2 2532   0.620   4.923   6.991
  545SOL     OW 2533   5.021   1.238   1.281
  545SOL    HW1 2534   4.954   1.312   1.293
  545SOL    HW2 2535   5.083   1.237   1.359
  546SOL     OW 2536   0.684   4.441   1.601
  546SOL    HW1 2537   0.672   4.517   1.665
  546SOL    HW2 2538   0.604   4.432   1.543
  547SOL     OW 2539   3.582   2.136   0.200
  547SOL    HW1 2540   3.648   2.173   0.134
  547SOL    HW2 2541   3.593   2.037   0.206
  548SOL     OW 2542   2.980   3.406   0.516
  548SOL    HW1 2543   3.048   3.466   0.558
  548SOL    HW2 2544   2.919   3.370   0.587
  549SOL     OW 2545   4.882   2.688   0.948
  549SOL    HW1 2546   4.854   2.620   0.881
  549SOL    HW2 2547   4.802   2.734   0.985
  550SOL     OW 2548   6.791   4.738   3.540
  550SOL    HW1 2549   6.772   4.649   3.582
  550SOL    HW2 2550   6.712   4.767   3.486
  551SOL     OW 2551   6.864   1.030   0.749
  551SOL    HW1 2552   6.773   1.068   0.768
  551SOL    HW2 2553   6.912   1.090   0.685
  552SOL     OW 2554   5.162   4.977   5.130
  552SOL    HW1 2555   5.148   4.995   5.228
  552SOL    HW2 2556   5.077   4.943   5.090
  553SOL     OW 2557   3.715   0.781   4.269
  553SOL    HW1 2558   3.770   0.751   4.348
  553SOL    HW2 2559   3.663   0.703   4.233
  554SOL     OW 2560   5.658   5.568   6.964
  554SOL    HW1 2561   5.738   5.583   0.005
  554SOL    HW2 2562   5.637   5.652   6.914
  555SOL     OW 2563   3.501   5.562   5.052
  555SOL    HW1 2564   3.577   5.535   5.112
  555SOL    HW2 2565   3.537   5.595   4.965
  556SOL     OW 2566   5.491   1.688   4.689
  556SOL    HW1 2567   5.421   1.698   4.619
  556SOL    HW2 2568   5.448   1.687   4.779
  557SOL     OW 2569   6.892   4.756   6.244
  557SOL    HW1 2570   6.882   4.738   6.146
  557SOL    HW2 2571   6.808   4.727   6.291
  558SOL     OW 2572   4.001   3.401   3.761
  558SOL    HW1 2573   4.061   3.481   3.766
  558SOL    HW2 2574   3.990   3.373   3.666
  559SOL     OW 2575   6.407   6.193   5.261
  559SOL    HW1 2576   6.481   6.177   5.327
  559SOL    HW2 2577   6.371   6.286   5.273
  560SOL     OW 2578   6.572   3.483   3.087
  560SOL    HW1 2579   6.539   3.564   3.037
  560SOL    HW2 2580   6.641   3.436   3.032
  561SOL     OW 2581   6.809   2.735   6.356
  561SOL    HW1 2582   6.877   2.798   6.318
  561SOL    HW2 2583   6.824   2.726   6.455
  562SOL     OW 2584   4.784   0.019   5.404
  562SOL    HW1 2585   4.781   0.032   5.305
  562SOL    HW2 2586   4.731   6.956   5.429
  563SOL     OW 2587   1.873   1.579   3.806
  563SOL    HW1 2588   1.942   1.564   3.736
  563SOL    HW2 2589   1.899   1.658   3.862
  564SOL     OW 2590   0.081   1.702   6.234
  564SOL    HW1 2591   0.086   1.664   6.327
  564SOL    HW2 2592   0.137   1.647   6.172
  565SOL     OW 2593   2.920   3.354   4.092
  565SOL    HW1 2594   2.845   3.290   4.074
  565SOL    HW2 2595   2.987   3.310   4.152
  566SOL     OW 2596   2.280   4.807   2.844
  566SOL    HW1 2597   2.292   4.713   2.875
  566SOL    HW2 2598   2.369   4.846   2.820
  567SOL     OW 2599   2.709   2.407   0.538
  567SOL    HW1 2600   2.658   2.447   0.462
  567SOL    HW2 2601   2.791   2.462   0.555
  568SOL     OW 2602   5.441   6.846   0.965
  568SOL    HW1 2603   5.445   6.760   0.915
  568SOL    HW2 2604   5.531   6.867   1.003
  569SOL     OW 2605   1.045   2.659   1.026
  569SOL    HW1 2606   0.964   2.717   1.015
  569SOL    HW2 2607   1.017   2.567   1.052
  570SOL     OW 2608   3.259   6.855   6.522
  570SOL    HW1 2609   3.327   6.854   6.595
  570SOL    HW2 2610   3.234   6.760   6.499
  571SOL     OW 2611   2.906   4.799   3.727
  571SOL    HW1 2612   2.831   4.828   3.668
  571SOL    HW2 2613   2.993   4.819   3.682
  572SOL     OW 2614   2.155   5.742   4.852
  572SOL    HW1 2615   2.110   5.828   4.827
  572SOL    HW2 2616   2.166   5.685   4.771
  573SOL     OW 2617   6.218   1.355   5.618
  573SOL    HW1 2618   6.288   1.418   5.586
  573SOL    HW2 2619   6.135   1.405   5.641
  574SOL     OW 2620   3.550   0.547   5.503
  574SOL    HW1 2621   3.540   0.607   5.424
  574SOL    HW2 2622   3.617   0.476   5.482
  575SOL     OW 2623   4.306   2.718   1.139
  575SOL    HW1 2624   4.207   2.706   1.128
  575SOL    HW2 2625   4.326   2.763   1.226
  576SOL     OW 2626   1.796   3.069   2.924
  576SOL    HW1 2627   1.713   3.086   2.977
  576SOL    HW2 2628   1.786   3.109   2.833
  577SOL     OW 2629   1.109   0.549   2.474
  577SOL    HW1 2630   1.063   0.461   2.486
  577SOL    HW2 2631   1.179   0.541   2.403
  578SOL     OW 2632   2.098   5.583   6.451
  578SOL    HW1 2633   2.064   5.535   6.370
  578SOL    HW2 2634   2.162   5.655   6.423
  579SOL     OW 2635   1.693   4.586   2.631
  579SOL    HW1 2636   1.777   4.622   2.591
  579SOL    HW2 2637   1.708   4.568   2.728
  580SOL     OW 2638   4.334   4.785   5.660
  580SOL    HW1 2639   4.323   4.757   5.565
  580SOL    HW2 2640   4.432   4.789   5.682
  581SOL     OW 2641   1.004   3.136   3.675
  581SOL    HW1 2642   0.993   3.065   3.606
  581SOL    HW2 2643   0.931   3.128   3.743
  582SOL     OW 2644   4.786   5.672   3.203
  582SOL    HW1 2645   4.822   5.630   3.286
  582SOL    HW2 2646   4.731   5.605   3.153
  583SOL     OW 2647   2.603   5.484   4.952
  583SOL    HW1 2648   2.591   5.457   5.047
  583SOL    HW2 2649   2.544   5.562   4.932
  584SOL     OW 2650   3.581   6.886   6.154
  584SOL    HW1 2651   3.500   6.885   6.213
  584SOL    HW2 2652   3.659   6.848   6.204
  585SOL     OW 2653   4.240   0.509   1.027
  585SOL    HW1 2654   4.267   0.514   0.931
  585SOL    HW2 2655   4.258   0.417   1.062
  586SOL     OW 2656   3.667   0.728   1.023
  586SOL    HW1 2657   3.649   0.713   1.120
  586SOL    HW2 2658   3.583   0.763   0.979
  587SOL     OW 2659   5.191   2.071   2.408
  587SOL    HW1 2660   5.138   2.100   2.488
  587SOL    HW2 2661   5.203   2.149   2.346
  588SOL     OW 2662   1.875   5.325   1.244
  588SOL    HW1 2663   1.806   5.391   1.275
  588SOL    HW2 2664   1.932   5.368   1.174
  589SOL     OW 2665   3.300   5.548   1.165
  589SOL    HW1 2666   3.293   5.634   1.115
  589SOL    HW2 2667   3.233   5.483   1.129
  590SOL     OW 2668   5.615   1.251   0.752
  590SOL    HW1 2669   5.581   1.287   0.664
  590SOL    HW2 2670   5.711   1.228   0.743
  591SOL     OW 2671   4.058   6.047   3.567
  591SOL    HW1 2672   4.089   6.022   3.659
  591SOL    HW2 2673   3.990   5.980   3.536
  592SOL     OW 2674   4.444   0.511   3.439
  592SOL    HW1 2675   4.394   0.542   3.358
  592SOL    HW2 2676   4.381   0.471   3.504
  593SOL     OW 2677   4.489   2.070   5.006
  593SOL    HW1 2678   4.546   2.132   4.953
  593SOL    HW2 2679   4.402   2.114   5.029
  594SOL     OW 2680   5.875   1.140   0.692
  594SOL    HW1 2681   5.906   1.045   0.703
  594SOL    HW2 2682   5.921   1.198   0.759
  595SOL     OW 2683   5.791   6.615   3.428
  595SOL    HW1 2684   5.699   6.645   3.452
  595SOL    HW2 2685   5.786   6.544   3.357
  596SOL     OW 2686   6.980   5.230   3.500
  596SOL    HW1 2687   7.015   5.303   3.558
  596SOL    HW2 2688   6.881   5.240   3.490
  597SOL     OW 2689   3.030   0.072   6.144
  597SOL    HW1 2690   3.055   7.003   6.188
  597SOL    HW2 2691   2.996   0.136   6.213
  598SOL     OW 2692   3.479   4.140   4.873
  598SOL    HW1 2693   3.508   4.148   4.968
  598SOL    HW2 2694   3.379   4.143   4.868
  599SOL     OW 2695   1.829   5.930   2.501
  599SOL    HW1 2696   1.810   5.890   2.411
  599SOL    HW2 2697   1.876   6.017   2.489
  600SOL     OW 2698   0.043   3.223   5.983
  600SOL    HW1 2699   7.003   3.193   6.060
  600SOL    HW2 2700   7.003   3.267   5.914
  601SOL     OW 2701   1.521   1.097   4.812
  601SOL    HW1 2702   1.581   1.099   4.732
  601SOL    HW2 2703   1.481   1.006   4.821
  602SOL     OW 2704   2.839   0.464   6.112
  602SOL    HW1 2705   2.743   0.491   6.126
  602SOL    HW2 2706   2.866   0.400   6.184
  603SOL     OW 2707   1.753   1.904   5.407
  603SOL    HW1 2708   1.846   1.905   5.370
  603SOL    HW2 2709   1.756   1.897   5.506
  604SOL     OW 2710   0.511   2.468   1.553
  604SOL    HW1 2711   0.506   2.503   1.460
  604SOL    HW2 2712   0.596   2.500   1.596
  605SOL     OW 2713   0.083   4.987   1.820
  605SOL    HW1 2714   0.164   5.007   1.876
  605SOL    HW2 2715   0.089   4.894   1.784
  606SOL     OW 2716   4.459   6.629   5.773
  606SOL    HW1 2717   4.413   6.656   5.689
  606SOL    HW2 2718   4.451   6.530   5.786
  607SOL     OW 2719   0.497   4.943   5.595
  607SOL    HW1 2720   0.440   4.983   5.667
  607SOL    HW2 2721   0.474   4.984   5.507
  608SOL     OW 2722   3.682   6.888   0.042
  608SOL    HW1 2723   3.590   6.894   0.080
  608SOL    HW2 2724   3.687   6.941   6.975
  609SOL     OW 2725   3.646   2.508   1.640
  609SOL    HW1 2726   3.573   2.566   1.676
  609SOL    HW2 2727   3.664   2.433   1.705
  610SOL     OW 2728   4.610   2.197   0.269
  610SOL    HW1 2729   4.621   2.281   0.322
  610SOL    HW2 2730   4.673   2.199   0.191
  611SOL     OW 2731   3.575   6.842   2.768
  611SOL    HW1 2732   3.558   6.813   2.674
  611SOL    HW2 2733   3.546   6.937   2.779
  612SOL     OW 2734   2.823   5.338   4.781
  612SOL    HW1 2735   2.884   5.305   4.853
  612SOL    HW2 2736   2.770   5.416   4.814
  613SOL     OW 2737   5.344   4.662   4.854
  613SOL    HW1 2738   5.257   4.651   4.806
  613SOL    HW2 2739   5.357   4.586   4.919
  614SOL     OW 2740   5.342   5.295   4.824
  614SOL    HW1 2741   5.364   5.208   4.781
  614SOL    HW2 2742   5.243   5.309   4.824
  615SOL     OW 2743   6.713   2.816   1.351
  615SOL    HW1 2744   6.685   2.734   1.301
  615SOL    HW2 2745   6.717   2.795   1.449
  616SOL     OW 2746   6.175   2.237   2.641
  616SOL    HW1 2747   6.124   2.153   2.624
  616SOL    HW2 2748   6.130   2.313   2.594
  617SOL     OW 2749   1.674   4.799   6.641
  617SOL    HW1 2750   1.658   4.812   6.544
  617SOL    HW2 2751   1.599   4.838   6.694
  618SOL     OW 2752   1.507   2.523   1.643
  618SOL    HW1 2753   1.506   2.513   1.742
  618SOL    HW2 2754   1.454   2.449   1.601
  619SOL     OW 2755   1.923   2.119   0.649
  619SOL    HW1 2756   1.961   2.187   0.587
  619SOL    HW2 2757   1.841   2.156   0.692
  620SOL     OW 2758   4.436   1.972   0.272
  620SOL    HW1 2759   4.465   1.898   0.212
  620SOL    HW2 2760   4.479   2.058   0.243
  621SOL     OW 2761   5.675   4.960   6.819
  621SOL    HW1 2762   5.768   4.972   6.786
  621SOL    HW2 2763   5.628   4.891   6.764
  622SOL     OW 2764   1.488   1.131   6.743
  622SOL    HW1 2765   1.468   1.088   6.655
  622SOL    HW2 2766   1.411   1.118   6.805
  623SOL     OW 2767   0.798   5.858   6.021
  623SOL    HW1 2768   0.735   5.781   6.033
  623SOL    HW2 2769   0.814   5.873   5.923
  624SOL     OW 2770   0.175   2.907   2.179
  624SOL    HW1 2771   0.256   2.848   2.188
  624SOL    HW2 2772   0.158   2.925   2.083
  625SOL     OW 2773   2.838   2.318   1.187
  625SOL    HW1 2774   2.760   2.260   1.164
  625SOL    HW2 2775   2.808   2.392   1.247
  626SOL     OW 2776   2.683   5.705   3.703
  626SOL    HW1 2777   2.775   5.736   3.677
  626SOL    HW2 2778   2.665   5.617   3.659
  627SOL     OW 2779   4.771   6.810   0.845
  627SOL    HW1 2780   4.809   6.778   0.932
  627SOL    HW2 2781   4.762   6.733   0.782
  628SOL     OW 2782   4.653   4.959   4.762
  628SOL    HW1 2783   4.688   4.974   4.669
  628SOL    HW2 2784   4.704   5.016   4.826
  629SOL     OW 2785   0.318   0.286   0.958
  629SOL    HW1 2786   0.267   0.218   1.011
  629SOL    HW2 2787   0.276   0.376   0.970
  630SOL     OW 2788   5.572   2.092   2.522
  630SOL    HW1 2789   5.590   2.058   2.614
  630SOL    HW2 2790   5.515   2.025   2.473
  631SOL     OW 2791   2.869   0.415   5.383
  631SOL    HW1 2792   2.809   0.336   5.372
  631SOL    HW2 2793   2.958   0.385   5.416
  632SOL     OW 2794   2.552   1.391   0.303
  632SOL    HW1 2795   2.651   1.398   0.294
  632SOL    HW2 2796   2.528   1.304   0.347
  633SOL     OW 2797   3.635   5.389   0.043
  633SOL    HW1 2798   3.722   5.401   0.090
  633SOL    HW2 2799   3.617   5.467   7.002
  634SOL     OW 2800   4.172   4.640   1.839
  634SOL    HW1 2801   4.223   4.564   1.800
  634SOL    HW2 2802   4.090   4.657   1.784
  635SOL     OW 2803   4.923   6.803   3.052
  635SOL    HW1 2804   4.920   6.761   3.143
  635SOL    HW2 2805   5.017   6.805   3.020
  636SOL     OW 2806   5.220   5.374   6.446
  636SOL    HW1 2807   5.267   5.289   6.473
  636SOL    HW2 2808   5.253   5.449   6.503
  637SOL     OW 2809   5.226   4.888   1.760
  637SOL    HW1 2810   5.260   4.965   1.814
  637SOL    HW2 2811   5.219   4.807   1.818
  638SOL     OW 2812   5.004   1.165   2.486
  638SOL    HW1 2813   5.035   1.136   2.395
  638SOL    HW2 2814   5.048   1.251   2.511
  639SOL     OW 2815   5.119   4.715   1.944
  639SOL    HW1 2816   5.063   4.755   2.017
  639SOL    HW2 2817   5.066   4.713   1.859
  640SOL     OW 2818   2.261   4.920   5.615
  640SOL    HW1 2819   2.355   4.942   5.591
  640SOL    HW2 2820   2.248   4.821   5.614
  641SOL     OW 2821   0.480   5.461   4.450
  641SOL    HW1 2822   0.550   5.518   4.407
  641SOL    HW2 2823   0.450   5.503   4.535
  642SOL     OW 2824   0.489   3.905   4.157
  642SOL    HW1 2825   0.552   3.882   4.232
  642SOL    HW2 2826   0.483   4.004   4.147
  643SOL     OW 2827   5.983   5.344   5.085
  643SOL    HW1 2828   5.961   5.404   5.008
  643SOL    HW2 2829   6.080   5.320   5.082
  644SOL     OW 2830   0.730   5.522   2.500
  644SOL    HW1 2831   0.657   5.486   2.558
  644SOL    HW2 2832   0.809   5.545   2.556
  645SOL     OW 2833   4.929   2.636   4.488
  645SOL    HW1 2834   4.829   2.632   4.493
  645SOL    HW2 2835   4.957   2.631   4.392
  646SOL     OW 2836   1.830   2.259   3.514
  646SOL    HW1 2837   1.793   2.235   3.603
  646SOL    HW2 2838   1.871   2.178   3.472
  647SOL     OW 2839   6.188   2.687   6.368
  647SOL    HW1 2840   6.138   2.671   6.283
  647SOL    HW2 2841   6.276   2.730   6.347
  648SOL     OW 2842   5.799   3.498   2.767
  648SOL    HW1 2843   5.869   3.428   2.757
  648SOL    HW2 2844   5.821   3.576   2.709
  649SOL     OW 2845   4.185   4.176   0.340
  649SOL    HW1 2846   4.167   4.264   0.384
  649SOL    HW2 2847   4.243   4.120   0.400
  650SOL     OW 2848   4.634   4.202   0.449
  650SOL    HW1 2849   4.630   4.117   0.501
  650SOL    HW2 2850   4.629   4.182   0.351
  651SOL     OW 2851   0.585   6.601   0.353
  651SOL    HW1 2852   0.607   6.659   0.431
  651SOL    HW2 2853   0.624   6.510   0.366
  652SOL     OW 2854   4.791   6.489   3.697
  652SOL    HW1 2855   4.753   6.565   3.646
  652SOL    HW2 2856   4.759   6.403   3.657
  653SOL     OW 2857   3.636   5.514   5.330
  653SOL    HW1 2858   3.578   5.484   5.406
  653SOL    HW2 2859   3.717   5.456   5.326
  654SOL     OW 2860   6.864   4.699   5.984
  654SOL    HW1 2861   6.959   4.688   5.953
  654SOL    HW2 2862   6.817   4.610   5.979
  655SOL     OW 2863   0.449   0.273   2.318
  655SOL    HW1 2864   0.544   0.250   2.300
  655SOL    HW2 2865   0.444   0.340   2.392
  656SOL     OW 2866   2.105   5.630   1.541
  656SOL    HW1 2867   2.079   5.699   1.609
  656SOL    HW2 2868   2.052   5.546   1.556
  657SOL     OW 2869   2.244   2.072   1.563
  657SOL    HW1 2870   2.331   2.101   1.605
  657SOL    HW2 2871   2.178   2.147   1.567
  658SOL     OW 2872   3.358   2.920   6.614
  658SOL    HW1 2873   3.297   2.983   6.566
  658SOL    HW2 2874   3.304   2.853   6.664
  659SOL     OW 2875   3.389   6.342   6.120
  659SOL    HW1 2876   3.367   6.309   6.212
  659SOL    HW2 2877   3.308   6.386   6.080
  660SOL     OW 2878   3.936   5.502   1.584
  660SOL    HW1 2879   3.877   5.570   1.627
  660SOL    HW2 2880   3.952   5.527   1.489
  661SOL     OW 2881   4.421   6.490   3.827
  661SOL    HW1 2882   4.420   6.410   3.888
  661SOL    HW2 2883   4.363   6.472   3.748
  662SOL     OW 2884   3.554   1.025   5.661
  662SOL    HW1 2885   3.607   1.107   5.682
  662SOL    HW2 2886   3.576   0.954   5.728
  663SOL     OW 2887   2.335   3.682   5.577
  663SOL    HW1 2888   2.316   3.731   5.491
  663SOL    HW2 2889   2.256   3.690   5.637
  664SOL     OW 2890   0.347   6.061   6.146
  664SOL    HW1 2891   0.315   6.073   6.052
  664SOL    HW2 2892   0.433   6.010   6.147
  665SOL     OW 2893   3.657   5.268   2.495
  665SOL    HW1 2894   3.693   5.351   2.537
  665SOL    HW2 2895   3.731   5.219   2.449
  666SOL     OW 2896   4.491   0.614   1.787
  666SOL    HW1 2897   4.549   0.533   1.793
  666SOL    HW2 2898   4.511   0.664   1.703
  667SOL     OW 2899   1.156   5.202   2.111
  667SOL    HW1 2900   1.252   5.195   2.138
  667SOL    HW2 2901   1.106   5.124   2.149
  668SOL     OW 2902   5.425   6.094   5.791
  668SOL    HW1 2903   5.382   6.077   5.702
  668SOL    HW2 2904   5.376   6.043   5.862
  669SOL     OW 2905   6.070   0.855   3.413
  669SOL    HW1 2906   6.030   0.765   3.433
  669SOL    HW2 2907   6.019   0.925   3.463
  670SOL     OW 2908   2.544   1.966   2.233
  670SOL    HW1 2909   2.582   1.935   2.320
  670SOL    HW2 2910   2.609   1.946   2.159
  671SOL     OW 2911   3.324   5.809   0.997
  671SOL    HW1 2912   3.365   5.880   1.054
  671SOL    HW2 2913   3.394   5.772   0.935
  672SOL     OW 2914   6.861   5.283   1.892
  672SOL    HW1 2915   6.771   5.323   1.873
  672SOL    HW2 2916   6.855   5.223   1.972
  673SOL     OW 2917   5.989   6.966   1.437
  673SOL    HW1 2918   6.026   0.034   1.401
  673SOL    HW2 2919   6.016   6.890   1.378
  674SOL     OW 2920   0.411   1.187   4.611
  674SOL    HW1 2921   0.440   1.282   4.605
  674SOL    HW2 2922   0.479   1.128   4.567
  675SOL     OW 2923   5.409   2.552   2.730
  675SOL    HW1 2924   5.464   2.546   2.647
  675SOL    HW2 2925   5.386   2.460   2.762
  676SOL     OW 2926   2.270   5.258   4.494
  676SOL    HW1 2927   2.246   5.173   4.541
  676SOL    HW2 2928   2.345   5.303   4.543
  677SOL     OW 2929   4.968   0.803   1.441
  677SOL    HW1 2930   4.950   0.819   1.344
  677SOL    HW2 2931   4.990   0.890   1.486
  678SOL     OW 2932   2.803   5.405   4.522
  678SOL    HW1 2933   2.886   5.395   4.466
  678SOL    HW2 2934   2.818   5.362   4.611
  679SOL     OW 2935   5.338   1.676   4.922
  679SOL    HW1 2936   5.262   1.638   4.976
  679SOL    HW2 2937   5.425   1.648   4.963
  680SOL     OW 2938   4.426   5.859   4.480
  680SOL    HW1 2939   4.409   5.870   4.382
  680SOL    HW2 2940   4.379   5.776   4.512
  681SOL     OW 2941   4.130   5.970   1.964
  681SOL    HW1 2942   4.209   6.001   1.912
  681SOL    HW2 2943   4.142   5.874   1.989
  682SOL     OW 2944   6.416   1.603   1.946
  682SOL    HW1 2945   6.357   1.669   1.899
  682SOL    HW2 2946   6.380   1.587   2.038
  683SOL     OW 2947   4.622   2.968   0.910
  683SOL    HW1 2948   4.635   2.936   0.816
  683SOL    HW2 2949   4.615   2.890   0.971
  684SOL     OW 2950   6.311   0.828   0.377
  684SOL    HW1 2951   6.289   0.892   0.304
  684SOL    HW2 2952   6.300   0.873   0.466
  685SOL     OW 2953   3.181   2.151   3.960
  685SOL    HW1 2954   3.179   2.159   3.860
  685SOL    HW2 2955   3.274   2.129   3.990
  686SOL     OW 2956   4.669   1.994   4.316
  686SOL    HW1 2957   4.722   2.050   4.253
  686SOL    HW2 2958   4.727   1.920   4.352
  687SOL     OW 2959   1.194   2.147   4.146
  687SOL    HW1 2960   1.148   2.066   4.110
  687SOL    HW2 2961   1.196   2.143   4.246
  688SOL     OW 2962   6.916   1.449   6.398
  688SOL    HW1 2963   6.970   1.532   6.416
  688SOL    HW2 2964   6.821   1.475   6.378
  689SOL     OW 2965   1.971   4.603   5.970
  689SOL    HW1 2966   1.991   4.517   6.016
  689SOL    HW2 2967   2.056   4.646   5.940
  690SOL     OW 2968   6.688   3.971   3.379
  690SOL    HW1 2969   6.615   4.009   3.436
  690SOL    HW2 2970   6.766   4.034   3.378
  691SOL     OW 2971   3.514   1.525   0.878
  691SOL    HW1 2972   3.567   1.504   0.961
  691SOL    HW2 2973   3.541   1.615   0.844
  692SOL     OW 2974   4.253   1.870   4.890
  692SOL    HW1 2975   4.327   1.862   4.957
  692SOL    HW2 2976   4.165   1.861   4.937
  693SOL     OW 2977   4.888   6.765   4.064
  693SOL    HW1 2978   4.808   6.713   4.034
  693SOL    HW2 2979   4.936   6.713   4.135
  694SOL     OW 2980   4.258   6.115   4.579
  694SOL    HW1 2981   4.180   6.059   4.606
  694SOL    HW2 2982   4.332   6.056   4.546
  695SOL     OW 2983   3.722   5.979   4.249
  695SOL    HW1 2984   3.626   6.005   4.258
  695SOL    HW2 2985   3.737   5.890   4.290
  696SOL     OW 2986   4.969   4.339   3.508
  696SOL    HW1 2987   4.982   4.247   3.471
  696SOL    HW2 2988   5.054   4.369   3.551
  697SOL     OW 2989   1.506   3.541   2.597
  697SOL    HW1 2990   1.436   3.524   2.667
  697SOL    HW2 2991   1.505   3.637   2.573
  698SOL     OW 2992   5.103   6.484   0.692
  698SOL    HW1 2993   5.153   6.404   0.659
  698SOL    HW2 2994   5.030   6.454   0.753
  699SOL     OW 2995   1.574   3.172   6.483
  699SOL    HW1 2996   1.546   3.195   6.390
  699SOL    HW2 2997   1.658   3.117   6.480
  700SOL     OW 2998   3.562   0.176   1.961
  700SOL    HW1 2999   3.586   0.205   2.053
  700SOL    HW2 3000   3.594   0.083   1.945
  701SOL     OW 3001   0.205   4.302   0.033
  701SOL    HW1 3002   0.211   4.398   0.058
  701SOL    HW2 3003   0.267   4.283   6.974
  702SOL     OW 3004   2.350   6.974   4.107
  702SOL    HW1 3005   2.349   0.027   4.036
  702SOL    HW2 3006   2.267   6.919   4.101
  703SOL     OW 3007   3.462   3.045   5.742
  703SOL    HW1 3008   3.517   3.095   5.675
  703SOL    HW2 3009   3.371   3.028   5.704
  704SOL     OW 3010   1.973   2.257   6.491
  704SOL    HW1 3011   2.071   2.258   6.511
  704SOL    HW2 3012   1.930   2.179   6.537
  705SOL     OW 3013   6.191   5.634   3.159
  705SOL    HW1 3014   6.117   5.604   3.219
  705SOL    HW2 3015   6.276   5.636   3.210
  706SOL     OW 3016   4.493   2.130   5.673
  706SOL    HW1 3017   4.424   2.192   5.636
  706SOL    HW2 3018   4.583   2.158   5.641
  707SOL     OW 3019   3.914   4.872   3.053
  707SOL    HW1 3020   3.945   4.779   3.032
  707SOL    HW2 3021   3.885   4.918   2.969
  708SOL     OW 3022   2.842   1.403   3.357
  708SOL    HW1 3023   2.802   1.349   3.283
  708SOL    HW2 3024   2.867   1.493   3.323
  709SOL     OW 3025   1.349   6.574   1.174
  709SOL    HW1 3026   1.313   6.645   1.235
  709SOL    HW2 3027   1.413   6.516   1.224
  710SOL     OW 3028   4.876   2.196   1.482
  710SOL    HW1 3029   4.939   2.273   1.493
  710SOL    HW2 3030   4.832   2.176   1.570
  711SOL     OW 3031   0.237   2.729   6.416
  711SOL    HW1 3032   0.256   2.826   6.403
  711SOL    HW2 3033   0.174   2.717   6.493
  712SOL     OW 3034   4.705   2.260   0.855
  712SOL    HW1 3035   4.723   2.233   0.760
  712SOL    HW2 3036   4.757   2.200   0.916
  713SOL     OW 3037   4.256   2.719   5.448
  713SOL    HW1 3038   4.170   2.754   5.486
  713SOL    HW2 3039   4.239   2.686   5.355
  714SOL     OW 3040   6.191   5.262   3.863
  714SOL    HW1 3041   6.123   5.192   3.883
  714SOL    HW2 3042   6.161   5.317   3.786
  715SOL     OW 3043   5.988   5.386   6.353
  715SOL    HW1 3044   6.035   5.391   6.441
  715SOL    HW2 3045   6.035   5.319   6.295
  716SOL     OW 3046   1.401   1.503   2.862
  716SOL    HW1 3047   1.406   1.436   2.937
  716SOL    HW2 3048   1.307   1.537   2.855
  717SOL     OW 3049   6.388   4.569   4.507
  717SOL    HW1 3050   6.342   4.631   4.570
  717SOL    HW2 3051   6.484   4.558   4.534
  718SOL     OW 3052   4.963   2.797   4.693
  718SOL    HW1 3053   5.016   2.879   4.713
  718SOL    HW2 3054   4.992   2.759   4.605
  719SOL     OW 3055   5.568   0.553   2.650
  719SOL    HW1 3056   5.641   0.549   2.719
  719SOL    HW2 3057   5.510   0.632   2.667
  720SOL     OW 3058   2.275   0.124   6.163
  720SOL    HW1 3059   2.327   0.089   6.084
  720SOL    HW2 3060   2.209   0.055   6.191
  721SOL     OW 3061   1.767   1.358   2.303
  721SOL    HW1 3062   1.853   1.309   2.317
  721SOL    HW2 3063   1.741   1.354   2.207
  722SOL     OW 3064   3.192   0.986   5.359
  722SOL    HW1 3065   3.118   1.051   5.348
  722SOL    HW2 3066   3.204   0.934   5.274
  723SOL     OW 3067   1.770   6.059   3.678
  723SOL    HW1 3068   1.858   6.084   3.718
  723SOL    HW2 3069   1.769   6.086   3.582
  724SOL     OW 3070   0.152   1.217   3.521
  724SOL    HW1 3071   0.077   1.238   3.457
  724SOL    HW2 3072   0.166   1.294   3.583
  725SOL     OW 3073   1.931   4.718   2.535
  725SOL    HW1 3074   1.921   4.790   2.467
  725SOL    HW2 3075   2.020   4.674   2.524
  726SOL     OW 3076   2.332   5.225   0.882
  726SOL    HW1 3077   2.254   5.175   0.843
  726SOL    HW2 3078   2.413   5.209   0.826
  727SOL     OW 3079   4.910   4.710   6.630
  727SOL    HW1 3080   4.909   4.611   6.615
  727SOL    HW2 3081   4.888   4.757   6.544
  728SOL     OW 3082   6.907   3.361   4.178
  728SOL    HW1 3083   6.914   3.314   4.090
  728SOL    HW2 3084   6.834   3.319   4.232
  729SOL     OW 3085   0.570   2.790   0.982
  729SOL    HW1 3086   0.510   2.723   1.025
  729SOL    HW2 3087   0.515   2.861   0.936
  730SOL     OW 3088   5.783   0.866   3.587
  730SOL    HW1 3089   5.762   0.963   3.575
  730SOL    HW2 3090   5.729   0.812   3.522
  731SOL     OW 3091   4.863   4.999   0.056
  731SOL    HW1 3092   4.886   5.082   0.107
  731SOL    HW2 3093   4.932   4.928   0.075
  732SOL     OW 3094   5.773   2.719   2.450
  732SOL    HW1 3095   5.819   2.732   2.538
  732SOL    HW2 3096   5.694   2.660   2.462
  733SOL     OW 3097   5.948   0.482   4.385
  733SOL    HW1 3098   5.911   0.417   4.319
  733SOL    HW2 3099   5.877   0.508   4.450
  734SOL     OW 3100   6.055   4.782   2.786
  734SOL    HW1 3101   6.152   4.776   2.763
  734SOL    HW2 3102   6.021   4.691   2.810
  735SOL     OW 3103   4.179   1.040   0.624
  735SOL    HW1 3104   4.171   1.046   0.723
  735SOL    HW2 3105   4.258   0.984   0.599
  736SOL     OW 3106   1.654   1.720   3.673
  736SOL    HW1 3107   1.704   1.643   3.713
  736SOL    HW2 3108   1.622   1.695   3.581
  737SOL     OW 3109   5.823   1.691   6.445
  737SOL    HW1 3110   5.724   1.680   6.433
  737SOL    HW2 3111   5.845   1.787   6.456
  738SOL     OW 3112   2.659   3.900   1.641
  738SOL    HW1 3113   2.741   3.844   1.655
  738SOL    HW2 3114   2.581   3.857   1.686
  739SOL     OW 3115   3.858   0.534   5.053
  739SOL    HW1 3116   3.858   0.632   5.073
  739SOL    HW2 3117   3.897   0.519   4.962
  740SOL     OW 3118   5.752   1.847   3.063
  740SOL    HW1 3119   5.798   1.837   3.151
  740SOL    HW2 3120   5.682   1.918   3.070
  741SOL     OW 3121   1.892   0.960   4.175
  741SOL    HW1 3122   1.810   0.903   4.178
  741SOL    HW2 3123   1.886   1.022   4.097
  742SOL     OW 3124   2.391   6.137   1.507
  742SOL    HW1 3125   2.353   6.200   1.439
  742SOL    HW2 3126   2.322   6.115   1.575
  743SOL     OW 3127   0.299   6.065   3.328
  743SOL    HW1 3128   0.377   6.018   3.287
  743SOL    HW2 3129   0.320   6.089   3.423
  744SOL     OW 3130   5.953   0.928   0.928
  744SOL    HW1 3131   6.013   0.852   0.953
  744SOL    HW2 3132   5.968   1.004   0.990
  745SOL     OW 3133   2.291   5.661   5.331
  745SOL    HW1 3134   2.270   5.728   5.402
  745SOL    HW2 3135   2.245   5.688   5.246
  746SOL     OW 3136   5.941   4.052   5.689
  746SOL    HW1 3137   6.002   4.078   5.763
  746SOL    HW2 3138   5.848   4.043   5.723
  747SOL     OW 3139   4.254   5.655   4.511
  747SOL    HW1 3140   4.300   5.582   4.462
  747SOL    HW2 3141   4.169   5.621   4.551
  748SOL     OW 3142   4.980   5.469   2.044
  748SOL    HW1 3143   4.977   5.553   1.990
  748SOL    HW2 3144   4.978   5.390   1.983
  749SOL     OW 3145   5.992   3.712   4.002
  749SOL    HW1 3146   5.993   3.807   4.035
  749SOL    HW2 3147   5.958   3.652   4.073
  750SOL     OW 3148   2.515   0.934   0.848
  750SOL    HW1 3149   2.461   1.015   0.870
  750SOL    HW2 3150   2.609   0.946   0.881
  751SOL     OW 3151   4.631   1.250   1.270
  751SOL    HW1 3152   4.647   1.152   1.260
  751SOL    HW2 3153   4.628   1.274   1.367
  752SOL     OW 3154   3.080   2.278   6.578
  752SOL    HW1 3155   2.990   2.234   6.581
  752SOL    HW2 3156   3.084   2.339   6.499
  753SOL     OW 3157   2.615   3.407   5.722
  753SOL    HW1 3158   2.612   3.501   5.689
  753SOL    HW2 3159   2.541   3.355   5.680
  754SOL     OW 3160   4.044   1.135   0.436
  754SOL    HW1 3161   4.086   1.103   0.521
  754SOL    HW2 3162   4.113   1.138   0.364
  755SOL     OW 3163   2.835   4.656   5.411
  755SOL    HW1 3164   2.901   4.650   5.487
  755SOL    HW2 3165   2.863   4.595   5.338
  756SOL     OW 3166   3.341   4.430   0.212
  756SOL    HW1 3167   3.261   4.490   0.210
  756SOL    HW2 3168   3.312   4.335   0.194
  757SOL     OW 3169   1.981   6.143   2.427
  757SOL    HW1 3170   1.965   6.204   2.505
  757SOL    HW2 3171   1.929   6.176   2.349
  758SOL     OW 3172   3.951   1.215   4.269
  758SOL    HW1 3173   3.991   1.250   4.354
  758SOL    HW2 3174   3.914   1.291   4.216
  759SOL     OW 3175   6.823   3.358   2.511
  759SOL    HW1 3176   6.876   3.279   2.540
  759SOL    HW2 3177   6.753   3.330   2.445
  760SOL     OW 3178   6.431   6.605   4.092
  760SOL    HW1 3179   6.365   6.652   4.032
  760SOL    HW2 3180   6.397   6.513   4.112
  761SOL     OW 3181   5.761   4.372   5.983
  761SOL    HW1 3182   5.705   4.373   5.900
  761SOL    HW2 3183   5.708   4.412   6.059
  762SOL     OW 3184   2.677   6.766   5.654
  762SOL    HW1 3185   2.775   6.744   5.659
  762SOL    HW2 3186   2.637   6.723   5.572
  763SOL     OW 3187   4.778   6.691   6.593
  763SOL    HW1 3188   4.874   6.718   6.594
  763SOL    HW2 3189   4.748   6.674   6.687
  764SOL     OW 3190   5.644   1.077   5.482
  764SOL    HW1 3191   5.641   1.008   5.410
  764SOL    HW2 3192   5.633   1.168   5.441
  765SOL     OW 3193   1.564   6.526   0.522
  765SOL    HW1 3194   1.645   6.491   0.476
  765SOL    HW2 3195   1.509   6.580   0.458
  766SOL     OW 3196   2.974   2.262   5.354
  766SOL    HW1 3197   3.018   2.212   5.428
  766SOL    HW2 3198   3.042   2.292   5.288
  767SOL     OW 3199   6.140   6.382   3.627
  767SOL    HW1 3200   6.062   6.411   3.684
  767SOL    HW2 3201   6.217   6.360   3.686
  768SOL     OW 3202   2.038   6.163   3.524
  768SOL    HW1 3203   1.943   6.184   3.500
  768SOL    HW2 3204   2.084   6.121   3.446
  769SOL     OW 3205   3.162   1.694   5.299
  769SOL    HW1 3206   3.219   1.657   5.373
  769SOL    HW2 3207   3.208   1.678   5.212
  770SOL     OW 3208   1.919   4.736   4.141
  770SOL    HW1 3209   1.944   4.814   4.084
  770SOL    HW2 3210   1.985   4.728   4.216
  771SOL     OW 3211   0.845   4.752   3.023
  771SOL    HW1 3212   0.893   4.760   3.111
  771SOL    HW2 3213   0.845   4.656   2.994
  772SOL     OW 3214   6.029   4.355   6.016
  772SOL    HW1 3215   5.930   4.364   6.006
  772SOL    HW2 3216   6.058   4.266   5.981
  773SOL     OW 3217   0.728   4.129   2.704
  773SOL    HW1 3218   0.663   4.064   2.666
  773SOL    HW2 3219   0.783   4.169   2.631
  774SOL     OW 3220   2.241   1.128   2.544
  774SOL    HW1 3221   2.208   1.221   2.529
  774SOL    HW2 3222   2.273   1.119   2.639
  775SOL     OW 3223   2.112   2.021   4.281
  775SOL    HW1 3224   2.212   2.017   4.282
  775SOL    HW2 3225   2.076   1.978   4.363
  776SOL     OW 3226   0.102   0.112   6.614
  776SOL    HW1 3227   0.170   0.134   6.544
  776SOL    HW2 3228   0.116   0.171   6.694
  777SOL     OW 3229   1.555   3.836   1.204
  777SOL    HW1 3230   1.557   3.784   1.290
  777SOL    HW2 3231   1.524   3.777   1.130
  778SOL     OW 3232   2.441   0.206   1.612
  778SOL    HW1 3233   2.384   0.170   1.538
  778SOL    HW2 3234   2.513   0.264   1.573
  779SOL     OW 3235   6.908   2.225   1.479
  779SOL    HW1 3236   6.816   2.245   1.443
  779SOL    HW2 3237   6.915   2.127   1.499
  780SOL     OW 3238   0.714   2.804   4.539
  780SOL    HW1 3239   0.796   2.754   4.511
  780SOL    HW2 3240   0.710   2.806   4.639
  781SOL     OW 3241   6.859   5.065   0.586
  781SOL    HW1 3242   6.854   4.974   0.627
  781SOL    HW2 3243   6.776   5.083   0.534
  782SOL     OW 3244   2.255   3.826   5.332
  782SOL    HW1 3245   2.285   3.884   5.256
  782SOL    HW2 3246   2.188   3.759   5.300
  783SOL     OW 3247   6.046   4.983   1.424
  783SOL    HW1 3248   6.116   5.052   1.405
  783SOL    HW2 3249   5.986   4.973   1.345
  784SOL     OW 3250   2.849   5.609   1.797
  784SOL    HW1 3251   2.843   5.528   1.855
  784SOL    HW2 3252   2.846   5.691   1.855
  785SOL     OW 3253   0.490   1.618   3.679
  785SOL    HW1 3254   0.399   1.653   3.701
  785SOL    HW2 3255   0.509   1.634   3.582
  786SOL     OW 3256   6.622   1.117   2.744
  786SOL    HW1 3257   6.688   1.120   2.820
  786SOL    HW2 3258   6.639   1.035   2.690
  787SOL     OW 3259   2.256   6.854   6.776
  787SOL    HW1 3260   2.168   6.808   6.760
  787SOL    HW2 3261   2.272   6.861   6.875
  788SOL     OW 3262   3.835   2.709   1.638
  788SOL    HW1 3263   3.764   2.639   1.640
  788SOL    HW2 3264   3.827   2.768   1.718
  789SOL     OW 3265   4.582   5.694   2.643
  789SOL    HW1 3266   4.494   5.652   2.668
  789SOL    HW2 3267   4.610   5.758   2.715
  790SOL     OW 3268   1.757   1.335   2.034
  790SOL    HW1 3269   1.714   1.425   2.023
  790SOL    HW2 3270   1.850   1.338   1.998
  791SOL     OW 3271   2.748   6.288   5.355
  791SOL    HW1 3272   2.764   6.360   5.423
  791SOL    HW2 3273   2.690   6.217   5.394
  792SOL     OW 3274   0.520   1.541   1.577
  792SOL    HW1 3275   0.554   1.456   1.537
  792SOL    HW2 3276   0.586   1.574   1.645
  793SOL     OW 3277   4.803   5.889   5.219
  793SOL    HW1 3278   4.767   5.978   5.246
  793SOL    HW2 3279   4.753   5.855   5.140
  794SOL     OW 3280   3.925   3.733   5.437
  794SOL    HW1 3281   3.881   3.713   5.350
  794SOL    HW2 3282   4.016   3.772   5.421
  795SOL     OW 3283   3.801   0.674   5.832
  795SOL    HW1 3284   3.845   0.591   5.866
  795SOL    HW2 3285   3.832   0.693   5.739
  796SOL     OW 3286   1.928   2.717   0.343
  796SOL    HW1 3287   1.973   2.637   0.303
  796SOL    HW2 3288   1.841   2.689   0.384
  797SOL     OW 3289   4.076   0.506   0.768
  797SOL    HW1 3290   3.987   0.512   0.722
  797SOL    HW2 3291   4.099   0.595   0.807
  798SOL     OW 3292   3.266   6.380   1.369
  798SOL    HW1 3293   3.188   6.389   1.307
  798SOL    HW2 3294   3.249   6.431   1.452
  799SOL     OW 3295   0.200   1.912   6.044
  799SOL    HW1 3296   0.211   1.935   6.140
  799SOL    HW2 3297   0.236   1.820   6.027
  800SOL     OW 3298   6.633   1.871   2.497
  800SOL    HW1 3299   6.551   1.903   2.545
  800SOL    HW2 3300   6.689   1.818   2.561
  801SOL     OW 3301   2.000   4.549   5.036
  801SOL    HW1 3302   1.987   4.644   5.066
  801SOL    HW2 3303   2.098   4.528   5.036
  802SOL     OW 3304   4.041   2.596   6.950
  802SOL    HW1 3305   4.035   2.599   0.032
  802SOL    HW2 3306   3.998   2.678   6.912
  803SOL     OW 3307   2.243   6.835   5.933
  803SOL    HW1 3308   2.174   6.895   5.893
  803SOL    HW2 3309   2.322   6.890   5.962
  804SOL     OW 3310   6.727   6.620   1.545
  804SOL    HW1 3311   6.677   6.572   1.617
  804SOL    HW2 3312   6.814   6.573   1.528
  805SOL     OW 3313   1.301   0.415   3.986
  805SOL    HW1 3314   1.231   0.403   4.056
  805SOL    HW2 3315   1.304   0.511   3.958
  806SOL     OW 3316   6.690   0.354   5.766
  806SOL    HW1 3317   6.744   0.289   5.820
  806SOL    HW2 3318   6.604   0.311   5.739
  807SOL     OW 3319   0.644   6.853   3.768
  807SOL    HW1 3320   0.598   6.799   3.839
  807SOL    HW2 3321   0.589   6.935   3.748
  808SOL     OW 3322   5.550   2.756   0.062
  808SOL    HW1 3323   5.541   2.732   6.983
  808SOL    HW2 3324   5.621   2.699   0.104
  809SOL     OW 3325   0.990   5.222   0.430
  809SOL    HW1 3326   0.987   5.160   0.352
  809SOL    HW2 3327   1.083   5.225   0.467
  810SOL     OW 3328   2.770   3.115   0.592
  810SOL    HW1 3329   2.790   3.044   0.659
  810SOL    HW2 3330   2.776   3.076   0.500
  811SOL     OW 3331   5.818   5.185   4.936
  811SOL    HW1 3332   5.746   5.248   4.907
  811SOL    HW2 3333   5.885   5.236   4.991
  812SOL     OW 3334   0.511   2.159   2.141
  812SOL    HW1 3335   0.572   2.091   2.099
  812SOL    HW2 3336   0.419   2.148   2.104
  813SOL     OW 3337   2.682   0.142   4.403
  813SOL    HW1 3338   2.672   0.092   4.489
  813SOL    HW2 3339   2.738   0.089   4.340
  814SOL     OW 3340   6.400   5.689   2.168
  814SOL    HW1 3341   6.488   5.658   2.206
  814SOL    HW2 3342   6.391   5.788   2.181
  815SOL     OW 3343   5.171   2.647   3.462
  815SOL    HW1 3344   5.080   2.682   3.482
  815SOL    HW2 3345   5.181   2.555   3.500
  816SOL     OW 3346   4.685   4.599   0.204
  816SOL    HW1 3347   4.679   4.539   0.125
  816SOL    HW2 3348   4.779   4.632   0.214
  817SOL     OW 3349   1.257   5.338   1.903
  817SOL    HW1 3350   1.181   5.375   1.849
  817SOL    HW2 3351   1.220   5.298   1.987
  818SOL     OW 3352   5.469   2.943   4.087
  818SOL    HW1 3353   5.524   3.000   4.148
  818SOL    HW2 3354   5.525   2.867   4.054
  819SOL     OW 3355   5.689   2.922   1.704
  819SOL    HW1 3356   5.759   2.993   1.707
  819SOL    HW2 3357   5.611   2.954   1.651
  820SOL     OW 3358   3.456   2.052   4.778
  820SOL    HW1 3359   3.445   2.127   4.713
  820SOL    HW2 3360   3.382   2.055   4.845
  821SOL     OW 3361   5.735   4.910   5.454
  821SOL    HW1 3362   5.683   4.877   5.375
  821SOL    HW2 3363   5.826   4.869   5.454
  822SOL     OW 3364   0.452   4.022   3.216
  822SOL    HW1 3365   0.477   4.087   3.288
  822SOL    HW2 3366   0.528   4.013   3.152
  823SOL     OW 3367   6.592   4.216   5.711
  823SOL    HW1 3368   6.605   4.137   5.652
  823SOL    HW2 3369   6.622   4.299   5.664
  824SOL     OW 3370   5.572   1.161   5.741
  824SOL    HW1 3371   5.558   1.145   5.643
  824SOL    HW2 3372   5.576   1.074   5.789
  825SOL     OW 3373   6.146   5.843   0.553
  825SOL    HW1 3374   6.178   5.750   0.571
  825SOL    HW2 3375   6.047   5.847   0.566
  826SOL     OW 3376   3.626   2.353   5.839
  826SOL    HW1 3377   3.688   2.400   5.775
  826SOL    HW2 3378   3.585   2.421   5.900
  827SOL     OW 3379   2.843   4.330   5.380
  827SOL    HW1 3380   2.756   4.286   5.355
  827SOL    HW2 3381   2.877   4.383   5.302
  828SOL     OW 3382   6.179   5.713   5.937
  828SOL    HW1 3383   6.175   5.799   5.988
  828SOL    HW2 3384   6.124   5.644   5.985
  829SOL     OW 3385   3.046   3.062   2.116
  829SOL    HW1 3386   2.960   3.084   2.163
  829SOL    HW2 3387   3.073   3.139   2.059
  830SOL     OW 3388   5.896   4.737   6.806
  830SOL    HW1 3389   5.979   4.715   6.858
  830SOL    HW2 3390   5.899   4.832   6.777
  831SOL     OW 3391   6.226   6.907   1.218
  831SOL    HW1 3392   6.306   6.931   1.164
  831SOL    HW2 3393   6.144   6.945   1.175
  832SOL     OW 3394   4.452   1.323   4.565
  832SOL    HW1 3395   4.516   1.390   4.604
  832SOL    HW2 3396   4.450   1.241   4.622
  833SOL     OW 3397   1.646   3.611   6.662
  833SOL    HW1 3398   1.594   3.626   6.746
  833SOL    HW2 3399   1.620   3.680   6.594
  834SOL     OW 3400   5.166   2.891   0.287
  834SOL    HW1 3401   5.197   2.982   0.315
  834SOL    HW2 3402   5.240   2.825   0.300
  835SOL     OW 3403   1.972   0.158   5.121
  835SOL    HW1 3404   2.042   0.223   5.092
  835SOL    HW2 3405   1.987   0.070   5.075
  836SOL     OW 3406   3.020   1.189   5.343
  836SOL    HW1 3407   3.014   1.240   5.429
  836SOL    HW2 3408   2.931   1.147   5.322
  837SOL     OW 3409   1.040   0.194   1.116
  837SOL    HW1 3410   1.131   0.185   1.076
  837SOL    HW2 3411   0.981   0.122   1.080
  838SOL     OW 3412   1.958   6.414   4.499
  838SOL    HW1 3413   1.879   6.402   4.440
  838SOL    HW2 3414   2.002   6.502   4.479
  839SOL     OW 3415   2.472   1.410   1.311
  839SOL    HW1 3416   2.545   1.477   1.305
  839SOL    HW2 3417   2.408   1.424   1.235
  840SOL     OW 3418   6.403   5.320   6.725
  840SOL    HW1 3419   6.400   5.321   6.825
  840SOL    HW2 3420   6.386   5.413   6.690
  841SOL     OW 3421   3.660   5.764   6.015
  841SOL    HW1 3422   3.736   5.721   5.968
  841SOL    HW2 3423   3.661   5.863   5.995
  842SOL     OW 3424   3.497   6.488   6.789
  842SOL    HW1 3425   3.425   6.424   6.816
  842SOL    HW2 3426   3.531   6.464   6.698
  843SOL     OW 3427   2.424   2.155   2.037
  843SOL    HW1 3428   2.350   2.220   2.054
  843SOL    HW2 3429   2.401   2.067   2.079
  844SOL     OW 3430   0.325   6.593   1.397
  844SOL    HW1 3431   0.349   6.517   1.337
  844SOL    HW2 3432   0.236   6.630   1.370
  845SOL     OW 3433   5.128   2.544   3.210
  845SOL    HW1 3434   5.136   2.574   3.305
  845SOL    HW2 3435   5.049   2.484   3.200
  846SOL     OW 3436   3.093   0.758   6.646
  846SOL    HW1 3437   3.105   0.765   6.745
  846SOL    HW2 3438   3.176   0.788   6.599
  847SOL     OW 3439   2.072   3.283   1.850
  847SOL    HW1 3440   2.124   3.360   1.886
  847SOL    HW2 3441   2.091   3.201   1.905
  848SOL     OW 3442   6.837   6.909   5.487
  848SOL    HW1 3443   6.775   6.832   5.502
  848SOL    HW2 3444   6.794   6.993   5.518
  849SOL     OW 3445   6.462   4.007   6.689
  849SOL    HW1 3446   6.509   4.084   6.646
  849SOL    HW2 3447   6.363   4.016   6.674
  850SOL     OW 3448   0.142   0.013   4.797
  850SOL    HW1 3449   0.165   0.005   4.700
  850SOL    HW2 3450   0.113   6.942   4.832
  851SOL     OW 3451   6.528   2.447   6.680
  851SOL    HW1 3452   6.620   2.420   6.651
  851SOL    HW2 3453   6.519   2.547   6.671
  852SOL     OW 3454   0.471   4.604   0.773
  852SOL    HW1 3455   0.458   4.697   0.806
  852SOL    HW2 3456   0.524   4.605   0.688
  853SOL     OW 3457   1.921   4.121   6.339
  853SOL    HW1 3458   1.893   4.029   6.362
  853SOL    HW2 3459   1.890   4.143   6.246
  854SOL     OW 3460   5.775   6.487   0.233
  854SOL    HW1 3461   5.826   6.436   0.303
  854SOL    HW2 3462   5.809   6.581   0.229
  855SOL     OW 3463   5.846   0.251   0.572
  855SOL    HW1 3464   5.779   0.177   0.583
  855SOL    HW2 3465   5.914   0.224   0.504
  856SOL     OW 3466   1.276   6.887   5.571
  856SOL    HW1 3467   1.192   6.849   5.609
  856SOL    HW2 3468   1.316   6.823   5.506
  857SOL     OW 3469   6.853   5.663   2.100
  857SOL    HW1 3470   6.909   5.580   2.096
  857SOL    HW2 3471   6.844   5.702   2.008
  858SOL     OW 3472   2.784   3.917   1.010
  858SOL    HW1 3473   2.812   3.972   0.932
  858SOL    HW2 3474   2.721   3.845   0.979
  859SOL     OW 3475   5.339   6.143   5.481
  859SOL    HW1 3476   5.278   6.183   5.550
  859SOL    HW2 3477   5.313   6.177   5.391
  860SOL     OW 3478   5.908   3.183   6.495
  860SOL    HW1 3479   5.852   3.105   6.522
  860SOL    HW2 3480   5.873   3.266   6.540
  861SOL     OW 3481   2.498   5.471   3.314
  861SOL    HW1 3482   2.477   5.561   3.353
  861SOL    HW2 3483   2.412   5.426   3.288
  862SOL     OW 3484   2.025   5.035   3.522
  862SOL    HW1 3485   1.979   4.949   3.544
  862SOL    HW2 3486   1.959   5.111   3.528
  863SOL     OW 3487   5.881   1.021   5.711
  863SOL    HW1 3488   5.802   1.052   5.658
  863SOL    HW2 3489   5.877   0.922   5.724
  864SOL     OW 3490   4.184   6.921   4.957
  864SOL    HW1 3491   4.137   6.931   5.044
  864SOL    HW2 3492   4.170   6.829   4.921
  865SOL     OW 3493   1.810   0.265   5.822
  865SOL    HW1 3494   1.808   0.267   5.922
  865SOL    HW2 3495   1.904   0.252   5.790
  866SOL     OW 3496   3.306   6.807   0.897
  866SOL    HW1 3497   3.349   6.738   0.838
  866SOL    HW2 3498   3.351   6.895   0.883
  867SOL     OW 3499   5.254   3.138   0.377
  867SOL    HW1 3500   5.339   3.122   0.326
  867SOL    HW2 3501   5.276   3.166   0.470
  868SOL     OW 3502   0.184   1.884   2.302
  868SOL    HW1 3503   0.262   1.832   2.336
  868SOL    HW2 3504   0.196   1.981   2.324
  869SOL     OW 3505   6.741   3.714   3.445
  869SOL    HW1 3506   6.736   3.801   3.397
  869SOL    HW2 3507   6.667   3.655   3.413
  870SOL     OW 3508   3.868   4.234   1.198
  870SOL    HW1 3509   3.962   4.264   1.181
  870SOL    HW2 3510   3.863   4.134   1.196
  871SOL     OW 3511   5.461   2.336   3.951
  871SOL    HW1 3512   5.371   2.293   3.941
  871SOL    HW2 3513   5.484   2.383   3.866
  872SOL     OW 3514   0.113   1.887   4.453
  872SOL    HW1 3515   0.115   1.804   4.398
  872SOL    HW2 3516   0.124   1.967   4.393
  873SOL     OW 3517   4.217   5.859   5.328
  873SOL    HW1 3518   4.232   5.954   5.299
  873SOL    HW2 3519   4.305   5.814   5.341
  874SOL     OW 3520   6.257   4.221   0.571
  874SOL    HW1 3521   6.221   4.158   0.641
  874SOL    HW2 3522   6.349   4.191   0.544
  875SOL     OW 3523   5.169   5.462   0.861
  875SOL    HW1 3524   5.137   5.547   0.904
  875SOL    HW2 3525   5.151   5.466   0.763
  876SOL     OW 3526   0.475   5.753   1.653
  876SOL    HW1 3527   0.402   5.726   1.715
  876SOL    HW2 3528   0.463   5.849   1.627
  877SOL     OW 3529   3.245   4.247   5.769
  877SOL    HW1 3530   3.198   4.172   5.816
  877SOL    HW2 3531   3.183   4.325   5.760
  878SOL     OW 3532   4.239   6.978   3.648
  878SOL    HW1 3533   4.296   0.016   3.588
  878SOL    HW2 3534   4.296   6.918   3.703
  879SOL     OW 3535   3.605   0.539   1.502
  879SOL    HW1 3536   3.625   0.625   1.549
  879SOL    HW2 3537   3.689   0.487   1.490
  880SOL     OW 3538   3.719   3.753   3.807
  880SOL    HW1 3539   3.818   3.761   3.806
  880SOL    HW2 3540   3.683   3.771   3.715
  881SOL     OW 3541   5.133   3.002   4.768
  881SOL    HW1 3542   5.089   3.065   4.832
  881SOL    HW2 3543   5.131   3.042   4.676
  882SOL     OW 3544   0.807   3.344   3.619
  882SOL    HW1 3545   0.731   3.358   3.683
  882SOL    HW2 3546   0.855   3.260   3.644
  883SOL     OW 3547   3.133   1.084   1.601
  883SOL    HW1 3548   3.075   1.023   1.656
  883SOL    HW2 3549   3.102   1.178   1.613
  884SOL     OW 3550   5.678   3.481   6.066
  884SOL    HW1 3551   5.728   3.409   6.115
  884SOL    HW2 3552   5.623   3.440   5.994
  885SOL     OW 3553   3.429   1.000   5.178
  885SOL    HW1 3554   3.437   1.032   5.272
  885SOL    HW2 3555   3.371   1.063   5.126
  886SOL     OW 3556   3.291   0.274   0.066
  886SOL    HW1 3557   3.379   0.306   0.032
  886SOL    HW2 3558   3.297   0.255   0.164
  887SOL     OW 3559   3.760   6.582   3.554
  887SOL    HW1 3560   3.770   6.572   3.653
  887SOL    HW2 3561   3.667   6.612   3.532
  888SOL     OW 3562   6.993   6.445   3.529
  888SOL    HW1 3563   0.018   6.363   3.568
  888SOL    HW2 3564   6.989   6.516   3.598
  889SOL     OW 3565   0.013   2.847   0.731
  889SOL    HW1 3566   6.997   2.753   0.734
  889SOL    HW2 3567   0.051   2.871   0.820
  890SOL     OW 3568   1.402   5.054   2.762
  890SOL    HW1 3569   1.453   4.973   2.790
  890SOL    HW2 3570   1.312   5.027   2.728
  891SOL     OW 3571   5.499   4.961   1.080
  891SOL    HW1 3572   5.547   4.881   1.041
  891SOL    HW2 3573   5.566   5.021   1.123
  892SOL     OW 3574   2.805   3.830   5.294
  892SOL    HW1 3575   2.852   3.876   5.219
  892SOL    HW2 3576   2.712   3.866   5.304
  893SOL     OW 3577   2.177   6.160   3.279
  893SOL    HW1 3578   2.158   6.074   3.231
  893SOL    HW2 3579   2.263   6.199   3.246
  894SOL     OW 3580   0.843   2.819   1.428
  894SOL    HW1 3581   0.818   2.723   1.414
  894SOL    HW2 3582   0.802   2.876   1.357
  895SOL     OW 3583   0.932   5.267   3.858
  895SOL    HW1 3584   1.017   5.272   3.911
  895SOL    HW2 3585   0.916   5.172   3.830
  896SOL     OW 3586   5.099   4.794   1.325
  896SOL    HW1 3587   5.127   4.715   1.380
  896SOL    HW2 3588   5.169   4.812   1.256
  897SOL     OW 3589   4.167   1.594   6.542
  897SOL    HW1 3590   4.227   1.534   6.593
  897SOL    HW2 3591   4.082   1.608   6.593
  898SOL     OW 3592   3.693   6.566   2.850
  898SOL    HW1 3593   3.647   6.606   2.929
  898SOL    HW2 3594   3.729   6.476   2.876
  899SOL     OW 3595   0.232   6.815   0.142
  899SOL    HW1 3596   0.240   6.783   0.236
  899SOL    HW2 3597   0.186   6.746   0.087
  900SOL     OW 3598   5.690   6.808   0.355
  900SOL    HW1 3599   5.766   6.873   0.359
  900SOL    HW2 3600   5.669   6.787   0.259
  901SOL     OW 3601   2.287   6.935   3.294
  901SOL    HW1 3602   2.327   6.929   3.203
  901SOL    HW2 3603   2.338   7.002   3.349
  902SOL     OW 3604   0.427   1.727   0.897
  902SOL    HW1 3605   0.450   1.732   0.800
  902SOL    HW2 3606   0.464   1.642   0.936
  903SOL     OW 3607   0.337   2.370   6.288
  903SOL    HW1 3608   0.412   2.435   6.282
  903SOL    HW2 3609   0.353   2.307   6.364
  904SOL     OW 3610   2.324   2.132   2.825
  904SOL    HW1 3611   2.424   2.126   2.818
  904SOL    HW2 3612   2.296   2.120   2.920
  905SOL     OW 3613   5.060   2.089   6.842
  905SOL    HW1 3614   5.105   2.070   6.754
  905SOL    HW2 3615   5.130   2.101   6.912
  906SOL     OW 3616   0.279   1.969   6.795
  906SOL    HW1 3617   0.191   1.970   6.843
  906SOL    HW2 3618   0.264   1.944   6.699
  907SOL     OW 3619   5.456   3.041   0.745
  907SOL    HW1 3620   5.551   3.059   0.720
  907SOL    HW2 3621   5.454   2.973   0.818
  908SOL     OW 3622   2.639   4.676   2.834
  908SOL    HW1 3623   2.676   4.728   2.911
  908SOL    HW2 3624   2.691   4.697   2.751
  909SOL     OW 3625   4.234   6.065   1.424
  909SOL    HW1 3626   4.292   6.138   1.386
  909SOL    HW2 3627   4.172   6.032   1.353
  910SOL     OW 3628   3.232   1.852   0.953
  910SOL    HW1 3629   3.302   1.908   0.998
  910SOL    HW2 3630   3.264   1.828   0.861
  911SOL     OW 3631   0.706   6.209   6.318
  911SOL    HW1 3632   0.718   6.241   6.412
  911SOL    HW2 3633   0.633   6.261   6.274
  912SOL     OW 3634   6.477   2.614   3.055
  912SOL    HW1 3635   6.494   2.676   3.131
  912SOL    HW2 3636   6.485   2.663   2.969
  913SOL     OW 3637   4.017   6.946   3.089
  913SOL    HW1 3638   4.005   6.850   3.066
  913SOL    HW2 3639   4.079   6.955   3.167
  914SOL     OW 3640   2.569   0.212   6.244
  914SOL    HW1 3641   2.478   0.192   6.209
  914SOL    HW2 3642   2.587   0.155   6.324
  915SOL     OW 3643   6.038   4.227   0.037
  915SOL    HW1 3644   6.048   4.194   6.960
  915SOL    HW2 3645   6.033   4.327   0.037
  916SOL     OW 3646   1.790   2.705   1.834
  916SOL    HW1 3647   1.762   2.757   1.915
  916SOL    HW2 3648   1.776   2.607   1.852
  917SOL     OW 3649   0.665   6.550   1.049
  917SOL    HW1 3650   0.585   6.561   0.991
  917SOL    HW2 3651   0.674   6.629   1.109
  918SOL     OW 3652   3.497   0.422   0.579
  918SOL    HW1 3653   3.559   0.464   0.513
  918SOL    HW2 3654   3.441   0.492   0.622
  919SOL     OW 3655   5.745   1.585   2.990
  919SOL    HW1 3656   5.783   1.575   2.898
  919SOL    HW2 3657   5.749   1.681   3.017
  920SOL     OW 3658   2.488   4.120   1.787
  920SOL    HW1 3659   2.417   4.053   1.807
  920SOL    HW2 3660   2.569   4.073   1.750
  921SOL     OW 3661   4.408   5.944   4.210
  921SOL    HW1 3662   4.339   6.014   4.192
  921SOL    HW2 3663   4.498   5.977   4.180
  922SOL     OW 3664   3.796   3.575   4.226
  922SOL    HW1 3665   3.764   3.491   4.271
  922SOL    HW2 3666   3.748   3.587   4.139
  923SOL     OW 3667   2.169   3.127   6.846
  923SOL    HW1 3668   2.080   3.107   6.805
  923SOL    HW2 3669   2.185   3.067   6.924
  924SOL     OW 3670   6.372   4.141   1.495
  924SOL    HW1 3671   6.399   4.112   1.404
  924SOL    HW2 3672   6.288   4.093   1.521
  925SOL     OW 3673   0.268   2.385   0.282
  925SOL    HW1 3674   0.210   2.459   0.316
  925SOL    HW2 3675   0.279   2.316   0.354
  926SOL     OW 3676   6.428   0.995   1.400
  926SOL    HW1 3677   6.348   0.984   1.341
  926SOL    HW2 3678   6.509   0.961   1.353
  927SOL     OW 3679   5.496   3.390   3.541
  927SOL    HW1 3680   5.433   3.354   3.473
  927SOL    HW2 3681   5.489   3.489   3.545
  928SOL     OW 3682   2.133   6.245   0.439
  928SOL    HW1 3683   2.163   6.196   0.520
  928SOL    HW2 3684   2.187   6.216   0.360
  929SOL     OW 3685   0.048   0.954   6.950
  929SOL    HW1 3686   6.991   0.974   6.888
  929SOL    HW2 3687   0.133   0.941   6.898
  930SOL     OW 3688   5.153   6.113   6.355
  930SOL    HW1 3689   5.064   6.158   6.352
  930SOL    HW2 3690   5.141   6.014   6.364
  931SOL     OW 3691   6.826   1.253   4.430
  931SOL    HW1 3692   6.828   1.201   4.515
  931SOL    HW2 3693   6.852   1.194   4.353
  932SOL     OW 3694   2.510   1.653   3.323
  932SOL    HW1 3695   2.509   1.585   3.397
  932SOL    HW2 3696   2.515   1.605   3.235
  933SOL     OW 3697   1.155   4.956   3.048
  933SOL    HW1 3698   1.231   4.894   3.064
  933SOL    HW2 3699   1.101   4.967   3.132
  934SOL     OW 3700   2.618   5.782   6.238
  934SOL    HW1 3701   2.680   5.737   6.174
  934SOL    HW2 3702   2.627   5.882   6.227
  935SOL     OW 3703   5.425   4.325   4.243
  935SOL    HW1 3704   5.365   4.258   4.287
  935SOL    HW2 3705   5.371   4.389   4.188
  936SOL     OW 3706   0.675   6.499   6.199
  936SOL    HW1 3707   0.600   6.558   6.169
  936SOL    HW2 3708   0.684   6.423   6.136
  937SOL     OW 3709   5.696   1.816   6.070
  937SOL    HW1 3710   5.757   1.870   6.129
  937SOL    HW2 3711   5.603   1.821   6.106
  938SOL     OW 3712   6.207   5.485   4.630
  938SOL    HW1 3713   6.179   5.579   4.618
  938SOL    HW2 3714   6.208   5.438   4.542
  939SOL     OW 3715   0.192   6.927   3.712
  939SOL    HW1 3716   0.160   6.837   3.743
  939SOL    HW2 3717   0.174   6.995   3.783
  940SOL     OW 3718   0.651   3.570   0.245
  940SOL    HW1 3719   0.678   3.488   0.194
  940SOL    HW2 3720   0.551   3.578   0.244
  941SOL     OW 3721   5.184   0.410   0.299
  941SOL    HW1 3722   5.174   0.328   0.243
  941SOL    HW2 3723   5.226   0.387   0.386
  942SOL     OW 3724   5.605   0.028   2.064
  942SOL    HW1 3725   5.699   0.003   2.086
  942SOL    HW2 3726   5.567   6.980   1.999
  943SOL     OW 3727   1.158   4.628   2.473
  943SOL    HW1 3728   1.214   4.547   2.456
  943SOL    HW2 3729   1.093   4.609   2.547
  944SOL     OW 3730   0.558   5.803   5.037
  944SOL    HW1 3731   0.649   5.832   5.068
  944SOL    HW2 3732   0.535   5.852   4.953
  945SOL     OW 3733   0.384   5.092   5.351
  945SOL    HW1 3734   0.285   5.099   5.335
  945SOL    HW2 3735   0.418   5.008   5.308
  946SOL     OW 3736   4.944   4.515   4.576
  946SOL    HW1 3737   4.879   4.514   4.653
  946SOL    HW2 3738   4.980   4.423   4.561
  947SOL     OW 3739   3.549   3.172   3.636
  947SOL    HW1 3740   3.600   3.110   3.576
  947SOL    HW2 3741   3.613   3.225   3.692
  948SOL     OW 3742   4.254   1.211   3.302
  948SOL    HW1 3743   4.275   1.113   3.292
  948SOL    HW2 3744   4.268   1.257   3.215
  949SOL     OW 3745   2.997   5.856   0.406
  949SOL    HW1 3746   2.921   5.919   0.386
  949SOL    HW2 3747   3.074   5.878   0.347
  950SOL     OW 3748   6.111   5.478   2.434
  950SOL    HW1 3749   6.051   5.537   2.379
  950SOL    HW2 3750   6.076   5.473   2.527
  951SOL     OW 3751   0.872   0.007   3.213
  951SOL    HW1 3752   0.920   6.958   3.156
  951SOL    HW2 3753   0.867   6.991   3.307
  952SOL     OW 3754   4.386   2.368   2.448
  952SOL    HW1 3755   4.352   2.449   2.401
  952SOL    HW2 3756   4.322   2.293   2.435
  953SOL     OW 3757   6.003   5.427   4.812
  953SOL    HW1 3758   6.080   5.471   4.766
  953SOL    HW2 3759   5.925   5.421   4.750
  954SOL     OW 3760   3.655   6.237   2.174
  954SOL    HW1 3761   3.600   6.280   2.103
  954SOL    HW2 3762   3.727   6.182   2.132
  955SOL     OW 3763   2.159   4.325   0.177
  955SOL    HW1 3764   2.066   4.289   0.185
  955SOL    HW2 3765   2.189   4.357   0.267
  956SOL     OW 3766   6.861   0.743   1.959
  956SOL    HW1 3767   6.880   0.648   1.983
  956SOL    HW2 3768   6.827   0.792   2.039
  957SOL     OW 3769   5.897   1.901   1.662
  957SOL    HW1 3770   5.814   1.909   1.717
  957SOL    HW2 3771   5.958   1.978   1.682
  958SOL     OW 3772   4.244   6.778   1.806
  958SOL    HW1 3773   4.295   6.741   1.727
  958SOL    HW2 3774   4.294   6.757   1.890
  959SOL     OW 3775   3.335   6.828   5.211
  959SOL    HW1 3776   3.417   6.881   5.191
  959SOL    HW2 3777   3.273   6.834   5.132
  960SOL     OW 3778   1.641   6.954   1.269
  960SOL    HW1 3779   1.683   6.991   1.352
  960SOL    HW2 3780   1.542   6.960   1.275
  961SOL     OW 3781   4.401   6.259   2.843
  961SOL    HW1 3782   4.488   6.309   2.839
  961SOL    HW2 3783   4.327   6.323   2.865
  962SOL     OW 3784   6.568   0.644   4.323
  962SOL    HW1 3785   6.564   0.653   4.224
  962SOL    HW2 3786   6.654   0.682   4.357
  963SOL     OW 3787   4.376   0.900   0.541
  963SOL    HW1 3788   4.439   0.969   0.576
  963SOL    HW2 3789   4.401   0.877   0.447
  964SOL     OW 3790   5.168   4.899   5.481
  964SOL    HW1 3791   5.135   4.873   5.572
  964SOL    HW2 3792   5.168   4.998   5.472
  965SOL     OW 3793   6.074   1.577   2.597
  965SOL    HW1 3794   6.099   1.659   2.545
  965SOL    HW2 3795   6.149   1.553   2.659
  966SOL     OW 3796   5.508   2.967   3.495
  966SOL    HW1 3797   5.513   2.909   3.413
  966SOL    HW2 3798   5.548   3.057   3.474
  967SOL     OW 3799   2.901   4.510   6.776
  967SOL    HW1 3800   2.853   4.558   6.849
  967SOL    HW2 3801   2.996   4.539   6.774
  968SOL     OW 3802   4.042   6.716   1.597
  968SOL    HW1 3803   4.081   6.740   1.686
  968SOL    HW2 3804   4.034   6.798   1.540
  969SOL     OW 3805   2.329   5.153   5.775
  969SOL    HW1 3806   2.288   5.079   5.722
  969SOL    HW2 3807   2.289   5.154   5.867
  970SOL     OW 3808   5.237   0.147   6.024
  970SOL    HW1 3809   5.227   0.222   5.959
  970SOL    HW2 3810   5.172   0.159   6.100
  971SOL     OW 3811   0.097   3.324   2.345
  971SOL    HW1 3812   0.131   3.320   2.251
  971SOL    HW2 3813   0.016   3.382   2.349
  972SOL     OW 3814   6.668   2.411   1.580
  972SOL    HW1 3815   6.761   2.435   1.609
  972SOL    HW2 3816   6.654   2.438   1.485
  973SOL     OW 3817   1.211   5.438   6.764
  973SOL    HW1 3818   1.167   5.464   6.678
  973SOL    HW2 3819   1.282   5.505   6.786
  974SOL     OW 3820   0.335   5.578   2.184
  974SOL    HW1 3821   0.273   5.543   2.255
  974SOL    HW2 3822   0.430   5.563   2.213
  975SOL     OW 3823   2.526   0.227   0.295
  975SOL    HW1 3824   2.556   0.313   0.254
  975SOL    HW2 3825   2.557   0.222   0.390
  976SOL     OW 3826   6.850   3.530   1.186
  976SOL    HW1 3827   6.849   3.626   1.211
  976SOL    HW2 3828   6.784   3.480   1.243
  977SOL     OW 3829   0.607   1.057   2.276
  977SOL    HW1 3830   0.584   1.143   2.230
  977SOL    HW2 3831   0.523   1.006   2.294
  978SOL     OW 3832   5.233   1.597   1.013
  978SOL    HW1 3833   5.196   1.552   1.095
  978SOL    HW2 3834   5.228   1.696   1.025
  979SOL     OW 3835   0.422   3.125   6.824
  979SOL    HW1 3836   0.332   3.099   6.859
  979SOL    HW2 3837   0.414   3.154   6.729
  980SOL     OW 3838   5.101   1.570   5.029
  980SOL    HW1 3839   5.030   1.585   4.959
  980SOL    HW2 3840   5.087   1.634   5.104
  981SOL     OW 3841   0.262   0.762   4.633
  981SOL    HW1 3842   0.227   0.705   4.707
  981SOL    HW2 3843   0.318   0.706   4.571
  982SOL     OW 3844   0.774   1.770   5.411
  982SOL    HW1 3845   0.847   1.837   5.401
  982SOL    HW2 3846   0.811   1.678   5.394
  983SOL     OW 3847   6.846   3.824   2.771
  983SOL    HW1 3848   6.781   3.897   2.792
  983SOL    HW2 3849   6.936   3.848   2.807
  984SOL     OW 3850   1.614   2.420   3.034
  984SOL    HW1 3851   1.589   2.373   3.119
  984SOL    HW2 3852   1.544   2.403   2.965
  985SOL     OW 3853   6.675   3.963   4.493
  985SOL    HW1 3854   6.664   4.057   4.461
  985SOL    HW2 3855   6.770   3.934   4.479
  986SOL     OW 3856   4.601   5.374   1.251
  986SOL    HW1 3857   4.600   5.276   1.234
  986SOL    HW2 3858   4.623   5.423   1.167
  987SOL     OW 3859   5.309   6.392   2.397
  987SOL    HW1 3860   5.271   6.485   2.394
  987SOL    HW2 3861   5.280   6.347   2.481
  988SOL     OW 3862   3.188   4.065   2.099
  988SOL    HW1 3863   3.109   4.005   2.112
  988SOL    HW2 3864   3.238   4.073   2.186
  989SOL     OW 3865   6.506   1.560   0.009
  989SOL    HW1 3866   6.588   1.560   0.067
  989SOL    HW2 3867   6.526   1.518   6.939
  990SOL     OW 3868   3.283   0.803   2.394
  990SOL    HW1 3869   3.280   0.859   2.312
  990SOL    HW2 3870   3.375   0.806   2.433
  991SOL     OW 3871   0.559   4.431   4.014
  991SOL    HW1 3872   0.566   4.415   3.916
  991SOL    HW2 3873   0.640   4.479   4.046
  992SOL     OW 3874   0.164   3.282   1.115
  992SOL    HW1 3875   0.072   3.245   1.108
  992SOL    HW2 3876   0.160   3.382   1.121
  993SOL     OW 3877   0.321   3.793   0.665
  993SOL    HW1 3878   0.391   3.844   0.615
  993SOL    HW2 3879   0.346   3.786   0.761
  994SOL     OW 3880   3.681   5.189   1.443
  994SOL    HW1 3881   3.733   5.156   1.522
  994SOL    HW2 3882   3.610   5.122   1.420
  995SOL     OW 3883   4.179   2.938   6.149
  995SOL    HW1 3884   4.191   2.839   6.158
  995SOL    HW2 3885   4.203   2.966   6.056
  996SOL     OW 3886   3.645   5.321   4.713
  996SOL    HW1 3887   3.673   5.311   4.809
  996SOL    HW2 3888   3.687   5.402   4.674
  997SOL     OW 3889   1.200   6.866   3.364
  997SOL    HW1 3890   1.221   6.776   3.401
  997SOL    HW2 3891   1.285   6.912   3.339
  998SOL     OW 3892   6.705   6.947   6.416
  998SOL    HW1 3893   6.650   6.952   6.500
  998SOL    HW2 3894   6.770   0.005   6.415
  999SOL     OW 3895   5.127   3.737   1.602
  999SOL    HW1 3896   5.052   3.741   1.668
  999SOL    HW2 3897   5.150   3.829   1.572
 1000SOL     OW 3898   4.190   1.417   1.497
 1000SOL    HW1 3899   4.133   1.420   1.415
 1000SOL    HW2 3900   4.156   1.347   1.560
 1001SOL     OW 3901   3.890   6.086   2.010
 1001SOL    HW1 3902   3.830   6.010   2.034
 1001SOL    HW2 3903   3.983   6.053   1.994
 1002SOL     OW 3904   5.367   2.372   1.060
 1002SOL    HW1 3905   5.450   2.406   1.104
 1002SOL    HW2 3906   5.361   2.411   0.967
 1003SOL     OW 3907   1.887   5.826   2.995
 1003SOL    HW1 3908   1.928   5.735   2.996
 1003SOL    HW2 3909   1.792   5.820   3.026
 1004SOL     OW 3910   6.983   1.148   2.400
 1004SOL    HW1 3911   6.940   1.229   2.359
 1004SOL    HW2 3912   6.929   1.067   2.377
 1005SOL     OW 3913   1.648   4.070   4.180
 1005SOL    HW1 3914   1.597   4.057   4.095
 1005SOL    HW2 3915   1.740   4.102   4.158
 1006SOL     OW 3916   1.470   4.155   0.404
 1006SOL    HW1 3917   1.523   4.234   0.375
 1006SOL    HW2 3918   1.454   4.159   0.503
 1007SOL     OW 3919   4.867   1.042   5.992
 1007SOL    HW1 3920   4.852   1.099   5.912
 1007SOL    HW2 3921   4.962   1.009   5.992
 1008SOL     OW 3922   0.015   3.490   5.261
 1008SOL    HW1 3923   0.097   3.530   5.221
 1008SOL    HW2 3924   0.026   3.391   5.269
 1009SOL     OW 3925   6.300   3.988   5.754
 1009SOL    HW1 3926   6.269   3.977   5.660
 1009SOL    HW2 3927   6.360   4.067   5.761
 1010SOL     OW 3928   2.790   2.494   1.382
 1010SOL    HW1 3929   2.761   2.487   1.477
 1010SOL    HW2 3930   2.798   2.590   1.356
 1011SOL     OW 3931   0.522   5.478   3.638
 1011SOL    HW1 3932   0.443   5.418   3.622
 1011SOL    HW2 3933   0.529   5.498   3.736
 1012SOL     OW 3934   6.907   6.544   2.258
 1012SOL    HW1 3935   6.999   6.571   2.285
 1012SOL    HW2 3936   6.870   6.481   2.326
 1013SOL     OW 3937   6.947   1.265   6.595
 1013SOL    HW1 3938   6.938   1.340   6.529
 1013SOL    HW2 3939   7.011   1.292   6.667
 1014SOL     OW 3940   0.590   3.639   5.193
 1014SOL    HW1 3941   0.662   3.701   5.161
 1014SOL    HW2 3942   0.630   3.571   5.254
 1015SOL     OW 3943   2.567   0.486   6.156
 1015SOL    HW1 3944   2.469   0.506   6.168
 1015SOL    HW2 3945   2.588   0.398   6.196
 1016SOL     OW 3946   4.566   5.116   1.089
 1016SOL    HW1 3947   4.650   5.062   1.083
 1016SOL    HW2 3948   4.512   5.084   1.167
 1017SOL     OW 3949   2.934   1.723   0.966
 1017SOL    HW1 3950   2.982   1.794   1.016
 1017SOL    HW2 3951   2.841   1.754   0.944
 1018SOL     OW 3952   0.539   4.996   3.844
 1018SOL    HW1 3953   0.598   5.074   3.864
 1018SOL    HW2 3954   0.575   4.915   3.890
 1019SOL     OW 3955   6.911   5.337   0.579
 1019SOL    HW1 3956   6.893   5.239   0.588
 1019SOL    HW2 3957   6.975   5.366   0.649
 1020SOL     OW 3958   6.150   1.304   1.344
 1020SOL    HW1 3959   6.242   1.294   1.382
 1020SOL    HW2 3960   6.084   1.254   1.400
 1021SOL     OW 3961   6.280   6.192   2.267
 1021SOL    HW1 3962   6.365   6.185   2.214
 1021SOL    HW2 3963   6.203   6.202   2.204
 1022SOL     OW 3964   2.700   5.461   5.994
 1022SOL    HW1 3965   2.601   5.465   5.979
 1022SOL    HW2 3966   2.730   5.543   6.043
 1023SOL     OW 3967   0.110   0.839   2.996
 1023SOL    HW1 3968   0.170   0.910   2.960
 1023SOL    HW2 3969   0.067   0.790   2.921
 1024SOL     OW 3970   0.697   1.826   4.105
 1024SOL    HW1 3971   0.704   1.782   4.016
 1024SOL    HW2 3972   0.715   1.760   4.177
 1025SOL     OW 3973   4.679   2.964   0.596
 1025SOL    HW1 3974   4.754   3.028   0.576
 1025SOL    HW2 3975   4.703   2.873   0.562
 1026SOL     OW 3976   2.864   2.863   1.364
 1026SOL    HW1 3977   2.928   2.818   1.301
 1026SOL    HW2 3978   2.879   2.829   1.457
 1027SOL     OW 3979   1.999   6.896   2.068
 1027SOL    HW1 3980   2.045   6.983   2.084
 1027SOL    HW2 3981   2.067   6.827   2.043
 1028SOL     OW 3982   1.190   6.675   2.950
 1028SOL    HW1 3983   1.185   6.756   3.009
 1028SOL    HW2 3984   1.150   6.597   2.998
 1029SOL     OW 3985   1.014   1.687   6.030
 1029SOL    HW1 3986   1.076   1.765   6.033
 1029SOL    HW2 3987   0.989   1.667   5.936
 1030SOL     OW 3988   3.352   3.039   1.740
 1030SOL    HW1 3989   3.416   3.021   1.666
 1030SOL    HW2 3990   3.383   3.117   1.793
 1031SOL     OW 3991   4.599   3.347   1.399
 1031SOL    HW1 3992   4.657   3.266   1.390
 1031SOL    HW2 3993   4.554   3.366   1.312
 1032SOL     OW 3994   2.094   1.237   5.247
 1032SOL    HW1 3995   2.136   1.309   5.191
 1032SOL    HW2 3996   2.152   1.218   5.326
 1033SOL     OW 3997   1.270   5.726   2.236
 1033SOL    HW1 3998   1.172   5.727   2.255
 1033SOL    HW2 3999   1.292   5.646   2.181
 1034SOL     OW 4000   1.291   6.195   4.019
 1034SOL    HW1 4001   1.194   6.182   4.000
 1034SOL    HW2 4002   1.312   6.163   4.111
 1035SOL     OW 4003   7.017   2.112   6.609
 1035SOL    HW1 4004   0.091   2.074   6.596
 1035SOL    HW2 4005   7.009   2.198   6.559
 1036SOL     OW 4006   4.347   1.065   1.565
 1036SOL    HW1 4007   4.299   1.099   1.484
 1036SOL    HW2 4008   4.445   1.085   1.556
 1037SOL     OW 4009   1.497   2.200   3.179
 1037SOL    HW1 4010   1.530   2.148   3.100
 1037SOL    HW2 4011   1.403   2.172   3.201
 1038SOL     OW 4012   1.566   0.892   5.793
 1038SOL    HW1 4013   1.500   0.857   5.861
 1038SOL    HW2 4014   1.542   0.858   5.703
 1039SOL     OW 4015   3.341   3.541   4.049
 1039SOL    HW1 4016   3.290   3.550   3.963
 1039SOL    HW2 4017   3.288   3.488   4.115
 1040SOL     OW 4018   4.801   1.435   2.163
 1040SOL    HW1 4019   4.847   1.512   2.208
 1040SOL    HW2 4020   4.727   1.470   2.105
 1041SOL     OW 4021   0.164   6.588   3.139
 1041SOL    HW1 4022   0.126   6.559   3.051
 1041SOL    HW2 4023   0.174   6.509   3.199
 1042SOL     OW 4024   4.652   5.305   3.006
 1042SOL    HW1 4025   4.623   5.280   2.914
 1042SOL    HW2 4026   4.710   5.233   3.044
 1043SOL     OW 4027   4.286   2.071   3.486
 1043SOL    HW1 4028   4.242   2.160   3.501
 1043SOL    HW2 4029   4.273   2.015   3.568
 1044SOL     OW 4030   6.313   5.757   1.683
 1044SOL    HW1 4031   6.356   5.745   1.772
 1044SOL    HW2 4032   6.355   5.836   1.637
 1045SOL     OW 4033   3.461   0.596   2.759
 1045SOL    HW1 4034   3.366   0.605   2.791
 1045SOL    HW2 4035   3.468   0.630   2.666
 1046SOL     OW 4036   1.613   1.583   6.759
 1046SOL    HW1 4037   1.584   1.676   6.783
 1046SOL    HW2 4038   1.583   1.519   6.830
 1047SOL     OW 4039   3.552   0.557   4.163
 1047SOL    HW1 4040   3.523   0.620   4.091
 1047SOL    HW2 4041   3.520   0.590   4.252
 1048SOL     OW 4042   3.087   5.703   2.079
 1048SOL    HW1 4043   3.082   5.615   2.031
 1048SOL    HW2 4044   3.180   5.739   2.073
 1049SOL     OW 4045   5.372   6.984   3.960
 1049SOL    HW1 4046   5.285   6.937   3.970
 1049SOL    HW2 4047   5.416   6.955   3.875
 1050SOL     OW 4048   3.666   5.716   2.358
 1050SOL    HW1 4049   3.634   5.775   2.284
 1050SOL    HW2 4050   3.610   5.730   2.439
 1051SOL     OW 4051   0.314   5.890   6.963
 1051SOL    HW1 4052   0.232   5.945   6.982
 1051SOL    HW2 4053   0.341   5.841   0.027
 1052SOL     OW 4054   4.847   1.130   5.553
 1052SOL    HW1 4055   4.945   1.114   5.564
 1052SOL    HW2 4056   4.802   1.121   5.642
 1053SOL     OW 4057   5.816   3.925   2.878
 1053SOL    HW1 4058   5.722   3.890   2.886
 1053SOL    HW2 4059   5.848   3.952   2.969
 1054SOL     OW 4060   2.795   3.342   0.700
 1054SOL    HW1 4061   2.758   3.251   0.680
 1054SOL    HW2 4062   2.772   3.367   0.794
 1055SOL     OW 4063   4.754   5.835   5.911
 1055SOL    HW1 4064   4.738   5.933   5.919
 1055SOL    HW2 4065   4.704   5.787   5.984
 1056SOL     OW 4066   0.793   3.913   0.084
 1056SOL    HW1 4067   0.884   3.897   0.048
 1056SOL    HW2 4068   0.729   3.927   0.009
 1057SOL     OW 4069   3.761   2.329   1.090
 1057SOL    HW1 4070   3.764   2.309   1.188
 1057SOL    HW2 4071   3.707   2.412   1.075
 1058SOL     OW 4072   4.936   2.738   3.547
 1058SOL    HW1 4073   4.873   2.767   3.475
 1058SOL    HW2 4074   4.912   2.783   3.633
 1059SOL     OW 4075   2.291   6.580   2.349
 1059SOL    HW1 4076   2.343   6.638   2.286
 1059SOL    HW2 4077   2.248   6.637   2.419
 1060SOL     OW 4078   0.743   4.990   4.112
 1060SOL    HW1 4079   0.757   5.073   4.057
 1060SOL    HW2 4080   0.668   5.006   4.177
 1061SOL     OW 4081   6.414   3.665   6.388
 1061SOL    HW1 4082   6.442   3.578   6.346
 1061SOL    HW2 4083   6.488   3.698   6.447
 1062SOL     OW 4084   3.996   5.713   5.384
 1062SOL    HW1 4085   4.059   5.776   5.339
 1062SOL    HW2 4086   3.981   5.633   5.326
 1063SOL     OW 4087   7.004   6.645   0.609
 1063SOL    HW1 4088   0.019   6.733   0.576
 1063SOL    HW2 4089   6.940   6.660   0.685
 1064SOL     OW 4090   0.926   3.974   1.433
 1064SOL    HW1 4091   1.003   3.986   1.371
 1064SOL    HW2 4092   0.903   4.061   1.476
 1065SOL     OW 4093   3.562   0.826   3.619
 1065SOL    HW1 4094   3.603   0.894   3.681
 1065SOL    HW2 4095   3.614   0.823   3.534
 1066SOL     OW 4096   4.403   6.814   2.295
 1066SOL    HW1 4097   4.480   6.751   2.310
 1066SOL    HW2 4098   4.390   6.869   2.377
 1067SOL     OW 4099   2.117   1.160   6.750
 1067SOL    HW1 4100   2.098   1.063   6.761
 1067SOL    HW2 4101   2.058   1.199   6.679
 1068SOL     OW 4102   6.137   4.068   1.591
 1068SOL    HW1 4103   6.094   4.085   1.680
 1068SOL    HW2 4104   6.079   4.007   1.537
 1069SOL     OW 4105   5.518   5.894   0.501
 1069SOL    HW1 4106   5.524   5.827   0.575
 1069SOL    HW2 4107   5.589   5.876   0.434
 1070SOL     OW 4108   2.328   6.799   2.525
 1070SOL    HW1 4109   2.405   6.843   2.479
 1070SOL    HW2 4110   2.249   6.861   2.524
 1071SOL     OW 4111   1.784   1.943   4.279
 1071SOL    HW1 4112   1.854   1.958   4.209
 1071SOL    HW2 4113   1.715   1.880   4.243
 1072SOL     OW 4114   2.408   1.009   1.585
 1072SOL    HW1 4115   2.424   0.910   1.575
 1072SOL    HW2 4116   2.485   1.050   1.634
 1073SOL     OW 4117   5.099   1.984   3.430
 1073SOL    HW1 4118   5.185   1.975   3.380
 1073SOL    HW2 4119   5.040   2.050   3.384
 1074SOL     OW 4120   2.422   4.864   1.924
 1074SOL    HW1 4121   2.456   4.802   1.853
 1074SOL    HW2 4122   2.329   4.839   1.949
 1075SOL     OW 4123   5.881   1.454   3.412
 1075SOL    HW1 4124   5.792   1.410   3.409
 1075SOL    HW2 4125   5.895   1.496   3.502
 1076SOL     OW 4126   0.497   2.859   5.397
 1076SOL    HW1 4127   0.534   2.928   5.459
 1076SOL    HW2 4128   0.405   2.834   5.425
 1077SOL     OW 4129   6.799   6.467   0.538
 1077SOL    HW1 4130   6.842   6.377   0.539
 1077SOL    HW2 4131   6.866   6.536   0.563
 1078SOL     OW 4132   6.637   0.574   2.875
 1078SOL    HW1 4133   6.571   0.649   2.884
 1078SOL    HW2 4134   6.591   0.495   2.835
 1079SOL     OW 4135   1.373   4.829   2.156
 1079SOL    HW1 4136   1.323   4.842   2.070
 1079SOL    HW2 4137   1.470   4.813   2.135
 1080SOL     OW 4138   2.549   5.899   4.007
 1080SOL    HW1 4139   2.556   5.882   3.908
 1080SOL    HW2 4140   2.460   5.938   4.028
 1081SOL     OW 4141   6.512   5.200   5.403
 1081SOL    HW1 4142   6.498   5.183   5.501
 1081SOL    HW2 4143   6.555   5.289   5.390
 1082SOL     OW 4144   5.729   2.055   6.239
 1082SOL    HW1 4145   5.666   2.034   6.314
 1082SOL    HW2 4146   5.683   2.111   6.170
 1083SOL     OW 4147   4.786   3.166   6.825
 1083SOL    HW1 4148   4.828   3.089   6.777
 1083SOL    HW2 4149   4.744   3.134   6.910
 1084SOL     OW 4150   6.631   6.862   6.834
 1084SOL    HW1 4151   6.725   6.829   6.823
 1084SOL    HW2 4152   6.584   6.862   6.746
 1085SOL     OW 4153   2.078   3.385   3.984
 1085SOL    HW1 4154   2.002   3.449   3.971
 1085SOL    HW2 4155   2.060   3.328   4.064
 1086SOL     OW 4156   6.848   5.153   6.383
 1086SOL    HW1 4157   6.838   5.181   6.479
 1086SOL    HW2 4158   6.779   5.201   6.328
 1087SOL     OW 4159   0.791   2.096   5.394
 1087SOL    HW1 4160   0.733   2.128   5.469
 1087SOL    HW2 4161   0.862   2.035   5.429
 1088SOL     OW 4162   0.346   4.642   3.314
 1088SOL    HW1 4163   0.337   4.616   3.411
 1088SOL    HW2 4164   0.349   4.559   3.258
 1089SOL     OW 4165   1.232   6.074   5.082
 1089SOL    HW1 4166   1.157   6.094   5.019
 1089SOL    HW2 4167   1.319   6.081   5.034
 1090SOL     OW 4168   4.362   2.045   2.910
 1090SOL    HW1 4169   4.457   2.073   2.921
 1090SOL    HW2 4170   4.332   1.991   2.989
 1091SOL     OW 4171   2.161   3.535   3.475
 1091SOL    HW1 4172   2.138   3.521   3.571
 1091SOL    HW2 4173   2.260   3.531   3.463
 1092SOL     OW 4174   0.917   5.277   0.690
 1092SOL    HW1 4175   0.930   5.272   0.591
 1092SOL    HW2 4176   0.823   5.251   0.712
 1093SOL     OW 4177   2.510   6.915   1.437
 1093SOL    HW1 4178   2.451   6.973   1.381
 1093SOL    HW2 4179   2.487   6.926   1.533
 1094SOL     OW 4180   0.936   6.609   2.703
 1094SOL    HW1 4181   0.995   6.621   2.783
 1094SOL    HW2 4182   0.876   6.688   2.694
 1095SOL     OW 4183   0.594   2.515   6.753
 1095SOL    HW1 4184   0.659   2.561   6.812
 1095SOL    HW2 4185   0.606   2.547   6.659
 1096SOL     OW 4186   3.580   4.282   1.546
 1096SOL    HW1 4187   3.507   4.213   1.548
 1096SOL    HW2 4188   3.578   4.330   1.458
 1097SOL     OW 4189   1.926   4.921   2.816
 1097SOL    HW1 4190   1.959   4.890   2.906
 1097SOL    HW2 4191   1.972   4.868   2.745
 1098SOL     OW 4192   6.403   3.889   6.213
 1098SOL    HW1 4193   6.390   3.804   6.265
 1098SOL    HW2 4194   6.501   3.905   6.199
 1099SOL     OW 4195   4.513   0.962   6.456
 1099SOL    HW1 4196   4.558   1.003   6.535
 1099SOL    HW2 4197   4.452   0.888   6.486
 1100SOL     OW 4198   3.991   1.578   4.624
 1100SOL    HW1 4199   4.042   1.516   4.684
 1100SOL    HW2 4200   4.054   1.621   4.559
 1101SOL     OW 4201   5.504   4.044   5.240
 1101SOL    HW1 4202   5.519   3.968   5.177
 1101SOL    HW2 4203   5.412   4.081   5.226
 1102SOL     OW 4204   2.181   1.359   4.862
 1102SOL    HW1 4205   2.107   1.370   4.796
 1102SOL    HW2 4206   2.161   1.411   4.945
 1103SOL     OW 4207   2.105   1.973   0.291
 1103SOL    HW1 4208   2.092   1.917   0.373
 1103SOL    HW2 4209   2.171   1.929   0.230
 1104SOL     OW 4210   1.845   3.984   3.614
 1104SOL    HW1 4211   1.795   3.898   3.609
 1104SOL    HW2 4212   1.787   4.054   3.656
 1105SOL     OW 4213   5.619   3.261   4.449
 1105SOL    HW1 4214   5.640   3.221   4.359
 1105SOL    HW2 4215   5.643   3.197   4.521
 1106SOL     OW 4216   0.298   1.385   0.790
 1106SOL    HW1 4217   0.360   1.368   0.714
 1106SOL    HW2 4218   0.275   1.298   0.835
 1107SOL     OW 4219   0.923   0.653   7.012
 1107SOL    HW1 4220   0.899   0.566   0.038
 1107SOL    HW2 4221   0.994   0.637   6.944
 1108SOL     OW 4222   3.672   6.685   5.372
 1108SOL    HW1 4223   3.755   6.741   5.363
 1108SOL    HW2 4224   3.665   6.650   5.465
 1109SOL     OW 4225   5.575   1.262   4.254
 1109SOL    HW1 4226   5.629   1.338   4.218
 1109SOL    HW2 4227   5.525   1.218   4.179
 1110SOL     OW 4228   3.688   0.953   3.335
 1110SOL    HW1 4229   3.755   1.025   3.353
 1110SOL    HW2 4230   3.596   0.992   3.340
 1111SOL     OW 4231   5.611   4.394   6.438
 1111SOL    HW1 4232   5.693   4.440   6.472
 1111SOL    HW2 4233   5.581   4.325   6.503
 1112SOL     OW 4234   6.482   0.614   3.251
 1112SOL    HW1 4235   6.457   0.709   3.268
 1112SOL    HW2 4236   6.489   0.565   3.338
 1113SOL     OW 4237   6.106   4.352   1.455
 1113SOL    HW1 4238   6.204   4.373   1.464
 1113SOL    HW2 4239   6.095   4.254   1.438
 1114SOL     OW 4240   3.046   1.645   6.165
 1114SOL    HW1 4241   2.990   1.727   6.152
 1114SOL    HW2 4242   3.023   1.578   6.095
 1115SOL     OW 4243   4.125   3.896   5.319
 1115SOL    HW1 4244   4.086   3.963   5.256
 1115SOL    HW2 4245   4.180   3.943   5.389
 1116SOL     OW 4246   5.995   6.941   0.354
 1116SOL    HW1 4247   6.015   0.003   0.412
 1116SOL    HW2 4248   6.013   6.965   0.259
 1117SOL     OW 4249   0.315   1.667   1.316
 1117SOL    HW1 4250   0.344   1.639   1.408
 1117SOL    HW2 4251   0.233   1.724   1.323
 1118SOL     OW 4252   2.468   5.298   0.534
 1118SOL    HW1 4253   2.410   5.361   0.587
 1118SOL    HW2 4254   2.548   5.347   0.500
 1119SOL     OW 4255   4.330   4.463   1.733
 1119SOL    HW1 4256   4.344   4.461   1.634
 1119SOL    HW2 4257   4.371   4.382   1.774
 1120SOL     OW 4258   6.622   5.569   1.068
 1120SOL    HW1 4259   6.630   5.583   0.969
 1120SOL    HW2 4260   6.686   5.497   1.096
 1121SOL     OW 4261   0.388   4.761   4.848
 1121SOL    HW1 4262   0.339   4.770   4.935
 1121SOL    HW2 4263   0.344   4.691   4.792
 1122SOL     OW 4264   5.864   2.993   2.046
 1122SOL    HW1 4265   5.961   2.973   2.059
 1122SOL    HW2 4266   5.810   2.939   2.110
 1123SOL     OW 4267   5.198   2.236   3.829
 1123SOL    HW1 4268   5.105   2.271   3.819
 1123SOL    HW2 4269   5.222   2.183   3.747
 1124SOL     OW 4270   0.492   4.224   5.955
 1124SOL    HW1 4271   0.403   4.218   5.908
 1124SOL    HW2 4272   0.565   4.213   5.887
 1125SOL     OW 4273   1.907   2.461   3.915
 1125SOL    HW1 4274   1.988   2.520   3.913
 1125SOL    HW2 4275   1.837   2.498   3.855
 1126SOL     OW 4276   5.574   6.267   5.362
 1126SOL    HW1 4277   5.640   6.193   5.349
 1126SOL    HW2 4278   5.500   6.235   5.421
 1127SOL     OW 4279   5.677   6.160   4.626
 1127SOL    HW1 4280   5.582   6.169   4.596
 1127SOL    HW2 4281   5.737   6.158   4.546
 1128SOL     OW 4282   6.339   1.688   4.875
 1128SOL    HW1 4283   6.282   1.714   4.953
 1128SOL    HW2 4284   6.403   1.617   4.902
 1129SOL     OW 4285   1.934   6.522   0.842
 1129SOL    HW1 4286   2.007   6.462   0.810
 1129SOL    HW2 4287   1.886   6.479   0.918
 1130SOL     OW 4288   1.935   4.794   1.160
 1130SOL    HW1 4289   1.976   4.884   1.150
 1130SOL    HW2 4290   2.000   4.724   1.131
 1131SOL     OW 4291   1.746   0.330   5.146
 1131SOL    HW1 4292   1.750   0.374   5.056
 1131SOL    HW2 4293   1.830   0.279   5.161
 1132SOL     OW 4294   3.974   0.432   3.156
 1132SOL    HW1 4295   4.026   0.353   3.190
 1132SOL    HW2 4296   4.003   0.514   3.205
 1133SOL     OW 4297   0.694   1.008   0.386
 1133SOL    HW1 4298   0.791   1.029   0.399
 1133SOL    HW2 4299   0.656   1.067   0.315
 1134SOL     OW 4300   5.528   0.092   3.109
 1134SOL    HW1 4301   5.619   0.059   3.083
 1134SOL    HW2 4302   5.507   0.063   3.202
 1135SOL     OW 4303   2.325   6.465   3.815
 1135SOL    HW1 4304   2.334   6.371   3.847
 1135SOL    HW2 4305   2.268   6.468   3.732
 1136SOL     OW 4306   3.561   5.065   2.943
 1136SOL    HW1 4307   3.576   5.060   2.844
 1136SOL    HW2 4308   3.464   5.083   2.960
 1137SOL     OW 4309   0.947   6.036   0.505
 1137SOL    HW1 4310   0.914   5.947   0.536
 1137SOL    HW2 4311   0.939   6.103   0.579
 1138SOL     OW 4312   0.943   1.809   5.075
 1138SOL    HW1 4313   1.020   1.762   5.032
 1138SOL    HW2 4314   0.878   1.741   5.110
 1139SOL     OW 4315   2.743   4.654   3.954
 1139SOL    HW1 4316   2.766   4.708   3.873
 1139SOL    HW2 4317   2.678   4.583   3.929
 1140SOL     OW 4318   2.676   0.289   2.671
 1140SOL    HW1 4319   2.717   0.352   2.738
 1140SOL    HW2 4320   2.686   0.195   2.703
 1141SOL     OW 4321   6.708   5.891   6.906
 1141SOL    HW1 4322   6.702   5.806   6.959
 1141SOL    HW2 4323   6.616   5.925   6.888
 1142SOL     OW 4324   3.303   7.009   3.965
 1142SOL    HW1 4325   3.357   0.046   4.029
 1142SOL    HW2 4326   3.317   0.025   3.872
 1143SOL     OW 4327   1.786   3.137   2.673
 1143SOL    HW1 4328   1.750   3.214   2.620
 1143SOL    HW2 4329   1.850   3.085   2.617
 1144SOL     OW 4330   5.601   4.137   3.179
 1144SOL    HW1 4331   5.504   4.113   3.181
 1144SOL    HW2 4332   5.632   4.156   3.272
 1145SOL     OW 4333   1.239   2.910   0.572
 1145SOL    HW1 4334   1.269   2.978   0.640
 1145SOL    HW2 4335   1.194   2.834   0.619
 1146SOL     OW 4336   0.791   1.781   1.301
 1146SOL    HW1 4337   0.879   1.760   1.342
 1146SOL    HW2 4338   0.757   1.702   1.250
 1147SOL     OW 4339   2.676   6.162   0.859
 1147SOL    HW1 4340   2.597   6.204   0.903
 1147SOL    HW2 4341   2.645   6.089   0.798
 1148SOL     OW 4342   3.879   6.453   0.779
 1148SOL    HW1 4343   3.924   6.529   0.826
 1148SOL    HW2 4344   3.922   6.439   0.690
 1149SOL     OW 4345   5.362   2.755   1.962
 1149SOL    HW1 4346   5.320   2.683   2.017
 1149SOL    HW2 4347   5.389   2.718   1.873
 1150SOL     OW 4348   0.740   4.170   0.184
 1150SOL    HW1 4349   0.645   4.169   0.215
 1150SOL    HW2 4350   0.772   4.076   0.172
 1151SOL     OW 4351   6.072   4.752   4.560
 1151SOL    HW1 4352   5.982   4.727   4.523
 1151SOL    HW2 4353   6.098   4.842   4.525
 1152SOL     OW 4354   5.125   6.422   6.166
 1152SOL    HW1 4355   5.064   6.501   6.170
 1152SOL    HW2 4356   5.134   6.381   6.257
 1153SOL     OW 4357   6.610   0.380   1.453
 1153SOL    HW1 4358   6.563   0.318   1.516
 1153SOL    HW2 4359   6.572   0.472   1.462
 1154SOL     OW 4360   0.624   3.864   0.585
 1154SOL    HW1 4361   0.660   3.773   0.602
 1154SOL    HW2 4362   0.672   3.906   0.508
 1155SOL     OW 4363   2.977   5.391   5.889
 1155SOL    HW1 4364   2.958   5.319   5.822
 1155SOL    HW2 4365   2.891   5.422   5.929
 1156SOL     OW 4366   4.469   2.129   4.688
 1156SOL    HW1 4367   4.402   2.197   4.718
 1156SOL    HW2 4368   4.422   2.048   4.653
 1157SOL     OW 4369   5.279   1.118   6.028
 1157SOL    HW1 4370   5.249   1.135   6.121
 1157SOL    HW2 4371   5.286   1.204   5.978
 1158SOL     OW 4372   6.498   5.662   4.626
 1158SOL    HW1 4373   6.420   5.707   4.584
 1158SOL    HW2 4374   6.575   5.725   4.628
 1159SOL     OW 4375   5.814   6.955   3.169
 1159SOL    HW1 4376   5.830   0.028   3.129
 1159SOL    HW2 4377   5.817   6.962   3.269
 1160SOL     OW 4378   4.260   5.228   1.817
 1160SOL    HW1 4379   4.311   5.312   1.832
 1160SOL    HW2 4380   4.178   5.247   1.763
 1161SOL     OW 4381   0.682   5.751   6.661
 1161SOL    HW1 4382   0.608   5.810   6.629
 1161SOL    HW2 4383   0.645   5.660   6.681
 1162SOL     OW 4384   2.333   2.488   5.557
 1162SOL    HW1 4385   2.427   2.508   5.529
 1162SOL    HW2 4386   2.269   2.521   5.488
 1163SOL     OW 4387   6.062   4.811   1.987
 1163SOL    HW1 4388   6.043   4.816   1.889
 1163SOL    HW2 4389   6.109   4.725   2.008
 1164SOL     OW 4390   5.061   2.871   5.157
 1164SOL    HW1 4391   5.019   2.902   5.072
 1164SOL    HW2 4392   5.104   2.949   5.203
 1165SOL     OW 4393   4.195   5.741   3.266
 1165SOL    HW1 4394   4.233   5.677   3.333
 1165SOL    HW2 4395   4.256   5.746   3.187
 1166SOL     OW 4396   2.400   5.860   0.035
 1166SOL    HW1 4397   2.317   5.915   0.024
 1166SOL    HW2 4398   2.475   5.902   7.002
 1167SOL     OW 4399   4.929   5.135   0.687
 1167SOL    HW1 4400   4.997   5.174   0.749
 1167SOL    HW2 4401   4.841   5.180   0.703
 1168SOL     OW 4402   6.481   2.858   1.193
 1168SOL    HW1 4403   6.578   2.880   1.205
 1168SOL    HW2 4404   6.457   2.783   1.255
 1169SOL     OW 4405   5.052   1.881   5.187
 1169SOL    HW1 4406   5.076   1.919   5.276
 1169SOL    HW2 4407   4.954   1.861   5.185
 1170SOL     OW 4408   5.541   0.422   3.475
 1170SOL    HW1 4409   5.623   0.407   3.419
 1170SOL    HW2 4410   5.473   0.353   3.454
 1171SOL     OW 4411   2.716   6.521   0.216
 1171SOL    HW1 4412   2.661   6.583   0.160
 1171SOL    HW2 4413   2.717   6.554   0.310
 1172SOL     OW 4414   5.305   4.169   0.961
 1172SOL    HW1 4415   5.214   4.206   0.975
 1172SOL    HW2 4416   5.314   4.083   1.011
 1173SOL     OW 4417   3.242   1.530   1.000
 1173SOL    HW1 4418   3.315   1.548   0.934
 1173SOL    HW2 4419   3.197   1.617   1.023
 1174SOL     OW 4420   3.606   3.926   2.010
 1174SOL    HW1 4421   3.623   3.927   2.109
 1174SOL    HW2 4422   3.583   4.019   1.980
 1175SOL     OW 4423   4.933   3.498   6.542
 1175SOL    HW1 4424   4.846   3.476   6.498
 1175SOL    HW2 4425   4.918   3.568   6.612
 1176SOL     OW 4426   5.130   3.353   0.256
 1176SOL    HW1 4427   5.169   3.279   0.310
 1176SOL    HW2 4428   5.111   3.431   0.316
 1177SOL     OW 4429   6.878   3.633   5.039
 1177SOL    HW1 4430   6.918   3.602   5.126
 1177SOL    HW2 4431   6.930   3.594   4.963
 1178SOL     OW 4432   2.536   4.162   0.640
 1178SOL    HW1 4433   2.635   4.161   0.654
 1178SOL    HW2 4434   2.514   4.110   0.557
 1179SOL     OW 4435   2.238   5.938   0.492
 1179SOL    HW1 4436   2.330   5.905   0.470
 1179SOL    HW2 4437   2.170   5.872   0.457
 1180SOL     OW 4438   2.844   6.470   3.861
 1180SOL    HW1 4439   2.795   6.525   3.794
 1180SOL    HW2 4440   2.781   6.438   3.931
 1181SOL     OW 4441   0.570   5.223   5.591
 1181SOL    HW1 4442   0.654   5.235   5.538
 1181SOL    HW2 4443   0.492   5.218   5.529
 1182SOL     OW 4444   3.939   4.945   3.307
 1182SOL    HW1 4445   3.862   4.904   3.357
 1182SOL    HW2 4446   3.935   4.916   3.211
 1183SOL     OW 4447   2.343   3.841   0.236
 1183SOL    HW1 4448   2.381   3.774   0.300
 1183SOL    HW2 4449   2.249   3.862   0.261
 1184SOL     OW 4450   6.756   0.798   4.715
 1184SOL    HW1 4451   6.755   0.716   4.658
 1184SOL    HW2 4452   6.670   0.848   4.704
 1185SOL     OW 4453   0.825   1.101   0.729
 1185SOL    HW1 4454   0.736   1.144   0.740
 1185SOL    HW2 4455   0.816   1.002   0.732
 1186SOL     OW 4456   5.866   6.718   5.848
 1186SOL    HW1 4457   5.784   6.721   5.904
 1186SOL    HW2 4458   5.841   6.708   5.752
 1187SOL     OW 4459   6.218   6.772   6.817
 1187SOL    HW1 4460   6.220   6.761   6.917
 1187SOL    HW2 4461   6.235   6.868   6.794
 1188SOL     OW 4462   3.910   6.179   5.595
 1188SOL    HW1 4463   3.875   6.086   5.607
 1188SOL    HW2 4464   3.996   6.175   5.544
 1189SOL     OW 4465   6.190   2.790   1.623
 1189SOL    HW1 4466   6.177   2.832   1.533
 1189SOL    HW2 4467   6.249   2.710   1.614
 1190SOL     OW 4468   2.932   5.136   3.611
 1190SOL    HW1 4469   2.845   5.116   3.566
 1190SOL    HW2 4470   2.924   5.222   3.662
 1191SOL     OW 4471   4.424   5.542   3.877
 1191SOL    HW1 4472   4.504   5.498   3.919
 1191SOL    HW2 4473   4.363   5.471   3.841
 1192SOL     OW 4474   4.318   5.449   2.476
 1192SOL    HW1 4475   4.275   5.363   2.505
 1192SOL    HW2 4476   4.314   5.455   2.376
 1193SOL     OW 4477   6.309   2.734   5.252
 1193SOL    HW1 4478   6.237   2.756   5.187
 1193SOL    HW2 4479   6.320   2.809   5.317
 1194SOL     OW 4480   5.954   6.978   1.724
 1194SOL    HW1 4481   5.999   6.992   1.636
 1194SOL    HW2 4482   5.872   6.922   1.712
 1195SOL     OW 4483   6.850   3.977   0.787
 1195SOL    HW1 4484   6.806   4.065   0.768
 1195SOL    HW2 4485   6.791   3.923   0.847
 1196SOL     OW 4486   0.164   5.653   2.774
 1196SOL    HW1 4487   0.137   5.709   2.696
 1196SOL    HW2 4488   0.118   5.686   2.857
 1197SOL     OW 4489   4.581   0.767   4.947
 1197SOL    HW1 4490   4.487   0.770   4.914
 1197SOL    HW2 4491   4.581   0.760   5.047
 1198SOL     OW 4492   1.141   2.765   2.288
 1198SOL    HW1 4493   1.131   2.743   2.385
 1198SOL    HW2 4494   1.167   2.683   2.238
 1199SOL     OW 4495   3.943   3.908   1.508
 1199SOL    HW1 4496   3.993   3.929   1.591
 1199SOL    HW2 4497   3.922   3.810   1.505
 1200SOL     OW 4498   3.455   3.782   4.315
 1200SOL    HW1 4499   3.361   3.750   4.303
 1200SOL    HW2 4500   3.463   3.876   4.280
 1201SOL     OW 4501   0.917   0.786   4.208
 1201SOL    HW1 4502   0.968   0.753   4.129
 1201SOL    HW2 4503   0.820   0.771   4.194
 1202SOL     OW 4504   0.310   5.580   5.592
 1202SOL    HW1 4505   0.260   5.497   5.566
 1202SOL    HW2 4506   0.311   5.590   5.692
 1203SOL     OW 4507   6.420   5.972   6.690
 1203SOL    HW1 4508   6.488   5.901   6.708
 1203SOL    HW2 4509   6.359   5.942   6.618
 1204SOL     OW 4510   3.557   6.666   1.527
 1204SOL    HW1 4511   3.656   6.663   1.522
 1204SOL    HW2 4512   3.519   6.665   1.434
 1205SOL     OW 4513   4.561   3.773   0.990
 1205SOL    HW1 4514   4.489   3.730   0.936
 1205SOL    HW2 4515   4.577   3.720   1.073
 1206SOL     OW 4516   2.796   2.734   5.373
 1206SOL    HW1 4517   2.865   2.672   5.335
 1206SOL    HW2 4518   2.830   2.828   5.368
 1207SOL     OW 4519   2.129   6.421   1.156
 1207SOL    HW1 4520   2.167   6.490   1.095
 1207SOL    HW2 4521   2.031   6.412   1.138
 1208SOL     OW 4522   3.116   3.853   1.419
 1208SOL    HW1 4523   3.098   3.767   1.465
 1208SOL    HW2 4524   3.030   3.891   1.384
 1209SOL     OW 4525   4.963   1.299   4.861
 1209SOL    HW1 4526   5.031   1.227   4.847
 1209SOL    HW2 4527   4.876   1.259   4.889
 1210SOL     OW 4528   3.072   0.221   3.575
 1210SOL    HW1 4529   3.159   0.252   3.535
 1210SOL    HW2 4530   3.051   0.276   3.655
 1211SOL     OW 4531   0.809   3.604   1.498
 1211SOL    HW1 4532   0.729   3.620   1.441
 1211SOL    HW2 4533   0.804   3.662   1.580
 1212SOL     OW 4534   6.261   0.665   0.027
 1212SOL    HW1 4535   6.242   0.761   0.049
 1212SOL    HW2 4536   6.193   0.608   0.073
 1213SOL     OW 4537   6.930   2.118   0.093
 1213SOL    HW1 4538   6.895   2.091   0.183
 1213SOL    HW2 4539   7.011   2.176   0.106
 1214SOL     OW 4540   0.932   2.770   6.409
 1214SOL    HW1 4541   1.030   2.787   6.418
 1214SOL    HW2 4542   0.888   2.851   6.370
 1215SOL     OW 4543   0.721   4.344   3.395
 1215SOL    HW1 4544   0.648   4.279   3.416
 1215SOL    HW2 4545   0.809   4.298   3.403
 1216SOL     OW 4546   4.832   0.624   0.908
 1216SOL    HW1 4547   4.885   0.540   0.916
 1216SOL    HW2 4548   4.734   0.602   0.916
 1217SOL     OW 4549   2.502   4.557   6.998
 1217SOL    HW1 4550   2.462   4.594   6.915
 1217SOL    HW2 4551   2.475   4.461   7.008
 1218SOL     OW 4552   2.253   4.287   4.463
 1218SOL    HW1 4553   2.258   4.276   4.364
 1218SOL    HW2 4554   2.249   4.197   4.506
 1219SOL     OW 4555   5.747   6.399   1.983
 1219SOL    HW1 4556   5.737   6.372   2.079
 1219SOL    HW2 4557   5.803   6.481   1.977
 1220SOL     OW 4558   1.200   4.792   3.499
 1220SOL    HW1 4559   1.286   4.742   3.488
 1220SOL    HW2 4560   1.147   4.786   3.415
 1221SOL     OW 4561   5.828   3.641   6.243
 1221SOL    HW1 4562   5.750   3.594   6.202
 1221SOL    HW2 4563   5.858   3.591   6.324
 1222SOL     OW 4564   6.471   6.882   6.561
 1222SOL    HW1 4565   6.438   6.791   6.587
 1222SOL    HW2 4566   6.394   6.944   6.551
 1223SOL     OW 4567   4.017   0.769   0.812
 1223SOL    HW1 4568   3.932   0.716   0.816
 1223SOL    HW2 4569   4.002   0.859   0.853
 1224SOL     OW 4570   3.050   5.389   0.159
 1224SOL    HW1 4571   3.027   5.480   0.125
 1224SOL    HW2 4572   3.087   5.334   0.085
 1225SOL     OW 4573   3.128   3.273   6.867
 1225SOL    HW1 4574   3.202   3.313   6.921
 1225SOL    HW2 4575   3.154   3.272   6.770
 1226SOL     OW 4576   2.246   5.389   1.243
 1226SOL    HW1 4577   2.299   5.456   1.294
 1226SOL    HW2 4578   2.196   5.331   1.306
 1227SOL     OW 4579   6.995   3.946   0.043
 1227SOL    HW1 4580   6.988   3.851   0.013
 1227SOL    HW2 4581   6.951   4.006   6.994
 1228SOL     OW 4582   4.113   1.986   6.624
 1228SOL    HW1 4583   4.203   1.946   6.606
 1228SOL    HW2 4584   4.124   2.082   6.651
 1229SOL     OW 4585   3.882   5.043   5.923
 1229SOL    HW1 4586   3.958   5.106   5.910
 1229SOL    HW2 4587   3.861   5.037   6.021
 1230SOL     OW 4588   4.622   0.254   2.955
 1230SOL    HW1 4589   4.712   0.278   2.990
 1230SOL    HW2 4590   4.626   0.250   2.855
 1231SOL     OW 4591   1.752   3.415   4.222
 1231SOL    HW1 4592   1.688   3.377   4.155
 1231SOL    HW2 4593   1.733   3.375   4.312
 1232SOL     OW 4594   0.455   2.396   5.516
 1232SOL    HW1 4595   0.392   2.397   5.593
 1232SOL    HW2 4596   0.464   2.302   5.482
 1233SOL     OW 4597   1.439   3.720   3.896
 1233SOL    HW1 4598   1.380   3.763   3.828
 1233SOL    HW2 4599   1.487   3.791   3.948
 1234SOL     OW 4600   6.625   3.608   4.920
 1234SOL    HW1 4601   6.720   3.613   4.949
 1234SOL    HW2 4602   6.608   3.676   4.848
 1235SOL     OW 4603   6.812   6.007   2.388
 1235SOL    HW1 4604   6.886   5.940   2.381
 1235SOL    HW2 4605   6.725   5.959   2.406
 1236SOL     OW 4606   5.111   0.945   0.452
 1236SOL    HW1 4607   5.123   0.954   0.551
 1236SOL    HW2 4608   5.134   1.031   0.407
 1237SOL     OW 4609   1.835   4.809   5.726
 1237SOL    HW1 4610   1.848   4.746   5.649
 1237SOL    HW2 4611   1.822   4.757   5.810
 1238SOL     OW 4612   2.469   0.827   0.328
 1238SOL    HW1 4613   2.395   0.863   0.385
 1238SOL    HW2 4614   2.542   0.791   0.387
 1239SOL     OW 4615   0.030   6.453   6.208
 1239SOL    HW1 4616   0.084   6.496   6.282
 1239SOL    HW2 4617   0.092   6.418   6.138
 1240SOL     OW 4618   5.539   6.041   1.948
 1240SOL    HW1 4619   5.610   6.094   1.901
 1240SOL    HW2 4620   5.527   5.954   1.900
 1241SOL     OW 4621   6.392   4.415   3.756
 1241SOL    HW1 4622   6.342   4.337   3.794
 1241SOL    HW2 4623   6.465   4.382   3.696
 1242SOL     OW 4624   0.194   3.569   1.742
 1242SOL    HW1 4625   0.236   3.480   1.729
 1242SOL    HW2 4626   0.112   3.560   1.799
 1243SOL     OW 4627   0.375   6.779   5.309
 1243SOL    HW1 4628   0.388   6.737   5.220
 1243SOL    HW2 4629   0.375   6.709   5.380
 1244SOL     OW 4630   6.630   0.021   3.613
 1244SOL    HW1 4631   6.674   0.072   3.540
 1244SOL    HW2 4632   6.557   6.982   3.575
 1245SOL     OW 4633   4.789   4.316   6.395
 1245SOL    HW1 4634   4.703   4.363   6.414
 1245SOL    HW2 4635   4.809   4.318   6.297
 1246SOL     OW 4636   2.148   6.353   1.434
 1246SOL    HW1 4637   2.138   6.394   1.343
 1246SOL    HW2 4638   2.072   6.290   1.450
 1247SOL     OW 4639   2.357   0.068   6.519
 1247SOL    HW1 4640   2.450   0.069   6.557
 1247SOL    HW2 4641   2.299   0.129   6.574
 1248SOL     OW 4642   2.367   0.269   4.153
 1248SOL    HW1 4643   2.454   0.237   4.118
 1248SOL    HW2 4644   2.300   0.273   4.079
 1249SOL     OW 4645   5.682   2.250   1.872
 1249SOL    HW1 4646   5.600   2.293   1.910
 1249SOL    HW2 4647   5.675   2.246   1.772
 1250SOL     OW 4648   6.706   4.872   4.588
 1250SOL    HW1 4649   6.628   4.864   4.527
 1250SOL    HW2 4650   6.791   4.864   4.536
 1251SOL     OW 4651   2.585   6.845   3.987
 1251SOL    HW1 4652   2.518   6.880   4.052
 1251SOL    HW2 4653   2.641   6.774   4.031
 1252SOL     OW 4654   3.924   3.427   5.751
 1252SOL    HW1 4655   3.883   3.372   5.678
 1252SOL    HW2 4656   3.910   3.382   5.839
 1253SOL     OW 4657   3.143   4.922   1.336
 1253SOL    HW1 4658   3.085   4.880   1.406
 1253SOL    HW2 4659   3.228   4.954   1.379
 1254SOL     OW 4660   6.483   3.125   2.705
 1254SOL    HW1 4661   6.444   3.036   2.730
 1254SOL    HW2 4662   6.582   3.118   2.700
 1255SOL     OW 4663   6.497   1.760   4.656
 1255SOL    HW1 4664   6.456   1.742   4.745
 1255SOL    HW2 4665   6.425   1.760   4.586
 1256SOL     OW 4666   6.603   6.770   3.233
 1256SOL    HW1 4667   6.534   6.698   3.226
 1256SOL    HW2 4668   6.572   6.850   3.182
 1257SOL     OW 4669   6.687   6.732   3.810
 1257SOL    HW1 4670   6.767   6.770   3.763
 1257SOL    HW2 4671   6.636   6.674   3.746
 1258SOL     OW 4672   1.462   5.108   3.702
 1258SOL    HW1 4673   1.483   5.128   3.606
 1258SOL    HW2 4674   1.374   5.147   3.726
 1259SOL     OW 4675   3.695   1.141   4.382
 1259SOL    HW1 4676   3.794   1.136   4.366
 1259SOL    HW2 4677   3.668   1.236   4.394
 1260SOL     OW 4678   1.675   1.237   6.491
 1260SOL    HW1 4679   1.593   1.284   6.525
 1260SOL    HW2 4680   1.667   1.224   6.392
 1261SOL     OW 4681   0.173   5.599   6.543
 1261SOL    HW1 4682   0.219   5.602   6.455
 1261SOL    HW2 4683   0.240   5.613   6.616
 1262SOL     OW 4684   5.409   5.323   1.226
 1262SOL    HW1 4685   5.315   5.302   1.201
 1262SOL    HW2 4686   5.412   5.357   1.320
 1263SOL     OW 4687   0.061   1.123   2.719
 1263SOL    HW1 4688   0.032   1.111   2.624
 1263SOL    HW2 4689   0.138   1.061   2.738
 1264SOL     OW 4690   0.369   4.484   6.220
 1264SOL    HW1 4691   0.417   4.559   6.173
 1264SOL    HW2 4692   0.279   4.472   6.179
 1265SOL     OW 4693   5.943   4.991   4.756
 1265SOL    HW1 4694   5.889   5.046   4.820
 1265SOL    HW2 4695   5.886   4.916   4.721
 1266SOL     OW 4696   0.404   0.693   4.180
 1266SOL    HW1 4697   0.329   0.676   4.116
 1266SOL    HW2 4698   0.491   0.674   4.134
 1267SOL     OW 4699   4.914   1.067   1.523
 1267SOL    HW1 4700   4.892   1.148   1.576
 1267SOL    HW2 4701   4.997   1.084   1.470
 1268SOL     OW 4702   2.757   2.851   6.913
 1268SOL    HW1 4703   2.842   2.805   6.938
 1268SOL    HW2 4704   2.716   2.804   6.835
 1269SOL     OW 4705   5.946   3.009   3.894
 1269SOL    HW1 4706   6.021   2.995   3.959
 1269SOL    HW2 4707   5.867   3.045   3.943
 1270SOL     OW 4708   2.201   4.655   2.483
 1270SOL    HW1 4709   2.248   4.577   2.439
 1270SOL    HW2 4710   2.264   4.700   2.545
 1271SOL     OW 4711   3.178   1.337   1.978
 1271SOL    HW1 4712   3.111   1.289   1.922
 1271SOL    HW2 4713   3.142   1.427   2.004
 1272SOL     OW 4714   6.240   4.536   6.676
 1272SOL    HW1 4715   6.255   4.490   6.764
 1272SOL    HW2 4716   6.169   4.488   6.625
 1273SOL     OW 4717   1.302   3.867   5.190
 1273SOL    HW1 4718   1.375   3.933   5.207
 1273SOL    HW2 4719   1.341   3.783   5.152
 1274SOL     OW 4720   0.485   4.165   0.935
 1274SOL    HW1 4721   0.385   4.172   0.940
 1274SOL    HW2 4722   0.524   4.256   0.927
 1275SOL     OW 4723   3.124   1.177   3.233
 1275SOL    HW1 4724   3.176   1.203   3.315
 1275SOL    HW2 4725   3.075   1.091   3.250
 1276SOL     OW 4726   5.589   5.333   4.907
 1276SOL    HW1 4727   5.503   5.310   4.861
 1276SOL    HW2 4728   5.591   5.431   4.928
 1277SOL     OW 4729   1.597   5.291   6.969
 1277SOL    HW1 4730   1.499   5.273   6.978
 1277SOL    HW2 4731   1.637   5.227   6.903
 1278SOL     OW 4732   1.369   0.504   4.447
 1278SOL    HW1 4733   1.304   0.551   4.506
 1278SOL    HW2 4734   1.359   0.537   4.354
 1279SOL     OW 4735   2.330   4.312   6.041
 1279SOL    HW1 4736   2.330   4.213   6.026
 1279SOL    HW2 4737   2.327   4.359   5.953
 1280SOL     OW 4738   4.322   0.253   3.868
 1280SOL    HW1 4739   4.303   0.291   3.959
 1280SOL    HW2 4740   4.393   0.183   3.876
 1281SOL     OW 4741   2.745   6.179   3.635
 1281SOL    HW1 4742   2.844   6.173   3.618
 1281SOL    HW2 4743   2.706   6.251   3.578
 1282SOL     OW 4744   6.919   2.574   6.965
 1282SOL    HW1 4745   6.829   2.612   6.944
 1282SOL    HW2 4746   6.990   2.632   6.924
 1283SOL     OW 4747   6.403   3.611   5.594
 1283SOL    HW1 4748   6.465   3.592   5.517
 1283SOL    HW2 4749   6.452   3.663   5.664
 1284SOL     OW 4750   3.906   0.880   1.192
 1284SOL    HW1 4751   3.854   0.901   1.275
 1284SOL    HW2 4752   3.845   0.842   1.123
 1285SOL     OW 4753   4.635   1.257   5.386
 1285SOL    HW1 4754   4.707   1.222   5.446
 1285SOL    HW2 4755   4.618   1.354   5.407
 1286SOL     OW 4756   4.385   2.215   1.004
 1286SOL    HW1 4757   4.440   2.138   1.037
 1286SOL    HW2 4758   4.388   2.288   1.073
 1287SOL     OW 4759   5.340   4.699   5.409
 1287SOL    HW1 4760   5.287   4.781   5.433
 1287SOL    HW2 4761   5.424   4.726   5.363
 1288SOL     OW 4762   4.071   4.753   5.626
 1288SOL    HW1 4763   4.165   4.771   5.654
 1288SOL    HW2 4764   4.008   4.785   5.696
 1289SOL     OW 4765   0.372   0.936   2.245
 1289SOL    HW1 4766   0.405   0.896   2.160
 1289SOL    HW2 4767   0.273   0.946   2.241
 1290SOL     OW 4768   1.596   6.853   0.770
 1290SOL    HW1 4769   1.508   6.888   0.802
 1290SOL    HW2 4770   1.589   6.755   0.751
 1291SOL     OW 4771   0.214   4.815   4.472
 1291SOL    HW1 4772   0.259   4.729   4.494
 1291SOL    HW2 4773   0.190   4.816   4.375
 1292SOL     OW 4774   0.624   5.521   2.248
 1292SOL    HW1 4775   0.702   5.540   2.188
 1292SOL    HW2 4776   0.654   5.526   2.343
 1293SOL     OW 4777   2.682   2.043   0.147
 1293SOL    HW1 4778   2.752   2.049   0.076
 1293SOL    HW2 4779   2.676   1.949   0.180
 1294SOL     OW 4780   1.486   4.030   6.122
 1294SOL    HW1 4781   1.406   4.075   6.082
 1294SOL    HW2 4782   1.566   4.048   6.065
 1295SOL     OW 4783   0.359   2.955   0.884
 1295SOL    HW1 4784   0.291   2.911   0.942
 1295SOL    HW2 4785   0.326   2.959   0.789
 1296SOL     OW 4786   4.613   6.834   5.442
 1296SOL    HW1 4787   4.514   6.823   5.431
 1296SOL    HW2 4788   4.641   6.795   5.530
 1297SOL     OW 4789   1.172   6.481   1.719
 1297SOL    HW1 4790   1.254   6.526   1.757
 1297SOL    HW2 4791   1.196   6.436   1.633
 1298SOL     OW 4792   4.891   6.166   3.602
 1298SOL    HW1 4793   4.817   6.212   3.553
 1298SOL    HW2 4794   4.908   6.076   3.562
 1299SOL     OW 4795   2.206   2.508   3.738
 1299SOL    HW1 4796   2.301   2.526   3.712
 1299SOL    HW2 4797   2.150   2.496   3.656
 1300SOL     OW 4798   1.924   3.153   1.635
 1300SOL    HW1 4799   1.984   3.198   1.702
 1300SOL    HW2 4800   1.973   3.141   1.549
 1301SOL     OW 4801   0.892   6.983   2.042
 1301SOL    HW1 4802   0.879   6.943   2.132
 1301SOL    HW2 4803   0.909   6.910   1.975
 1302SOL     OW 4804   5.540   0.338   5.404
 1302SOL    HW1 4805   5.614   0.402   5.426
 1302SOL    HW2 4806   5.454   0.373   5.440
 1303SOL     OW 4807   3.774   1.016   1.782
 1303SOL    HW1 4808   3.850   1.080   1.795
 1303SOL    HW2 4809   3.733   0.994   1.871
 1304SOL     OW 4810   1.952   1.050   1.566
 1304SOL    HW1 4811   2.033   1.049   1.626
 1304SOL    HW2 4812   1.870   1.032   1.621
 1305SOL     OW 4813   5.539   4.202   6.644
 1305SOL    HW1 4814   5.573   4.266   6.713
 1305SOL    HW2 4815   5.498   4.123   6.688
 1306SOL     OW 4816   1.715   6.101   4.447
 1306SOL    HW1 4817   1.752   6.086   4.355
 1306SOL    HW2 4818   1.650   6.028   4.469
 1307SOL     OW 4819   1.962   3.253   4.181
 1307SOL    HW1 4820   2.030   3.278   4.249
 1307SOL    HW2 4821   1.885   3.316   4.186
 1308SOL     OW 4822   0.076   6.962   6.176
 1308SOL    HW1 4823   0.048   0.040   6.185
 1308SOL    HW2 4824   0.041   6.925   6.090
 1309SOL     OW 4825   5.349   4.322   5.632
 1309SOL    HW1 4826   5.301   4.234   5.634
 1309SOL    HW2 4827   5.331   4.369   5.546
 1310SOL     OW 4828   0.272   4.248   3.258
 1310SOL    HW1 4829   0.356   4.297   3.240
 1310SOL    HW2 4830   0.293   4.159   3.300
 1311SOL     OW 4831   6.757   5.937   6.544
 1311SOL    HW1 4832   6.848   5.905   6.571
 1311SOL    HW2 4833   6.691   5.913   6.615
 1312SOL     OW 4834   1.906   0.029   6.940
 1312SOL    HW1 4835   1.916   6.950   6.912
 1312SOL    HW2 4836   1.810   0.046   6.964
 1313SOL     OW 4837   6.636   5.008   2.602
 1313SOL    HW1 4838   6.551   4.956   2.596
 1313SOL    HW2 4839   6.623   5.086   2.663
 1314SOL     OW 4840   3.122   1.972   4.481
 1314SOL    HW1 4841   3.141   2.047   4.544
 1314SOL    HW2 4842   3.149   1.999   4.388
 1315SOL     OW 4843   6.862   0.904   3.399
 1315SOL    HW1 4844   6.890   0.812   3.426
 1315SOL    HW2 4845   6.891   0.921   3.305
 1316SOL     OW 4846   3.604   0.386   5.062
 1316SOL    HW1 4847   3.676   0.453   5.079
 1316SOL    HW2 4848   3.533   0.396   5.132
 1317SOL     OW 4849   1.350   4.019   4.911
 1317SOL    HW1 4850   1.345   3.984   5.005
 1317SOL    HW2 4851   1.298   4.104   4.905
 1318SOL     OW 4852   1.740   2.817   6.766
 1318SOL    HW1 4853   1.756   2.837   6.863
 1318SOL    HW2 4854   1.694   2.728   6.758
 1319SOL     OW 4855   0.172   5.588   0.015
 1319SOL    HW1 4856   0.103   5.655   0.041
 1319SOL    HW2 4857   0.130   5.498   0.008
 1320SOL     OW 4858   3.052   2.931   6.944
 1320SOL    HW1 4859   3.070   3.017   6.896
 1320SOL    HW2 4860   3.051   2.946   0.025
 1321SOL     OW 4861   4.812   2.228   6.800
 1321SOL    HW1 4862   4.887   2.163   6.794
 1321SOL    HW2 4863   4.849   2.321   6.805
 1322SOL     OW 4864   4.114   1.921   4.222
 1322SOL    HW1 4865   4.212   1.929   4.236
 1322SOL    HW2 4866   4.096   1.867   4.140
 1323SOL     OW 4867   3.348   6.275   0.396
 1323SOL    HW1 4868   3.399   6.263   0.311
 1323SOL    HW2 4869   3.411   6.306   0.468
 1324SOL     OW 4870   0.736   3.346   0.138
 1324SOL    HW1 4871   0.692   3.272   0.088
 1324SOL    HW2 4872   0.816   3.310   0.187
 1325SOL     OW 4873   4.144   6.152   5.108
 1325SOL    HW1 4874   4.096   6.240   5.105
 1325SOL    HW2 4875   4.123   6.100   5.026
 1326SOL     OW 4876   4.829   3.903   5.222
 1326SOL    HW1 4877   4.900   3.944   5.279
 1326SOL    HW2 4878   4.858   3.811   5.194
 1327SOL     OW 4879   1.013   6.320   1.084
 1327SOL    HW1 4880   0.964   6.328   1.171
 1327SOL    HW2 4881   1.082   6.249   1.091
 1328SOL     OW 4882   2.194   2.963   0.052
 1328SOL    HW1 4883   2.189   2.864   0.034
 1328SOL    HW2 4884   2.270   2.982   0.114
 1329SOL     OW 4885   6.830   2.472   2.706
 1329SOL    HW1 4886   6.878   2.543   2.757
 1329SOL    HW2 4887   6.875   2.384   2.720
 1330SOL     OW 4888   1.068   1.992   0.898
 1330SOL    HW1 4889   1.055   2.046   0.982
 1330SOL    HW2 4890   0.986   1.999   0.841
 1331SOL     OW 4891   4.657   2.517   2.980
 1331SOL    HW1 4892   4.646   2.541   3.077
 1331SOL    HW2 4893   4.698   2.426   2.973
 1332SOL     OW 4894   2.583   6.900   0.803
 1332SOL    HW1 4895   2.509   6.849   0.759
 1332SOL    HW2 4896   2.662   6.839   0.815
 1333SOL     OW 4897   2.909   3.738   3.086
 1333SOL    HW1 4898   2.836   3.718   3.020
 1333SOL    HW2 4899   2.959   3.654   3.107
 1334SOL     OW 4900   6.659   1.546   4.058
 1334SOL    HW1 4901   6.713   1.622   4.024
 1334SOL    HW2 4902   6.682   1.463   4.008
 1335SOL     OW 4903   2.214   2.290   2.173
 1335SOL    HW1 4904   2.258   2.243   2.250
 1335SOL    HW2 4905   2.187   2.382   2.202
 1336SOL     OW 4906   3.992   1.931   5.258
 1336SOL    HW1 4907   3.903   1.887   5.271
 1336SOL    HW2 4908   4.062   1.881   5.308
 1337SOL     OW 4909   6.914   1.642   3.267
 1337SOL    HW1 4910   6.873   1.732   3.272
 1337SOL    HW2 4911   6.946   1.625   3.173
 1338SOL     OW 4912   0.274   3.852   3.873
 1338SOL    HW1 4913   0.319   3.915   3.936
 1338SOL    HW2 4914   0.210   3.794   3.924
 1339SOL     OW 4915   6.378   1.192   6.684
 1339SOL    HW1 4916   6.473   1.224   6.692
 1339SOL    HW2 4917   6.372   1.123   6.612
 1340SOL     OW 4918   5.312   1.138   2.640
 1340SOL    HW1 4919   5.300   1.228   2.597
 1340SOL    HW2 4920   5.294   1.067   2.572
 1341SOL     OW 4921   4.438   6.283   0.384
 1341SOL    HW1 4922   4.353   6.266   0.333
 1341SOL    HW2 4923   4.516   6.266   0.324
 1342SOL     OW 4924   2.701   5.412   6.567
 1342SOL    HW1 4925   2.736   5.397   6.659
 1342SOL    HW2 4926   2.773   5.454   6.511
 1343SOL     OW 4927   5.440   5.372   2.910
 1343SOL    HW1 4928   5.360   5.317   2.933
 1343SOL    HW2 4929   5.496   5.323   2.842
 1344SOL     OW 4930   0.384   6.686   4.346
 1344SOL    HW1 4931   0.428   6.597   4.334
 1344SOL    HW2 4932   0.332   6.710   4.264
 1345SOL     OW 4933   0.949   4.881   1.983
 1345SOL    HW1 4934   0.867   4.925   2.019
 1345SOL    HW2 4935   0.976   4.806   2.043
 1346SOL     OW 4936   2.690   5.851   5.821
 1346SOL    HW1 4937   2.787   5.851   5.845
 1346SOL    HW2 4938   2.659   5.757   5.805
 1347SOL     OW 4939   0.596   6.739   6.979
 1347SOL    HW1 4940   0.694   6.734   6.999
 1347SOL    HW2 4941   0.560   6.828   7.009
 1348SOL     OW 4942   6.913   6.613   5.394
 1348SOL    HW1 4943   6.921   6.666   5.309
 1348SOL    HW2 4944   6.960   6.661   5.468
 1349SOL     OW 4945   5.384   2.726   4.367
 1349SOL    HW1 4946   5.449   2.785   4.320
 1349SOL    HW2 4947   5.433   2.666   4.430
 1350SOL     OW 4948   4.793   5.028   5.694
 1350SOL    HW1 4949   4.760   5.035   5.600
 1350SOL    HW2 4950   4.893   5.032   5.695
 1351SOL     OW 4951   5.494   2.515   4.157
 1351SOL    HW1 4952   5.483   2.429   4.106
 1351SOL    HW2 4953   5.440   2.511   4.241
 1352SOL     OW 4954   6.666   6.354   4.278
 1352SOL    HW1 4955   6.748   6.306   4.247
 1352SOL    HW2 4956   6.668   6.449   4.246
 1353SOL     OW 4957   0.929   1.964   0.307
 1353SOL    HW1 4958   0.886   1.983   0.395
 1353SOL    HW2 4959   0.914   2.042   0.246
 1354SOL     OW 4960   6.999   4.286   1.971
 1354SOL    HW1 4961   6.947   4.295   1.887
 1354SOL    HW2 4962   6.967   4.206   2.022
 1355SOL     OW 4963   6.071   4.191   4.088
 1355SOL    HW1 4964   6.106   4.256   4.156
 1355SOL    HW2 4965   6.055   4.103   4.132
 1356SOL     OW 4966   3.742   3.159   2.012
 1356SOL    HW1 4967   3.812   3.091   2.030
 1356SOL    HW2 4968   3.657   3.132   2.056
 1357SOL     OW 4969   0.066   4.864   6.473
 1357SOL    HW1 4970   0.125   4.912   6.408
 1357SOL    HW2 4971   0.007   4.800   6.424
 1358SOL     OW 4972   6.413   6.264   0.302
 1358SOL    HW1 4973   6.340   6.215   0.253
 1358SOL    HW2 4974   6.443   6.342   0.249
 1359SOL     OW 4975   6.123   4.367   2.242
 1359SOL    HW1 4976   6.145   4.408   2.330
 1359SOL    HW2 4977   6.032   4.327   2.245
 1360SOL     OW 4978   2.400   2.942   0.228
 1360SOL    HW1 4979   2.495   2.970   0.213
 1360SOL    HW2 4980   2.369   2.974   0.318
 1361SOL     OW 4981   6.682   4.533   4.540
 1361SOL    HW1 4982   6.737   4.603   4.585
 1361SOL    HW2 4983   6.732   4.495   4.463
 1362SOL     OW 4984   3.956   3.863   2.894
 1362SOL    HW1 4985   4.013   3.807   2.955
 1362SOL    HW2 4986   4.004   3.877   2.807
 1363SOL     OW 4987   0.255   5.479   4.230
 1363SOL    HW1 4988   0.354   5.481   4.221
 1363SOL    HW2 4989   0.229   5.509   4.322
 1364SOL     OW 4990   4.960   4.184   0.478
 1364SOL    HW1 4991   4.929   4.090   0.490
 1364SOL    HW2 4992   4.884   4.247   0.495
 1365SOL     OW 4993   0.979   4.427   6.513
 1365SOL    HW1 4994   1.010   4.425   6.608
 1365SOL    HW2 4995   0.993   4.519   6.475
 1366SOL     OW 4996   1.668   6.896   6.214
 1366SOL    HW1 4997   1.609   6.815   6.208
 1366SOL    HW2 4998   1.732   6.896   6.138
 1367SOL     OW 4999   2.132   0.468   2.475
 1367SOL    HW1 5000   2.044   0.437   2.512
 1367SOL    HW2 5001   2.203   0.458   2.544
 1368SOL     OW 5002   5.244   6.964   4.834
 1368SOL    HW1 5003   5.209   7.011   4.753
 1368SOL    HW2 5004   5.342   6.946   4.822
 1369SOL     OW 5005   1.939   6.408   3.056
 1369SOL    HW1 5006   1.899   6.459   2.980
 1369SOL    HW2 5007   1.874   6.407   3.132
 1370SOL     OW 5008   3.516   0.918   1.922
 1370SOL    HW1 5009   3.448   0.897   1.852
 1370SOL    HW2 5010   3.560   0.833   1.953
 1371SOL     OW 5011   4.667   1.452   4.667
 1371SOL    HW1 5012   4.709   1.542   4.671
 1371SOL    HW2 5013   4.691   1.407   4.581
 1372SOL     OW 5014   1.944   3.333   1.322
 1372SOL    HW1 5015   1.854   3.375   1.324
 1372SOL    HW2 5016   2.002   3.381   1.256
 1373SOL     OW 5017   6.710   4.243   0.810
 1373SOL    HW1 5018   6.754   4.314   0.864
 1373SOL    HW2 5019   6.699   4.275   0.716
 1374SOL     OW 5020   4.232   1.913   0.890
 1374SOL    HW1 5021   4.235   1.965   0.804
 1374SOL    HW2 5022   4.320   1.922   0.936
 1375SOL     OW 5023   0.198   5.351   5.941
 1375SOL    HW1 5024   0.144   5.390   6.016
 1375SOL    HW2 5025   0.265   5.287   5.978
 1376SOL     OW 5026   4.725   2.836   3.415
 1376SOL    HW1 5027   4.662   2.795   3.481
 1376SOL    HW2 5028   4.745   2.930   3.442
 1377SOL     OW 5029   0.002   4.260   5.944
 1377SOL    HW1 5030   6.938   4.218   5.984
 1377SOL    HW2 5031   7.007   4.270   5.845
 1378SOL     OW 5032   0.403   2.290   5.115
 1378SOL    HW1 5033   0.454   2.277   5.030
 1378SOL    HW2 5034   0.315   2.332   5.095
 1379SOL     OW 5035   3.252   6.682   2.739
 1379SOL    HW1 5036   3.326   6.618   2.723
 1379SOL    HW2 5037   3.258   6.757   2.673
 1380SOL     OW 5038   6.770   0.057   2.601
 1380SOL    HW1 5039   6.724   0.075   2.514
 1380SOL    HW2 5040   6.800   6.980   2.604
 1381SOL     OW 5041   5.162   2.341   0.144
 1381SOL    HW1 5042   5.082   2.359   0.200
 1381SOL    HW2 5043   5.244   2.371   0.192
 1382SOL     OW 5044   6.229   4.696   6.262
 1382SOL    HW1 5045   6.262   4.635   6.190
 1382SOL    HW2 5046   6.240   4.791   6.234
 1383SOL     OW 5047   0.807   1.403   0.147
 1383SOL    HW1 5048   0.885   1.384   0.207
 1383SOL    HW2 5049   0.833   1.470   0.078
 1384SOL     OW 5050   3.002   1.460   3.753
 1384SOL    HW1 5051   3.025   1.413   3.668
 1384SOL    HW2 5052   2.917   1.512   3.740
 1385SOL     OW 5053   6.788   2.791   3.144
 1385SOL    HW1 5054   6.803   2.789   3.243
 1385SOL    HW2 5055   6.807   2.700   3.106
 1386SOL     OW 5056   2.226   2.806   4.472
 1386SOL    HW1 5057   2.262   2.810   4.379
 1386SOL    HW2 5058   2.269   2.730   4.521
 1387SOL     OW 5059   3.414   0.586   4.450
 1387SOL    HW1 5060   3.464   0.655   4.502
 1387SOL    HW2 5061   3.348   0.631   4.390
 1388SOL     OW 5062   6.221   6.991   4.013
 1388SOL    HW1 5063   6.228   6.894   3.989
 1388SOL    HW2 5064   6.296   7.015   4.075
 1389SOL     OW 5065   6.710   0.270   4.327
 1389SOL    HW1 5066   6.690   0.260   4.424
 1389SOL    HW2 5067   6.627   0.299   4.279
 1390SOL     OW 5068   4.082   1.469   0.330
 1390SOL    HW1 5069   3.990   1.461   0.368
 1390SOL    HW2 5070   4.081   1.536   0.255
 1391SOL     OW 5071   6.147   1.085   5.329
 1391SOL    HW1 5072   6.245   1.104   5.325
 1391SOL    HW2 5073   6.098   1.165   5.365
 1392SOL     OW 5074   4.960   5.676   5.820
 1392SOL    HW1 5075   4.873   5.713   5.853
 1392SOL    HW2 5076   4.990   5.602   5.881
 1393SOL     OW 5077   6.552   1.657   6.640
 1393SOL    HW1 5078   6.601   1.717   6.577
 1393SOL    HW2 5079   6.479   1.708   6.685
 1394SOL     OW 5080   4.004   6.195   3.192
 1394SOL    HW1 5081   3.923   6.206   3.250
 1394SOL    HW2 5082   3.985   6.126   3.122
 1395SOL     OW 5083   0.574   3.925   2.570
 1395SOL    HW1 5084   0.564   3.858   2.643
 1395SOL    HW2 5085   0.485   3.965   2.549
 1396SOL     OW 5086   1.708   1.094   4.610
 1396SOL    HW1 5087   1.715   1.007   4.562
 1396SOL    HW2 5088   1.667   1.163   4.550
 1397SOL     OW 5089   0.130   5.418   4.921
 1397SOL    HW1 5090   0.076   5.470   4.855
 1397SOL    HW2 5091   0.219   5.462   4.933
 1398SOL     OW 5092   2.268   1.367   0.225
 1398SOL    HW1 5093   2.228   1.360   0.134
 1398SOL    HW2 5094   2.363   1.397   0.218
 1399SOL     OW 5095   4.201   0.061   0.767
 1399SOL    HW1 5096   4.251   0.147   0.771
 1399SOL    HW2 5097   4.171   0.044   0.673
 1400SOL     OW 5098   6.458   0.414   4.252
 1400SOL    HW1 5099   6.474   0.505   4.290
 1400SOL    HW2 5100   6.385   0.419   4.184
 1401SOL     OW 5101   5.559   0.018   4.389
 1401SOL    HW1 5102   5.570   0.102   4.443
 1401SOL    HW2 5103   5.468   6.998   4.404
 1402SOL     OW 5104   5.305   3.935   1.171
 1402SOL    HW1 5105   5.370   3.874   1.216
 1402SOL    HW2 5106   5.221   3.886   1.151
 1403SOL     OW 5107   3.352   3.299   0.258
 1403SOL    HW1 5108   3.378   3.322   0.164
 1403SOL    HW2 5109   3.369   3.378   0.318
 1404SOL     OW 5110   4.983   0.445   1.207
 1404SOL    HW1 5111   4.912   0.377   1.190
 1404SOL    HW2 5112   5.055   0.436   1.137
 1405SOL     OW 5113   2.109   3.603   0.908
 1405SOL    HW1 5114   2.111   3.545   0.826
 1405SOL    HW2 5115   2.015   3.611   0.940
 1406SOL     OW 5116   2.571   3.590   1.458
 1406SOL    HW1 5117   2.490   3.639   1.490
 1406SOL    HW2 5118   2.559   3.566   1.362
 1407SOL     OW 5119   0.625   3.360   1.608
 1407SOL    HW1 5120   0.616   3.271   1.563
 1407SOL    HW2 5121   0.693   3.416   1.558
 1408SOL     OW 5122   6.228   5.843   6.482
 1408SOL    HW1 5123   6.184   5.774   6.539
 1408SOL    HW2 5124   6.192   5.837   6.389
 1409SOL     OW 5125   0.173   1.146   5.726
 1409SOL    HW1 5126   0.093   1.090   5.703
 1409SOL    HW2 5127   0.254   1.110   5.680
 1410SOL     OW 5128   2.604   2.838   5.969
 1410SOL    HW1 5129   2.608   2.750   5.922
 1410SOL    HW2 5130   2.521   2.887   5.942
 1411SOL     OW 5131   3.957   5.627   0.016
 1411SOL    HW1 5132   3.857   5.625   0.016
 1411SOL    HW2 5133   3.989   5.693   6.965
 1412SOL     OW 5134   1.397   2.638   0.676
 1412SOL    HW1 5135   1.496   2.653   0.682
 1412SOL    HW2 5136   1.351   2.696   0.743
 1413SOL     OW 5137   2.026   1.904   5.402
 1413SOL    HW1 5138   2.111   1.956   5.392
 1413SOL    HW2 5139   2.040   1.832   5.470
 1414SOL     OW 5140   0.653   3.381   2.237
 1414SOL    HW1 5141   0.663   3.467   2.287
 1414SOL    HW2 5142   0.679   3.305   2.298
 1415SOL     OW 5143   2.570   2.342   4.552
 1415SOL    HW1 5144   2.568   2.397   4.635
 1415SOL    HW2 5145   2.537   2.397   4.475
 1416SOL     OW 5146   4.247   0.246   5.793
 1416SOL    HW1 5147   4.259   0.260   5.891
 1416SOL    HW2 5148   4.325   0.284   5.743
 1417SOL     OW 5149   2.798   3.039   6.047
 1417SOL    HW1 5150   2.820   2.949   6.009
 1417SOL    HW2 5151   2.700   3.045   6.064
 1418SOL     OW 5152   3.421   3.767   0.041
 1418SOL    HW1 5153   3.504   3.816   0.014
 1418SOL    HW2 5154   3.427   3.739   0.137
 1419SOL     OW 5155   2.010   4.779   3.841
 1419SOL    HW1 5156   2.074   4.706   3.865
 1419SOL    HW2 5157   2.040   4.865   3.884
 1420SOL     OW 5158   4.029   5.047   2.634
 1420SOL    HW1 5159   4.088   4.971   2.607
 1420SOL    HW2 5160   3.965   5.067   2.560
 1421SOL     OW 5161   1.114   4.855   5.264
 1421SOL    HW1 5162   1.021   4.880   5.236
 1421SOL    HW2 5163   1.158   4.933   5.308
 1422SOL     OW 5164   2.332   4.050   5.964
 1422SOL    HW1 5165   2.299   4.072   5.872
 1422SOL    HW2 5166   2.405   3.982   5.957
 1423SOL     OW 5167   4.490   1.724   4.598
 1423SOL    HW1 5168   4.543   1.735   4.682
 1423SOL    HW2 5169   4.406   1.777   4.604
 1424SOL     OW 5170   6.379   2.882   6.777
 1424SOL    HW1 5171   6.304   2.817   6.769
 1424SOL    HW2 5172   6.454   2.855   6.716
 1425SOL     OW 5173   3.674   6.084   4.554
 1425SOL    HW1 5174   3.578   6.106   4.537
 1425SOL    HW2 5175   3.710   6.033   4.476
 1426SOL     OW 5176   2.518   1.503   6.370
 1426SOL    HW1 5177   2.529   1.570   6.443
 1426SOL    HW2 5178   2.549   1.414   6.402
 1427SOL     OW 5179   1.128   1.291   2.990
 1427SOL    HW1 5180   1.152   1.244   3.075
 1427SOL    HW2 5181   1.033   1.272   2.967
 1428SOL     OW 5182   7.017   2.976   2.643
 1428SOL    HW1 5183   0.013   2.877   2.635
 1428SOL    HW2 5184   0.004   3.018   2.552
 1429SOL     OW 5185   6.262   1.567   0.330
 1429SOL    HW1 5186   6.171   1.608   0.322
 1429SOL    HW2 5187   6.256   1.469   0.315
 1430SOL     OW 5188   2.283   4.293   3.929
 1430SOL    HW1 5189   2.246   4.205   3.960
 1430SOL    HW2 5190   2.298   4.289   3.830
 1431SOL     OW 5191   2.374   1.273   5.800
 1431SOL    HW1 5192   2.412   1.183   5.820
 1431SOL    HW2 5193   2.438   1.344   5.830
 1432SOL     OW 5194   2.336   1.159   0.888
 1432SOL    HW1 5195   2.284   1.244   0.880
 1432SOL    HW2 5196   2.284   1.094   0.943
 1433SOL     OW 5197   3.270   0.677   4.234
 1433SOL    HW1 5198   3.305   0.706   4.145
 1433SOL    HW2 5199   3.224   0.589   4.225
 1434SOL     OW 5200   0.121   2.514   6.266
 1434SOL    HW1 5201   0.204   2.461   6.246
 1434SOL    HW2 5202   0.145   2.595   6.319
 1435SOL     OW 5203   0.398   0.633   3.610
 1435SOL    HW1 5204   0.346   0.700   3.664
 1435SOL    HW2 5205   0.416   0.670   3.519
 1436SOL     OW 5206   5.784   2.365   0.699
 1436SOL    HW1 5207   5.837   2.378   0.615
 1436SOL    HW2 5208   5.745   2.453   0.726
 1437SOL     OW 5209   4.679   0.986   6.245
 1437SOL    HW1 5210   4.610   0.970   6.315
 1437SOL    HW2 5211   4.719   0.898   6.216
 1438SOL     OW 5212   2.754   0.978   1.656
 1438SOL    HW1 5213   2.753   1.071   1.693
 1438SOL    HW2 5214   2.760   0.981   1.556
 1439SOL     OW 5215   6.979   5.480   6.668
 1439SOL    HW1 5216   0.031   5.538   6.624
 1439SOL    HW2 5217   6.935   5.531   6.742
 1440SOL     OW 5218   3.189   2.969   4.265
 1440SOL    HW1 5219   3.122   3.035   4.299
 1440SOL    HW2 5220   3.190   2.971   4.165
 1441SOL     OW 5221   6.296   3.211   4.425
 1441SOL    HW1 5222   6.394   3.213   4.448
 1441SOL    HW2 5223   6.245   3.168   4.499
 1442SOL     OW 5224   5.708   4.238   0.609
 1442SOL    HW1 5225   5.762   4.319   0.632
 1442SOL    HW2 5226   5.640   4.221   0.681
 1443SOL     OW 5227   0.957   1.238   3.510
 1443SOL    HW1 5228   0.920   1.287   3.590
 1443SOL    HW2 5229   1.028   1.294   3.468
 1444SOL     OW 5230   4.628   0.216   3.352
 1444SOL    HW1 5231   4.646   0.152   3.427
 1444SOL    HW2 5232   4.650   0.171   3.265
 1445SOL     OW 5233   0.067   2.660   1.252
 1445SOL    HW1 5234   0.065   2.588   1.322
 1445SOL    HW2 5235   0.077   2.749   1.297
 1446SOL     OW 5236   3.720   1.968   1.376
 1446SOL    HW1 5237   3.770   2.051   1.350
 1446SOL    HW2 5238   3.678   1.981   1.465
 1447SOL     OW 5239   6.694   0.782   5.206
 1447SOL    HW1 5240   6.608   0.829   5.225
 1447SOL    HW2 5241   6.730   0.813   5.117
 1448SOL     OW 5242   5.509   1.429   0.535
 1448SOL    HW1 5243   5.537   1.523   0.551
 1448SOL    HW2 5244   5.449   1.426   0.454
 1449SOL     OW 5245   5.395   6.548   0.622
 1449SOL    HW1 5246   5.298   6.567   0.635
 1449SOL    HW2 5247   5.412   6.527   0.526
 1450SOL     OW 5248   5.741   2.849   2.793
 1450SOL    HW1 5249   5.739   2.941   2.755
 1450SOL    HW2 5250   5.650   2.827   2.830
 1451SOL     OW 5251   2.041   6.819   2.928
 1451SOL    HW1 5252   2.076   6.726   2.913
 1451SOL    HW2 5253   2.113   6.885   2.908
 1452SOL     OW 5254   5.228   0.521   4.928
 1452SOL    HW1 5255   5.160   0.455   4.897
 1452SOL    HW2 5256   5.318   0.478   4.929
 1453SOL     OW 5257   5.513   4.028   4.638
 1453SOL    HW1 5258   5.421   4.067   4.629
 1453SOL    HW2 5259   5.507   3.936   4.677
 1454SOL     OW 5260   5.345   3.058   2.090
 1454SOL    HW1 5261   5.265   3.093   2.138
 1454SOL    HW2 5262   5.341   2.958   2.086
 1455SOL     OW 5263   1.111   0.700   2.043
 1455SOL    HW1 5264   1.155   0.611   2.036
 1455SOL    HW2 5265   1.054   0.703   2.125
 1456SOL     OW 5266   6.778   6.864   4.234
 1456SOL    HW1 5267   6.730   6.935   4.284
 1456SOL    HW2 5268   6.717   6.787   4.217
 1457SOL     OW 5269   1.111   0.597   3.653
 1457SOL    HW1 5270   1.147   0.539   3.580
 1457SOL    HW2 5271   1.013   0.581   3.662
 1458SOL     OW 5272   5.113   6.864   5.651
 1458SOL    HW1 5273   5.021   6.828   5.666
 1458SOL    HW2 5274   5.169   6.848   5.733
 1459SOL     OW 5275   2.952   6.525   6.855
 1459SOL    HW1 5276   3.039   6.477   6.864
 1459SOL    HW2 5277   2.881   6.461   6.824
 1460SOL     OW 5278   0.812   6.434   6.989
 1460SOL    HW1 5279   0.747   6.402   0.040
 1460SOL    HW2 5280   0.864   6.512   0.008
 1461SOL     OW 5281   5.699   4.167   3.444
 1461SOL    HW1 5282   5.683   4.074   3.477
 1461SOL    HW2 5283   5.797   4.180   3.427
 1462SOL     OW 5284   6.279   1.001   1.159
 1462SOL    HW1 5285   6.279   0.993   1.059
 1462SOL    HW2 5286   6.331   1.082   1.186
 1463SOL     OW 5287   0.774   0.460   5.010
 1463SOL    HW1 5288   0.774   0.394   5.085
 1463SOL    HW2 5289   0.829   0.426   4.934
 1464SOL     OW 5290   0.300   6.639   0.403
 1464SOL    HW1 5291   0.315   6.697   0.483
 1464SOL    HW2 5292   0.386   6.625   0.354
 1465SOL     OW 5293   0.093   0.366   3.820
 1465SOL    HW1 5294   0.167   0.384   3.756
 1465SOL    HW2 5295   0.005   0.380   3.774
 1466SOL     OW 5296   6.421   5.550   2.474
 1466SOL    HW1 5297   6.489   5.477   2.462
 1466SOL    HW2 5298   6.329   5.513   2.461
 1467SOL     OW 5299   1.699   1.184   3.075
 1467SOL    HW1 5300   1.632   1.112   3.060
 1467SOL    HW2 5301   1.761   1.189   2.997
 1468SOL     OW 5302   5.551   5.416   3.567
 1468SOL    HW1 5303   5.590   5.371   3.487
 1468SOL    HW2 5304   5.495   5.351   3.618
 1469SOL     OW 5305   0.411   0.423   2.564
 1469SOL    HW1 5306   0.433   0.472   2.649
 1469SOL    HW2 5307   0.336   0.359   2.581
 1470SOL     OW 5308   1.399   0.925   2.859
 1470SOL    HW1 5309   1.391   0.864   2.780
 1470SOL    HW2 5310   1.411   1.019   2.829
 1471SOL     OW 5311   6.955   0.346   0.126
 1471SOL    HW1 5312   6.970   0.311   0.219
 1471SOL    HW2 5313   6.896   0.283   0.075
 1472SOL     OW 5314   4.721   0.114   5.101
 1472SOL    HW1 5315   4.646   0.167   5.140
 1472SOL    HW2 5316   4.793   0.176   5.070
 1473SOL     OW 5317   6.288   5.461   2.912
 1473SOL    HW1 5318   6.238   5.489   2.993
 1473SOL    HW2 5319   6.386   5.462   2.932
 1474SOL     OW 5320   6.324   5.448   4.010
 1474SOL    HW1 5321   6.361   5.389   4.082
 1474SOL    HW2 5322   6.267   5.394   3.948
 1475SOL     OW 5323   0.145   0.294   2.545
 1475SOL    HW1 5324   0.150   0.233   2.624
 1475SOL    HW2 5325   0.121   0.242   2.463
 1476SOL     OW 5326   1.499   0.962   1.927
 1476SOL    HW1 5327   1.522   0.864   1.923
 1476SOL    HW2 5328   1.400   0.973   1.933
 1477SOL     OW 5329   3.323   0.376   5.665
 1477SOL    HW1 5330   3.309   0.277   5.674
 1477SOL    HW2 5331   3.234   0.422   5.660
 1478SOL     OW 5332   6.435   5.304   0.778
 1478SOL    HW1 5333   6.407   5.285   0.684
 1478SOL    HW2 5334   6.533   5.323   0.781
 1479SOL     OW 5335   1.821   4.819   0.295
 1479SOL    HW1 5336   1.885   4.832   0.370
 1479SOL    HW2 5337   1.729   4.844   0.325
 1480SOL     OW 5338   1.837   1.374   6.205
 1480SOL    HW1 5339   1.854   1.388   6.108
 1480SOL    HW2 5340   1.813   1.278   6.221
 1481SOL     OW 5341   5.993   2.182   5.822
 1481SOL    HW1 5342   6.089   2.173   5.796
 1481SOL    HW2 5343   5.961   2.275   5.804
 1482SOL     OW 5344   5.425   0.921   0.908
 1482SOL    HW1 5345   5.524   0.922   0.894
 1482SOL    HW2 5346   5.397   0.834   0.949
 1483SOL     OW 5347   6.566   2.520   0.170
 1483SOL    HW1 5348   6.540   2.423   0.171
 1483SOL    HW2 5349   6.486   2.576   0.189
 1484SOL     OW 5350   6.662   4.487   2.325
 1484SOL    HW1 5351   6.672   4.441   2.414
 1484SOL    HW2 5352   6.597   4.437   2.269
 1485SOL     OW 5353   5.471   2.785   2.826
 1485SOL    HW1 5354   5.393   2.816   2.880
 1485SOL    HW2 5355   5.458   2.689   2.801
 1486SOL     OW 5356   4.609   2.233   3.061
 1486SOL    HW1 5357   4.642   2.149   3.018
 1486SOL    HW2 5358   4.527   2.214   3.115
 1487SOL     OW 5359   6.023   1.397   6.093
 1487SOL    HW1 5360   5.955   1.353   6.033
 1487SOL    HW2 5361   6.017   1.357   6.184
 1488SOL     OW 5362   4.752   1.028   3.297
 1488SOL    HW1 5363   4.800   0.954   3.345
 1488SOL    HW2 5364   4.696   1.079   3.362
 1489SOL     OW 5365   3.652   4.981   4.875
 1489SOL    HW1 5366   3.747   4.952   4.887
 1489SOL    HW2 5367   3.621   4.957   4.783
 1490SOL     OW 5368   1.262   1.357   0.198
 1490SOL    HW1 5369   1.257   1.258   0.195
 1490SOL    HW2 5370   1.327   1.389   0.128
 1491SOL     OW 5371   6.887   3.519   3.268
 1491SOL    HW1 5372   6.985   3.532   3.278
 1491SOL    HW2 5373   6.839   3.581   3.331
 1492SOL     OW 5374   5.107   2.029   1.382
 1492SOL    HW1 5375   5.032   2.080   1.425
 1492SOL    HW2 5376   5.077   1.936   1.362
 1493SOL     OW 5377   4.448   0.452   4.876
 1493SOL    HW1 5378   4.392   0.533   4.897
 1493SOL    HW2 5379   4.388   0.376   4.852
 1494SOL     OW 5380   3.746   2.586   6.070
 1494SOL    HW1 5381   3.674   2.610   6.005
 1494SOL    HW2 5382   3.729   2.494   6.105
 1495SOL     OW 5383   0.761   3.681   2.927
 1495SOL    HW1 5384   0.842   3.723   2.967
 1495SOL    HW2 5385   0.769   3.582   2.933
 1496SOL     OW 5386   6.467   0.103   2.032
 1496SOL    HW1 5387   6.526   0.136   2.106
 1496SOL    HW2 5388   6.523   0.077   1.953
 1497SOL     OW 5389   0.000   5.346   4.221
 1497SOL    HW1 5390   0.027   5.269   4.279
 1497SOL    HW2 5391   0.079   5.406   4.206
 1498SOL     OW 5392   2.736   4.392   6.035
 1498SOL    HW1 5393   2.684   4.443   5.967
 1498SOL    HW2 5394   2.732   4.439   6.123
 1499SOL     OW 5395   0.841   3.764   5.078
 1499SOL    HW1 5396   0.899   3.736   5.154
 1499SOL    HW2 5397   0.876   3.849   5.038
 1500SOL     OW 5398   5.400   6.799   0.411
 1500SOL    HW1 5399   5.491   6.759   0.405
 1500SOL    HW2 5400   5.393   6.855   0.493
 1501SOL     OW 5401   4.321   0.237   6.588
 1501SOL    HW1 5402   4.228   0.210   6.564
 1501SOL    HW2 5403   4.324   0.335   6.608
 1502SOL     OW 5404   6.608   6.309   0.019
 1502SOL    HW1 5405   6.678   6.371   6.999
 1502SOL    HW2 5406   6.538   6.293   6.967
 1503SOL     OW 5407   2.058   2.538   0.192
 1503SOL    HW1 5408   2.079   2.590   0.109
 1503SOL    HW2 5409   2.117   2.458   0.197
 1504SOL     OW 5410   2.992   0.158   4.715
 1504SOL    HW1 5411   3.006   0.205   4.627
 1504SOL    HW2 5412   2.900   0.120   4.718
 1505SOL     OW 5413   5.878   0.245   5.046
 1505SOL    HW1 5414   5.804   0.311   5.061
 1505SOL    HW2 5415   5.887   0.186   5.125
 1506SOL     OW 5416   1.087   5.169   3.255
 1506SOL    HW1 5417   1.050   5.147   3.344
 1506SOL    HW2 5418   1.179   5.207   3.266
 1507SOL     OW 5419   1.734   2.336   4.649
 1507SOL    HW1 5420   1.751   2.302   4.557
 1507SOL    HW2 5421   1.819   2.372   4.687
 1508SOL     OW 5422   4.285   0.334   0.774
 1508SOL    HW1 5423   4.343   0.369   0.701
 1508SOL    HW2 5424   4.206   0.393   0.786
 1509SOL     OW 5425   4.536   3.260   6.184
 1509SOL    HW1 5426   4.455   3.231   6.236
 1509SOL    HW2 5427   4.612   3.199   6.204
 1510SOL     OW 5428   6.786   2.172   4.510
 1510SOL    HW1 5429   6.690   2.175   4.540
 1510SOL    HW2 5430   6.833   2.254   4.542
 1511SOL     OW 5431   2.750   1.830   6.584
 1511SOL    HW1 5432   2.791   1.903   6.530
 1511SOL    HW2 5433   2.785   1.741   6.552
 1512SOL     OW 5434   0.168   0.448   1.759
 1512SOL    HW1 5435   0.088   0.450   1.699
 1512SOL    HW2 5436   0.233   0.518   1.731
 1513SOL     OW 5437   3.713   0.118   4.111
 1513SOL    HW1 5438   3.704   0.187   4.039
 1513SOL    HW2 5439   3.798   0.135   4.162
 1514SOL     OW 5440   5.762   1.904   5.243
 1514SOL    HW1 5441   5.776   1.991   5.290
 1514SOL    HW2 5442   5.778   1.829   5.308
 1515SOL     OW 5443   0.344   4.285   5.377
 1515SOL    HW1 5444   0.432   4.328   5.355
 1515SOL    HW2 5445   0.308   4.240   5.295
 1516SOL     OW 5446   0.634   1.287   0.775
 1516SOL    HW1 5447   0.579   1.321   0.851
 1516SOL    HW2 5448   0.691   1.361   0.738
 1517SOL     OW 5449   4.496   5.148   3.614
 1517SOL    HW1 5450   4.564   5.214   3.585
 1517SOL    HW2 5451   4.421   5.145   3.549
 1518SOL     OW 5452   6.684   4.199   0.301
 1518SOL    HW1 5453   6.660   4.224   0.207
 1518SOL    HW2 5454   6.765   4.141   0.301
 1519SOL     OW 5455   6.831   4.842   1.040
 1519SOL    HW1 5456   6.924   4.807   1.046
 1519SOL    HW2 5457   6.795   4.857   1.132
 1520SOL     OW 5458   2.045   3.453   2.173
 1520SOL    HW1 5459   2.093   3.449   2.085
 1520SOL    HW2 5460   2.088   3.388   2.237
 1521SOL     OW 5461   1.565   3.206   0.117
 1521SOL    HW1 5462   1.472   3.237   0.097
 1521SOL    HW2 5463   1.569   3.174   0.212
 1522SOL     OW 5464   6.905   1.877   6.157
 1522SOL    HW1 5465   6.973   1.811   6.188
 1522SOL    HW2 5466   6.951   1.951   6.107
 1523SOL     OW 5467   6.235   2.962   0.162
 1523SOL    HW1 5468   6.145   2.948   0.120
 1523SOL    HW2 5469   6.302   2.984   0.092
 1524SOL     OW 5470   0.352   1.739   1.624
 1524SOL    HW1 5471   0.407   1.656   1.609
 1524SOL    HW2 5472   0.395   1.795   1.694
 1525SOL     OW 5473   4.085   1.364   5.813
 1525SOL    HW1 5474   4.052   1.269   5.811
 1525SOL    HW2 5475   4.060   1.406   5.899
 1526SOL     OW 5476   6.822   1.734   1.383
 1526SOL    HW1 5477   6.921   1.749   1.389
 1526SOL    HW2 5478   6.804   1.636   1.371
 1527SOL     OW 5479   3.332   1.684   5.038
 1527SOL    HW1 5480   3.280   1.701   4.954
 1527SOL    HW2 5481   3.372   1.769   5.070
 1528SOL     OW 5482   4.650   6.383   2.758
 1528SOL    HW1 5483   4.693   6.450   2.819
 1528SOL    HW2 5484   4.689   6.293   2.774
 1529SOL     OW 5485   4.239   0.884   5.817
 1529SOL    HW1 5486   4.312   0.828   5.856
 1529SOL    HW2 5487   4.183   0.827   5.757
 1530SOL     OW 5488   2.903   6.511   1.950
 1530SOL    HW1 5489   2.987   6.565   1.948
 1530SOL    HW2 5490   2.917   6.426   1.898
 1531SOL     OW 5491   6.148   0.685   4.389
 1531SOL    HW1 5492   6.100   0.597   4.383
 1531SOL    HW2 5493   6.164   0.719   4.296
 1532SOL     OW 5494   3.228   2.395   5.431
 1532SOL    HW1 5495   3.219   2.389   5.332
 1532SOL    HW2 5496   3.162   2.333   5.475
 1533SOL     OW 5497   6.633   3.500   6.951
 1533SOL    HW1 5498   6.570   3.555   6.896
 1533SOL    HW2 5499   6.693   3.560   7.002
 1534SOL     OW 5500   1.919   5.766   0.571
 1534SOL    HW1 5501   1.936   5.667   0.578
 1534SOL    HW2 5502   1.839   5.789   0.628
 1535SOL     OW 5503   5.345   5.087   4.432
 1535SOL    HW1 5504   5.422   5.148   4.451
 1535SOL    HW2 5505   5.358   5.001   4.480
 1536SOL     OW 5506   2.390   5.558   4.266
 1536SOL    HW1 5507   2.348   5.467   4.257
 1536SOL    HW2 5508   2.487   5.548   4.286
 1537SOL     OW 5509   2.875   5.456   3.570
 1537SOL    HW1 5510   2.919   5.437   3.659
 1537SOL    HW2 5511   2.934   5.517   3.517
 1538SOL     OW 5512   2.665   4.143   6.770
 1538SOL    HW1 5513   2.635   4.222   6.716
 1538SOL    HW2 5514   2.654   4.060   6.716
 1539SOL     OW 5515   3.722   4.502   1.677
 1539SOL    HW1 5516   3.703   4.405   1.660
 1539SOL    HW2 5517   3.640   4.545   1.716
 1540SOL     OW 5518   0.818   0.450   4.324
 1540SOL    HW1 5519   0.881   0.523   4.349
 1540SOL    HW2 5520   0.779   0.409   4.407
 1541SOL     OW 5521   3.641   2.890   1.271
 1541SOL    HW1 5522   3.613   2.880   1.176
 1541SOL    HW2 5523   3.585   2.960   1.316
 1542SOL     OW 5524   0.413   6.035   1.570
 1542SOL    HW1 5525   0.484   6.098   1.539
 1542SOL    HW2 5526   0.369   5.992   1.491
 1543SOL     OW 5527   3.285   3.542   3.802
 1543SOL    HW1 5528   3.330   3.462   3.762
 1543SOL    HW2 5529   3.261   3.606   3.729
 1544SOL     OW 5530   3.023   3.888   2.354
 1544SOL    HW1 5531   3.040   3.987   2.355
 1544SOL    HW2 5532   2.980   3.863   2.268
 1545SOL     OW 5533   6.016   0.878   5.229
 1545SOL    HW1 5534   6.066   0.946   5.282
 1545SOL    HW2 5535   6.051   0.876   5.135
 1546SOL     OW 5536   6.195   0.012   6.265
 1546SOL    HW1 5537   6.170   0.108   6.269
 1546SOL    HW2 5538   6.283   7.016   6.310
 1547SOL     OW 5539   2.771   4.750   2.610
 1547SOL    HW1 5540   2.837   4.810   2.656
 1547SOL    HW2 5541   2.743   4.792   2.524
 1548SOL     OW 5542   3.924   4.705   5.413
 1548SOL    HW1 5543   3.962   4.729   5.502
 1548SOL    HW2 5544   3.943   4.609   5.394
 1549SOL     OW 5545   6.470   1.936   1.675
 1549SOL    HW1 5546   6.562   1.901   1.694
 1549SOL    HW2 5547   6.462   1.959   1.578
 1550SOL     OW 5548   2.490   6.535   5.152
 1550SOL    HW1 5549   2.493   6.573   5.060
 1550SOL    HW2 5550   2.517   6.438   5.149
 1551SOL     OW 5551   1.721   2.685   1.267
 1551SOL    HW1 5552   1.773   2.761   1.229
 1551SOL    HW2 5553   1.744   2.673   1.364
 1552SOL     OW 5554   1.342   6.984   1.314
 1552SOL    HW1 5555   1.270   6.947   1.256
 1552SOL    HW2 5556   1.343   0.067   1.306
 1553SOL     OW 5557   6.151   1.601   6.976
 1553SOL    HW1 5558   6.071   1.546   6.951
 1553SOL    HW2 5559   6.219   1.542   0.003
 1554SOL     OW 5560   4.205   2.259   2.803
 1554SOL    HW1 5561   4.272   2.185   2.814
 1554SOL    HW2 5562   4.241   2.342   2.845
 1555SOL     OW 5563   4.821   1.715   4.951
 1555SOL    HW1 5564   4.817   1.688   5.047
 1555SOL    HW2 5565   4.739   1.768   4.928
 1556SOL     OW 5566   3.830   0.434   0.651
 1556SOL    HW1 5567   3.767   0.487   0.594
 1556SOL    HW2 5568   3.782   0.356   0.691
 1557SOL     OW 5569   2.060   2.479   1.160
 1557SOL    HW1 5570   1.970   2.453   1.125
 1557SOL    HW2 5571   2.094   2.407   1.222
 1558SOL     OW 5572   6.638   2.817   5.383
 1558SOL    HW1 5573   6.575   2.769   5.323
 1558SOL    HW2 5574   6.620   2.792   5.478
 1559SOL     OW 5575   0.910   3.983   2.166
 1559SOL    HW1 5576   0.872   3.938   2.246
 1559SOL    HW2 5577   0.838   4.004   2.101
 1560SOL     OW 5578   3.802   1.502   0.343
 1560SOL    HW1 5579   3.786   1.549   0.430
 1560SOL    HW2 5580   3.774   1.561   0.268
 1561SOL     OW 5581   5.820   6.221   2.221
 1561SOL    HW1 5582   5.861   6.144   2.271
 1561SOL    HW2 5583   5.721   6.219   2.233
 1562SOL     OW 5584   3.252   6.860   2.491
 1562SOL    HW1 5585   3.202   6.798   2.430
 1562SOL    HW2 5586   3.350   6.838   2.488
 1563SOL     OW 5587   3.180   2.134   4.696
 1563SOL    HW1 5588   3.197   2.072   4.773
 1563SOL    HW2 5589   3.115   2.205   4.725
 1564SOL     OW 5590   1.679   1.803   2.379
 1564SOL    HW1 5591   1.631   1.828   2.295
 1564SOL    HW2 5592   1.679   1.703   2.389
 1565SOL     OW 5593   4.158   6.279   3.864
 1565SOL    HW1 5594   4.135   6.349   3.932
 1565SOL    HW2 5595   4.097   6.288   3.785
 1566SOL     OW 5596   5.210   4.736   3.745
 1566SOL    HW1 5597   5.191   4.795   3.823
 1566SOL    HW2 5598   5.306   4.746   3.718
 1567SOL     OW 5599   5.886   5.613   6.456
 1567SOL    HW1 5600   5.915   5.535   6.400
 1567SOL    HW2 5601   5.872   5.693   6.398
 1568SOL     OW 5602   1.986   6.778   3.742
 1568SOL    HW1 5603   2.081   6.749   3.759
 1568SOL    HW2 5604   1.976   6.800   3.645
 1569SOL     OW 5605   3.287   0.492   3.089
 1569SOL    HW1 5606   3.330   0.578   3.061
 1569SOL    HW2 5607   3.323   0.417   3.032
 1570SOL     OW 5608   3.140   6.701   0.089
 1570SOL    HW1 5609   3.185   6.738   0.007
 1570SOL    HW2 5610   3.043   6.687   0.070
 1571SOL     OW 5611   1.158   2.338   3.510
 1571SOL    HW1 5612   1.154   2.373   3.604
 1571SOL    HW2 5613   1.204   2.405   3.452
 1572SOL     OW 5614   1.912   5.197   1.629
 1572SOL    HW1 5615   1.889   5.107   1.666
 1572SOL    HW2 5616   1.915   5.191   1.529
 1573SOL     OW 5617   4.852   5.279   1.446
 1573SOL    HW1 5618   4.935   5.261   1.499
 1573SOL    HW2 5619   4.790   5.336   1.499
 1574SOL     OW 5620   6.325   3.475   2.013
 1574SOL    HW1 5621   6.354   3.566   2.041
 1574SOL    HW2 5622   6.305   3.419   2.093
 1575SOL     OW 5623   1.218   0.635   1.544
 1575SOL    HW1 5624   1.154   0.568   1.506
 1575SOL    HW2 5625   1.206   0.723   1.499
 1576SOL     OW 5626   0.276   6.030   2.798
 1576SOL    HW1 5627   0.254   6.018   2.895
 1576SOL    HW2 5628   0.373   6.013   2.783
 1577SOL     OW 5629   3.055   0.366   6.474
 1577SOL    HW1 5630   3.087   0.346   6.567
 1577SOL    HW2 5631   2.999   0.449   6.475
 1578SOL     OW 5632   3.828   0.951   0.430
 1578SOL    HW1 5633   3.918   0.987   0.456
 1578SOL    HW2 5634   3.832   0.914   0.337
 1579SOL     OW 5635   1.067   2.534   1.740
 1579SOL    HW1 5636   1.136   2.606   1.745
 1579SOL    HW2 5637   1.058   2.503   1.646
 1580SOL     OW 5638   3.264   3.737   3.363
 1580SOL    HW1 5639   3.288   3.641   3.350
 1580SOL    HW2 5640   3.305   3.792   3.291
 1581SOL     OW 5641   0.682   4.712   6.024
 1581SOL    HW1 5642   0.643   4.663   5.945
 1581SOL    HW2 5643   0.609   4.757   6.074
 1582SOL     OW 5644   4.515   6.205   5.582
 1582SOL    HW1 5645   4.564   6.127   5.541
 1582SOL    HW2 5646   4.469   6.175   5.665
 1583SOL     OW 5647   0.902   6.409   4.900
 1583SOL    HW1 5648   0.803   6.399   4.910
 1583SOL    HW2 5649   0.928   6.383   4.807
 1584SOL     OW 5650   1.476   5.421   6.584
 1584SOL    HW1 5651   1.409   5.433   6.511
 1584SOL    HW2 5652   1.436   5.451   6.671
 1585SOL     OW 5653   3.905   1.019   3.595
 1585SOL    HW1 5654   3.980   1.044   3.656
 1585SOL    HW2 5655   3.910   1.073   3.512
 1586SOL     OW 5656   3.066   5.438   3.183
 1586SOL    HW1 5657   3.134   5.496   3.227
 1586SOL    HW2 5658   2.979   5.488   3.177
 1587SOL     OW 5659   2.327   5.810   6.053
 1587SOL    HW1 5660   2.289   5.796   6.144
 1587SOL    HW2 5661   2.325   5.724   6.002
 1588SOL     OW 5662   4.456   0.153   2.417
 1588SOL    HW1 5663   4.366   0.196   2.414
 1588SOL    HW2 5664   4.508   0.179   2.335
 1589SOL     OW 5665   6.197   3.709   2.610
 1589SOL    HW1 5666   6.163   3.776   2.676
 1589SOL    HW2 5667   6.236   3.631   2.658
 1590SOL     OW 5668   5.352   1.981   3.268
 1590SOL    HW1 5669   5.331   1.899   3.215
 1590SOL    HW2 5670   5.310   2.060   3.224
 1591SOL     OW 5671   6.878   5.643   1.416
 1591SOL    HW1 5672   6.922   5.602   1.496
 1591SOL    HW2 5673   6.936   5.630   1.336
 1592SOL     OW 5674   1.560   4.374   6.505
 1592SOL    HW1 5675   1.613   4.294   6.532
 1592SOL    HW2 5676   1.585   4.452   6.562
 1593SOL     OW 5677   1.235   0.168   6.408
 1593SOL    HW1 5678   1.318   0.134   6.364
 1593SOL    HW2 5679   1.224   0.124   6.497
 1594SOL     OW 5680   6.963   0.418   1.989
 1594SOL    HW1 5681   6.931   0.430   1.895
 1594SOL    HW2 5682   0.034   0.370   1.988
 1595SOL     OW 5683   2.006   3.768   6.944
 1595SOL    HW1 5684   2.057   3.697   6.895
 1595SOL    HW2 5685   1.971   3.730   0.012
 1596SOL     OW 5686   6.183   3.778   3.541
 1596SOL    HW1 5687   6.106   3.757   3.481
 1596SOL    HW2 5688   6.172   3.869   3.580
 1597SOL     OW 5689   2.571   5.601   0.590
 1597SOL    HW1 5690   2.632   5.539   0.540
 1597SOL    HW2 5691   2.495   5.550   0.628
 1598SOL     OW 5692   1.628   5.733   6.683
 1598SOL    HW1 5693   1.677   5.668   6.624
 1598SOL    HW2 5694   1.691   5.771   6.751
 1599SOL     OW 5695   3.858   5.150   4.576
 1599SOL    HW1 5696   3.769   5.183   4.606
 1599SOL    HW2 5697   3.860   5.148   4.476
 1600SOL     OW 5698   3.536   0.992   2.736
 1600SOL    HW1 5699   3.605   1.064   2.743
 1600SOL    HW2 5700   3.447   1.028   2.764
 1601SOL     OW 5701   6.625   6.517   3.610
 1601SOL    HW1 5702   6.636   6.463   3.693
 1601SOL    HW2 5703   6.541   6.488   3.562
 1602SOL     OW 5704   4.680   5.411   3.949
 1602SOL    HW1 5705   4.749   5.433   3.881
 1602SOL    HW2 5706   4.715   5.341   4.011
 1603SOL     OW 5707   2.957   5.588   4.056
 1603SOL    HW1 5708   3.016   5.584   4.137
 1603SOL    HW2 5709   2.969   5.676   4.010
 1604SOL     OW 5710   3.983   4.836   2.194
 1604SOL    HW1 5711   4.018   4.929   2.195
 1604SOL    HW2 5712   3.884   4.838   2.178
 1605SOL     OW 5713   5.803   5.647   1.840
 1605SOL    HW1 5714   5.819   5.548   1.846
 1605SOL    HW2 5715   5.874   5.689   1.783
 1606SOL     OW 5716   3.918   5.610   4.848
 1606SOL    HW1 5717   3.972   5.685   4.885
 1606SOL    HW2 5718   3.821   5.625   4.870
 1607SOL     OW 5719   4.131   0.311   2.134
 1607SOL    HW1 5720   4.052   0.313   2.072
 1607SOL    HW2 5721   4.141   0.220   2.173
 1608SOL     OW 5722   0.102   0.990   3.240
 1608SOL    HW1 5723   0.103   0.924   3.165
 1608SOL    HW2 5724   0.113   1.082   3.205
 1609SOL     OW 5725   3.308   6.035   0.615
 1609SOL    HW1 5726   3.386   5.974   0.607
 1609SOL    HW2 5727   3.308   6.101   0.540
 1610SOL     OW 5728   4.976   6.116   0.625
 1610SOL    HW1 5729   4.923   6.192   0.587
 1610SOL    HW2 5730   5.069   6.146   0.642
 1611SOL     OW 5731   1.272   3.840   0.990
 1611SOL    HW1 5732   1.231   3.760   1.034
 1611SOL    HW2 5733   1.359   3.814   0.948
 1612SOL     OW 5734   2.914   5.850   1.154
 1612SOL    HW1 5735   2.926   5.752   1.137
 1612SOL    HW2 5736   2.919   5.900   1.067
 1613SOL     OW 5737   0.636   5.786   2.468
 1613SOL    HW1 5738   0.705   5.734   2.418
 1613SOL    HW2 5739   0.679   5.865   2.512
 1614SOL     OW 5740   5.561   2.289   6.445
 1614SOL    HW1 5741   5.656   2.320   6.447
 1614SOL    HW2 5742   5.519   2.305   6.534
 1615SOL     OW 5743   0.164   5.143   6.410
 1615SOL    HW1 5744   0.066   5.138   6.433
 1615SOL    HW2 5745   0.209   5.206   6.473
 1616SOL     OW 5746   3.831   0.794   5.128
 1616SOL    HW1 5747   3.820   0.889   5.096
 1616SOL    HW2 5748   3.922   0.782   5.167
 1617SOL     OW 5749   4.799   0.376   3.235
 1617SOL    HW1 5750   4.710   0.345   3.270
 1617SOL    HW2 5751   4.848   0.425   3.306
 1618SOL     OW 5752   1.560   6.010   2.505
 1618SOL    HW1 5753   1.502   5.934   2.476
 1618SOL    HW2 5754   1.650   5.975   2.532
 1619SOL     OW 5755   1.301   5.341   0.261
 1619SOL    HW1 5756   1.271   5.314   0.169
 1619SOL    HW2 5757   1.296   5.262   0.322
 1620SOL     OW 5758   2.620   5.173   1.015
 1620SOL    HW1 5759   2.687   5.240   0.983
 1620SOL    HW2 5760   2.663   5.083   1.020
 1621SOL     OW 5761   6.265   6.459   1.617
 1621SOL    HW1 5762   6.298   6.537   1.670
 1621SOL    HW2 5763   6.168   6.474   1.594
 1622SOL     OW 5764   0.708   4.286   6.108
 1622SOL    HW1 5765   0.620   4.288   6.061
 1622SOL    HW2 5766   0.771   4.352   6.065
 1623SOL     OW 5767   0.325   2.291   4.498
 1623SOL    HW1 5768   0.305   2.389   4.501
 1623SOL    HW2 5769   0.261   2.246   4.436
 1624SOL     OW 5770   3.488   1.237   0.288
 1624SOL    HW1 5771   3.470   1.335   0.302
 1624SOL    HW2 5772   3.586   1.220   0.301
 1625SOL     OW 5773   1.740   5.216   0.252
 1625SOL    HW1 5774   1.714   5.296   0.306
 1625SOL    HW2 5775   1.795   5.154   0.307
 1626SOL     OW 5776   2.842   2.025   2.641
 1626SOL    HW1 5777   2.838   1.936   2.686
 1626SOL    HW2 5778   2.766   2.032   2.576
 1627SOL     OW 5779   5.204   2.817   4.130
 1627SOL    HW1 5780   5.211   2.847   4.035
 1627SOL    HW2 5781   5.295   2.819   4.172
 1628SOL     OW 5782   5.125   5.827   6.487
 1628SOL    HW1 5783   5.218   5.797   6.467
 1628SOL    HW2 5784   5.080   5.760   6.547
 1629SOL     OW 5785   2.754   1.819   3.121
 1629SOL    HW1 5786   2.778   1.822   3.218
 1629SOL    HW2 5787   2.720   1.909   3.093
 1630SOL     OW 5788   0.052   4.131   6.510
 1630SOL    HW1 5789   0.113   4.210   6.515
 1630SOL    HW2 5790   0.041   4.092   6.602
 1631SOL     OW 5791   6.544   3.581   1.321
 1631SOL    HW1 5792   6.502   3.602   1.409
 1631SOL    HW2 5793   6.587   3.490   1.325
 1632SOL     OW 5794   5.085   4.355   2.902
 1632SOL    HW1 5795   5.176   4.395   2.914
 1632SOL    HW2 5796   5.052   4.376   2.810
 1633SOL     OW 5797   4.725   4.335   4.054
 1633SOL    HW1 5798   4.779   4.418   4.041
 1633SOL    HW2 5799   4.751   4.292   4.141
 1634SOL     OW 5800   3.853   0.676   4.466
 1634SOL    HW1 5801   3.801   0.635   4.541
 1634SOL    HW2 5802   3.913   0.606   4.426
 1635SOL     OW 5803   2.671   4.994   6.475
 1635SOL    HW1 5804   2.605   5.067   6.456
 1635SOL    HW2 5805   2.763   5.035   6.483
 1636SOL     OW 5806   3.860   6.192   0.833
 1636SOL    HW1 5807   3.862   6.289   0.812
 1636SOL    HW2 5808   3.953   6.155   0.832
 1637SOL     OW 5809   6.827   6.835   3.376
 1637SOL    HW1 5810   6.745   6.810   3.323
 1637SOL    HW2 5811   6.893   6.759   3.372
 1638SOL     OW 5812   0.338   2.842   1.313
 1638SOL    HW1 5813   0.333   2.930   1.266
 1638SOL    HW2 5814   0.351   2.770   1.245
 1639SOL     OW 5815   6.511   4.169   1.735
 1639SOL    HW1 5816   6.474   4.148   1.645
 1639SOL    HW2 5817   6.443   4.148   1.805
 1640SOL     OW 5818   6.466   0.022   1.154
 1640SOL    HW1 5819   6.464   0.119   1.128
 1640SOL    HW2 5820   6.530   6.990   1.096
 1641SOL     OW 5821   6.760   1.896   3.567
 1641SOL    HW1 5822   6.692   1.835   3.609
 1641SOL    HW2 5823   6.715   1.958   3.504
 1642SOL     OW 5824   6.832   2.430   6.650
 1642SOL    HW1 5825   6.851   2.367   6.725
 1642SOL    HW2 5826   6.878   2.398   6.567
 1643SOL     OW 5827   3.431   5.197   3.154
 1643SOL    HW1 5828   3.511   5.137   3.149
 1643SOL    HW2 5829   3.460   5.292   3.166
 1644SOL     OW 5830   5.835   2.828   0.274
 1644SOL    HW1 5831   5.801   2.739   0.246
 1644SOL    HW2 5832   5.877   2.875   0.196
 1645SOL     OW 5833   2.872   0.241   6.309
 1645SOL    HW1 5834   2.800   0.187   6.353
 1645SOL    HW2 5835   2.930   0.283   6.380
 1646SOL     OW 5836   1.825   6.309   6.580
 1646SOL    HW1 5837   1.798   6.405   6.572
 1646SOL    HW2 5838   1.872   6.280   6.497
 1647SOL     OW 5839   5.581   2.698   3.995
 1647SOL    HW1 5840   5.549   2.619   4.047
 1647SOL    HW2 5841   5.674   2.680   3.962
 1648SOL     OW 5842   5.633   6.365   6.930
 1648SOL    HW1 5843   5.678   6.454   6.934
 1648SOL    HW2 5844   5.668   6.306   7.003
 1649SOL     OW 5845   3.332   0.666   3.651
 1649SOL    HW1 5846   3.277   0.656   3.568
 1649SOL    HW2 5847   3.404   0.733   3.635
 1650SOL     OW 5848   1.521   5.305   6.264
 1650SOL    HW1 5849   1.438   5.331   6.313
 1650SOL    HW2 5850   1.545   5.211   6.289
 1651SOL     OW 5851   6.903   2.549   3.066
 1651SOL    HW1 5852   6.869   2.455   3.064
 1651SOL    HW2 5853   6.975   2.557   3.134
 1652SOL     OW 5854   0.887   3.188   1.546
 1652SOL    HW1 5855   0.983   3.165   1.564
 1652SOL    HW2 5856   0.851   3.129   1.473
 1653SOL     OW 5857   0.002   5.873   2.251
 1653SOL    HW1 5858   6.960   5.824   2.188
 1653SOL    HW2 5859   0.095   5.874   2.214
 1654SOL     OW 5860   0.585   3.142   1.439
 1654SOL    HW1 5861   0.488   3.124   1.425
 1654SOL    HW2 5862   0.638   3.102   1.364
 1655SOL     OW 5863   0.051   0.851   4.394
 1655SOL    HW1 5864   0.046   0.948   4.370
 1655SOL    HW2 5865   0.135   0.834   4.446
 1656SOL     OW 5866   2.409   5.629   3.726
 1656SOL    HW1 5867   2.498   5.650   3.686
 1656SOL    HW2 5868   2.422   5.570   3.806
 1657SOL     OW 5869   6.367   1.143   4.606
 1657SOL    HW1 5870   6.378   1.241   4.590
 1657SOL    HW2 5871   6.287   1.127   4.662
 1658SOL     OW 5872   6.990   0.211   0.351
 1658SOL    HW1 5873   0.016   0.222   0.440
 1658SOL    HW2 5874   6.911   0.151   0.359
 1659SOL     OW 5875   4.131   0.060   0.102
 1659SOL    HW1 5876   4.179   0.012   0.029
 1659SOL    HW2 5877   4.182   0.049   0.188
 1660SOL     OW 5878   1.616   6.909   2.271
 1660SOL    HW1 5879   1.685   6.950   2.330
 1660SOL    HW2 5880   1.526   6.921   2.312
 1661SOL     OW 5881   2.798   5.393   1.962
 1661SOL    HW1 5882   2.822   5.458   2.034
 1661SOL    HW2 5883   2.799   5.300   1.999
 1662SOL     OW 5884   6.854   1.077   5.475
 1662SOL    HW1 5885   6.813   1.115   5.392
 1662SOL    HW2 5886   6.787   1.019   5.522
 1663SOL     OW 5887   5.168   5.298   2.655
 1663SOL    HW1 5888   5.221   5.218   2.629
 1663SOL    HW2 5889   5.106   5.275   2.729
 1664SOL     OW 5890   1.327   0.563   5.214
 1664SOL    HW1 5891   1.278   0.544   5.300
 1664SOL    HW2 5892   1.387   0.486   5.193
 1665SOL     OW 5893   1.245   3.321   1.361
 1665SOL    HW1 5894   1.150   3.346   1.382
 1665SOL    HW2 5895   1.291   3.291   1.445
 1666SOL     OW 5896   5.635   6.612   6.673
 1666SOL    HW1 5897   5.540   6.642   6.664
 1666SOL    HW2 5898   5.656   6.547   6.600
 1667SOL     OW 5899   6.943   6.755   1.133
 1667SOL    HW1 5900   6.977   6.849   1.125
 1667SOL    HW2 5901   6.874   6.751   1.205
 1668SOL     OW 5902   5.048   5.056   3.888
 1668SOL    HW1 5903   5.087   5.123   3.824
 1668SOL    HW2 5904   4.952   5.042   3.865
 1669SOL     OW 5905   0.070   4.309   5.521
 1669SOL    HW1 5906   0.152   4.327   5.467
 1669SOL    HW2 5907   0.013   4.242   5.475
 1670SOL     OW 5908   1.273   4.672   5.738
 1670SOL    HW1 5909   1.275   4.572   5.741
 1670SOL    HW2 5910   1.359   4.706   5.699
 1671SOL     OW 5911   5.242   1.789   3.115
 1671SOL    HW1 5912   5.274   1.792   3.020
 1671SOL    HW2 5913   5.154   1.742   3.120
 1672SOL     OW 5914   1.297   3.901   6.869
 1672SOL    HW1 5915   1.262   3.982   6.917
 1672SOL    HW2 5916   1.228   3.868   6.805
 1673SOL     OW 5917   2.204   1.826   4.905
 1673SOL    HW1 5918   2.196   1.788   4.998
 1673SOL    HW2 5919   2.247   1.758   4.846
 1674SOL     OW 5920   5.968   2.605   2.309
 1674SOL    HW1 5921   5.891   2.648   2.357
 1674SOL    HW2 5922   5.945   2.511   2.285
 1675SOL     OW 5923   4.956   0.141   0.905
 1675SOL    HW1 5924   4.889   0.173   0.972
 1675SOL    HW2 5925   5.041   0.118   0.952
 1676SOL     OW 5926   1.954   2.487   2.756
 1676SOL    HW1 5927   1.888   2.556   2.725
 1676SOL    HW2 5928   2.025   2.476   2.687
 1677SOL     OW 5929   3.779   4.021   3.025
 1677SOL    HW1 5930   3.767   4.105   2.971
 1677SOL    HW2 5931   3.844   3.961   2.979
 1678SOL     OW 5932   0.694   6.058   1.312
 1678SOL    HW1 5933   0.644   6.112   1.379
 1678SOL    HW2 5934   0.642   6.053   1.227
 1679SOL     OW 5935   1.187   1.269   4.994
 1679SOL    HW1 5936   1.133   1.344   5.031
 1679SOL    HW2 5937   1.128   1.188   4.982
 1680SOL     OW 5938   5.366   3.223   4.854
 1680SOL    HW1 5939   5.402   3.194   4.765
 1680SOL    HW2 5940   5.267   3.215   4.855
 1681SOL     OW 5941   1.875   5.551   4.869
 1681SOL    HW1 5942   1.951   5.585   4.923
 1681SOL    HW2 5943   1.857   5.615   4.794
 1682SOL     OW 5944   2.382   0.532   5.834
 1682SOL    HW1 5945   2.356   0.542   5.930
 1682SOL    HW2 5946   2.378   0.435   5.808
 1683SOL     OW 5947   5.264   6.180   3.019
 1683SOL    HW1 5948   5.352   6.219   3.045
 1683SOL    HW2 5949   5.240   6.106   3.083
 1684SOL     OW 5950   0.963   4.579   1.798
 1684SOL    HW1 5951   1.037   4.569   1.865
 1684SOL    HW2 5952   0.882   4.530   1.831
 1685SOL     OW 5953   2.072   2.232   5.550
 1685SOL    HW1 5954   2.024   2.170   5.612
 1685SOL    HW2 5955   2.149   2.185   5.509
 1686SOL     OW 5956   4.015   5.333   3.819
 1686SOL    HW1 5957   4.092   5.293   3.869
 1686SOL    HW2 5958   4.028   5.432   3.813
 1687SOL     OW 5959   0.326   4.140   1.364
 1687SOL    HW1 5960   0.354   4.180   1.451
 1687SOL    HW2 5961   0.331   4.210   1.292
 1688SOL     OW 5962   1.675   2.530   3.774
 1688SOL    HW1 5963   1.579   2.542   3.745
 1688SOL    HW2 5964   1.735   2.570   3.706
 1689SOL     OW 5965   6.616   1.004   2.367
 1689SOL    HW1 5966   6.629   1.059   2.450
 1689SOL    HW2 5967   6.549   1.049   2.308
 1690SOL     OW 5968   1.182   3.243   4.106
 1690SOL    HW1 5969   1.229   3.207   4.187
 1690SOL    HW2 5970   1.244   3.238   4.027
 1691SOL     OW 5971   4.848   3.692   4.194
 1691SOL    HW1 5972   4.780   3.633   4.237
 1691SOL    HW2 5973   4.862   3.773   4.251
 1692SOL     OW 5974   5.710   5.320   1.367
 1692SOL    HW1 5975   5.674   5.400   1.417
 1692SOL    HW2 5976   5.744   5.349   1.277
 1693SOL     OW 5977   0.081   1.655   4.631
 1693SOL    HW1 5978   0.093   1.730   4.565
 1693SOL    HW2 5979   0.125   1.679   4.717
 1694SOL     OW 5980   6.206   1.029   4.391
 1694SOL    HW1 5981   6.244   1.076   4.471
 1694SOL    HW2 5982   6.274   1.029   4.317
 1695SOL     OW 5983   3.528   0.600   6.903
 1695SOL    HW1 5984   3.472   0.673   6.942
 1695SOL    HW2 5985   3.578   0.635   6.824
 1696SOL     OW 5986   4.195   5.675   0.679
 1696SOL    HW1 5987   4.241   5.728   0.750
 1696SOL    HW2 5988   4.097   5.675   0.696
 1697SOL     OW 5989   5.731   2.238   0.960
 1697SOL    HW1 5990   5.759   2.294   0.881
 1697SOL    HW2 5991   5.699   2.298   1.033
 1698SOL     OW 5992   3.625   0.782   1.676
 1698SOL    HW1 5993   3.638   0.724   1.757
 1698SOL    HW2 5994   3.662   0.873   1.694
 1699SOL     OW 5995   2.522   1.885   6.022
 1699SOL    HW1 5996   2.519   1.983   6.043
 1699SOL    HW2 5997   2.560   1.835   6.100
 1700SOL     OW 5998   5.686   3.371   3.773
 1700SOL    HW1 5999   5.617   3.360   3.702
 1700SOL    HW2 6000   5.769   3.410   3.733
 1701SOL     OW 6001   6.199   5.105   4.823
 1701SOL    HW1 6002   6.126   5.064   4.768
 1701SOL    HW2 6003   6.160   5.157   4.898
 1702SOL     OW 6004   1.737   0.962   6.080
 1702SOL    HW1 6005   1.703   0.988   5.990
 1702SOL    HW2 6006   1.832   0.993   6.090
 1703SOL     OW 6007   3.798   1.470   5.912
 1703SOL    HW1 6008   3.756   1.380   5.898
 1703SOL    HW2 6009   3.727   1.541   5.907
 1704SOL     OW 6010   1.306   1.819   6.764
 1704SOL    HW1 6011   1.324   1.727   6.797
 1704SOL    HW2 6012   1.288   1.816   6.665
 1705SOL     OW 6013   4.021   1.899   2.164
 1705SOL    HW1 6014   3.989   1.989   2.192
 1705SOL    HW2 6015   3.945   1.835   2.162
 1706SOL     OW 6016   4.214   1.636   0.989
 1706SOL    HW1 6017   4.150   1.617   1.063
 1706SOL    HW2 6018   4.214   1.735   0.970
 1707SOL     OW 6019   4.578   1.793   3.176
 1707SOL    HW1 6020   4.614   1.791   3.083
 1707SOL    HW2 6021   4.570   1.700   3.211
 1708SOL     OW 6022   3.891   5.578   1.924
 1708SOL    HW1 6023   3.855   5.574   2.017
 1708SOL    HW2 6024   3.833   5.637   1.868
 1709SOL     OW 6025   4.526   6.571   0.879
 1709SOL    HW1 6026   4.588   6.606   0.808
 1709SOL    HW2 6027   4.503   6.644   0.942
 1710SOL     OW 6028   4.225   4.891   3.281
 1710SOL    HW1 6029   4.281   4.888   3.364
 1710SOL    HW2 6030   4.129   4.902   3.306
 1711SOL     OW 6031   2.672   4.797   5.744
 1711SOL    HW1 6032   2.764   4.835   5.737
 1711SOL    HW2 6033   2.626   4.801   5.655
 1712SOL     OW 6034   0.199   2.453   4.984
 1712SOL    HW1 6035   0.149   2.397   4.918
 1712SOL    HW2 6036   0.282   2.489   4.941
 1713SOL     OW 6037   3.591   1.187   2.140
 1713SOL    HW1 6038   3.654   1.248   2.187
 1713SOL    HW2 6039   3.545   1.236   2.066
 1714SOL     OW 6040   2.884   2.099   6.992
 1714SOL    HW1 6041   2.834   2.036   6.933
 1714SOL    HW2 6042   2.981   2.095   6.970
 1715SOL     OW 6043   1.973   5.611   2.279
 1715SOL    HW1 6044   2.037   5.535   2.277
 1715SOL    HW2 6045   2.017   5.692   2.318
 1716SOL     OW 6046   4.786   7.003   4.021
 1716SOL    HW1 6047   4.816   6.916   4.061
 1716SOL    HW2 6048   4.863   0.049   4.020
 1717SOL     OW 6049   4.060   5.532   5.185
 1717SOL    HW1 6050   4.135   5.590   5.152
 1717SOL    HW2 6051   4.031   5.470   5.112
 1718SOL     OW 6052   2.582   2.211   2.527
 1718SOL    HW1 6053   2.660   2.256   2.483
 1718SOL    HW2 6054   2.513   2.190   2.458
 1719SOL     OW 6055   1.453   4.617   1.124
 1719SOL    HW1 6056   1.518   4.612   1.200
 1719SOL    HW2 6057   1.361   4.631   1.160
 1720SOL     OW 6058   0.257   2.989   5.918
 1720SOL    HW1 6059   0.206   3.073   5.901
 1720SOL    HW2 6060   0.242   2.959   6.012
 1721SOL     OW 6061   1.307   0.237   2.512
 1721SOL    HW1 6062   1.219   0.264   2.473
 1721SOL    HW2 6063   1.291   0.185   2.596
 1722SOL     OW 6064   3.005   1.816   3.022
 1722SOL    HW1 6065   3.049   1.906   3.022
 1722SOL    HW2 6066   2.909   1.825   3.048
 1723SOL     OW 6067   4.931   1.778   6.915
 1723SOL    HW1 6068   4.944   1.679   6.921
 1723SOL    HW2 6069   5.019   1.821   6.897
 1724SOL     OW 6070   6.191   2.126   1.483
 1724SOL    HW1 6071   6.121   2.180   1.435
 1724SOL    HW2 6072   6.236   2.184   1.551
 1725SOL     OW 6073   1.991   4.314   6.664
 1725SOL    HW1 6074   2.046   4.395   6.684
 1725SOL    HW2 6075   2.036   4.233   6.703
 1726SOL     OW 6076   5.847   3.924   3.742
 1726SOL    HW1 6077   5.826   3.826   3.752
 1726SOL    HW2 6078   5.946   3.936   3.737
 1727SOL     OW 6079   3.360   3.494   3.349
 1727SOL    HW1 6080   3.385   3.427   3.280
 1727SOL    HW2 6081   3.442   3.533   3.390
 1728SOL     OW 6082   4.594   4.305   5.673
 1728SOL    HW1 6083   4.545   4.307   5.586
 1728SOL    HW2 6084   4.617   4.211   5.697
 1729SOL     OW 6085   1.125   3.820   2.082
 1729SOL    HW1 6086   1.069   3.901   2.101
 1729SOL    HW2 6087   1.070   3.752   2.034
 1730SOL     OW 6088   2.878   6.317   5.139
 1730SOL    HW1 6089   2.942   6.241   5.146
 1730SOL    HW2 6090   2.812   6.312   5.214
 1731SOL     OW 6091   5.454   4.769   3.666
 1731SOL    HW1 6092   5.477   4.859   3.629
 1731SOL    HW2 6093   5.534   4.730   3.711
 1732SOL     OW 6094   2.089   4.418   6.148
 1732SOL    HW1 6095   2.180   4.388   6.120
 1732SOL    HW2 6096   2.085   4.425   6.248
 1733SOL     OW 6097   2.542   4.244   0.281
 1733SOL    HW1 6098   2.489   4.239   0.196
 1733SOL    HW2 6099   2.563   4.340   0.301
 1734SOL     OW 6100   6.338   3.138   1.457
 1734SOL    HW1 6101   6.277   3.216   1.468
 1734SOL    HW2 6102   6.285   3.053   1.461
 1735SOL     OW 6103   4.672   5.085   6.581
 1735SOL    HW1 6104   4.690   5.096   6.679
 1735SOL    HW2 6105   4.610   5.157   6.550
 1736SOL     OW 6106   4.229   3.948   1.324
 1736SOL    HW1 6107   4.167   3.873   1.300
 1736SOL    HW2 6108   4.234   4.012   1.247
 1737SOL     OW 6109   5.459   0.876   4.010
 1737SOL    HW1 6110   5.395   0.811   4.050
 1737SOL    HW2 6111   5.484   0.846   3.918
 1738SOL     OW 6112   2.136   3.779   4.491
 1738SOL    HW1 6113   2.055   3.724   4.474
 1738SOL    HW2 6114   2.183   3.745   4.573
 1739SOL     OW 6115   5.829   0.320   4.192
 1739SOL    HW1 6116   5.778   0.391   4.144
 1739SOL    HW2 6117   5.785   0.232   4.179
 1740SOL     OW 6118   7.006   1.905   4.895
 1740SOL    HW1 6119   0.064   1.960   4.929
 1740SOL    HW2 6120   6.991   1.925   4.798
 1741SOL     OW 6121   1.514   1.984   3.442
 1741SOL    HW1 6122   1.478   2.056   3.502
 1741SOL    HW2 6123   1.604   1.955   3.474
 1742SOL     OW 6124   5.996   0.283   6.036
 1742SOL    HW1 6125   5.996   0.381   6.018
 1742SOL    HW2 6126   5.990   0.233   5.950
 1743SOL     OW 6127   1.210   1.962   2.992
 1743SOL    HW1 6128   1.118   1.951   2.955
 1743SOL    HW2 6129   1.272   1.988   2.918
 1744SOL     OW 6130   4.948   2.355   3.487
 1744SOL    HW1 6131   4.926   2.381   3.393
 1744SOL    HW2 6132   5.044   2.326   3.491
 1745SOL     OW 6133   6.346   6.144   0.990
 1745SOL    HW1 6134   6.321   6.224   0.935
 1745SOL    HW2 6135   6.404   6.083   0.936
 1746SOL     OW 6136   2.151   3.627   3.764
 1746SOL    HW1 6137   2.095   3.549   3.735
 1746SOL    HW2 6138   2.160   3.626   3.864
 1747SOL     OW 6139   3.803   1.739   2.224
 1747SOL    HW1 6140   3.720   1.723   2.170
 1747SOL    HW2 6141   3.798   1.689   2.310
 1748SOL     OW 6142   6.534   1.677   4.259
 1748SOL    HW1 6143   6.588   1.629   4.190
 1748SOL    HW2 6144   6.589   1.689   4.342
 1749SOL     OW 6145   3.102   6.227   0.913
 1749SOL    HW1 6146   3.097   6.133   0.879
 1749SOL    HW2 6147   3.097   6.291   0.837
 1750SOL     OW 6148   4.131   0.898   4.911
 1750SOL    HW1 6149   4.112   0.974   4.849
 1750SOL    HW2 6150   4.172   0.934   4.995
 1751SOL     OW 6151   5.977   2.572   4.991
 1751SOL    HW1 6152   5.981   2.660   4.943
 1751SOL    HW2 6153   6.069   2.535   5.000
 1752SOL     OW 6154   6.457   1.203   1.205
 1752SOL    HW1 6155   6.502   1.152   1.279
 1752SOL    HW2 6156   6.434   1.295   1.237
 1753SOL     OW 6157   6.863   1.525   1.721
 1753SOL    HW1 6158   6.904   1.521   1.812
 1753SOL    HW2 6159   6.774   1.569   1.726
 1754SOL     OW 6160   2.953   5.838   5.880
 1754SOL    HW1 6161   2.949   5.910   5.950
 1754SOL    HW2 6162   3.041   5.791   5.887
 1755SOL     OW 6163   6.453   6.776   5.099
 1755SOL    HW1 6164   6.485   6.711   5.031
 1755SOL    HW2 6165   6.381   6.735   5.154
 1756SOL     OW 6166   5.084   0.256   6.247
 1756SOL    HW1 6167   5.042   0.328   6.192
 1756SOL    HW2 6168   5.053   0.263   6.342
 1757SOL     OW 6169   2.293   5.282   4.216
 1757SOL    HW1 6170   2.311   5.192   4.177
 1757SOL    HW2 6171   2.273   5.273   4.314
 1758SOL     OW 6172   1.835   6.626   5.272
 1758SOL    HW1 6173   1.934   6.618   5.285
 1758SOL    HW2 6174   1.817   6.690   5.197
 1759SOL     OW 6175   1.675   6.089   6.232
 1759SOL    HW1 6176   1.615   6.036   6.172
 1759SOL    HW2 6177   1.641   6.084   6.326
 1760SOL     OW 6178   6.093   0.910   4.951
 1760SOL    HW1 6179   6.083   0.887   4.854
 1760SOL    HW2 6180   6.084   1.009   4.962
 1761SOL     OW 6181   6.625   1.341   1.046
 1761SOL    HW1 6182   6.599   1.437   1.049
 1761SOL    HW2 6183   6.577   1.291   1.118
 1762SOL     OW 6184   0.562   1.397   5.023
 1762SOL    HW1 6185   0.587   1.312   5.070
 1762SOL    HW2 6186   0.582   1.475   5.082
 1763SOL     OW 6187   1.216   4.230   4.844
 1763SOL    HW1 6188   1.138   4.282   4.878
 1763SOL    HW2 6189   1.215   4.230   4.744
 1764SOL     OW 6190   1.373   3.933   1.957
 1764SOL    HW1 6191   1.327   3.921   2.045
 1764SOL    HW2 6192   1.309   3.916   1.883
 1765SOL     OW 6193   4.896   2.582   1.460
 1765SOL    HW1 6194   4.965   2.516   1.489
 1765SOL    HW2 6195   4.893   2.658   1.525
 1766SOL     OW 6196   4.414   4.550   3.745
 1766SOL    HW1 6197   4.387   4.547   3.649
 1766SOL    HW2 6198   4.484   4.480   3.762
 1767SOL     OW 6199   0.144   5.377   2.644
 1767SOL    HW1 6200   0.116   5.305   2.706
 1767SOL    HW2 6201   0.167   5.460   2.696
 1768SOL     OW 6202   4.391   6.267   1.320
 1768SOL    HW1 6203   4.377   6.365   1.330
 1768SOL    HW2 6204   4.486   6.245   1.340
 1769SOL     OW 6205   6.164   0.602   6.522
 1769SOL    HW1 6206   6.231   0.573   6.453
 1769SOL    HW2 6207   6.173   0.701   6.537
 1770SOL     OW 6208   1.289   4.660   5.337
 1770SOL    HW1 6209   1.227   4.733   5.307
 1770SOL    HW2 6210   1.236   4.581   5.368
 1771SOL     OW 6211   1.111   4.492   6.763
 1771SOL    HW1 6212   1.144   4.569   6.818
 1771SOL    HW2 6213   1.187   4.449   6.716
 1772SOL     OW 6214   3.614   5.230   3.870
 1772SOL    HW1 6215   3.527   5.242   3.821
 1772SOL    HW2 6216   3.657   5.145   3.840
 1773SOL     OW 6217   0.802   0.728   5.097
 1773SOL    HW1 6218   0.824   0.634   5.072
 1773SOL    HW2 6219   0.703   0.741   5.090
 1774SOL     OW 6220   5.893   6.631   2.023
 1774SOL    HW1 6221   5.831   6.646   2.100
 1774SOL    HW2 6222   5.928   6.719   1.991
 1775SOL     OW 6223   2.170   5.239   6.227
 1775SOL    HW1 6224   2.235   5.162   6.222
 1775SOL    HW2 6225   2.080   5.204   6.250
 1776SOL     OW 6226   5.304   1.297   5.824
 1776SOL    HW1 6227   5.221   1.301   5.767
 1776SOL    HW2 6228   5.384   1.286   5.765
 1777SOL     OW 6229   4.642   6.673   6.368
 1777SOL    HW1 6230   4.709   6.693   6.440
 1777SOL    HW2 6231   4.587   6.755   6.349
 1778SOL     OW 6232   5.665   1.509   4.163
 1778SOL    HW1 6233   5.652   1.593   4.216
 1778SOL    HW2 6234   5.619   1.517   4.075
 1779SOL     OW 6235   4.965   0.257   5.013
 1779SOL    HW1 6236   5.033   0.183   5.010
 1779SOL    HW2 6237   4.962   0.304   4.925
 1780SOL     OW 6238   1.298   5.556   4.769
 1780SOL    HW1 6239   1.372   5.557   4.702
 1780SOL    HW2 6240   1.319   5.488   4.840
 1781SOL     OW 6241   4.577   0.305   4.261
 1781SOL    HW1 6242   4.565   0.393   4.307
 1781SOL    HW2 6243   4.620   0.241   4.324
 1782SOL     OW 6244   1.780   1.737   2.870
 1782SOL    HW1 6245   1.830   1.823   2.864
 1782SOL    HW2 6246   1.844   1.662   2.880
 1783SOL     OW 6247   2.118   3.517   5.931
 1783SOL    HW1 6248   2.068   3.512   6.018
 1783SOL    HW2 6249   2.113   3.610   5.895
 1784SOL     OW 6250   2.591   0.518   1.168
 1784SOL    HW1 6251   2.540   0.509   1.254
 1784SOL    HW2 6252   2.542   0.580   1.107
 1785SOL     OW 6253   0.300   6.380   4.246
 1785SOL    HW1 6254   0.359   6.388   4.325
 1785SOL    HW2 6255   0.340   6.316   4.180
 1786SOL     OW 6256   1.913   5.643   0.910
 1786SOL    HW1 6257   1.947   5.586   0.985
 1786SOL    HW2 6258   1.815   5.625   0.896
 1787SOL     OW 6259   1.533   2.491   5.419
 1787SOL    HW1 6260   1.498   2.462   5.508
 1787SOL    HW2 6261   1.482   2.571   5.387
 1788SOL     OW 6262   4.312   3.976   0.561
 1788SOL    HW1 6263   4.410   3.991   0.571
 1788SOL    HW2 6264   4.291   3.957   0.465
 1789SOL     OW 6265   6.430   3.401   1.773
 1789SOL    HW1 6266   6.403   3.406   1.869
 1789SOL    HW2 6267   6.350   3.382   1.716
 1790SOL     OW 6268   2.935   1.752   4.500
 1790SOL    HW1 6269   2.953   1.742   4.598
 1790SOL    HW2 6270   2.998   1.820   4.462
 1791SOL     OW 6271   6.324   1.075   3.569
 1791SOL    HW1 6272   6.422   1.082   3.587
 1791SOL    HW2 6273   6.289   1.164   3.539
 1792SOL     OW 6274   0.141   2.250   5.353
 1792SOL    HW1 6275   0.232   2.224   5.385
 1792SOL    HW2 6276   0.146   2.340   5.308
 1793SOL     OW 6277   0.151   1.284   5.232
 1793SOL    HW1 6278   0.130   1.258   5.137
 1793SOL    HW2 6279   0.126   1.208   5.293
 1794SOL     OW 6280   6.542   0.313   6.352
 1794SOL    HW1 6281   6.601   0.326   6.432
 1794SOL    HW2 6282   6.462   0.373   6.359
 1795SOL     OW 6283   5.860   4.863   0.321
 1795SOL    HW1 6284   5.779   4.813   0.291
 1795SOL    HW2 6285   5.834   4.955   0.350
 1796SOL     OW 6286   1.649   6.958   5.349
 1796SOL    HW1 6287   1.630   6.869   5.391
 1796SOL    HW2 6288   1.675   0.006   5.420
 1797SOL     OW 6289   1.812   6.427   4.961
 1797SOL    HW1 6290   1.800   6.501   4.894
 1797SOL    HW2 6291   1.726   6.377   4.971
 1798SOL     OW 6292   3.418   3.126   4.461
 1798SOL    HW1 6293   3.479   3.048   4.453
 1798SOL    HW2 6294   3.437   3.175   4.546
 1799SOL     OW 6295   3.409   0.471   6.618
 1799SOL    HW1 6296   3.368   0.540   6.559
 1799SOL    HW2 6297   3.339   0.434   6.680
 1800SOL     OW 6298   5.145   4.364   4.019
 1800SOL    HW1 6299   5.066   4.396   3.967
 1800SOL    HW2 6300   5.226   4.416   3.992
 1801SOL     OW 6301   1.202   1.097   1.956
 1801SOL    HW1 6302   1.206   1.070   2.053
 1801SOL    HW2 6303   1.232   1.191   1.947
 1802SOL     OW 6304   6.500   4.655   3.628
 1802SOL    HW1 6305   6.410   4.653   3.672
 1802SOL    HW2 6306   6.572   4.646   3.697
 1803SOL     OW 6307   6.795   6.390   2.428
 1803SOL    HW1 6308   6.695   6.388   2.429
 1803SOL    HW2 6309   6.830   6.297   2.442
 1804SOL     OW 6310   3.129   3.769   6.130
 1804SOL    HW1 6311   3.187   3.806   6.057
 1804SOL    HW2 6312   3.110   3.673   6.113
 1805SOL     OW 6313   0.854   6.737   6.217
 1805SOL    HW1 6314   0.926   6.704   6.155
 1805SOL    HW2 6315   0.797   6.660   6.245
 1806SOL     OW 6316   6.539   2.353   2.365
 1806SOL    HW1 6317   6.464   2.400   2.412
 1806SOL    HW2 6318   6.508   2.326   2.273
 1807SOL     OW 6319   6.736   3.825   0.968
 1807SOL    HW1 6320   6.720   3.727   0.958
 1807SOL    HW2 6321   6.701   3.856   1.057
 1808SOL     OW 6322   4.822   2.640   5.290
 1808SOL    HW1 6323   4.867   2.696   5.359
 1808SOL    HW2 6324   4.796   2.698   5.212
 1809SOL     OW 6325   3.809   2.318   5.318
 1809SOL    HW1 6326   3.716   2.283   5.315
 1809SOL    HW2 6327   3.863   2.276   5.246
 1810SOL     OW 6328   0.175   0.109   3.902
 1810SOL    HW1 6329   0.171   0.209   3.899
 1810SOL    HW2 6330   0.085   0.072   3.924
 1811SOL     OW 6331   3.836   5.104   2.394
 1811SOL    HW1 6332   3.894   5.140   2.321
 1811SOL    HW2 6333   3.792   5.020   2.364
 1812SOL     OW 6334   4.213   0.114   6.246
 1812SOL    HW1 6335   4.196   0.209   6.271
 1812SOL    HW2 6336   4.308   0.103   6.217
 1813SOL     OW 6337   4.607   4.894   2.673
 1813SOL    HW1 6338   4.700   4.862   2.652
 1813SOL    HW2 6339   4.560   4.919   2.589
 1814SOL     OW 6340   0.323   6.818   0.644
 1814SOL    HW1 6341   0.360   6.767   0.722
 1814SOL    HW2 6342   0.396   6.868   0.599
 1815SOL     OW 6343   5.658   5.684   2.400
 1815SOL    HW1 6344   5.597   5.605   2.388
 1815SOL    HW2 6345   5.617   5.765   2.359
 1816SOL     OW 6346   4.177   5.879   5.617
 1816SOL    HW1 6347   4.264   5.865   5.663
 1816SOL    HW2 6348   4.194   5.897   5.520
 1817SOL     OW 6349   2.933   1.586   3.189
 1817SOL    HW1 6350   2.924   1.505   3.132
 1817SOL    HW2 6351   2.957   1.665   3.132
 1818SOL     OW 6352   1.710   6.563   6.966
 1818SOL    HW1 6353   1.708   6.473   6.922
 1818SOL    HW2 6354   1.774   6.622   6.917
 1819SOL     OW 6355   0.747   4.494   2.638
 1819SOL    HW1 6356   0.701   4.540   2.562
 1819SOL    HW2 6357   0.688   4.420   2.672
 1820SOL     OW 6358   3.910   0.160   3.448
 1820SOL    HW1 6359   3.920   0.258   3.462
 1820SOL    HW2 6360   3.936   0.111   3.531
 1821SOL     OW 6361   3.434   1.182   1.915
 1821SOL    HW1 6362   3.437   1.094   1.962
 1821SOL    HW2 6363   3.343   1.222   1.925
 1822SOL     OW 6364   0.819   3.382   2.038
 1822SOL    HW1 6365   0.800   3.293   1.995
 1822SOL    HW2 6366   0.758   3.394   2.116
 1823SOL     OW 6367   3.905   6.318   2.310
 1823SOL    HW1 6368   3.985   6.359   2.355
 1823SOL    HW2 6369   3.839   6.389   2.288
 1824SOL     OW 6370   3.876   4.441   1.407
 1824SOL    HW1 6371   3.918   4.396   1.486
 1824SOL    HW2 6372   3.831   4.373   1.350
 1825SOL     OW 6373   1.667   2.550   4.825
 1825SOL    HW1 6374   1.701   2.462   4.792
 1825SOL    HW2 6375   1.720   2.623   4.783
 1826SOL     OW 6376   3.494   2.029   1.574
 1826SOL    HW1 6377   3.561   1.996   1.641
 1826SOL    HW2 6378   3.465   2.121   1.599
 1827SOL     OW 6379   5.342   4.865   0.729
 1827SOL    HW1 6380   5.437   4.834   0.733
 1827SOL    HW2 6381   5.304   4.865   0.822
 1828SOL     OW 6382   1.280   3.554   5.966
 1828SOL    HW1 6383   1.201   3.578   6.022
 1828SOL    HW2 6384   1.344   3.631   5.963
 1829SOL     OW 6385   3.883   0.563   4.091
 1829SOL    HW1 6386   3.892   0.508   4.174
 1829SOL    HW2 6387   3.927   0.652   4.104
 1830SOL     OW 6388   6.153   6.968   4.540
 1830SOL    HW1 6389   6.202   0.023   4.587
 1830SOL    HW2 6390   6.057   6.994   4.528
 1831SOL     OW 6391   5.231   5.229   3.003
 1831SOL    HW1 6392   5.198   5.137   3.027
 1831SOL    HW2 6393   5.164   5.297   3.033
 1832SOL     OW 6394   2.220   3.945   0.494
 1832SOL    HW1 6395   2.183   3.964   0.403
 1832SOL    HW2 6396   2.320   3.943   0.488
 1833SOL     OW 6397   5.078   0.001   2.016
 1833SOL    HW1 6398   5.100   6.972   2.102
 1833SOL    HW2 6399   5.118   0.092   2.016
 1834SOL     OW 6400   2.936   2.312   0.155
 1834SOL    HW1 6401   2.908   2.239   0.092
 1834SOL    HW2 6402   2.955   2.273   0.245
 1835SOL     OW 6403   0.468   5.056   1.401
 1835SOL    HW1 6404   0.411   5.077   1.322
 1835SOL    HW2 6405   0.413   5.006   1.469
 1836SOL     OW 6406   5.684   1.695   2.195
 1836SOL    HW1 6407   5.728   1.706   2.105
 1836SOL    HW2 6408   5.671   1.598   2.215
 1837SOL     OW 6409   2.548   0.768   6.002
 1837SOL    HW1 6410   2.562   0.782   6.100
 1837SOL    HW2 6411   2.515   0.675   5.986
 1838SOL     OW 6412   5.951   0.837   0.607
 1838SOL    HW1 6413   5.948   0.738   0.593
 1838SOL    HW2 6414   6.017   0.858   0.679
 1839SOL     OW 6415   5.898   1.502   0.370
 1839SOL    HW1 6416   5.922   1.590   0.328
 1839SOL    HW2 6417   5.930   1.501   0.465
 1840SOL     OW 6418   3.727   0.329   3.095
 1840SOL    HW1 6419   3.809   0.382   3.118
 1840SOL    HW2 6420   3.746   0.232   3.107
 1841SOL     OW 6421   2.135   0.275   2.258
 1841SOL    HW1 6422   2.123   0.345   2.328
 1841SOL    HW2 6423   2.231   0.246   2.255
 1842SOL     OW 6424   1.933   4.589   0.829
 1842SOL    HW1 6425   1.861   4.655   0.808
 1842SOL    HW2 6426   1.929   4.566   0.927
 1843SOL     OW 6427   3.495   1.412   4.673
 1843SOL    HW1 6428   3.425   1.483   4.676
 1843SOL    HW2 6429   3.576   1.444   4.723
 1844SOL     OW 6430   5.192   1.208   6.290
 1844SOL    HW1 6431   5.182   1.214   6.390
 1844SOL    HW2 6432   5.101   1.200   6.248
 1845SOL     OW 6433   2.466   0.998   3.288
 1845SOL    HW1 6434   2.431   1.000   3.382
 1845SOL    HW2 6435   2.406   0.941   3.231
 1846SOL     OW 6436   4.413   1.019   3.136
 1846SOL    HW1 6437   4.423   0.930   3.181
 1846SOL    HW2 6438   4.490   1.034   3.074
 1847SOL     OW 6439   2.149   0.689   4.454
 1847SOL    HW1 6440   2.186   0.602   4.486
 1847SOL    HW2 6441   2.214   0.763   4.472
 1848SOL     OW 6442   1.925   5.870   4.315
 1848SOL    HW1 6443   1.974   5.898   4.397
 1848SOL    HW2 6444   1.938   5.771   4.301
 1849SOL     OW 6445   4.612   2.538   2.415
 1849SOL    HW1 6446   4.660   2.548   2.502
 1849SOL    HW2 6447   4.544   2.465   2.422
 1850SOL     OW 6448   5.290   2.318   2.215
 1850SOL    HW1 6449   5.209   2.378   2.211
 1850SOL    HW2 6450   5.287   2.253   2.139
 1851SOL     OW 6451   0.190   2.903   6.171
 1851SOL    HW1 6452   0.225   2.809   6.169
 1851SOL    HW2 6453   0.249   2.959   6.230
 1852SOL     OW 6454   1.465   3.979   2.280
 1852SOL    HW1 6455   1.455   4.047   2.353
 1852SOL    HW2 6456   1.492   4.025   2.195
 1853SOL     OW 6457   0.324   3.283   4.658
 1853SOL    HW1 6458   0.280   3.224   4.726
 1853SOL    HW2 6459   0.255   3.336   4.611
 1854SOL     OW 6460   0.719   5.783   3.285
 1854SOL    HW1 6461   0.625   5.751   3.294
 1854SOL    HW2 6462   0.771   5.720   3.228
 1855SOL     OW 6463   5.103   3.196   4.589
 1855SOL    HW1 6464   5.196   3.216   4.560
 1855SOL    HW2 6465   5.038   3.248   4.534
 1856SOL     OW 6466   3.596   3.374   0.086
 1856SOL    HW1 6467   3.621   3.300   0.148
 1856SOL    HW2 6468   3.631   3.461   0.121
 1857SOL     OW 6469   4.909   0.800   0.265
 1857SOL    HW1 6470   4.828   0.838   0.221
 1857SOL    HW2 6471   4.946   0.865   0.330
 1858SOL     OW 6472   4.391   2.195   4.387
 1858SOL    HW1 6473   4.426   2.102   4.373
 1858SOL    HW2 6474   4.318   2.213   4.321
 1859SOL     OW 6475   5.731   1.957   4.990
 1859SOL    HW1 6476   5.740   1.903   5.074
 1859SOL    HW2 6477   5.806   2.022   4.983
 1860SOL     OW 6478   0.843   1.934   4.848
 1860SOL    HW1 6479   0.801   2.024   4.860
 1860SOL    HW2 6480   0.884   1.905   4.935
 1861SOL     OW 6481   6.278   0.854   2.466
 1861SOL    HW1 6482   6.237   0.942   2.440
 1861SOL    HW2 6483   6.205   0.787   2.482
 1862SOL     OW 6484   2.196   6.441   0.099
 1862SOL    HW1 6485   2.106   6.415   0.065
 1862SOL    HW2 6486   2.188   6.526   0.152
 1863SOL     OW 6487   0.390   3.112   1.231
 1863SOL    HW1 6488   0.482   3.114   1.191
 1863SOL    HW2 6489   0.326   3.156   1.168
 1864SOL     OW 6490   2.940   5.846   3.955
 1864SOL    HW1 6491   2.936   5.810   3.862
 1864SOL    HW2 6492   2.903   5.939   3.957
 1865SOL     OW 6493   4.989   0.954   6.845
 1865SOL    HW1 6494   4.989   1.012   6.926
 1865SOL    HW2 6495   4.932   0.874   6.861
 1866SOL     OW 6496   0.898   4.290   4.071
 1866SOL    HW1 6497   0.848   4.260   4.152
 1866SOL    HW2 6498   0.990   4.250   4.072
 1867SOL     OW 6499   2.585   2.085   1.490
 1867SOL    HW1 6500   2.509   2.046   1.437
 1867SOL    HW2 6501   2.554   2.102   1.584
 1868SOL     OW 6502   5.649   4.135   5.477
 1868SOL    HW1 6503   5.613   4.100   5.563
 1868SOL    HW2 6504   5.585   4.115   5.403
 1869SOL     OW 6505   4.515   2.069   4.034
 1869SOL    HW1 6506   4.519   2.054   4.133
 1869SOL    HW2 6507   4.462   2.152   4.016
 1870SOL     OW 6508   1.437   4.334   4.336
 1870SOL    HW1 6509   1.393   4.358   4.422
 1870SOL    HW2 6510   1.480   4.244   4.343
 1871SOL     OW 6511   0.644   6.856   0.268
 1871SOL    HW1 6512   0.630   6.760   0.243
 1871SOL    HW2 6513   0.708   6.898   0.204
 1872SOL     OW 6514   3.245   1.925   0.352
 1872SOL    HW1 6515   3.271   2.020   0.338
 1872SOL    HW2 6516   3.186   1.917   0.432
 1873SOL     OW 6517   6.380   0.639   6.789
 1873SOL    HW1 6518   6.440   0.602   6.859
 1873SOL    HW2 6519   6.292   0.664   6.829
 1874SOL     OW 6520   1.100   6.321   6.123
 1874SOL    HW1 6521   1.159   6.270   6.060
 1874SOL    HW2 6522   1.088   6.269   6.207
 1875SOL     OW 6523   6.644   5.562   6.825
 1875SOL    HW1 6524   6.638   5.601   6.917
 1875SOL    HW2 6525   6.646   5.462   6.831
 1876SOL     OW 6526   5.466   6.485   6.238
 1876SOL    HW1 6527   5.399   6.536   6.184
 1876SOL    HW2 6528   5.420   6.412   6.288
 1877SOL     OW 6529   0.393   1.419   2.352
 1877SOL    HW1 6530   0.373   1.488   2.421
 1877SOL    HW2 6531   0.308   1.376   2.322
 1878SOL     OW 6532   0.537   4.137   3.447
 1878SOL    HW1 6533   0.629   4.121   3.485
 1878SOL    HW2 6534   0.470   4.132   3.520
 1879SOL     OW 6535   3.000   5.228   4.967
 1879SOL    HW1 6536   3.090   5.213   5.009
 1879SOL    HW2 6537   2.956   5.139   4.951
 1880SOL     OW 6538   0.057   2.499   3.251
 1880SOL    HW1 6539   0.115   2.419   3.233
 1880SOL    HW2 6540   0.087   2.544   3.335
 1881SOL     OW 6541   0.767   2.379   3.942
 1881SOL    HW1 6542   0.768   2.283   3.913
 1881SOL    HW2 6543   0.838   2.393   4.011
 1882SOL     OW 6544   0.946   5.910   0.262
 1882SOL    HW1 6545   0.951   5.960   0.348
 1882SOL    HW2 6546   0.850   5.891   0.240
 1883SOL     OW 6547   1.222   3.945   2.831
 1883SOL    HW1 6548   1.141   4.000   2.812
 1883SOL    HW2 6549   1.195   3.851   2.851
 1884SOL     OW 6550   3.148   1.097   0.373
 1884SOL    HW1 6551   3.244   1.080   0.395
 1884SOL    HW2 6552   3.115   1.026   0.311
 1885SOL     OW 6553   6.932   2.586   0.693
 1885SOL    HW1 6554   6.891   2.546   0.611
 1885SOL    HW2 6555   6.946   2.515   0.761
 1886SOL     OW 6556   1.901   1.782   6.506
 1886SOL    HW1 6557   1.945   1.695   6.485
 1886SOL    HW2 6558   1.821   1.794   6.448
 1887SOL     OW 6559   0.788   5.548   5.740
 1887SOL    HW1 6560   0.760   5.604   5.662
 1887SOL    HW2 6561   0.777   5.602   5.824
 1888SOL     OW 6562   1.979   1.653   5.561
 1888SOL    HW1 6563   1.967   1.735   5.618
 1888SOL    HW2 6564   2.061   1.604   5.591
 1889SOL     OW 6565   4.379   3.156   0.546
 1889SOL    HW1 6566   4.447   3.201   0.604
 1889SOL    HW2 6567   4.425   3.110   0.470
 1890SOL     OW 6568   1.042   5.750   6.125
 1890SOL    HW1 6569   0.966   5.816   6.119
 1890SOL    HW2 6570   1.039   5.689   6.047
 1891SOL     OW 6571   5.557   3.350   5.832
 1891SOL    HW1 6572   5.520   3.437   5.799
 1891SOL    HW2 6573   5.636   3.325   5.776
 1892SOL     OW 6574   3.777   5.700   0.973
 1892SOL    HW1 6575   3.861   5.681   1.023
 1892SOL    HW2 6576   3.699   5.660   1.022
 1893SOL     OW 6577   3.689   2.140   3.831
 1893SOL    HW1 6578   3.747   2.189   3.766
 1893SOL    HW2 6579   3.743   2.112   3.910
 1894SOL     OW 6580   4.427   3.810   1.702
 1894SOL    HW1 6581   4.444   3.720   1.662
 1894SOL    HW2 6582   4.356   3.803   1.772
 1895SOL     OW 6583   6.412   1.132   2.224
 1895SOL    HW1 6584   6.313   1.128   2.213
 1895SOL    HW2 6585   6.436   1.213   2.278
 1896SOL     OW 6586   6.066   1.818   4.730
 1896SOL    HW1 6587   6.135   1.873   4.684
 1896SOL    HW2 6588   6.101   1.725   4.744
 1897SOL     OW 6589   6.261   5.059   3.349
 1897SOL    HW1 6590   6.220   5.135   3.401
 1897SOL    HW2 6591   6.331   5.095   3.287
 1898SOL     OW 6592   5.747   5.753   0.983
 1898SOL    HW1 6593   5.819   5.732   1.049
 1898SOL    HW2 6594   5.658   5.738   1.026
 1899SOL     OW 6595   0.112   3.113   3.366
 1899SOL    HW1 6596   0.029   3.161   3.335
 1899SOL    HW2 6597   0.162   3.079   3.286
 1900SOL     OW 6598   1.773   6.346   6.123
 1900SOL    HW1 6599   1.707   6.418   6.146
 1900SOL    HW2 6600   1.737   6.257   6.151
 1901SOL     OW 6601   1.796   0.624   6.847
 1901SOL    HW1 6602   1.746   0.657   6.768
 1901SOL    HW2 6603   1.829   0.531   6.830
 1902SOL     OW 6604   0.854   3.446   3.991
 1902SOL    HW1 6605   0.893   3.356   4.010
 1902SOL    HW2 6606   0.791   3.439   3.913
 1903SOL     OW 6607   6.561   4.395   3.544
 1903SOL    HW1 6608   6.588   4.394   3.448
 1903SOL    HW2 6609   6.554   4.490   3.576
 1904SOL     OW 6610   0.404   0.111   4.374
 1904SOL    HW1 6611   0.398   0.086   4.278
 1904SOL    HW2 6612   0.437   0.033   4.427
 1905SOL     OW 6613   6.947   2.307   4.298
 1905SOL    HW1 6614   6.963   2.321   4.396
 1905SOL    HW2 6615   6.970   2.213   4.273
 1906SOL     OW 6616   2.445   6.999   6.006
 1906SOL    HW1 6617   2.444   0.047   5.930
 1906SOL    HW2 6618   2.537   6.991   6.042
 1907SOL     OW 6619   3.289   6.867   3.276
 1907SOL    HW1 6620   3.190   6.879   3.267
 1907SOL    HW2 6621   3.329   6.948   3.318
 1908SOL     OW 6622   4.415   0.667   5.895
 1908SOL    HW1 6623   4.359   0.586   5.913
 1908SOL    HW2 6624   4.459   0.697   5.979
 1909SOL     OW 6625   2.598   4.588   4.631
 1909SOL    HW1 6626   2.675   4.524   4.636
 1909SOL    HW2 6627   2.538   4.561   4.556
 1910SOL     OW 6628   5.398   2.295   6.922
 1910SOL    HW1 6629   5.334   2.224   6.954
 1910SOL    HW2 6630   5.453   2.327   6.999
 1911SOL     OW 6631   6.605   2.468   5.082
 1911SOL    HW1 6632   6.690   2.477   5.134
 1911SOL    HW2 6633   6.557   2.386   5.110
 1912SOL     OW 6634   3.128   6.518   2.370
 1912SOL    HW1 6635   3.169   6.552   2.285
 1912SOL    HW2 6636   3.179   6.438   2.401
 1913SOL     OW 6637   2.210   6.202   5.031
 1913SOL    HW1 6638   2.199   6.255   4.947
 1913SOL    HW2 6639   2.143   6.232   5.099
 1914SOL     OW 6640   2.357   2.516   6.141
 1914SOL    HW1 6641   2.273   2.548   6.184
 1914SOL    HW2 6642   2.435   2.543   6.196
 1915SOL     OW 6643   3.874   0.698   6.151
 1915SOL    HW1 6644   3.857   0.645   6.234
 1915SOL    HW2 6645   3.957   0.665   6.106
 1916SOL     OW 6646   4.015   5.752   1.156
 1916SOL    HW1 6647   4.078   5.828   1.145
 1916SOL    HW2 6648   4.066   5.668   1.171
 1917SOL     OW 6649   3.447   4.187   4.585
 1917SOL    HW1 6650   3.501   4.103   4.577
 1917SOL    HW2 6651   3.429   4.206   4.682
 1918SOL     OW 6652   5.932   6.375   5.942
 1918SOL    HW1 6653   5.850   6.385   5.998
 1918SOL    HW2 6654   6.009   6.346   6.000
 1919SOL     OW 6655   0.771   5.989   2.597
 1919SOL    HW1 6656   0.805   6.073   2.553
 1919SOL    HW2 6657   0.807   5.984   2.690
 1920SOL     OW 6658   0.377   4.691   3.650
 1920SOL    HW1 6659   0.324   4.775   3.652
 1920SOL    HW2 6660   0.334   4.624   3.711
 1921SOL     OW 6661   1.322   5.911   6.941
 1921SOL    HW1 6662   1.340   5.978   6.869
 1921SOL    HW2 6663   1.233   5.929   6.982
 1922SOL     OW 6664   4.282   3.291   1.314
 1922SOL    HW1 6665   4.240   3.381   1.304
 1922SOL    HW2 6666   4.221   3.221   1.275
 1923SOL     OW 6667   2.364   1.201   0.605
 1923SOL    HW1 6668   2.386   1.295   0.580
 1923SOL    HW2 6669   2.378   1.188   0.703
 1924SOL     OW 6670   6.651   4.486   1.998
 1924SOL    HW1 6671   6.690   4.537   2.075
 1924SOL    HW2 6672   6.615   4.398   2.032
 1925SOL     OW 6673   3.257   3.831   1.868
 1925SOL    HW1 6674   3.214   3.750   1.908
 1925SOL    HW2 6675   3.325   3.868   1.932
 1926SOL     OW 6676   1.419   0.424   4.885
 1926SOL    HW1 6677   1.373   0.511   4.871
 1926SOL    HW2 6678   1.427   0.405   4.983
 1927SOL     OW 6679   4.257   3.419   6.892
 1927SOL    HW1 6680   4.200   3.497   6.868
 1927SOL    HW2 6681   4.267   3.413   6.992
 1928SOL     OW 6682   6.605   3.650   6.060
 1928SOL    HW1 6683   6.575   3.740   6.029
 1928SOL    HW2 6684   6.664   3.661   6.140
 1929SOL     OW 6685   1.390   6.450   1.918
 1929SOL    HW1 6686   1.407   6.544   1.947
 1929SOL    HW2 6687   1.464   6.419   1.858
 1930SOL     OW 6688   6.546   4.238   6.533
 1930SOL    HW1 6689   6.642   4.251   6.510
 1930SOL    HW2 6690   6.489   4.284   6.465
 1931SOL     OW 6691   6.927   3.871   3.068
 1931SOL    HW1 6692   6.985   3.924   3.006
 1931SOL    HW2 6693   6.887   3.794   3.018
 1932SOL     OW 6694   4.932   3.860   2.315
 1932SOL    HW1 6695   4.855   3.919   2.293
 1932SOL    HW2 6696   4.899   3.773   2.352
 1933SOL     OW 6697   3.133   4.255   0.640
 1933SOL    HW1 6698   3.104   4.190   0.570
 1933SOL    HW2 6699   3.098   4.346   0.618
 1934SOL     OW 6700   1.244   0.382   5.751
 1934SOL    HW1 6701   1.336   0.363   5.716
 1934SOL    HW2 6702   1.194   0.296   5.761
 1935SOL     OW 6703   2.377   0.198   4.601
 1935SOL    HW1 6704   2.412   0.279   4.648
 1935SOL    HW2 6705   2.372   0.121   4.664
 1936SOL     OW 6706   5.324   5.803   4.523
 1936SOL    HW1 6707   5.368   5.718   4.552
 1936SOL    HW2 6708   5.230   5.783   4.495
 1937SOL     OW 6709   3.771   6.895   1.543
 1937SOL    HW1 6710   3.798   6.831   1.615
 1937SOL    HW2 6711   3.839   6.893   1.470
 1938SOL     OW 6712   3.575   1.317   3.379
 1938SOL    HW1 6713   3.534   1.229   3.355
 1938SOL    HW2 6714   3.525   1.357   3.456
 1939SOL     OW 6715   1.267   1.108   3.626
 1939SOL    HW1 6716   1.262   1.189   3.567
 1939SOL    HW2 6717   1.211   1.122   3.707
 1940SOL     OW 6718   5.364   5.447   0.013
 1940SOL    HW1 6719   5.318   5.433   6.943
 1940SOL    HW2 6720   5.457   5.479   7.014
 1941SOL     OW 6721   6.293   4.036   3.301
 1941SOL    HW1 6722   6.221   4.065   3.364
 1941SOL    HW2 6723   6.309   3.938   3.312
 1942SOL     OW 6724   5.969   5.565   2.062
 1942SOL    HW1 6725   5.909   5.616   2.001
 1942SOL    HW2 6726   6.009   5.487   2.014
 1943SOL     OW 6727   2.804   5.450   2.924
 1943SOL    HW1 6728   2.721   5.407   2.958
 1943SOL    HW2 6729   2.869   5.379   2.897
 1944SOL     OW 6730   5.553   1.693   6.391
 1944SOL    HW1 6731   5.519   1.721   6.481
 1944SOL    HW2 6732   5.499   1.737   6.320
 1945SOL     OW 6733   5.072   5.446   2.931
 1945SOL    HW1 6734   5.029   5.386   2.865
 1945SOL    HW2 6735   5.013   5.526   2.947
 1946SOL     OW 6736   1.461   0.322   1.052
 1946SOL    HW1 6737   1.499   0.309   0.961
 1946SOL    HW2 6738   1.479   0.416   1.083
 1947SOL     OW 6739   5.625   6.481   4.897
 1947SOL    HW1 6740   5.548   6.491   4.833
 1947SOL    HW2 6741   5.590   6.478   4.991
 1948SOL     OW 6742   0.163   5.240   4.622
 1948SOL    HW1 6743   0.077   5.280   4.653
 1948SOL    HW2 6744   0.178   5.153   4.670
 1949SOL     OW 6745   4.153   4.223   6.148
 1949SOL    HW1 6746   4.135   4.274   6.064
 1949SOL    HW2 6747   4.148   4.285   6.227
 1950SOL     OW 6748   3.689   3.618   6.791
 1950SOL    HW1 6749   3.735   3.551   6.733
 1950SOL    HW2 6750   3.649   3.690   6.734
 1951SOL     OW 6751   5.926   2.364   0.438
 1951SOL    HW1 6752   5.944   2.307   0.358
 1951SOL    HW2 6753   5.937   2.460   0.414
 1952SOL     OW 6754   3.355   2.220   0.656
 1952SOL    HW1 6755   3.400   2.201   0.743
 1952SOL    HW2 6756   3.421   2.256   0.591
 1953SOL     OW 6757   6.841   2.195   6.857
 1953SOL    HW1 6758   6.895   2.152   6.785
 1953SOL    HW2 6759   6.882   2.175   6.946
 1954SOL     OW 6760   5.341   1.681   4.017
 1954SOL    HW1 6761   5.398   1.601   4.003
 1954SOL    HW2 6762   5.349   1.743   3.939
 1955SOL     OW 6763   1.628   0.317   2.043
 1955SOL    HW1 6764   1.614   0.218   2.046
 1955SOL    HW2 6765   1.672   0.342   1.957
 1956SOL     OW 6766   5.143   6.130   2.615
 1956SOL    HW1 6767   5.166   6.067   2.689
 1956SOL    HW2 6768   5.070   6.091   2.559
 1957SOL     OW 6769   6.819   5.760   5.050
 1957SOL    HW1 6770   6.747   5.695   5.076
 1957SOL    HW2 6771   6.906   5.731   5.092
 1958SOL     OW 6772   5.660   3.546   4.453
 1958SOL    HW1 6773   5.638   3.580   4.362
 1958SOL    HW2 6774   5.661   3.446   4.453
 1959SOL     OW 6775   0.662   2.642   5.586
 1959SOL    HW1 6776   0.653   2.700   5.505
 1959SOL    HW2 6777   0.599   2.565   5.579
 1960SOL     OW 6778   6.619   4.663   0.956
 1960SOL    HW1 6779   6.543   4.714   0.997
 1960SOL    HW2 6780   6.706   4.703   0.986
 1961SOL     OW 6781   5.707   4.872   4.481
 1961SOL    HW1 6782   5.742   4.793   4.532
 1961SOL    HW2 6783   5.607   4.871   4.482
 1962SOL     OW 6784   1.331   6.345   3.806
 1962SOL    HW1 6785   1.328   6.439   3.839
 1962SOL    HW2 6786   1.341   6.283   3.883
 1963SOL     OW 6787   0.721   0.787   1.789
 1963SOL    HW1 6788   0.644   0.758   1.732
 1963SOL    HW2 6789   0.804   0.795   1.733
 1964SOL     OW 6790   4.595   2.547   1.376
 1964SOL    HW1 6791   4.559   2.531   1.468
 1964SOL    HW2 6792   4.691   2.576   1.383
 1965SOL     OW 6793   0.663   2.951   2.705
 1965SOL    HW1 6794   0.704   2.876   2.653
 1965SOL    HW2 6795   0.704   2.954   2.796
 1966SOL     OW 6796   0.560   5.165   4.688
 1966SOL    HW1 6797   0.480   5.174   4.629
 1966SOL    HW2 6798   0.641   5.149   4.632
 1967SOL     OW 6799   4.497   2.363   5.938
 1967SOL    HW1 6800   4.556   2.427   5.888
 1967SOL    HW2 6801   4.553   2.305   5.997
 1968SOL     OW 6802   2.960   5.988   6.812
 1968SOL    HW1 6803   2.959   6.030   6.903
 1968SOL    HW2 6804   2.866   5.964   6.786
 1969SOL     OW 6805   6.464   2.012   1.427
 1969SOL    HW1 6806   6.468   1.969   1.337
 1969SOL    HW2 6807   6.373   2.051   1.441
 1970SOL     OW 6808   2.184   0.687   5.713
 1970SOL    HW1 6809   2.246   0.613   5.739
 1970SOL    HW2 6810   2.169   0.748   5.791
 1971SOL     OW 6811   0.092   6.842   6.625
 1971SOL    HW1 6812   0.057   6.936   6.615
 1971SOL    HW2 6813   0.163   6.841   6.695
 1972SOL     OW 6814   0.563   3.362   3.065
 1972SOL    HW1 6815   0.475   3.376   3.020
 1972SOL    HW2 6816   0.560   3.400   3.158
 1973SOL     OW 6817   3.502   2.671   1.788
 1973SOL    HW1 6818   3.408   2.693   1.815
 1973SOL    HW2 6819   3.565   2.735   1.831
 1974SOL     OW 6820   6.079   6.132   3.805
 1974SOL    HW1 6821   6.093   6.189   3.725
 1974SOL    HW2 6822   6.168   6.102   3.840
 1975SOL     OW 6823   2.267   0.692   3.771
 1975SOL    HW1 6824   2.203   0.695   3.848
 1975SOL    HW2 6825   2.331   0.769   3.778
 1976SOL     OW 6826   0.480   6.199   0.313
 1976SOL    HW1 6827   0.544   6.157   0.377
 1976SOL    HW2 6828   0.395   6.220   0.360
 1977SOL     OW 6829   0.773   3.123   3.805
 1977SOL    HW1 6830   0.732   3.172   3.881
 1977SOL    HW2 6831   0.704   3.062   3.764
 1978SOL     OW 6832   1.318   1.616   4.215
 1978SOL    HW1 6833   1.308   1.608   4.314
 1978SOL    HW2 6834   1.401   1.568   4.186
 1979SOL     OW 6835   0.019   4.588   5.259
 1979SOL    HW1 6836   6.965   4.596   5.329
 1979SOL    HW2 6837   0.049   4.493   5.254
 1980SOL     OW 6838   3.307   0.111   0.577
 1980SOL    HW1 6839   3.262   0.023   0.591
 1980SOL    HW2 6840   3.406   0.101   0.588
 1981SOL     OW 6841   5.518   2.326   2.373
 1981SOL    HW1 6842   5.529   2.234   2.410
 1981SOL    HW2 6843   5.435   2.330   2.316
 1982SOL     OW 6844   6.204   4.949   5.353
 1982SOL    HW1 6845   6.267   5.016   5.393
 1982SOL    HW2 6846   6.233   4.928   5.259
 1983SOL     OW 6847   0.893   2.624   3.041
 1983SOL    HW1 6848   0.914   2.527   3.053
 1983SOL    HW2 6849   0.963   2.679   3.087
 1984SOL     OW 6850   4.690   1.813   5.889
 1984SOL    HW1 6851   4.774   1.834   5.838
 1984SOL    HW2 6852   4.611   1.828   5.829
 1985SOL     OW 6853   1.102   1.295   2.268
 1985SOL    HW1 6854   1.011   1.281   2.230
 1985SOL    HW2 6855   1.098   1.364   2.340
 1986SOL     OW 6856   1.434   1.493   6.989
 1986SOL    HW1 6857   1.498   1.420   7.015
 1986SOL    HW2 6858   1.470   1.581   0.005
 1987SOL     OW 6859   2.887   2.804   1.633
 1987SOL    HW1 6860   2.949   2.729   1.652
 1987SOL    HW2 6861   2.896   2.874   1.704
 1988SOL     OW 6862   5.022   4.542   0.495
 1988SOL    HW1 6863   5.005   4.560   0.398
 1988SOL    HW2 6864   5.082   4.612   0.533
 1989SOL     OW 6865   2.066   0.517   4.751
 1989SOL    HW1 6866   2.034   0.599   4.705
 1989SOL    HW2 6867   2.164   0.506   4.736
 1990SOL     OW 6868   3.200   0.598   1.818
 1990SOL    HW1 6869   3.265   0.529   1.785
 1990SOL    HW2 6870   3.243   0.688   1.816
 1991SOL     OW 6871   3.484   5.465   5.535
 1991SOL    HW1 6872   3.513   5.503   5.623
 1991SOL    HW2 6873   3.429   5.383   5.551
 1992SOL     OW 6874   3.128   0.073   5.840
 1992SOL    HW1 6875   3.210   0.093   5.786
 1992SOL    HW2 6876   3.147   0.088   5.937
 1993SOL     OW 6877   3.839   3.688   5.690
 1993SOL    HW1 6878   3.874   3.599   5.719
 1993SOL    HW2 6879   3.853   3.698   5.591
 1994SOL     OW 6880   1.049   2.178   2.027
 1994SOL    HW1 6881   1.026   2.086   2.058
 1994SOL    HW2 6882   1.139   2.177   1.983
 1995SOL     OW 6883   6.395   2.037   2.507
 1995SOL    HW1 6884   6.346   2.075   2.429
 1995SOL    HW2 6885   6.468   2.100   2.535
 1996SOL     OW 6886   3.213   2.803   0.976
 1996SOL    HW1 6887   3.140   2.861   1.013
 1996SOL    HW2 6888   3.254   2.750   1.050
 1997SOL     OW 6889   5.366   0.922   5.569
 1997SOL    HW1 6890   5.433   0.976   5.518
 1997SOL    HW2 6891   5.407   0.833   5.592
 1998SOL     OW 6892   2.976   3.894   6.307
 1998SOL    HW1 6893   3.043   3.869   6.237
 1998SOL    HW2 6894   2.905   3.824   6.311
 1999SOL     OW 6895   2.454   0.547   1.850
 1999SOL    HW1 6896   2.411   0.520   1.764
 1999SOL    HW2 6897   2.503   0.633   1.836
 2000SOL     OW 6898   3.992   1.855   4.981
 2000SOL    HW1 6899   3.999   1.879   5.078
 2000SOL    HW2 6900   3.896   1.837   4.959
 2001SOL     OW 6901   3.405   2.283   1.737
 2001SOL    HW1 6902   3.487   2.308   1.788
 2001SOL    HW2 6903   3.354   2.366   1.712
 2002SOL     OW 6904   1.543   6.215   6.478
 2002SOL    HW1 6905   1.448   6.217   6.508
 2002SOL    HW2 6906   1.603   6.241   6.554
 2003SOL     OW 6907   4.634   0.290   3.729
 2003SOL    HW1 6908   4.627   0.278   3.828
 2003SOL    HW2 6909   4.579   0.221   3.684
 2004SOL     OW 6910   5.007   0.958   4.718
 2004SOL    HW1 6911   4.950   1.001   4.648
 2004SOL    HW2 6912   5.094   1.007   4.725
 2005SOL     OW 6913   1.807   5.803   6.878
 2005SOL    HW1 6914   1.723   5.818   6.930
 2005SOL    HW2 6915   1.859   5.729   6.920
 2006SOL     OW 6916   5.188   4.476   3.698
 2006SOL    HW1 6917   5.104   4.450   3.744
 2006SOL    HW2 6918   5.195   4.576   3.695
 2007SOL     OW 6919   4.691   5.685   0.480
 2007SOL    HW1 6920   4.755   5.638   0.540
 2007SOL    HW2 6921   4.627   5.738   0.535
 2008SOL     OW 6922   0.308   5.810   3.827
 2008SOL    HW1 6923   0.375   5.737   3.839
 2008SOL    HW2 6924   0.257   5.795   3.742
 2009SOL     OW 6925   6.328   0.447   1.707
 2009SOL    HW1 6926   6.281   0.535   1.700
 2009SOL    HW2 6927   6.425   0.463   1.727
 2010SOL     OW 6928   1.969   1.109   0.831
 2010SOL    HW1 6929   1.873   1.083   0.831
 2010SOL    HW2 6930   2.024   1.034   0.794
 2011SOL     OW 6931   6.687   2.428   4.833
 2011SOL    HW1 6932   6.709   2.521   4.802
 2011SOL    HW2 6933   6.621   2.433   4.908
 2012SOL     OW 6934   0.492   3.427   1.250
 2012SOL    HW1 6935   0.458   3.441   1.157
 2012SOL    HW2 6936   0.548   3.344   1.253
 2013SOL     OW 6937   5.448   1.426   3.077
 2013SOL    HW1 6938   5.358   1.410   3.036
 2013SOL    HW2 6939   5.519   1.391   3.016
 2014SOL     OW 6940   1.135   5.454   3.480
 2014SOL    HW1 6941   1.100   5.459   3.574
 2014SOL    HW2 6942   1.200   5.529   3.465
 2015SOL     OW 6943   3.223   1.278   6.648
 2015SOL    HW1 6944   3.143   1.238   6.602
 2015SOL    HW2 6945   3.217   1.378   6.645
 2016SOL     OW 6946   0.303   5.557   4.650
 2016SOL    HW1 6947   0.268   5.650   4.667
 2016SOL    HW2 6948   0.359   5.528   4.727
 2017SOL     OW 6949   3.500   6.864   3.605
 2017SOL    HW1 6950   3.539   6.848   3.514
 2017SOL    HW2 6951   3.569   6.842   3.675
 2018SOL     OW 6952   6.963   5.661   5.689
 2018SOL    HW1 6953   6.974   5.568   5.653
 2018SOL    HW2 6954   6.910   5.715   5.624
 2019SOL     OW 6955   5.137   2.867   1.837
 2019SOL    HW1 6956   5.075   2.930   1.884
 2019SOL    HW2 6957   5.214   2.845   1.896
 2020SOL     OW 6958   1.336   5.373   4.984
 2020SOL    HW1 6959   1.420   5.344   5.029
 2020SOL    HW2 6960   1.259   5.317   5.016
 2021SOL     OW 6961   2.230   0.040   2.889
 2021SOL    HW1 6962   2.290   0.104   2.841
 2021SOL    HW2 6963   2.143   0.085   2.910
 2022SOL     OW 6964   1.784   3.625   1.882
 2022SOL    HW1 6965   1.878   3.656   1.895
 2022SOL    HW2 6966   1.771   3.598   1.786
 2023SOL     OW 6967   0.322   1.894   0.088
 2023SOL    HW1 6968   0.280   1.974   0.130
 2023SOL    HW2 6969   0.325   1.906   7.006
 2024SOL     OW 6970   6.791   0.854   2.639
 2024SOL    HW1 6971   6.699   0.816   2.637
 2024SOL    HW2 6972   6.818   0.880   2.547
 2025SOL     OW 6973   1.701   2.489   1.987
 2025SOL    HW1 6974   1.745   2.494   2.077
 2025SOL    HW2 6975   1.759   2.437   1.924
 2026SOL     OW 6976   1.738   2.234   6.200
 2026SOL    HW1 6977   1.811   2.187   6.249
 2026SOL    HW2 6978   1.654   2.229   6.254
 2027SOL     OW 6979   1.112   1.199   1.238
 2027SOL    HW1 6980   1.133   1.226   1.144
 2027SOL    HW2 6981   1.177   1.128   1.266
 2028SOL     OW 6982   3.501   1.505   0.348
 2028SOL    HW1 6983   3.513   1.597   0.385
 2028SOL    HW2 6984   3.569   1.488   0.277
 2029SOL     OW 6985   0.720   0.390   6.879
 2029SOL    HW1 6986   0.667   0.314   6.842
 2029SOL    HW2 6987   0.752   0.449   6.804
 2030SOL     OW 6988   1.605   2.372   3.344
 2030SOL    HW1 6989   1.566   2.287   3.308
 2030SOL    HW2 6990   1.679   2.350   3.408
 2031SOL     OW 6991   5.523   6.222   2.292
 2031SOL    HW1 6992   5.434   6.266   2.307
 2031SOL    HW2 6993   5.586   6.249   2.365
 2032SOL     OW 6994   5.541   6.172   1.251
 2032SOL    HW1 6995   5.454   6.139   1.216
 2032SOL    HW2 6996   5.583   6.233   1.183
 2033SOL     OW 6997   4.047   4.411   6.674
 2033SOL    HW1 6998   4.095   4.368   6.750
 2033SOL    HW2 6999   3.949   4.398   6.684
 2034SOL     OW 7000   1.812   6.570   3.742
 2034SOL    HW1 7001   1.865   6.493   3.776
 2034SOL    HW2 7002   1.872   6.650   3.732
 2035SOL     OW 7003   6.814   1.749   2.692
 2035SOL    HW1 7004   6.756   1.684   2.741
 2035SOL    HW2 7005   6.905   1.709   2.679
 2036SOL     OW 7006   0.337   6.068   1.818
 2036SOL    HW1 7007   0.345   6.051   1.720
 2036SOL    HW2 7008   0.317   6.164   1.834
 2037SOL     OW 7009   6.502   2.246   5.743
 2037SOL    HW1 7010   6.564   2.223   5.669
 2037SOL    HW2 7011   6.517   2.341   5.771
 2038SOL     OW 7012   0.550   2.067   6.846
 2038SOL    HW1 7013   0.630   2.053   6.788
 2038SOL    HW2 7014   0.474   2.012   6.810
 2039SOL     OW 7015   0.280   5.637   3.268
 2039SOL    HW1 7016   0.197   5.584   3.250
 2039SOL    HW2 7017   0.344   5.580   3.319
 2040SOL     OW 7018   3.333   2.876   5.093
 2040SOL    HW1 7019   3.271   2.864   5.171
 2040SOL    HW2 7020   3.289   2.843   5.010
 2041SOL     OW 7021   6.504   5.633   6.454
 2041SOL    HW1 7022   6.565   5.555   6.440
 2041SOL    HW2 7023   6.498   5.686   6.370
 2042SOL     OW 7024   5.612   5.364   6.791
 2042SOL    HW1 7025   5.624   5.445   6.849
 2042SOL    HW2 7026   5.594   5.393   6.697
 2043SOL     OW 7027   6.579   5.313   2.334
 2043SOL    HW1 7028   6.637   5.232   2.333
 2043SOL    HW2 7029   6.483   5.285   2.337
 2044SOL     OW 7030   4.889   0.387   2.031
 2044SOL    HW1 7031   4.962   0.370   2.097
 2044SOL    HW2 7032   4.814   0.322   2.048
 2045SOL     OW 7033   1.561   4.497   4.951
 2045SOL    HW1 7034   1.493   4.467   5.018
 2045SOL    HW2 7035   1.647   4.448   4.967
 2046SOL     OW 7036   7.007   0.568   4.130
 2046SOL    HW1 7037   7.010   0.468   4.132
 2046SOL    HW2 7038   6.956   0.601   4.209
 2047SOL     OW 7039   4.360   1.899   0.540
 2047SOL    HW1 7040   4.375   1.971   0.607
 2047SOL    HW2 7041   4.402   1.924   0.453
 2048SOL     OW 7042   3.873   6.221   6.884
 2048SOL    HW1 7043   3.927   6.298   6.919
 2048SOL    HW2 7044   3.778   6.250   6.870
 2049SOL     OW 7045   4.619   2.043   6.831
 2049SOL    HW1 7046   4.552   2.077   6.765
 2049SOL    HW2 7047   4.686   2.115   6.850
 2050SOL     OW 7048   5.984   2.753   3.742
 2050SOL    HW1 7049   5.972   2.842   3.788
 2050SOL    HW2 7050   6.076   2.747   3.705
 2051SOL     OW 7051   6.749   4.920   6.741
 2051SOL    HW1 7052   6.699   4.898   6.658
 2051SOL    HW2 7053   6.841   4.880   6.736
 2052SOL     OW 7054   0.178   3.381   6.807
 2052SOL    HW1 7055   0.081   3.371   6.826
 2052SOL    HW2 7056   0.228   3.396   6.893
 2053SOL     OW 7057   6.168   0.740   0.930
 2053SOL    HW1 7058   6.238   0.765   0.863
 2053SOL    HW2 7059   6.212   0.703   1.012
 2054SOL     OW 7060   5.528   3.018   1.500
 2054SOL    HW1 7061   5.501   3.112   1.476
 2054SOL    HW2 7062   5.447   2.964   1.521
 2055SOL     OW 7063   5.521   3.454   2.851
 2055SOL    HW1 7064   5.501   3.357   2.837
 2055SOL    HW2 7065   5.618   3.471   2.832
 2056SOL     OW 7066   2.119   1.559   2.263
 2056SOL    HW1 7067   2.179   1.621   2.212
 2056SOL    HW2 7068   2.076   1.608   2.339
 2057SOL     OW 7069   5.513   2.070   3.959
 2057SOL    HW1 7070   5.488   2.166   3.948
 2057SOL    HW2 7071   5.556   2.036   3.876
 2058SOL     OW 7072   0.922   1.756   3.169
 2058SOL    HW1 7073   0.994   1.722   3.109
 2058SOL    HW2 7074   0.841   1.698   3.161
 2059SOL     OW 7075   2.405   6.387   6.324
 2059SOL    HW1 7076   2.319   6.375   6.275
 2059SOL    HW2 7077   2.471   6.433   6.265
 2060SOL     OW 7078   6.790   4.437   0.999
 2060SOL    HW1 7079   6.834   4.467   1.083
 2060SOL    HW2 7080   6.700   4.480   0.992
 2061SOL     OW 7081   0.702   1.884   2.904
 2061SOL    HW1 7082   0.724   1.837   2.989
 2061SOL    HW2 7083   0.620   1.940   2.916
 2062SOL     OW 7084   5.200   0.624   2.994
 2062SOL    HW1 7085   5.240   0.543   2.952
 2062SOL    HW2 7086   5.273   0.690   3.014
 2063SOL     OW 7087   0.836   1.073   6.729
 2063SOL    HW1 7088   0.830   1.013   6.649
 2063SOL    HW2 7089   0.929   1.107   6.738
 2064SOL     OW 7090   0.522   1.912   5.461
 2064SOL    HW1 7091   0.609   1.866   5.450
 2064SOL    HW2 7092   0.509   1.937   5.557
 2065SOL     OW 7093   5.783   3.865   2.253
 2065SOL    HW1 7094   5.764   3.788   2.315
 2065SOL    HW2 7095   5.839   3.933   2.300
 2066SOL     OW 7096   0.826   5.861   4.456
 2066SOL    HW1 7097   0.891   5.825   4.523
 2066SOL    HW2 7098   0.875   5.914   4.387
 2067SOL     OW 7099   0.414   6.658   0.843
 2067SOL    HW1 7100   0.396   6.726   0.913
 2067SOL    HW2 7101   0.365   6.574   0.865
 2068SOL     OW 7102   1.214   1.373   5.550
 2068SOL    HW1 7103   1.271   1.305   5.505
 2068SOL    HW2 7104   1.222   1.460   5.501
 2069SOL     OW 7105   0.388   2.548   3.525
 2069SOL    HW1 7106   0.444   2.468   3.541
 2069SOL    HW2 7107   0.426   2.601   3.449
 2070SOL     OW 7108   1.848   6.702   2.459
 2070SOL    HW1 7109   1.908   6.629   2.492
 2070SOL    HW2 7110   1.892   6.747   2.380
 2071SOL     OW 7111   0.155   6.219   4.804
 2071SOL    HW1 7112   0.096   6.232   4.725
 2071SOL    HW2 7113   0.100   6.199   4.885
 2072SOL     OW 7114   4.404   6.346   1.628
 2072SOL    HW1 7115   4.439   6.422   1.683
 2072SOL    HW2 7116   4.479   6.287   1.601
 2073SOL     OW 7117   3.599   6.834   4.621
 2073SOL    HW1 7118   3.499   6.831   4.622
 2073SOL    HW2 7119   3.630   6.914   4.672
 2074SOL     OW 7120   0.689   2.640   6.515
 2074SOL    HW1 7121   0.697   2.594   6.427
 2074SOL    HW2 7122   0.772   2.694   6.532
 2075SOL     OW 7123   4.944   2.447   1.114
 2075SOL    HW1 7124   4.871   2.401   1.164
 2075SOL    HW2 7125   4.907   2.528   1.069
 2076SOL     OW 7126   5.142   6.018   6.820
 2076SOL    HW1 7127   5.220   6.001   6.760
 2076SOL    HW2 7128   5.095   6.101   6.790
 2077SOL     OW 7129   4.873   2.609   1.948
 2077SOL    HW1 7130   4.816   2.576   2.023
 2077SOL    HW2 7131   4.815   2.654   1.880
 2078SOL     OW 7132   2.743   5.946   6.661
 2078SOL    HW1 7133   2.732   5.859   6.614
 2078SOL    HW2 7134   2.758   6.019   6.593
 2079SOL     OW 7135   5.920   1.217   3.720
 2079SOL    HW1 7136   6.020   1.223   3.709
 2079SOL    HW2 7137   5.886   1.305   3.753
 2080SOL     OW 7138   1.801   1.481   4.955
 2080SOL    HW1 7139   1.811   1.552   5.024
 2080SOL    HW2 7140   1.745   1.407   4.990
 2081SOL     OW 7141   1.838   5.843   4.804
 2081SOL    HW1 7142   1.927   5.887   4.797
 2081SOL    HW2 7143   1.786   5.883   4.879
 2082SOL     OW 7144   6.108   0.109   2.316
 2082SOL    HW1 7145   6.156   0.194   2.297
 2082SOL    HW2 7146   6.151   0.034   2.266
 2083SOL     OW 7147   3.869   3.941   6.349
 2083SOL    HW1 7148   3.873   3.843   6.367
 2083SOL    HW2 7149   3.945   3.968   6.290
 2084SOL     OW 7150   0.145   4.219   3.769
 2084SOL    HW1 7151   0.062   4.184   3.724
 2084SOL    HW2 7152   0.145   4.192   3.865
 2085SOL     OW 7153   5.368   1.110   7.014
 2085SOL    HW1 7154   5.417   1.194   6.990
 2085SOL    HW2 7155   5.359   1.103   0.095
 2086SOL     OW 7156   3.181   5.745   6.007
 2086SOL    HW1 7157   3.270   5.753   5.962
 2086SOL    HW2 7158   3.190   5.686   6.088
 2087SOL     OW 7159   4.604   6.863   1.995
 2087SOL    HW1 7160   4.516   6.816   1.987
 2087SOL    HW2 7161   4.602   6.946   1.939
 2088SOL     OW 7162   2.808   5.556   0.837
 2088SOL    HW1 7163   2.848   5.608   0.913
 2088SOL    HW2 7164   2.772   5.469   0.872
 2089SOL     OW 7165   3.995   1.409   6.892
 2089SOL    HW1 7166   3.908   1.371   6.923
 2089SOL    HW2 7167   3.977   1.485   6.829
 2090SOL     OW 7168   4.088   3.331   4.571
 2090SOL    HW1 7169   4.095   3.353   4.474
 2090SOL    HW2 7170   4.120   3.409   4.626
 2091SOL     OW 7171   0.110   6.141   0.066
 2091SOL    HW1 7172   0.031   6.135   0.005
 2091SOL    HW2 7173   0.088   6.098   0.153
 2092SOL     OW 7174   5.297   5.716   0.497
 2092SOL    HW1 7175   5.391   5.710   0.464
 2092SOL    HW2 7176   5.242   5.771   0.434
 2093SOL     OW 7177   1.782   2.028   1.782
 2093SOL    HW1 7178   1.768   2.075   1.695
 2093SOL    HW2 7179   1.757   2.090   1.857
 2094SOL     OW 7180   5.602   1.583   1.430
 2094SOL    HW1 7181   5.618   1.508   1.365
 2094SOL    HW2 7182   5.684   1.641   1.434
 2095SOL     OW 7183   5.465   0.165   4.122
 2095SOL    HW1 7184   5.443   0.078   4.078
 2095SOL    HW2 7185   5.411   0.238   4.080
 2096SOL     OW 7186   4.877   3.780   2.741
 2096SOL    HW1 7187   4.926   3.701   2.704
 2096SOL    HW2 7188   4.885   3.857   2.677
 2097SOL     OW 7189   1.391   3.008   6.927
 2097SOL    HW1 7190   1.349   2.920   6.947
 2097SOL    HW2 7191   1.446   3.001   6.843
 2098SOL     OW 7192   3.954   5.505   3.360
 2098SOL    HW1 7193   4.008   5.555   3.426
 2098SOL    HW2 7194   3.971   5.407   3.370
 2099SOL     OW 7195   2.284   2.482   5.162
 2099SOL    HW1 7196   2.308   2.575   5.190
 2099SOL    HW2 7197   2.200   2.454   5.208
 2100SOL     OW 7198   3.799   3.474   6.055
 2100SOL    HW1 7199   3.827   3.378   6.040
 2100SOL    HW2 7200   3.870   3.521   6.107
 2101SOL     OW 7201   1.651   6.402   2.659
 2101SOL    HW1 7202   1.621   6.456   2.581
 2101SOL    HW2 7203   1.601   6.316   2.662
 2102SOL     OW 7204   0.717   5.628   1.647
 2102SOL    HW1 7205   0.626   5.653   1.615
 2102SOL    HW2 7206   0.712   5.544   1.701
 2103SOL     OW 7207   2.909   3.579   6.547
 2103SOL    HW1 7208   2.865   3.609   6.463
 2103SOL    HW2 7209   2.861   3.499   6.583
 2104SOL     OW 7210   1.130   3.734   6.719
 2104SOL    HW1 7211   1.180   3.655   6.684
 2104SOL    HW2 7212   1.032   3.720   6.704
 2105SOL     OW 7213   5.246   5.294   3.931
 2105SOL    HW1 7214   5.206   5.317   4.019
 2105SOL    HW2 7215   5.273   5.197   3.930
 2106SOL     OW 7216   4.361   4.979   0.317
 2106SOL    HW1 7217   4.341   4.988   0.220
 2106SOL    HW2 7218   4.312   5.050   0.368
 2107SOL     OW 7219   4.440   2.695   5.647
 2107SOL    HW1 7220   4.523   2.639   5.648
 2107SOL    HW2 7221   4.391   2.680   5.561
 2108SOL     OW 7222   0.379   6.247   5.675
 2108SOL    HW1 7223   0.332   6.245   5.764
 2108SOL    HW2 7224   0.338   6.178   5.614
 2109SOL     OW 7225   4.682   6.730   3.609
 2109SOL    HW1 7226   4.748   6.775   3.668
 2109SOL    HW2 7227   4.679   6.776   3.521
 2110SOL     OW 7228   3.027   3.095   5.871
 2110SOL    HW1 7229   2.978   3.061   5.951
 2110SOL    HW2 7230   2.967   3.155   5.818
 2111SOL     OW 7231   0.981   1.998   6.260
 2111SOL    HW1 7232   1.055   2.062   6.279
 2111SOL    HW2 7233   0.998   1.912   6.307
 2112SOL     OW 7234   4.037   1.951   1.198
 2112SOL    HW1 7235   4.076   2.043   1.201
 2112SOL    HW2 7236   3.958   1.951   1.137
 2113SOL     OW 7237   1.286   0.608   4.210
 2113SOL    HW1 7238   1.193   0.575   4.224
 2113SOL    HW2 7239   1.284   0.690   4.152
 2114SOL     OW 7240   1.585   2.812   0.290
 2114SOL    HW1 7241   1.586   2.715   0.315
 2114SOL    HW2 7242   1.660   2.831   0.226
 2115SOL     OW 7243   2.122   4.265   2.556
 2115SOL    HW1 7244   2.118   4.312   2.467
 2115SOL    HW2 7245   2.042   4.289   2.609
 2116SOL     OW 7246   0.003   4.954   3.430
 2116SOL    HW1 7247   6.994   5.044   3.465
 2116SOL    HW2 7248   6.978   4.883   3.487
 2117SOL     OW 7249   0.406   4.678   1.135
 2117SOL    HW1 7250   0.426   4.716   1.045
 2117SOL    HW2 7251   0.326   4.618   1.129
 2118SOL     OW 7252   0.099   3.772   2.254
 2118SOL    HW1 7253   0.123   3.735   2.164
 2118SOL    HW2 7254   0.082   3.697   2.317
 2119SOL     OW 7255   2.129   5.914   1.124
 2119SOL    HW1 7256   2.218   5.885   1.086
 2119SOL    HW2 7257   2.097   5.844   1.189
 2120SOL     OW 7258   6.999   5.078   4.005
 2120SOL    HW1 7259   0.069   5.121   4.026
 2120SOL    HW2 7260   6.930   5.111   4.069
 2121SOL     OW 7261   1.011   4.705   5.830
 2121SOL    HW1 7262   1.023   4.781   5.893
 2121SOL    HW2 7263   1.095   4.691   5.777
 2122SOL     OW 7264   6.236   4.374   5.421
 2122SOL    HW1 7265   6.202   4.315   5.348
 2122SOL    HW2 7266   6.163   4.390   5.488
 2123SOL     OW 7267   0.191   4.673   2.309
 2123SOL    HW1 7268   0.095   4.663   2.334
 2123SOL    HW2 7269   0.218   4.600   2.246
 2124SOL     OW 7270   2.337   1.461   1.672
 2124SOL    HW1 7271   2.378   1.383   1.625
 2124SOL    HW2 7272   2.325   1.536   1.607
 2125SOL     OW 7273   1.652   0.235   0.334
 2125SOL    HW1 7274   1.694   0.307   0.278
 2125SOL    HW2 7275   1.719   0.163   0.352
 2126SOL     OW 7276   3.008   1.018   1.019
 2126SOL    HW1 7277   2.999   0.952   1.094
 2126SOL    HW2 7278   3.076   0.985   0.954
 2127SOL     OW 7279   6.253   3.580   4.478
 2127SOL    HW1 7280   6.197   3.532   4.410
 2127SOL    HW2 7281   6.343   3.600   4.439
 2128SOL     OW 7282   6.738   3.875   4.755
 2128SOL    HW1 7283   6.817   3.826   4.719
 2128SOL    HW2 7284   6.665   3.876   4.686
 2129SOL     OW 7285   4.578   2.998   5.397
 2129SOL    HW1 7286   4.515   3.064   5.437
 2129SOL    HW2 7287   4.640   2.965   5.468
 2130SOL     OW 7288   4.279   0.013   2.859
 2130SOL    HW1 7289   4.355   7.012   2.797
 2130SOL    HW2 7290   4.288   0.105   2.898
 2131SOL     OW 7291   6.674   1.044   1.328
 2131SOL    HW1 7292   6.733   1.101   1.270
 2131SOL    HW2 7293   6.711   1.043   1.421
 2132SOL     OW 7294   4.206   2.492   1.327
 2132SOL    HW1 7295   4.186   2.587   1.300
 2132SOL    HW2 7296   4.281   2.456   1.271
 2133SOL     OW 7297   2.299   2.888   5.914
 2133SOL    HW1 7298   2.313   2.954   5.840
 2133SOL    HW2 7299   2.264   2.802   5.876
 2134SOL     OW 7300   0.620   2.540   0.692
 2134SOL    HW1 7301   0.608   2.570   0.598
 2134SOL    HW2 7302   0.715   2.511   0.706
 2135SOL     OW 7303   0.778   4.177   4.651
 2135SOL    HW1 7304   0.860   4.139   4.608
 2135SOL    HW2 7305   0.700   4.165   4.590
 2136SOL     OW 7306   2.458   4.804   2.562
 2136SOL    HW1 7307   2.526   4.840   2.626
 2136SOL    HW2 7308   2.499   4.732   2.506
 2137SOL     OW 7309   2.917   5.063   5.372
 2137SOL    HW1 7310   2.902   5.153   5.330
 2137SOL    HW2 7311   2.830   5.013   5.374
 2138SOL     OW 7312   6.423   6.865   2.811
 2138SOL    HW1 7313   6.406   6.918   2.728
 2138SOL    HW2 7314   6.388   6.772   2.799
 2139SOL     OW 7315   4.124   0.753   4.181
 2139SOL    HW1 7316   4.077   0.816   4.242
 2139SOL    HW2 7317   4.213   0.792   4.156
 2140SOL     OW 7318   2.680   6.402   4.236
 2140SOL    HW1 7319   2.748   6.329   4.230
 2140SOL    HW2 7320   2.639   6.417   4.146
 2141SOL     OW 7321   6.457   2.813   2.310
 2141SOL    HW1 7322   6.509   2.840   2.229
 2141SOL    HW2 7323   6.359   2.823   2.292
 2142SOL     OW 7324   0.587   1.657   3.432
 2142SOL    HW1 7325   0.679   1.627   3.406
 2142SOL    HW2 7326   0.585   1.757   3.437
 2143SOL     OW 7327   2.330   5.070   1.180
 2143SOL    HW1 7328   2.403   5.004   1.198
 2143SOL    HW2 7329   2.286   5.095   1.266
 2144SOL     OW 7330   0.924   5.553   4.599
 2144SOL    HW1 7331   0.931   5.485   4.673
 2144SOL    HW2 7332   1.000   5.616   4.604
 2145SOL     OW 7333   3.922   6.504   4.368
 2145SOL    HW1 7334   3.897   6.440   4.295
 2145SOL    HW2 7335   3.844   6.518   4.429
 2146SOL     OW 7336   2.285   2.297   1.025
 2146SOL    HW1 7337   2.244   2.364   1.087
 2146SOL    HW2 7338   2.260   2.320   0.931
 2147SOL     OW 7339   6.062   1.258   6.680
 2147SOL    HW1 7340   6.038   1.215   6.593
 2147SOL    HW2 7341   6.158   1.241   6.700
 2148SOL     OW 7342   6.368   3.415   6.285
 2148SOL    HW1 7343   6.303   3.345   6.315
 2148SOL    HW2 7344   6.329   3.466   6.208
 2149SOL     OW 7345   1.890   1.532   1.076
 2149SOL    HW1 7346   1.955   1.602   1.046
 2149SOL    HW2 7347   1.928   1.441   1.057
 2150SOL     OW 7348   2.339   2.366   1.668
 2150SOL    HW1 7349   2.302   2.402   1.754
 2150SOL    HW2 7350   2.402   2.432   1.628
 2151SOL     OW 7351   1.267   6.221   6.530
 2151SOL    HW1 7352   1.196   6.286   6.556
 2151SOL    HW2 7353   1.234   6.164   6.454
 2152SOL     OW 7354   4.525   4.446   2.665
 2152SOL    HW1 7355   4.496   4.484   2.753
 2152SOL    HW2 7356   4.577   4.362   2.681
 2153SOL     OW 7357   4.937   1.964   1.943
 2153SOL    HW1 7358   4.958   1.914   2.027
 2153SOL    HW2 7359   4.995   2.045   1.938
 2154SOL     OW 7360   3.434   0.118   4.184
 2154SOL    HW1 7361   3.411   0.192   4.246
 2154SOL    HW2 7362   3.533   0.112   4.174
 2155SOL     OW 7363   4.151   0.109   1.094
 2155SOL    HW1 7364   4.191   0.058   1.170
 2155SOL    HW2 7365   4.053   0.093   1.091
 2156SOL     OW 7366   6.962   0.186   4.716
 2156SOL    HW1 7367   6.995   0.251   4.649
 2156SOL    HW2 7368   0.023   0.142   4.762
 2157SOL     OW 7369   5.334   6.127   3.692
 2157SOL    HW1 7370   5.272   6.198   3.657
 2157SOL    HW2 7371   5.426   6.142   3.656
 2158SOL     OW 7372   4.123   5.729   0.196
 2158SOL    HW1 7373   4.082   5.802   0.252
 2158SOL    HW2 7374   4.055   5.692   0.134
 2159SOL     OW 7375   1.468   0.338   5.153
 2159SOL    HW1 7376   1.466   0.241   5.180
 2159SOL    HW2 7377   1.562   0.372   5.162
 2160SOL     OW 7378   5.031   4.745   6.885
 2160SOL    HW1 7379   5.020   4.657   6.931
 2160SOL    HW2 7380   5.020   4.733   6.786
 2161SOL     OW 7381   6.474   4.457   1.783
 2161SOL    HW1 7382   6.513   4.471   1.874
 2161SOL    HW2 7383   6.507   4.371   1.746
 2162SOL     OW 7384   2.732   0.032   2.728
 2162SOL    HW1 7385   2.766   0.010   2.636
 2162SOL    HW2 7386   2.780   6.994   2.796
 2163SOL     OW 7387   1.273   4.470   0.699
 2163SOL    HW1 7388   1.214   4.460   0.779
 2163SOL    HW2 7389   1.244   4.405   0.628
 2164SOL     OW 7390   2.417   1.947   6.632
 2164SOL    HW1 7391   2.379   1.855   6.636
 2164SOL    HW2 7392   2.470   1.957   6.547
 2165SOL     OW 7393   0.485   2.399   3.968
 2165SOL    HW1 7394   0.582   2.394   3.948
 2165SOL    HW2 7395   0.446   2.306   3.966
 2166SOL     OW 7396   0.373   3.652   4.110
 2166SOL    HW1 7397   0.410   3.731   4.160
 2166SOL    HW2 7398   0.381   3.570   4.167
 2167SOL     OW 7399   0.437   3.615   3.829
 2167SOL    HW1 7400   0.359   3.660   3.787
 2167SOL    HW2 7401   0.432   3.625   3.928
 2168SOL     OW 7402   1.081   1.611   3.024
 2168SOL    HW1 7403   1.096   1.519   3.059
 2168SOL    HW2 7404   1.167   1.663   3.029
 2169SOL     OW 7405   6.804   0.662   1.304
 2169SOL    HW1 7406   6.831   0.617   1.389
 2169SOL    HW2 7407   6.882   0.713   1.267
 2170SOL     OW 7408   6.842   4.128   5.108
 2170SOL    HW1 7409   6.818   4.122   5.205
 2170SOL    HW2 7410   6.905   4.054   5.085
 2171SOL     OW 7411   1.288   5.247   1.510
 2171SOL    HW1 7412   1.205   5.191   1.506
 2171SOL    HW2 7413   1.355   5.205   1.571
 2172SOL     OW 7414   2.300   2.302   5.750
 2172SOL    HW1 7415   2.306   2.358   5.667
 2172SOL    HW2 7416   2.320   2.207   5.727
 2173SOL     OW 7417   4.706   0.492   5.415
 2173SOL    HW1 7418   4.766   0.506   5.336
 2173SOL    HW2 7419   4.669   0.580   5.445
 2174SOL     OW 7420   6.631   6.246   4.908
 2174SOL    HW1 7421   6.557   6.266   4.972
 2174SOL    HW2 7422   6.598   6.181   4.839
 2175SOL     OW 7423   1.528   3.613   4.660
 2175SOL    HW1 7424   1.606   3.647   4.712
 2175SOL    HW2 7425   1.559   3.572   4.574
 2176SOL     OW 7426   5.165   1.550   1.561
 2176SOL    HW1 7427   5.110   1.629   1.536
 2176SOL    HW2 7428   5.261   1.578   1.566
 2177SOL     OW 7429   6.841   0.255   2.237
 2177SOL    HW1 7430   6.747   0.225   2.249
 2177SOL    HW2 7431   6.850   0.301   2.148
 2178SOL     OW 7432   1.587   1.196   1.850
 2178SOL    HW1 7433   1.542   1.119   1.894
 2178SOL    HW2 7434   1.631   1.254   1.919
 2179SOL     OW 7435   2.003   3.680   6.124
 2179SOL    HW1 7436   2.020   3.779   6.121
 2179SOL    HW2 7437   2.025   3.646   6.216
 2180SOL     OW 7438   1.207   2.864   2.043
 2180SOL    HW1 7439   1.163   2.954   2.045
 2180SOL    HW2 7440   1.219   2.831   2.137
 2181SOL     OW 7441   4.541   5.120   3.892
 2181SOL    HW1 7442   4.511   5.211   3.922
 2181SOL    HW2 7443   4.566   5.124   3.796
 2182SOL     OW 7444   0.955   5.030   3.725
 2182SOL    HW1 7445   0.978   5.011   3.630
 2182SOL    HW2 7446   0.970   4.947   3.780
 2183SOL     OW 7447   2.487   4.023   0.404
 2183SOL    HW1 7448   2.432   3.976   0.335
 2183SOL    HW2 7449   2.518   4.111   0.368
 2184SOL     OW 7450   4.028   6.589   6.381
 2184SOL    HW1 7451   4.045   6.525   6.306
 2184SOL    HW2 7452   4.115   6.626   6.413
 2185SOL     OW 7453   0.938   1.418   6.813
 2185SOL    HW1 7454   0.956   1.494   6.875
 2185SOL    HW2 7455   0.843   1.424   6.780
 2186SOL     OW 7456   6.586   5.771   6.670
 2186SOL    HW1 7457   6.547   5.755   6.579
 2186SOL    HW2 7458   6.620   5.684   6.707
 2187SOL     OW 7459   0.101   6.372   2.444
 2187SOL    HW1 7460   0.061   6.284   2.469
 2187SOL    HW2 7461   0.168   6.359   2.371
 2188SOL     OW 7462   1.746   5.622   5.466
 2188SOL    HW1 7463   1.764   5.598   5.371
 2188SOL    HW2 7464   1.732   5.539   5.520
 2189SOL     OW 7465   1.186   6.901   1.546
 2189SOL    HW1 7466   1.190   6.975   1.612
 2189SOL    HW2 7467   1.229   6.930   1.461
 2190SOL     OW 7468   6.294   3.118   1.955
 2190SOL    HW1 7469   6.325   3.103   1.862
 2190SOL    HW2 7470   6.366   3.092   2.019
 2191SOL     OW 7471   2.278   1.690   5.451
 2191SOL    HW1 7472   2.274   1.612   5.513
 2191SOL    HW2 7473   2.250   1.773   5.499
 2192SOL     OW 7474   4.811   0.569   2.722
 2192SOL    HW1 7475   4.792   0.533   2.631
 2192SOL    HW2 7476   4.726   0.600   2.765
 2193SOL     OW 7477   6.656   0.405   6.113
 2193SOL    HW1 7478   6.652   0.385   6.210
 2193SOL    HW2 7479   6.745   0.444   6.090
 2194SOL     OW 7480   1.899   3.930   6.682
 2194SOL    HW1 7481   1.837   3.953   6.757
 2194SOL    HW2 7482   1.982   3.986   6.690
 2195SOL     OW 7483   0.071   6.833   5.598
 2195SOL    HW1 7484   7.000   6.856   5.557
 2195SOL    HW2 7485   0.127   6.916   5.606
 2196SOL     OW 7486   2.786   6.622   4.355
 2196SOL    HW1 7487   2.724   6.698   4.376
 2196SOL    HW2 7488   2.733   6.540   4.336
 2197SOL     OW 7489   3.064   3.498   6.046
 2197SOL    HW1 7490   3.077   3.489   5.947
 2197SOL    HW2 7491   3.005   3.424   6.078
 2198SOL     OW 7492   6.026   0.416   1.396
 2198SOL    HW1 7493   5.993   0.503   1.360
 2198SOL    HW2 7494   6.005   0.411   1.494
 2199SOL     OW 7495   5.079   6.678   4.225
 2199SOL    HW1 7496   5.129   6.594   4.206
 2199SOL    HW2 7497   5.078   6.695   4.324
 2200SOL     OW 7498   2.245   1.569   4.052
 2200SOL    HW1 7499   2.303   1.651   4.052
 2200SOL    HW2 7500   2.221   1.545   4.146
 2201SOL     OW 7501   6.065   2.665   3.064
 2201SOL    HW1 7502   6.101   2.575   3.039
 2201SOL    HW2 7503   5.967   2.669   3.042
 2202SOL     OW 7504   3.776   5.689   1.670
 2202SOL    HW1 7505   3.797   5.785   1.651
 2202SOL    HW2 7506   3.677   5.676   1.673
 2203SOL     OW 7507   2.658   3.217   1.294
 2203SOL    HW1 7508   2.723   3.190   1.365
 2203SOL    HW2 7509   2.631   3.136   1.241
 2204SOL     OW 7510   4.045   2.679   1.105
 2204SOL    HW1 7511   3.973   2.649   1.169
 2204SOL    HW2 7512   4.046   2.618   1.026
 2205SOL     OW 7513   1.665   0.127   0.006
 2205SOL    HW1 7514   1.618   0.040   0.023
 2205SOL    HW2 7515   1.718   0.153   0.086
 2206SOL     OW 7516   2.816   4.268   5.809
 2206SOL    HW1 7517   2.828   4.312   5.720
 2206SOL    HW2 7518   2.762   4.327   5.869
 2207SOL     OW 7519   3.475   4.093   6.782
 2207SOL    HW1 7520   3.494   4.190   6.766
 2207SOL    HW2 7521   3.384   4.083   6.822
 2208SOL     OW 7522   1.110   5.090   2.815
 2208SOL    HW1 7523   1.129   5.021   2.884
 2208SOL    HW2 7524   1.151   5.177   2.843
 2209SOL     OW 7525   2.552   6.827   5.021
 2209SOL    HW1 7526   2.611   6.809   5.099
 2209SOL    HW2 7527   2.527   6.741   4.977
 2210SOL     OW 7528   0.187   4.865   3.236
 2210SOL    HW1 7529   0.128   4.911   3.303
 2210SOL    HW2 7530   0.248   4.801   3.284
 2211SOL     OW 7531   6.794   0.790   0.665
 2211SOL    HW1 7532   6.832   0.879   0.692
 2211SOL    HW2 7533   6.754   0.797   0.574
 2212SOL     OW 7534   2.131   5.758   0.305
 2212SOL    HW1 7535   2.151   5.663   0.283
 2212SOL    HW2 7536   2.130   5.813   0.222
 2213SOL     OW 7537   3.944   2.247   5.686
 2213SOL    HW1 7538   4.033   2.245   5.641
 2213SOL    HW2 7539   3.882   2.306   5.634
 2214SOL     OW 7540   2.875   3.624   4.992
 2214SOL    HW1 7541   2.776   3.636   4.987
 2214SOL    HW2 7542   2.901   3.607   5.087
 2215SOL     OW 7543   5.978   0.696   6.860
 2215SOL    HW1 7544   5.940   0.613   6.902
 2215SOL    HW2 7545   5.953   0.698   6.763
 2216SOL     OW 7546   0.817   0.541   5.929
 2216SOL    HW1 7547   0.908   0.517   5.896
 2216SOL    HW2 7548   0.808   0.641   5.931
 2217SOL     OW 7549   4.234   0.236   2.555
 2217SOL    HW1 7550   4.248   0.141   2.583
 2217SOL    HW2 7551   4.148   0.244   2.504
 2218SOL     OW 7552   0.110   5.319   7.015
 2218SOL    HW1 7553   0.162   5.280   0.073
 2218SOL    HW2 7554   0.063   5.246   6.966
 2219SOL     OW 7555   5.992   1.545   0.665
 2219SOL    HW1 7556   5.999   1.641   0.640
 2219SOL    HW2 7557   5.998   1.536   0.764
 2220SOL     OW 7558   2.324   6.044   5.588
 2220SOL    HW1 7559   2.239   6.008   5.627
 2220SOL    HW2 7560   2.302   6.117   5.523
 2221SOL     OW 7561   6.116   1.439   5.105
 2221SOL    HW1 7562   6.058   1.418   5.184
 2221SOL    HW2 7563   6.209   1.408   5.122
 2222SOL     OW 7564   5.934   0.475   1.136
 2222SOL    HW1 7565   5.983   0.550   1.180
 2222SOL    HW2 7566   5.896   0.507   1.049
 2223SOL     OW 7567   5.965   0.625   5.991
 2223SOL    HW1 7568   5.939   0.651   6.084
 2223SOL    HW2 7569   6.063   0.640   5.978
 2224SOL     OW 7570   6.340   3.835   0.975
 2224SOL    HW1 7571   6.368   3.744   1.005
 2224SOL    HW2 7572   6.345   3.898   1.053
 2225SOL     OW 7573   5.961   6.904   3.976
 2225SOL    HW1 7574   5.907   6.939   4.052
 2225SOL    HW2 7575   6.057   6.923   3.992
 2226SOL     OW 7576   3.779   5.028   0.940
 2226SOL    HW1 7577   3.692   5.015   0.893
 2226SOL    HW2 7578   3.809   4.941   0.979
 2227SOL     OW 7579   5.385   2.540   0.780
 2227SOL    HW1 7580   5.353   2.451   0.747
 2227SOL    HW2 7581   5.484   2.547   0.766
 2228SOL     OW 7582   3.959   5.109   0.498
 2228SOL    HW1 7583   3.863   5.083   0.509
 2228SOL    HW2 7584   3.990   5.158   0.579
 2229SOL     OW 7585   3.864   2.981   5.360
 2229SOL    HW1 7586   3.796   3.053   5.345
 2229SOL    HW2 7587   3.951   3.009   5.318
 2230SOL     OW 7588   5.740   6.345   1.039
 2230SOL    HW1 7589   5.689   6.417   1.086
 2230SOL    HW2 7590   5.748   6.369   0.942
 2231SOL     OW 7591   6.997   0.847   0.924
 2231SOL    HW1 7592   6.935   0.779   0.885
 2231SOL    HW2 7593   6.990   0.932   0.872
 2232SOL     OW 7594   1.200   1.522   4.696
 2232SOL    HW1 7595   1.272   1.456   4.717
 2232SOL    HW2 7596   1.229   1.580   4.620
 2233SOL     OW 7597   2.264   2.677   0.667
 2233SOL    HW1 7598   2.216   2.638   0.745
 2233SOL    HW2 7599   2.355   2.707   0.695
 2234SOL     OW 7600   3.674   1.473   1.126
 2234SOL    HW1 7601   3.758   1.419   1.121
 2234SOL    HW2 7602   3.656   1.498   1.221
 2235SOL     OW 7603   2.625   0.421   2.036
 2235SOL    HW1 7604   2.662   0.354   1.972
 2235SOL    HW2 7605   2.562   0.482   1.988
 2236SOL     OW 7606   1.952   3.809   5.555
 2236SOL    HW1 7607   1.912   3.729   5.598
 2236SOL    HW2 7608   1.888   3.886   5.561
 2237SOL     OW 7609   5.515   4.594   4.264
 2237SOL    HW1 7610   5.612   4.604   4.287
 2237SOL    HW2 7611   5.498   4.502   4.228
 2238SOL     OW 7612   4.656   5.382   2.067
 2238SOL    HW1 7613   4.747   5.422   2.060
 2238SOL    HW2 7614   4.618   5.367   1.976
 2239SOL     OW 7615   4.074   5.707   4.109
 2239SOL    HW1 7616   4.052   5.684   4.203
 2239SOL    HW2 7617   4.172   5.695   4.094
 2240SOL     OW 7618   3.436   5.491   2.346
 2240SOL    HW1 7619   3.517   5.437   2.369
 2240SOL    HW2 7620   3.356   5.454   2.393
 2241SOL     OW 7621   6.954   6.164   2.540
 2241SOL    HW1 7622   6.898   6.116   2.473
 2241SOL    HW2 7623   6.904   6.171   2.626
 2242SOL     OW 7624   4.881   3.038   2.380
 2242SOL    HW1 7625   4.832   2.978   2.316
 2242SOL    HW2 7626   4.817   3.103   2.421
 2243SOL     OW 7627   1.536   0.034   6.544
 2243SOL    HW1 7628   1.466   6.991   6.581
 2243SOL    HW2 7629   1.520   0.048   6.446
 2244SOL     OW 7630   3.286   6.563   1.603
 2244SOL    HW1 7631   3.278   6.546   1.701
 2244SOL    HW2 7632   3.381   6.580   1.579
 2245SOL     OW 7633   0.789   1.533   1.163
 2245SOL    HW1 7634   0.760   1.454   1.217
 2245SOL    HW2 7635   0.886   1.525   1.141
 2246SOL     OW 7636   2.344   0.845   4.336
 2246SOL    HW1 7637   2.297   0.932   4.350
 2246SOL    HW2 7638   2.422   0.839   4.398
 2247SOL     OW 7639   3.230   2.982   2.890
 2247SOL    HW1 7640   3.290   2.924   2.946
 2247SOL    HW2 7641   3.151   3.009   2.945
 2248SOL     OW 7642   6.561   3.684   5.163
 2248SOL    HW1 7643   6.643   3.657   5.213
 2248SOL    HW2 7644   6.570   3.656   5.067
 2249SOL     OW 7645   5.521   6.960   3.715
 2249SOL    HW1 7646   5.508   0.042   3.715
 2249SOL    HW2 7647   5.613   6.939   3.681
 2250SOL     OW 7648   3.509   4.144   5.144
 2250SOL    HW1 7649   3.425   4.193   5.168
 2250SOL    HW2 7650   3.561   4.124   5.227
 2251SOL     OW 7651   5.367   6.649   6.526
 2251SOL    HW1 7652   5.433   6.687   6.462
 2251SOL    HW2 7653   5.295   6.717   6.544
 2252SOL     OW 7654   4.794   1.509   3.439
 2252SOL    HW1 7655   4.750   1.509   3.529
 2252SOL    HW2 7656   4.826   1.601   3.418
 2253SOL     OW 7657   6.715   2.813   6.967
 2253SOL    HW1 7658   6.716   2.812   0.049
 2253SOL    HW2 7659   6.628   2.776   6.934
 2254SOL     OW 7660   3.197   2.981   4.578
 2254SOL    HW1 7661   3.256   3.040   4.522
 2254SOL    HW2 7662   3.164   2.905   4.523
 2255SOL     OW 7663   3.940   3.070   6.223
 2255SOL    HW1 7664   4.024   3.026   6.189
 2255SOL    HW2 7665   3.949   3.169   6.212
 2256SOL     OW 7666   5.040   6.174   2.072
 2256SOL    HW1 7667   5.065   6.270   2.063
 2256SOL    HW2 7668   5.027   6.133   1.982
 2257SOL     OW 7669   1.036   1.944   4.613
 2257SOL    HW1 7670   0.993   1.932   4.703
 2257SOL    HW2 7671   1.124   1.990   4.623
 2258SOL     OW 7672   1.391   5.388   4.429
 2258SOL    HW1 7673   1.445   5.472   4.435
 2258SOL    HW2 7674   1.417   5.327   4.504
 2259SOL     OW 7675   5.470   2.882   5.823
 2259SOL    HW1 7676   5.517   2.906   5.908
 2259SOL    HW2 7677   5.422   2.963   5.787
 2260SOL     OW 7678   0.063   4.454   1.444
 2260SOL    HW1 7679   0.160   4.428   1.446
 2260SOL    HW2 7680   0.032   4.463   1.350
 2261SOL     OW 7681   6.191   5.230   0.468
 2261SOL    HW1 7682   6.192   5.212   0.370
 2261SOL    HW2 7683   6.148   5.319   0.485
 2262SOL     OW 7684   5.905   0.459   3.156
 2262SOL    HW1 7685   5.961   0.419   3.083
 2262SOL    HW2 7686   5.960   0.524   3.208
 2263SOL     OW 7687   3.248   5.621   0.520
 2263SOL    HW1 7688   3.178   5.641   0.588
 2263SOL    HW2 7689   3.254   5.522   0.507
 2264SOL     OW 7690   3.009   5.540   6.767
 2264SOL    HW1 7691   2.926   5.483   6.769
 2264SOL    HW2 7692   3.040   5.556   6.861
 2265SOL     OW 7693   2.147   1.076   4.236
 2265SOL    HW1 7694   2.214   1.076   4.163
 2265SOL    HW2 7695   2.085   0.998   4.225
 2266SOL     OW 7696   5.029   1.157   0.012
 2266SOL    HW1 7697   5.058   1.184   0.104
 2266SOL    HW2 7698   4.930   1.161   0.006
 2267SOL     OW 7699   4.878   3.440   4.759
 2267SOL    HW1 7700   4.852   3.482   4.846
 2267SOL    HW2 7701   4.840   3.348   4.754
 2268SOL     OW 7702   5.828   4.124   6.084
 2268SOL    HW1 7703   5.783   4.209   6.059
 2268SOL    HW2 7704   5.917   4.118   6.037
 2269SOL     OW 7705   0.635   4.579   5.589
 2269SOL    HW1 7706   0.620   4.484   5.562
 2269SOL    HW2 7707   0.549   4.630   5.582
 2270SOL     OW 7708   3.889   2.458   6.411
 2270SOL    HW1 7709   3.986   2.434   6.410
 2270SOL    HW2 7710   3.880   2.557   6.421
 2271SOL     OW 7711   5.922   4.463   0.324
 2271SOL    HW1 7712   5.957   4.375   0.356
 2271SOL    HW2 7713   5.941   4.472   0.226
 2272SOL     OW 7714   5.540   1.851   0.170
 2272SOL    HW1 7715   5.578   1.761   0.186
 2272SOL    HW2 7716   5.454   1.843   0.119
 2273SOL     OW 7717   1.334   1.299   2.131
 2273SOL    HW1 7718   1.410   1.264   2.186
 2273SOL    HW2 7719   1.248   1.286   2.179
 2274SOL     OW 7720   0.942   1.134   6.303
 2274SOL    HW1 7721   0.854   1.125   6.349
 2274SOL    HW2 7722   0.955   1.058   6.240
 2275SOL     OW 7723   6.240   6.726   3.920
 2275SOL    HW1 7724   6.257   6.721   3.822
 2275SOL    HW2 7725   6.157   6.675   3.943
 2276SOL     OW 7726   2.414   5.347   2.271
 2276SOL    HW1 7727   2.389   5.283   2.199
 2276SOL    HW2 7728   2.507   5.381   2.254
 2277SOL     OW 7729   3.454   4.146   3.953
 2277SOL    HW1 7730   3.506   4.152   4.038
 2277SOL    HW2 7731   3.453   4.051   3.920
 2278SOL     OW 7732   5.978   3.912   4.233
 2278SOL    HW1 7733   5.971   3.974   4.311
 2278SOL    HW2 7734   5.887   3.888   4.200
 2279SOL     OW 7735   6.132   0.265   5.483
 2279SOL    HW1 7736   6.041   0.223   5.475
 2279SOL    HW2 7737   6.126   0.346   5.541
 2280SOL     OW 7738   6.767   0.000   4.691
 2280SOL    HW1 7739   6.851   0.051   4.709
 2280SOL    HW2 7740   6.708   0.003   4.772
 2281SOL     OW 7741   3.567   0.717   2.253
 2281SOL    HW1 7742   3.622   0.772   2.189
 2281SOL    HW2 7743   3.521   0.778   2.317
 2282SOL     OW 7744   5.735   6.971   5.208
 2282SOL    HW1 7745   5.748   6.892   5.149
 2282SOL    HW2 7746   5.823   7.017   5.222
 2283SOL     OW 7747   1.483   6.721   1.928
 2283SOL    HW1 7748   1.531   6.719   1.840
 2283SOL    HW2 7749   1.541   6.763   1.998
 2284SOL     OW 7750   1.522   2.984   6.669
 2284SOL    HW1 7751   1.530   3.053   6.597
 2284SOL    HW2 7752   1.611   2.970   6.713
 2285SOL     OW 7753   1.516   2.793   1.045
 2285SOL    HW1 7754   1.519   2.697   1.015
 2285SOL    HW2 7755   1.548   2.799   1.140
 2286SOL     OW 7756   5.774   6.741   3.843
 2286SOL    HW1 7757   5.787   6.649   3.881
 2286SOL    HW2 7758   5.808   6.809   3.907
 2287SOL     OW 7759   2.209   0.282   3.937
 2287SOL    HW1 7760   2.154   0.364   3.949
 2287SOL    HW2 7761   2.276   0.297   3.864
 2288SOL     OW 7762   5.761   5.110   3.610
 2288SOL    HW1 7763   5.796   5.203   3.607
 2288SOL    HW2 7764   5.833   5.048   3.640
 2289SOL     OW 7765   0.383   5.030   0.722
 2289SOL    HW1 7766   0.453   5.026   0.651
 2289SOL    HW2 7767   0.295   5.055   0.680
 2290SOL     OW 7768   0.419   3.423   0.652
 2290SOL    HW1 7769   0.355   3.404   0.578
 2290SOL    HW2 7770   0.495   3.478   0.617
 2291SOL     OW 7771   1.830   2.315   5.174
 2291SOL    HW1 7772   1.733   2.291   5.177
 2291SOL    HW2 7773   1.870   2.279   5.089
 2292SOL     OW 7774   1.061   1.781   4.394
 2292SOL    HW1 7775   1.036   1.840   4.317
 2292SOL    HW2 7776   1.019   1.816   4.478
 2293SOL     OW 7777   5.461   6.453   1.130
 2293SOL    HW1 7778   5.368   6.427   1.157
 2293SOL    HW2 7779   5.468   6.552   1.124
 2294SOL     OW 7780   3.181   0.349   6.716
 2294SOL    HW1 7781   3.107   0.357   6.783
 2294SOL    HW2 7782   3.220   0.257   6.720
 2295SOL     OW 7783   0.892   1.991   2.304
 2295SOL    HW1 7784   0.848   2.077   2.329
 2295SOL    HW2 7785   0.829   1.935   2.251
 2296SOL     OW 7786   4.146   5.183   0.004
 2296SOL    HW1 7787   4.226   5.125   0.016
 2296SOL    HW2 7788   4.085   5.174   0.083
 2297SOL     OW 7789   4.000   4.047   5.093
 2297SOL    HW1 7790   3.952   4.109   5.032
 2297SOL    HW2 7791   3.988   3.952   5.062
 2298SOL     OW 7792   4.075   3.123   1.761
 2298SOL    HW1 7793   4.042   3.151   1.671
 2298SOL    HW2 7794   4.164   3.077   1.751
 2299SOL     OW 7795   4.878   6.256   5.670
 2299SOL    HW1 7796   4.875   6.317   5.591
 2299SOL    HW2 7797   4.832   6.170   5.648
 2300SOL     OW 7798   2.752   5.131   2.104
 2300SOL    HW1 7799   2.845   5.096   2.106
 2300SOL    HW2 7800   2.731   5.178   2.189
 2301SOL     OW 7801   3.044   3.117   3.034
 2301SOL    HW1 7802   2.989   3.167   2.966
 2301SOL    HW2 7803   2.997   3.120   3.122
 2302SOL     OW 7804   3.876   6.986   1.103
 2302SOL    HW1 7805   3.907   6.992   1.008
 2302SOL    HW2 7806   3.777   6.970   1.104
 2303SOL     OW 7807   2.026   3.249   6.117
 2303SOL    HW1 7808   2.010   3.157   6.082
 2303SOL    HW2 7809   2.125   3.265   6.122
 2304SOL     OW 7810   3.996   0.197   4.160
 2304SOL    HW1 7811   4.077   0.169   4.212
 2304SOL    HW2 7812   4.013   0.183   4.062
 2305SOL     OW 7813   2.528   6.526   2.892
 2305SOL    HW1 7814   2.512   6.567   2.982
 2305SOL    HW2 7815   2.454   6.551   2.830
 2306SOL     OW 7816   2.796   5.013   1.782
 2306SOL    HW1 7817   2.795   5.022   1.882
 2306SOL    HW2 7818   2.766   4.921   1.757
 2307SOL     OW 7819   0.662   4.013   3.006
 2307SOL    HW1 7820   0.639   3.989   2.912
 2307SOL    HW2 7821   0.762   4.010   3.017
 2308SOL     OW 7822   1.584   6.563   0.187
 2308SOL    HW1 7823   1.646   6.572   0.109
 2308SOL    HW2 7824   1.627   6.507   0.257
 2309SOL     OW 7825   2.868   6.491   6.445
 2309SOL    HW1 7826   2.858   6.424   6.372
 2309SOL    HW2 7827   2.784   6.544   6.452
 2310SOL     OW 7828   5.645   6.701   1.189
 2310SOL    HW1 7829   5.738   6.673   1.212
 2310SOL    HW2 7830   5.618   6.778   1.247
 2311SOL     OW 7831   2.212   5.833   2.137
 2311SOL    HW1 7832   2.253   5.756   2.088
 2311SOL    HW2 7833   2.255   5.918   2.106
 2312SOL     OW 7834   3.754   6.382   3.982
 2312SOL    HW1 7835   3.682   6.440   3.945
 2312SOL    HW2 7836   3.778   6.311   3.915
 2313SOL     OW 7837   5.453   5.574   1.451
 2313SOL    HW1 7838   5.474   5.613   1.541
 2313SOL    HW2 7839   5.371   5.518   1.457
 2314SOL     OW 7840   5.872   0.596   4.885
 2314SOL    HW1 7841   5.913   0.621   4.797
 2314SOL    HW2 7842   5.938   0.546   4.940
 2315SOL     OW 7843   4.982   3.539   5.406
 2315SOL    HW1 7844   4.999   3.544   5.308
 2315SOL    HW2 7845   4.907   3.600   5.431
 2316SOL     OW 7846   3.020   0.763   4.581
 2316SOL    HW1 7847   3.087   0.831   4.552
 2316SOL    HW2 7848   3.027   0.682   4.522
 2317SOL     OW 7849   6.366   6.077   3.014
 2317SOL    HW1 7850   6.432   6.082   3.089
 2317SOL    HW2 7851   6.338   5.982   3.000
 2318SOL     OW 7852   1.931   2.877   4.435
 2318SOL    HW1 7853   2.029   2.861   4.436
 2318SOL    HW2 7854   1.911   2.964   4.479
 2319SOL     OW 7855   3.104   5.346   4.651
 2319SOL    HW1 7856   3.015   5.344   4.696
 2319SOL    HW2 7857   3.173   5.385   4.712
 2320SOL     OW 7858   0.915   3.192   4.123
 2320SOL    HW1 7859   0.905   3.173   4.221
 2320SOL    HW2 7860   1.010   3.213   4.103
 2321SOL     OW 7861   2.209   5.520   0.191
 2321SOL    HW1 7862   2.129   5.475   0.231
 2321SOL    HW2 7863   2.216   5.495   0.094
 2322SOL     OW 7864   1.886   4.142   3.098
 2322SOL    HW1 7865   1.985   4.135   3.109
 2322SOL    HW2 7866   1.854   4.229   3.136
 2323SOL     OW 7867   3.395   4.641   1.541
 2323SOL    HW1 7868   3.463   4.656   1.613
 2323SOL    HW2 7869   3.441   4.611   1.458
 2324SOL     OW 7870   6.578   5.660   0.535
 2324SOL    HW1 7871   6.508   5.706   0.481
 2324SOL    HW2 7872   6.632   5.727   0.585
 2325SOL     OW 7873   1.229   4.227   1.072
 2325SOL    HW1 7874   1.284   4.152   1.110
 2325SOL    HW2 7875   1.136   4.221   1.107
 2326SOL     OW 7876   3.049   5.992   6.509
 2326SOL    HW1 7877   3.040   5.898   6.542
 2326SOL    HW2 7878   3.019   6.056   6.579
 2327SOL     OW 7879   6.788   1.749   3.896
 2327SOL    HW1 7880   6.729   1.828   3.914
 2327SOL    HW2 7881   6.755   1.700   3.816
 2328SOL     OW 7882   1.175   1.732   2.631
 2328SOL    HW1 7883   1.080   1.763   2.628
 2328SOL    HW2 7884   1.228   1.792   2.689
 2329SOL     OW 7885   1.958   4.768   4.782
 2329SOL    HW1 7886   1.901   4.693   4.814
 2329SOL    HW2 7887   2.044   4.770   4.833
 2330SOL     OW 7888   0.024   3.467   1.399
 2330SOL    HW1 7889   0.025   3.421   1.311
 2330SOL    HW2 7890   0.118   3.485   1.429
 2331SOL     OW 7891   4.012   5.215   6.628
 2331SOL    HW1 7892   4.108   5.194   6.648
 2331SOL    HW2 7893   3.977   5.150   6.561
 2332SOL     OW 7894   5.743   0.873   5.289
 2332SOL    HW1 7895   5.715   0.872   5.193
 2332SOL    HW2 7896   5.843   0.873   5.294
 2333SOL     OW 7897   0.147   4.656   2.634
 2333SOL    HW1 7898   0.073   4.636   2.570
 2333SOL    HW2 7899   0.119   4.632   2.727
 2334SOL     OW 7900   2.082   0.629   6.787
 2334SOL    HW1 7901   2.134   0.569   6.848
 2334SOL    HW2 7902   1.985   0.603   6.790
 2335SOL     OW 7903   6.559   1.205   3.835
 2335SOL    HW1 7904   6.493   1.273   3.866
 2335SOL    HW2 7905   6.650   1.227   3.872
 2336SOL     OW 7906   3.876   1.848   4.652
 2336SOL    HW1 7907   3.780   1.863   4.627
 2336SOL    HW2 7908   3.893   1.750   4.660
 2337SOL     OW 7909   4.209   0.823   1.590
 2337SOL    HW1 7910   4.227   0.921   1.587
 2337SOL    HW2 7911   4.112   0.808   1.608
 2338SOL     OW 7912   0.695   3.192   5.285
 2338SOL    HW1 7913   0.724   3.140   5.366
 2338SOL    HW2 7914   0.736   3.151   5.203
 2339SOL     OW 7915   2.922   3.324   3.774
 2339SOL    HW1 7916   2.935   3.421   3.794
 2339SOL    HW2 7917   2.883   3.279   3.854
 2340SOL     OW 7918   6.408   4.765   6.885
 2340SOL    HW1 7919   6.403   4.824   6.966
 2340SOL    HW2 7920   6.406   4.822   6.803
 2341SOL     OW 7921   3.715   4.864   2.184
 2341SOL    HW1 7922   3.648   4.898   2.250
 2341SOL    HW2 7923   3.669   4.822   2.107
 2342SOL     OW 7924   0.987   6.044   5.554
 2342SOL    HW1 7925   0.912   6.067   5.616
 2342SOL    HW2 7926   1.054   5.987   5.602
 2343SOL     OW 7927   1.945   5.936   3.303
 2343SOL    HW1 7928   1.929   6.033   3.285
 2343SOL    HW2 7929   1.918   5.882   3.223
 2344SOL     OW 7930   1.934   5.617   0.013
 2344SOL    HW1 7931   1.962   5.553   6.959
 2344SOL    HW2 7932   1.944   5.573   0.102
 2345SOL     OW 7933   3.049   5.534   4.913
 2345SOL    HW1 7934   3.002   5.606   4.965
 2345SOL    HW2 7935   3.100   5.475   4.976
 2346SOL     OW 7936   4.250   3.031   5.387
 2346SOL    HW1 7937   4.255   2.934   5.408
 2346SOL    HW2 7938   4.201   3.045   5.301
 2347SOL     OW 7939   3.080   2.147   1.228
 2347SOL    HW1 7940   2.988   2.187   1.223
 2347SOL    HW2 7941   3.147   2.211   1.191
 2348SOL     OW 7942   2.679   6.823   3.736
 2348SOL    HW1 7943   2.623   6.826   3.819
 2348SOL    HW2 7944   2.775   6.826   3.761
 2349SOL     OW 7945   1.260   4.747   6.190
 2349SOL    HW1 7946   1.232   4.651   6.193
 2349SOL    HW2 7947   1.205   4.796   6.122
 2350SOL     OW 7948   5.281   0.140   6.606
 2350SOL    HW1 7949   5.319   0.225   6.570
 2350SOL    HW2 7950   5.233   0.158   6.692
 2351SOL     OW 7951   3.082   4.926   4.301
 2351SOL    HW1 7952   3.042   4.881   4.221
 2351SOL    HW2 7953   3.009   4.973   4.352
 2352SOL     OW 7954   0.444   4.317   2.304
 2352SOL    HW1 7955   0.534   4.278   2.285
 2352SOL    HW2 7956   0.448   4.369   2.390
 2353SOL     OW 7957   2.945   4.874   5.697
 2353SOL    HW1 7958   2.976   4.779   5.705
 2353SOL    HW2 7959   3.014   4.927   5.646
 2354SOL     OW 7960   3.253   1.580   5.534
 2354SOL    HW1 7961   3.287   1.604   5.625
 2354SOL    HW2 7962   3.158   1.548   5.541
 2355SOL     OW 7963   2.470   5.439   0.168
 2355SOL    HW1 7964   2.493   5.346   0.197
 2355SOL    HW2 7965   2.377   5.462   0.198
 2356SOL     OW 7966   1.559   3.274   6.236
 2356SOL    HW1 7967   1.558   3.205   6.164
 2356SOL    HW2 7968   1.562   3.365   6.196
 2357SOL     OW 7969   4.042   6.912   2.782
 2357SOL    HW1 7970   3.987   6.991   2.810
 2357SOL    HW2 7971   4.139   6.932   2.800
 2358SOL     OW 7972   3.965   5.041   5.153
 2358SOL    HW1 7973   4.034   4.996   5.211
 2358SOL    HW2 7974   3.907   5.100   5.210
 2359SOL     OW 7975   6.263   0.456   5.689
 2359SOL    HW1 7976   6.178   0.501   5.659
 2359SOL    HW2 7977   6.247   0.410   5.776
 2360SOL     OW 7978   5.345   4.299   6.906
 2360SOL    HW1 7979   5.374   4.368   6.840
 2360SOL    HW2 7980   5.321   4.344   6.992
 2361SOL     OW 7981   2.596   1.176   4.985
 2361SOL    HW1 7982   2.520   1.124   5.024
 2361SOL    HW2 7983   2.680   1.123   4.993
 2362SOL     OW 7984   2.069   6.975   4.427
 2362SOL    HW1 7985   2.141   6.962   4.359
 2362SOL    HW2 7986   1.986   7.008   4.381
 2363SOL     OW 7987   4.583   2.541   5.000
 2363SOL    HW1 7988   4.583   2.641   4.995
 2363SOL    HW2 7989   4.563   2.503   4.910
 2364SOL     OW 7990   1.211   2.272   3.002
 2364SOL    HW1 7991   1.282   2.307   2.941
 2364SOL    HW2 7992   1.194   2.176   2.980
 2365SOL     OW 7993   6.520   2.728   6.591
 2365SOL    HW1 7994   6.581   2.805   6.610
 2365SOL    HW2 7995   6.491   2.730   6.496
 2366SOL     OW 7996   2.176   5.254   6.809
 2366SOL    HW1 7997   2.234   5.267   6.729
 2366SOL    HW2 7998   2.211   5.177   6.863
 2367SOL     OW 7999   2.533   4.506   0.380
 2367SOL    HW1 8000   2.630   4.499   0.402
 2367SOL    HW2 8001   2.506   4.603   0.378
 2368SOL     OW 8002   4.477   0.506   3.875
 2368SOL    HW1 8003   4.386   0.466   3.886
 2368SOL    HW2 8004   4.533   0.445   3.819
 2369SOL     OW 8005   1.467   2.152   5.548
 2369SOL    HW1 8006   1.367   2.153   5.543
 2369SOL    HW2 8007   1.505   2.178   5.460
 2370SOL     OW 8008   5.022   3.816   0.352
 2370SOL    HW1 8009   5.043   3.815   0.254
 2370SOL    HW2 8010   5.091   3.869   0.400
 2371SOL     OW 8011   0.496   0.041   2.820
 2371SOL    HW1 8012   0.553   0.119   2.845
 2371SOL    HW2 8013   0.542   6.974   2.846
 2372SOL     OW 8014   0.083   3.058   2.401
 2372SOL    HW1 8015   0.079   3.153   2.373
 2372SOL    HW2 8016   0.099   3.000   2.321
 2373SOL     OW 8017   0.481   2.264   0.001
 2373SOL    HW1 8018   0.500   2.183   6.963
 2373SOL    HW2 8019   0.422   2.239   0.078
 2374SOL     OW 8020   5.963   0.955   3.099
 2374SOL    HW1 8021   5.986   0.915   3.187
 2374SOL    HW2 8022   5.927   1.048   3.112
 2375SOL     OW 8023   3.023   6.733   4.800
 2375SOL    HW1 8024   3.028   6.733   4.700
 2375SOL    HW2 8025   2.930   6.713   4.829
 2376SOL     OW 8026   6.958   2.395   4.594
 2376SOL    HW1 8027   6.908   2.481   4.600
 2376SOL    HW2 8028   7.006   2.379   4.681
 2377SOL     OW 8029   3.298   4.014   3.260
 2377SOL    HW1 8030   3.236   3.966   3.197
 2377SOL    HW2 8031   3.246   4.045   3.339
 2378SOL     OW 8032   4.945   1.518   0.497
 2378SOL    HW1 8033   4.932   1.551   0.403
 2378SOL    HW2 8034   5.042   1.519   0.519
 2379SOL     OW 8035   5.833   1.788   6.812
 2379SOL    HW1 8036   5.741   1.788   6.852
 2379SOL    HW2 8037   5.861   1.694   6.795
 2380SOL     OW 8038   0.604   1.182   0.137
 2380SOL    HW1 8039   0.663   1.263   0.133
 2380SOL    HW2 8040   0.614   1.129   0.053
 2381SOL     OW 8041   2.215   4.052   4.573
 2381SOL    HW1 8042   2.198   3.965   4.526
 2381SOL    HW2 8043   2.205   4.040   4.671
 2382SOL     OW 8044   2.435   4.461   3.156
 2382SOL    HW1 8045   2.519   4.492   3.201
 2382SOL    HW2 8046   2.443   4.477   3.057
 2383SOL     OW 8047   5.386   6.643   1.711
 2383SOL    HW1 8048   5.360   6.639   1.615
 2383SOL    HW2 8049   5.433   6.558   1.737
 2384SOL     OW 8050   5.828   0.520   2.782
 2384SOL    HW1 8051   5.841   0.567   2.869
 2384SOL    HW2 8052   5.907   0.461   2.763
 2385SOL     OW 8053   1.003   6.593   1.385
 2385SOL    HW1 8054   0.963   6.641   1.464
 2385SOL    HW2 8055   0.939   6.521   1.355
 2386SOL     OW 8056   5.927   5.515   4.515
 2386SOL    HW1 8057   5.858   5.531   4.586
 2386SOL    HW2 8058   5.884   5.474   4.435
 2387SOL     OW 8059   1.237   1.763   3.502
 2387SOL    HW1 8060   1.290   1.687   3.464
 2387SOL    HW2 8061   1.204   1.821   3.428
 2388SOL     OW 8062   0.583   2.575   4.513
 2388SOL    HW1 8063   0.607   2.672   4.512
 2388SOL    HW2 8064   0.515   2.556   4.443
 2389SOL     OW 8065   4.867   3.762   3.067
 2389SOL    HW1 8066   4.883   3.861   3.075
 2389SOL    HW2 8067   4.851   3.739   2.971
 2390SOL     OW 8068   4.072   3.780   2.671
 2390SOL    HW1 8069   4.171   3.792   2.659
 2390SOL    HW2 8070   4.054   3.688   2.705
 2391SOL     OW 8071   4.646   4.563   5.750
 2391SOL    HW1 8072   4.573   4.596   5.810
 2391SOL    HW2 8073   4.628   4.469   5.724
 2392SOL     OW 8074   4.063   6.650   5.202
 2392SOL    HW1 8075   3.966   6.666   5.215
 2392SOL    HW2 8076   4.084   6.644   5.104
 2393SOL     OW 8077   5.349   3.823   6.197
 2393SOL    HW1 8078   5.425   3.887   6.182
 2393SOL    HW2 8079   5.345   3.799   6.294
 2394SOL     OW 8080   1.295   3.503   4.600
 2394SOL    HW1 8081   1.291   3.404   4.584
 2394SOL    HW2 8082   1.390   3.530   4.613
 2395SOL     OW 8083   5.956   2.459   6.747
 2395SOL    HW1 8084   6.055   2.471   6.750
 2395SOL    HW2 8085   5.934   2.385   6.683
 2396SOL     OW 8086   3.387   5.017   1.430
 2396SOL    HW1 8087   3.407   5.078   1.352
 2396SOL    HW2 8088   3.473   4.981   1.465
 2397SOL     OW 8089   0.122   4.121   6.793
 2397SOL    HW1 8090   0.210   4.137   6.837
 2397SOL    HW2 8091   0.054   4.185   6.831
 2398SOL     OW 8092   2.096   3.390   6.636
 2398SOL    HW1 8093   2.143   3.317   6.586
 2398SOL    HW2 8094   1.998   3.385   6.617
 2399SOL     OW 8095   4.336   1.752   1.767
 2399SOL    HW1 8096   4.394   1.826   1.733
 2399SOL    HW2 8097   4.270   1.788   1.832
 2400SOL     OW 8098   3.236   4.157   0.218
 2400SOL    HW1 8099   3.322   4.106   0.225
 2400SOL    HW2 8100   3.188   4.129   0.135
 2401SOL     OW 8101   3.957   6.060   6.030
 2401SOL    HW1 8102   4.027   6.000   6.068
 2401SOL    HW2 8103   3.889   6.005   5.982
 2402SOL     OW 8104   6.887   1.161   3.543
 2402SOL    HW1 8105   6.912   1.069   3.513
 2402SOL    HW2 8106   6.790   1.178   3.524
 2403SOL     OW 8107   2.137   2.693   6.985
 2403SOL    HW1 8108   2.042   2.674   6.960
 2403SOL    HW2 8109   2.198   2.642   6.925
 2404SOL     OW 8110   3.848   1.003   0.870
 2404SOL    HW1 8111   3.765   1.002   0.926
 2404SOL    HW2 8112   3.822   1.012   0.774
 2405SOL     OW 8113   3.883   3.343   2.770
 2405SOL    HW1 8114   3.809   3.410   2.769
 2405SOL    HW2 8115   3.844   3.252   2.790
 2406SOL     OW 8116   3.074   6.579   3.005
 2406SOL    HW1 8117   2.978   6.584   2.976
 2406SOL    HW2 8118   3.133   6.602   2.929
 2407SOL     OW 8119   5.300   2.150   2.014
 2407SOL    HW1 8120   5.340   2.071   1.967
 2407SOL    HW2 8121   5.213   2.174   1.970
 2408SOL     OW 8122   3.838   5.510   2.856
 2408SOL    HW1 8123   3.783   5.589   2.829
 2408SOL    HW2 8124   3.891   5.533   2.938
 2409SOL     OW 8125   1.653   3.861   1.980
 2409SOL    HW1 8126   1.557   3.889   1.968
 2409SOL    HW2 8127   1.666   3.771   1.940
 2410SOL     OW 8128   4.376   2.502   6.362
 2410SOL    HW1 8129   4.438   2.445   6.416
 2410SOL    HW2 8130   4.336   2.448   6.288
 2411SOL     OW 8131   4.271   5.288   5.100
 2411SOL    HW1 8132   4.177   5.284   5.064
 2411SOL    HW2 8133   4.331   5.232   5.042
 2412SOL     OW 8134   4.649   5.450   1.522
 2412SOL    HW1 8135   4.643   5.411   1.430
 2412SOL    HW2 8136   4.623   5.546   1.518
 2413SOL     OW 8137   6.409   2.066   0.899
 2413SOL    HW1 8138   6.315   2.037   0.882
 2413SOL    HW2 8139   6.412   2.123   0.981
 2414SOL     OW 8140   4.896   4.209   2.416
 2414SOL    HW1 8141   4.834   4.280   2.448
 2414SOL    HW2 8142   4.991   4.235   2.438
 2415SOL     OW 8143   0.059   0.123   2.351
 2415SOL    HW1 8144   6.998   0.160   2.302
 2415SOL    HW2 8145   0.028   0.057   2.420
 2416SOL     OW 8146   4.119   2.311   5.374
 2416SOL    HW1 8147   4.075   2.399   5.353
 2416SOL    HW2 8148   4.100   2.246   5.300
 2417SOL     OW 8149   3.887   2.995   5.784
 2417SOL    HW1 8150   3.928   2.916   5.828
 2417SOL    HW2 8151   3.948   3.028   5.711
 2418SOL     OW 8152   3.172   3.440   4.269
 2418SOL    HW1 8153   3.107   3.498   4.220
 2418SOL    HW2 8154   3.168   3.461   4.367
 2419SOL     OW 8155   0.797   6.661   4.679
 2419SOL    HW1 8156   0.838   6.575   4.651
 2419SOL    HW2 8157   0.835   6.736   4.623
 2420SOL     OW 8158   2.751   1.557   2.305
 2420SOL    HW1 8159   2.685   1.482   2.303
 2420SOL    HW2 8160   2.843   1.521   2.285
 2421SOL     OW 8161   2.734   1.977   4.982
 2421SOL    HW1 8162   2.781   2.055   5.022
 2421SOL    HW2 8163   2.760   1.893   5.030
 2422SOL     OW 8164   5.365   1.200   0.878
 2422SOL    HW1 8165   5.447   1.233   0.832
 2422SOL    HW2 8166   5.385   1.113   0.923
 2423SOL     OW 8167   1.014   6.123   2.912
 2423SOL    HW1 8168   0.947   6.051   2.893
 2423SOL    HW2 8169   1.007   6.194   2.843
 2424SOL     OW 8170   6.121   6.672   5.977
 2424SOL    HW1 8171   6.027   6.700   5.960
 2424SOL    HW2 8172   6.127   6.627   6.066
 2425SOL     OW 8173   5.554   0.751   3.792
 2425SOL    HW1 8174   5.569   0.754   3.694
 2425SOL    HW2 8175   5.553   0.656   3.823
 2426SOL     OW 8176   0.833   5.945   5.092
 2426SOL    HW1 8177   0.909   5.961   5.030
 2426SOL    HW2 8178   0.770   6.023   5.088
 2427SOL     OW 8179   5.735   5.893   5.484
 2427SOL    HW1 8180   5.645   5.907   5.526
 2427SOL    HW2 8181   5.757   5.796   5.483
 2428SOL     OW 8182   6.295   0.202   2.624
 2428SOL    HW1 8183   6.209   0.233   2.585
 2428SOL    HW2 8184   6.281   0.171   2.717
 2429SOL     OW 8185   5.333   5.174   3.535
 2429SOL    HW1 8186   5.350   5.222   3.449
 2429SOL    HW2 8187   5.258   5.219   3.584
 2430SOL     OW 8188   5.993   1.916   1.183
 2430SOL    HW1 8189   6.078   1.896   1.135
 2430SOL    HW2 8190   5.981   1.851   1.258
 2431SOL     OW 8191   4.353   1.214   2.608
 2431SOL    HW1 8192   4.366   1.120   2.639
 2431SOL    HW2 8193   4.292   1.262   2.672
 2432SOL     OW 8194   3.137   6.858   2.971
 2432SOL    HW1 8195   3.183   6.829   2.886
 2432SOL    HW2 8196   3.150   6.787   3.040
 2433SOL     OW 8197   3.575   0.660   1.264
 2433SOL    HW1 8198   3.596   0.594   1.336
 2433SOL    HW2 8199   3.520   0.734   1.302
 2434SOL     OW 8200   4.134   1.116   5.321
 2434SOL    HW1 8201   4.216   1.143   5.372
 2434SOL    HW2 8202   4.154   1.119   5.223
 2435SOL     OW 8203   4.827   4.270   6.889
 2435SOL    HW1 8204   4.752   4.271   6.823
 2435SOL    HW2 8205   4.903   4.216   6.851
 2436SOL     OW 8206   1.534   5.775   1.092
 2436SOL    HW1 8207   1.477   5.766   1.174
 2436SOL    HW2 8208   1.533   5.870   1.061
 2437SOL     OW 8209   5.035   6.693   6.450
 2437SOL    HW1 8210   5.075   6.735   6.369
 2437SOL    HW2 8211   5.064   6.743   6.532
 2438SOL     OW 8212   3.304   0.968   6.536
 2438SOL    HW1 8213   3.375   0.977   6.606
 2438SOL    HW2 8214   3.217   1.002   6.572
 2439SOL     OW 8215   1.470   4.318   6.245
 2439SOL    HW1 8216   1.508   4.240   6.195
 2439SOL    HW2 8217   1.510   4.321   6.337
 2440SOL     OW 8218   4.628   5.959   5.508
 2440SOL    HW1 8219   4.710   5.959   5.565
 2440SOL    HW2 8220   4.577   5.874   5.523
 2441SOL     OW 8221   0.940   1.094   0.478
 2441SOL    HW1 8222   0.894   1.104   0.567
 2441SOL    HW2 8223   1.019   1.035   0.488
 2442SOL     OW 8224   0.888   3.905   5.885
 2442SOL    HW1 8225   0.936   3.819   5.870
 2442SOL    HW2 8226   0.795   3.899   5.850
 2443SOL     OW 8227   4.094   5.209   5.843
 2443SOL    HW1 8228   4.065   5.283   5.904
 2443SOL    HW2 8229   4.194   5.199   5.847
 2444SOL     OW 8230   3.320   3.883   5.971
 2444SOL    HW1 8231   3.358   3.871   6.063
 2444SOL    HW2 8232   3.393   3.876   5.903
 2445SOL     OW 8233   6.886   1.206   1.146
 2445SOL    HW1 8234   6.818   1.244   1.084
 2445SOL    HW2 8235   6.951   1.150   1.093
 2446SOL     OW 8236   6.495   4.803   4.420
 2446SOL    HW1 8237   6.556   4.780   4.344
 2446SOL    HW2 8238   6.450   4.719   4.453
 2447SOL     OW 8239   1.950   2.710   0.696
 2447SOL    HW1 8240   1.994   2.770   0.762
 2447SOL    HW2 8241   1.967   2.744   0.603
 2448SOL     OW 8242   0.294   1.007   4.773
 2448SOL    HW1 8243   0.325   1.089   4.725
 2448SOL    HW2 8244   0.286   0.932   4.708
 2449SOL     OW 8245   6.940   4.568   0.810
 2449SOL    HW1 8246   6.989   4.496   0.759
 2449SOL    HW2 8247   6.891   4.527   0.887
 2450SOL     OW 8248   2.705   4.641   3.321
 2450SOL    HW1 8249   2.665   4.591   3.398
 2450SOL    HW2 8250   2.805   4.635   3.325
 2451SOL     OW 8251   0.666   1.359   3.577
 2451SOL    HW1 8252   0.590   1.303   3.545
 2451SOL    HW2 8253   0.706   1.409   3.500
 2452SOL     OW 8254   1.564   3.958   2.832
 2452SOL    HW1 8255   1.626   4.025   2.791
 2452SOL    HW2 8256   1.484   3.946   2.773
 2453SOL     OW 8257   6.208   4.801   1.284
 2453SOL    HW1 8258   6.228   4.876   1.347
 2453SOL    HW2 8259   6.129   4.749   1.317
 2454SOL     OW 8260   3.186   0.657   1.345
 2454SOL    HW1 8261   3.117   0.629   1.411
 2454SOL    HW2 8262   3.172   0.753   1.321
 2455SOL     OW 8263   5.750   5.893   0.327
 2455SOL    HW1 8264   5.758   5.915   0.229
 2455SOL    HW2 8265   5.820   5.826   0.351
 2456SOL     OW 8266   5.142   6.329   1.727
 2456SOL    HW1 8267   5.088   6.413   1.737
 2456SOL    HW2 8268   5.205   6.321   1.804
 2457SOL     OW 8269   5.950   6.464   0.503
 2457SOL    HW1 8270   6.020   6.394   0.523
 2457SOL    HW2 8271   5.995   6.552   0.490
 2458SOL     OW 8272   2.175   5.787   3.380
 2458SOL    HW1 8273   2.099   5.843   3.413
 2458SOL    HW2 8274   2.152   5.749   3.290
 2459SOL     OW 8275   2.357   6.824   0.659
 2459SOL    HW1 8276   2.269   6.810   0.705
 2459SOL    HW2 8277   2.355   6.911   0.610
 2460SOL     OW 8278   1.984   0.828   1.297
 2460SOL    HW1 8279   2.006   0.924   1.282
 2460SOL    HW2 8280   2.039   0.793   1.373
 2461SOL     OW 8281   5.594   0.890   2.341
 2461SOL    HW1 8282   5.562   0.809   2.291
 2461SOL    HW2 8283   5.689   0.876   2.369
 2462SOL     OW 8284   2.881   5.645   0.282
 2462SOL    HW1 8285   2.906   5.725   0.336
 2462SOL    HW2 8286   2.872   5.672   0.186
 2463SOL     OW 8287   6.122   2.447   4.159
 2463SOL    HW1 8288   6.075   2.486   4.238
 2463SOL    HW2 8289   6.089   2.354   4.144
 2464SOL     OW 8290   0.759   4.769   0.739
 2464SOL    HW1 8291   0.755   4.678   0.698
 2464SOL    HW2 8292   0.773   4.838   0.668
 2465SOL     OW 8293   0.242   5.572   1.492
 2465SOL    HW1 8294   0.183   5.641   1.536
 2465SOL    HW2 8295   0.186   5.496   1.460
 2466SOL     OW 8296   3.770   1.326   2.298
 2466SOL    HW1 8297   3.780   1.271   2.380
 2466SOL    HW2 8298   3.805   1.418   2.316
 2467SOL     OW 8299   6.153   1.078   5.697
 2467SOL    HW1 8300   6.153   1.171   5.659
 2467SOL    HW2 8301   6.064   1.059   5.739
 2468SOL     OW 8302   0.118   6.371   1.919
 2468SOL    HW1 8303   0.111   6.303   1.846
 2468SOL    HW2 8304   0.031   6.419   1.929
 2469SOL     OW 8305   3.467   3.935   5.572
 2469SOL    HW1 8306   3.476   3.875   5.652
 2469SOL    HW2 8307   3.472   4.030   5.601
 2470SOL     OW 8308   2.860   4.151   6.338
 2470SOL    HW1 8309   2.775   4.153   6.284
 2470SOL    HW2 8310   2.910   4.067   6.317
 2471SOL     OW 8311   0.592   6.725   1.409
 2471SOL    HW1 8312   0.515   6.668   1.437
 2471SOL    HW2 8313   0.618   6.785   1.484
 2472SOL     OW 8314   5.577   1.597   4.993
 2472SOL    HW1 8315   5.632   1.551   5.063
 2472SOL    HW2 8316   5.632   1.611   4.911
 2473SOL     OW 8317   1.473   5.108   4.836
 2473SOL    HW1 8318   1.545   5.172   4.863
 2473SOL    HW2 8319   1.421   5.080   4.917
 2474SOL     OW 8320   0.026   4.840   6.739
 2474SOL    HW1 8321   0.044   4.844   6.641
 2474SOL    HW2 8322   0.050   4.750   6.774
 2475SOL     OW 8323   4.306   2.374   0.792
 2475SOL    HW1 8324   4.269   2.316   0.721
 2475SOL    HW2 8325   4.343   2.317   0.866
 2476SOL     OW 8326   1.159   2.451   3.770
 2476SOL    HW1 8327   1.197   2.422   3.858
 2476SOL    HW2 8328   1.126   2.545   3.777
 2477SOL     OW 8329   6.624   6.459   1.716
 2477SOL    HW1 8330   6.652   6.419   1.803
 2477SOL    HW2 8331   6.562   6.396   1.669
 2478SOL     OW 8332   6.034   5.981   2.671
 2478SOL    HW1 8333   6.075   6.055   2.725
 2478SOL    HW2 8334   6.098   5.952   2.600
 2479SOL     OW 8335   6.840   3.366   1.581
 2479SOL    HW1 8336   6.907   3.414   1.526
 2479SOL    HW2 8337   6.865   3.372   1.677
 2480SOL     OW 8338   6.918   2.391   0.870
 2480SOL    HW1 8339   6.919   2.395   0.970
 2480SOL    HW2 8340   6.827   2.366   0.839
 2481SOL     OW 8341   3.943   5.717   0.742
 2481SOL    HW1 8342   3.899   5.766   0.667
 2481SOL    HW2 8343   3.882   5.712   0.821
 2482SOL     OW 8344   4.435   3.496   5.848
 2482SOL    HW1 8345   4.524   3.453   5.833
 2482SOL    HW2 8346   4.409   3.488   5.944
 2483SOL     OW 8347   2.087   0.886   0.704
 2483SOL    HW1 8348   2.076   0.860   0.800
 2483SOL    HW2 8349   2.122   0.808   0.652
 2484SOL     OW 8350   1.699   0.779   0.550
 2484SOL    HW1 8351   1.719   0.773   0.648
 2484SOL    HW2 8352   1.749   0.857   0.511
 2485SOL     OW 8353   5.782   4.939   1.788
 2485SOL    HW1 8354   5.870   4.899   1.763
 2485SOL    HW2 8355   5.796   5.033   1.820
 2486SOL     OW 8356   1.751   5.906   3.917
 2486SOL    HW1 8357   1.846   5.876   3.921
 2486SOL    HW2 8358   1.742   5.981   3.851
 2487SOL     OW 8359   4.251   6.200   6.902
 2487SOL    HW1 8360   4.259   6.137   6.825
 2487SOL    HW2 8361   4.174   6.261   6.887
 2488SOL     OW 8362   2.827   4.057   1.495
 2488SOL    HW1 8363   2.809   4.013   1.407
 2488SOL    HW2 8364   2.760   4.025   1.562
 2489SOL     OW 8365   2.401   6.036   4.915
 2489SOL    HW1 8366   2.331   6.094   4.957
 2489SOL    HW2 8367   2.486   6.087   4.906
 2490SOL     OW 8368   0.147   5.073   0.609
 2490SOL    HW1 8369   0.097   4.987   0.603
 2490SOL    HW2 8370   0.086   5.144   0.643
 2491SOL     OW 8371   2.489   5.808   2.627
 2491SOL    HW1 8372   2.536   5.813   2.716
 2491SOL    HW2 8373   2.532   5.737   2.571
 2492SOL     OW 8374   4.738   3.374   6.371
 2492SOL    HW1 8375   4.689   3.320   6.440
 2492SOL    HW2 8376   4.693   3.363   6.282
 2493SOL     OW 8377   5.393   0.724   2.742
 2493SOL    HW1 8378   5.356   0.761   2.657
 2493SOL    HW2 8379   5.405   0.798   2.808
 2494SOL     OW 8380   4.623   2.624   2.743
 2494SOL    HW1 8381   4.638   2.587   2.835
 2494SOL    HW2 8382   4.653   2.719   2.740
 2495SOL     OW 8383   5.146   1.342   5.551
 2495SOL    HW1 8384   5.120   1.277   5.479
 2495SOL    HW2 8385   5.236   1.379   5.531
 2496SOL     OW 8386   1.305   5.526   0.563
 2496SOL    HW1 8387   1.398   5.491   0.569
 2496SOL    HW2 8388   1.254   5.502   0.646
 2497SOL     OW 8389   6.698   1.361   0.312
 2497SOL    HW1 8390   6.728   1.326   0.223
 2497SOL    HW2 8391   6.738   1.452   0.327
 2498SOL     OW 8392   2.017   3.341   3.362
 2498SOL    HW1 8393   2.071   3.419   3.394
 2498SOL    HW2 8394   1.939   3.373   3.309
 2499SOL     OW 8395   5.383   0.877   4.778
 2499SOL    HW1 8396   5.380   0.965   4.731
 2499SOL    HW2 8397   5.433   0.811   4.722
 2500SOL     OW 8398   4.971   3.232   6.368
 2500SOL    HW1 8399   4.970   3.210   6.466
 2500SOL    HW2 8400   4.884   3.275   6.343
 2501SOL     OW 8401   5.829   4.073   6.751
 2501SOL    HW1 8402   5.748   4.131   6.758
 2501SOL    HW2 8403   5.804   3.977   6.766
 2502SOL     OW 8404   2.361   6.488   3.423
 2502SOL    HW1 8405   2.399   6.580   3.412
 2502SOL    HW2 8406   2.273   6.494   3.470
 2503SOL     OW 8407   3.890   5.920   5.633
 2503SOL    HW1 8408   3.986   5.898   5.615
 2503SOL    HW2 8409   3.832   5.844   5.604
 2504SOL     OW 8410   2.200   4.712   4.890
 2504SOL    HW1 8411   2.207   4.684   4.794
 2504SOL    HW2 8412   2.231   4.637   4.948
 2505SOL     OW 8413   3.989   5.532   4.366
 2505SOL    HW1 8414   4.021   5.437   4.373
 2505SOL    HW2 8415   3.921   5.538   4.294
 2506SOL     OW 8416   6.593   3.210   6.106
 2506SOL    HW1 8417   6.501   3.229   6.140
 2506SOL    HW2 8418   6.623   3.284   6.046
 2507SOL     OW 8419   6.474   5.220   0.069
 2507SOL    HW1 8420   6.513   5.279   0.140
 2507SOL    HW2 8421   6.380   5.247   0.051
 2508SOL     OW 8422   2.943   1.930   2.151
 2508SOL    HW1 8423   2.943   2.004   2.083
 2508SOL    HW2 8424   2.939   1.969   2.243
 2509SOL     OW 8425   5.819   2.376   2.255
 2509SOL    HW1 8426   5.834   2.317   2.335
 2509SOL    HW2 8427   5.731   2.352   2.213
 2510SOL     OW 8428   3.263   4.781   0.709
 2510SOL    HW1 8429   3.339   4.747   0.764
 2510SOL    HW2 8430   3.186   4.804   0.769
 2511SOL     OW 8431   1.419   1.160   5.133
 2511SOL    HW1 8432   1.334   1.205   5.104
 2511SOL    HW2 8433   1.399   1.065   5.157
 2512SOL     OW 8434   5.165   3.921   4.732
 2512SOL    HW1 8435   5.259   3.900   4.756
 2512SOL    HW2 8436   5.125   3.844   4.682
 2513SOL     OW 8437   1.193   2.149   6.371
 2513SOL    HW1 8438   1.149   2.151   6.461
 2513SOL    HW2 8439   1.263   2.221   6.367
 2514SOL     OW 8440   0.777   1.653   4.306
 2514SOL    HW1 8441   0.813   1.662   4.399
 2514SOL    HW2 8442   0.678   1.641   4.310
 2515SOL     OW 8443   1.370   6.678   0.422
 2515SOL    HW1 8444   1.304   6.657   0.493
 2515SOL    HW2 8445   1.327   6.731   0.349
 2516SOL     OW 8446   5.830   6.058   3.661
 2516SOL    HW1 8447   5.872   6.001   3.590
 2516SOL    HW2 8448   5.900   6.082   3.729
 2517SOL     OW 8449   2.665   4.144   6.121
 2517SOL    HW1 8450   2.702   4.222   6.070
 2517SOL    HW2 8451   2.677   4.061   6.067
 2518SOL     OW 8452   2.382   2.813   6.561
 2518SOL    HW1 8453   2.337   2.901   6.551
 2518SOL    HW2 8454   2.313   2.742   6.576
 2519SOL     OW 8455   5.092   5.159   4.721
 2519SOL    HW1 8456   5.042   5.193   4.642
 2519SOL    HW2 8457   5.151   5.083   4.694
 2520SOL     OW 8458   2.450   3.411   0.983
 2520SOL    HW1 8459   2.418   3.480   0.919
 2520SOL    HW2 8460   2.396   3.328   0.972
 2521SOL     OW 8461   0.566   0.391   5.609
 2521SOL    HW1 8462   0.562   0.462   5.679
 2521SOL    HW2 8463   0.649   0.337   5.621
 2522SOL     OW 8464   1.360   2.926   4.651
 2522SOL    HW1 8465   1.330   2.911   4.556
 2522SOL    HW2 8466   1.343   2.844   4.705
 2523SOL     OW 8467   6.667   3.167   0.557
 2523SOL    HW1 8468   6.581   3.209   0.585
 2523SOL    HW2 8469   6.720   3.232   0.503
 2524SOL     OW 8470   1.062   6.825   4.071
 2524SOL    HW1 8471   0.972   6.861   4.046
 2524SOL    HW2 8472   1.129   6.899   4.069
 2525SOL     OW 8473   0.994   4.083   4.484
 2525SOL    HW1 8474   0.981   4.063   4.387
 2525SOL    HW2 8475   1.078   4.039   4.516
 2526SOL     OW 8476   0.516   2.094   4.342
 2526SOL    HW1 8477   0.521   2.160   4.417
 2526SOL    HW2 8478   0.575   2.124   4.267
 2527SOL     OW 8479   5.919   6.283   5.073
 2527SOL    HW1 8480   5.913   6.379   5.046
 2527SOL    HW2 8481   5.862   6.228   5.013
 2528SOL     OW 8482   6.146   5.167   0.196
 2528SOL    HW1 8483   6.147   5.068   0.180
 2528SOL    HW2 8484   6.051   5.197   0.210
 2529SOL     OW 8485   4.701   5.522   5.189
 2529SOL    HW1 8486   4.701   5.622   5.182
 2529SOL    HW2 8487   4.735   5.482   5.104
 2530SOL     OW 8488   1.138   6.212   3.643
 2530SOL    HW1 8489   1.234   6.224   3.669
 2530SOL    HW2 8490   1.079   6.245   3.717
 2531SOL     OW 8491   4.969   0.377   4.762
 2531SOL    HW1 8492   4.902   0.322   4.713
 2531SOL    HW2 8493   4.926   0.461   4.794
 2532SOL     OW 8494   1.142   5.776   0.378
 2532SOL    HW1 8495   1.154   5.825   0.464
 2532SOL    HW2 8496   1.075   5.825   0.321
 2533SOL     OW 8497   5.342   0.273   5.118
 2533SOL    HW1 8498   5.397   0.308   5.042
 2533SOL    HW2 8499   5.399   0.215   5.176
 2534SOL     OW 8500   2.068   0.615   3.576
 2534SOL    HW1 8501   1.983   0.563   3.585
 2534SOL    HW2 8502   2.101   0.640   3.667
 2535SOL     OW 8503   1.524   1.824   4.177
 2535SOL    HW1 8504   1.449   1.759   4.186
 2535SOL    HW2 8505   1.552   1.830   4.081
 2536SOL     OW 8506   6.008   1.266   4.300
 2536SOL    HW1 8507   6.036   1.217   4.217
 2536SOL    HW2 8508   5.985   1.200   4.371
 2537SOL     OW 8509   4.820   6.052   1.269
 2537SOL    HW1 8510   4.734   6.001   1.270
 2537SOL    HW2 8511   4.860   6.049   1.178
 2538SOL     OW 8512   1.696   4.941   4.789
 2538SOL    HW1 8513   1.621   4.998   4.821
 2538SOL    HW2 8514   1.724   4.879   4.861
 2539SOL     OW 8515   4.218   7.016   5.615
 2539SOL    HW1 8516   4.138   6.975   5.658
 2539SOL    HW2 8517   4.265   0.057   5.681
 2540SOL     OW 8518   4.860   1.034   2.165
 2540SOL    HW1 8519   4.955   1.017   2.192
 2540SOL    HW2 8520   4.816   0.948   2.141
 2541SOL     OW 8521   1.292   6.994   4.964
 2541SOL    HW1 8522   1.285   6.942   4.879
 2541SOL    HW2 8523   1.232   0.056   4.959
 2542SOL     OW 8524   3.776   1.781   4.039
 2542SOL    HW1 8525   3.808   1.730   3.960
 2542SOL    HW2 8526   3.831   1.756   4.119
 2543SOL     OW 8527   1.103   0.571   3.178
 2543SOL    HW1 8528   1.095   0.472   3.191
 2543SOL    HW2 8529   1.020   0.605   3.133
 2544SOL     OW 8530   0.114   5.346   1.406
 2544SOL    HW1 8531   0.048   5.365   1.333
 2544SOL    HW2 8532   0.098   5.254   1.442
 2545SOL     OW 8533   1.901   2.007   1.337
 2545SOL    HW1 8534   1.945   2.032   1.250
 2545SOL    HW2 8535   1.944   1.925   1.374
 2546SOL     OW 8536   6.206   3.798   1.700
 2546SOL    HW1 8537   6.186   3.808   1.798
 2546SOL    HW2 8538   6.189   3.885   1.654
 2547SOL     OW 8539   5.713   4.754   0.691
 2547SOL    HW1 8540   5.788   4.819   0.688
 2547SOL    HW2 8541   5.749   4.661   0.701
 2548SOL     OW 8542   1.248   0.299   4.725
 2548SOL    HW1 8543   1.318   0.340   4.783
 2548SOL    HW2 8544   1.292   0.258   4.644
 2549SOL     OW 8545   1.913   2.773   2.309
 2549SOL    HW1 8546   1.952   2.846   2.366
 2549SOL    HW2 8547   1.938   2.790   2.213
 2550SOL     OW 8548   5.667   6.733   0.092
 2550SOL    HW1 8549   5.622   6.806   0.039
 2550SOL    HW2 8550   5.730   6.683   0.033
 2551SOL     OW 8551   3.488   4.950   0.016
 2551SOL    HW1 8552   3.587   4.937   0.006
 2551SOL    HW2 8553   3.469   5.048   0.030
 2552SOL     OW 8554   1.956   4.769   6.727
 2552SOL    HW1 8555   2.015   4.700   6.769
 2552SOL    HW2 8556   1.874   4.782   6.783
 2553SOL     OW 8557   3.671   1.695   6.085
 2553SOL    HW1 8558   3.751   1.721   6.139
 2553SOL    HW2 8559   3.610   1.773   6.076
 2554SOL     OW 8560   1.851   5.846   0.285
 2554SOL    HW1 8561   1.877   5.813   0.376
 2554SOL    HW2 8562   1.835   5.768   0.225
 2555SOL     OW 8563   6.435   6.053   6.210
 2555SOL    HW1 8564   6.419   6.109   6.291
 2555SOL    HW2 8565   6.506   6.095   6.153
 2556SOL     OW 8566   3.491   6.731   1.265
 2556SOL    HW1 8567   3.583   6.706   1.233
 2556SOL    HW2 8568   3.423   6.682   1.212
 2557SOL     OW 8569   3.268   0.262   0.337
 2557SOL    HW1 8570   3.244   0.220   0.425
 2557SOL    HW2 8571   3.212   0.344   0.324
 2558SOL     OW 8572   5.311   4.514   6.487
 2558SOL    HW1 8573   5.249   4.446   6.449
 2558SOL    HW2 8574   5.396   4.514   6.435
 2559SOL     OW 8575   0.149   3.543   3.241
 2559SOL    HW1 8576   0.154   3.548   3.141
 2559SOL    HW2 8577   0.221   3.483   3.274
 2560SOL     OW 8578   5.176   3.418   3.660
 2560SOL    HW1 8579   5.220   3.339   3.617
 2560SOL    HW2 8580   5.077   3.406   3.659
 2561SOL     OW 8581   3.458   0.911   4.375
 2561SOL    HW1 8582   3.524   0.851   4.331
 2561SOL    HW2 8583   3.504   0.995   4.404
 2562SOL     OW 8584   3.555   6.272   3.065
 2562SOL    HW1 8585   3.582   6.263   2.969
 2562SOL    HW2 8586   3.457   6.252   3.074
 2563SOL     OW 8587   2.601   1.262   6.499
 2563SOL    HW1 8588   2.669   1.325   6.537
 2563SOL    HW2 8589   2.533   1.240   6.569
 2564SOL     OW 8590   2.319   0.683   0.055
 2564SOL    HW1 8591   2.299   0.596   0.010
 2564SOL    HW2 8592   2.345   0.666   0.150
 2565SOL     OW 8593   0.382   1.522   6.469
 2565SOL    HW1 8594   0.439   1.552   6.546
 2565SOL    HW2 8595   0.423   1.441   6.427
 2566SOL     OW 8596   2.968   0.417   1.782
 2566SOL    HW1 8597   3.045   0.477   1.808
 2566SOL    HW2 8598   2.918   0.390   1.864
 2567SOL     OW 8599   1.261   1.084   0.216
 2567SOL    HW1 8600   1.355   1.048   0.212
 2567SOL    HW2 8601   1.202   1.016   0.260
 2568SOL     OW 8602   2.967   6.564   1.384
 2568SOL    HW1 8603   2.867   6.571   1.384
 2568SOL    HW2 8604   3.006   6.656   1.377
 2569SOL     OW 8605   1.967   1.275   1.058
 2569SOL    HW1 8606   1.943   1.213   0.984
 2569SOL    HW2 8607   1.973   1.224   1.144
 2570SOL     OW 8608   5.009   5.647   6.672
 2570SOL    HW1 8609   4.999   5.548   6.664
 2570SOL    HW2 8610   5.019   5.672   6.768
 2571SOL     OW 8611   3.587   2.895   4.451
 2571SOL    HW1 8612   3.678   2.934   4.438
 2571SOL    HW2 8613   3.582   2.850   4.540
 2572SOL     OW 8614   2.675   5.511   1.513
 2572SOL    HW1 8615   2.637   5.444   1.578
 2572SOL    HW2 8616   2.602   5.571   1.481
 2573SOL     OW 8617   6.549   2.215   3.913
 2573SOL    HW1 8618   6.626   2.273   3.887
 2573SOL    HW2 8619   6.468   2.271   3.930
 2574SOL     OW 8620   6.606   3.015   0.967
 2574SOL    HW1 8621   6.609   3.115   0.964
 2574SOL    HW2 8622   6.529   2.986   1.025
 2575SOL     OW 8623   4.858   3.914   0.539
 2575SOL    HW1 8624   4.804   3.875   0.614
 2575SOL    HW2 8625   4.904   3.840   0.489
 2576SOL     OW 8626   2.896   0.305   4.137
 2576SOL    HW1 8627   2.911   0.233   4.070
 2576SOL    HW2 8628   2.965   0.297   4.210
 2577SOL     OW 8629   3.666   0.672   3.294
 2577SOL    HW1 8630   3.583   0.620   3.316
 2577SOL    HW2 8631   3.653   0.767   3.321
 2578SOL     OW 8632   4.644   2.649   4.423
 2578SOL    HW1 8633   4.642   2.570   4.362
 2578SOL    HW2 8634   4.621   2.621   4.516
 2579SOL     OW 8635   0.473   1.729   5.967
 2579SOL    HW1 8636   0.507   1.822   5.955
 2579SOL    HW2 8637   0.442   1.716   6.061
 2580SOL     OW 8638   1.475   2.457   5.677
 2580SOL    HW1 8639   1.418   2.403   5.739
 2580SOL    HW2 8640   1.570   2.453   5.707
 2581SOL     OW 8641   5.301   5.581   1.836
 2581SOL    HW1 8642   5.376   5.629   1.790
 2581SOL    HW2 8643   5.214   5.610   1.796
 2582SOL     OW 8644   1.525   5.288   3.008
 2582SOL    HW1 8645   1.562   5.375   3.043
 2582SOL    HW2 8646   1.589   5.214   3.029
 2583SOL     OW 8647   1.031   0.857   0.915
 2583SOL    HW1 8648   1.065   0.854   0.821
 2583SOL    HW2 8649   0.985   0.771   0.937
 2584SOL     OW 8650   3.388   6.388   0.885
 2584SOL    HW1 8651   3.337   6.401   0.800
 2584SOL    HW2 8652   3.351   6.309   0.934
 2585SOL     OW 8653   3.017   6.821   1.406
 2585SOL    HW1 8654   2.955   6.893   1.373
 2585SOL    HW2 8655   3.102   6.863   1.437
 2586SOL     OW 8656   6.132   1.175   4.722
 2586SOL    HW1 8657   6.146   1.185   4.820
 2586SOL    HW2 8658   6.100   1.262   4.684
 2587SOL     OW 8659   6.585   0.331   4.704
 2587SOL    HW1 8660   6.532   0.395   4.759
 2587SOL    HW2 8661   6.526   0.289   4.636
 2588SOL     OW 8662   5.125   0.100   1.146
 2588SOL    HW1 8663   5.224   0.096   1.155
 2588SOL    HW2 8664   5.082   0.094   1.237
 2589SOL     OW 8665   6.835   0.523   5.596
 2589SOL    HW1 8666   6.805   0.529   5.501
 2589SOL    HW2 8667   6.772   0.465   5.647
 2590SOL     OW 8668   3.432   0.071   2.814
 2590SOL    HW1 8669   3.496   0.128   2.763
 2590SOL    HW2 8670   3.454   0.076   2.912
 2591SOL     OW 8671   5.069   6.281   1.030
 2591SOL    HW1 8672   5.013   6.349   0.984
 2591SOL    HW2 8673   5.145   6.326   1.077
 2592SOL     OW 8674   2.971   5.840   1.408
 2592SOL    HW1 8675   2.971   5.833   1.308
 2592SOL    HW2 8676   3.017   5.924   1.436
 2593SOL     OW 8677   3.181   0.195   2.829
 2593SOL    HW1 8678   3.276   0.172   2.852
 2593SOL    HW2 8679   3.160   0.161   2.737
 2594SOL     OW 8680   0.506   0.352   6.466
 2594SOL    HW1 8681   0.479   0.439   6.426
 2594SOL    HW2 8682   0.561   0.300   6.400
 2595SOL     OW 8683   6.597   3.072   5.301
 2595SOL    HW1 8684   6.665   3.119   5.244
 2595SOL    HW2 8685   6.627   2.979   5.320
 2596SOL     OW 8686   3.930   2.279   1.785
 2596SOL    HW1 8687   3.836   2.289   1.818
 2596SOL    HW2 8688   3.971   2.369   1.773
 2597SOL     OW 8689   2.527   2.799   0.839
 2597SOL    HW1 8690   2.492   2.887   0.871
 2597SOL    HW2 8691   2.611   2.813   0.788
 2598SOL     OW 8692   6.855   2.843   4.407
 2598SOL    HW1 8693   6.765   2.884   4.423
 2598SOL    HW2 8694   6.924   2.895   4.458
 2599SOL     OW 8695   3.359   5.848   5.558
 2599SOL    HW1 8696   3.433   5.780   5.559
 2599SOL    HW2 8697   3.282   5.813   5.504
 2600SOL     OW 8698   4.783   3.991   3.674
 2600SOL    HW1 8699   4.758   3.904   3.630
 2600SOL    HW2 8700   4.812   3.974   3.768
 2601SOL     OW 8701   2.899   1.914   6.333
 2601SOL    HW1 8702   2.897   1.820   6.368
 2601SOL    HW2 8703   2.982   1.960   6.367
 2602SOL     OW 8704   0.036   4.803   4.689
 2602SOL    HW1 8705   0.018   4.706   4.678
 2602SOL    HW2 8706   0.105   4.832   4.624
 2603SOL     OW 8707   2.240   2.643   1.891
 2603SOL    HW1 8708   2.316   2.627   1.955
 2603SOL    HW2 8709   2.260   2.724   1.836
 2604SOL     OW 8710   5.358   0.139   0.869
 2604SOL    HW1 8711   5.385   0.048   0.901
 2604SOL    HW2 8712   5.426   0.206   0.899
 2605SOL     OW 8713   4.484   4.515   3.312
 2605SOL    HW1 8714   4.500   4.456   3.233
 2605SOL    HW2 8715   4.404   4.482   3.362
 2606SOL     OW 8716   6.853   3.933   0.269
 2606SOL    HW1 8717   6.794   3.852   0.279
 2606SOL    HW2 8718   6.899   3.930   0.181
 2607SOL     OW 8719   1.578   1.765   4.584
 2607SOL    HW1 8720   1.575   1.679   4.636
 2607SOL    HW2 8721   1.569   1.842   4.647
 2608SOL     OW 8722   4.849   0.507   2.421
 2608SOL    HW1 8723   4.937   0.462   2.433
 2608SOL    HW2 8724   4.817   0.493   2.327
 2609SOL     OW 8725   0.668   1.982   1.949
 2609SOL    HW1 8726   0.743   2.044   1.923
 2609SOL    HW2 8727   0.703   1.888   1.954
 2610SOL     OW 8728   6.801   5.692   4.095
 2610SOL    HW1 8729   6.711   5.735   4.086
 2610SOL    HW2 8730   6.834   5.702   4.189
 2611SOL     OW 8731   5.936   6.186   1.160
 2611SOL    HW1 8732   6.020   6.238   1.176
 2611SOL    HW2 8733   5.871   6.242   1.108
 2612SOL     OW 8734   6.004   6.107   4.493
 2612SOL    HW1 8735   6.052   6.038   4.547
 2612SOL    HW2 8736   5.906   6.086   4.492
 2613SOL     OW 8737   3.367   6.517   2.057
 2613SOL    HW1 8738   3.393   6.505   2.153
 2613SOL    HW2 8739   3.361   6.427   2.013
 2614SOL     OW 8740   6.334   6.821   5.526
 2614SOL    HW1 8741   6.292   6.741   5.569
 2614SOL    HW2 8742   6.294   6.904   5.566
 2615SOL     OW 8743   5.471   5.647   3.725
 2615SOL    HW1 8744   5.529   5.727   3.741
 2615SOL    HW2 8745   5.521   5.580   3.670
 2616SOL     OW 8746   4.117   3.304   4.001
 2616SOL    HW1 8747   4.123   3.401   4.024
 2616SOL    HW2 8748   4.054   3.292   3.924
 2617SOL     OW 8749   3.271   5.067   0.929
 2617SOL    HW1 8750   3.259   5.157   0.888
 2617SOL    HW2 8751   3.184   5.036   0.968
 2618SOL     OW 8752   6.801   6.576   3.107
 2618SOL    HW1 8753   6.798   6.672   3.079
 2618SOL    HW2 8754   6.755   6.566   3.195
 2619SOL     OW 8755   4.383   1.666   2.099
 2619SOL    HW1 8756   4.360   1.723   2.020
 2619SOL    HW2 8757   4.464   1.611   2.078
 2620SOL     OW 8758   1.699   5.450   3.526
 2620SOL    HW1 8759   1.609   5.454   3.568
 2620SOL    HW2 8760   1.763   5.506   3.579
 2621SOL     OW 8761   0.894   5.398   3.354
 2621SOL    HW1 8762   0.894   5.487   3.400
 2621SOL    HW2 8763   0.989   5.369   3.339
 2622SOL     OW 8764   1.798   2.868   6.076
 2622SOL    HW1 8765   1.797   2.779   6.031
 2622SOL    HW2 8766   1.876   2.922   6.042
 2623SOL     OW 8767   4.091   1.024   4.389
 2623SOL    HW1 8768   4.180   0.981   4.398
 2623SOL    HW2 8769   4.098   1.105   4.332
 2624SOL     OW 8770   6.566   2.953   3.603
 2624SOL    HW1 8771   6.470   2.965   3.575
 2624SOL    HW2 8772   6.572   2.879   3.669
 2625SOL     OW 8773   1.736   3.058   5.311
 2625SOL    HW1 8774   1.772   3.112   5.387
 2625SOL    HW2 8775   1.812   3.022   5.257
 2626SOL     OW 8776   0.632   6.564   3.873
 2626SOL    HW1 8777   0.538   6.593   3.888
 2626SOL    HW2 8778   0.668   6.522   3.957
 2627SOL     OW 8779   0.084   0.867   4.928
 2627SOL    HW1 8780   0.083   0.777   4.883
 2627SOL    HW2 8781   0.158   0.922   4.891
 2628SOL     OW 8782   3.636   6.129   6.520
 2628SOL    HW1 8783   3.728   6.089   6.522
 2628SOL    HW2 8784   3.575   6.069   6.469
 2629SOL     OW 8785   3.668   3.690   1.892
 2629SOL    HW1 8786   3.747   3.647   1.935
 2629SOL    HW2 8787   3.656   3.782   1.930
 2630SOL     OW 8788   3.611   2.076   2.223
 2630SOL    HW1 8789   3.689   2.027   2.262
 2630SOL    HW2 8790   3.639   2.120   2.138
 2631SOL     OW 8791   4.524   6.969   4.066
 2631SOL    HW1 8792   4.623   6.981   4.060
 2631SOL    HW2 8793   4.498   6.880   4.027
 2632SOL     OW 8794   3.425   2.200   6.933
 2632SOL    HW1 8795   3.472   2.275   6.888
 2632SOL    HW2 8796   3.477   2.115   6.919
 2633SOL     OW 8797   6.167   2.726   6.751
 2633SOL    HW1 8798   6.168   2.629   6.776
 2633SOL    HW2 8799   6.073   2.759   6.744
 2634SOL     OW 8800   1.874   3.940   2.389
 2634SOL    HW1 8801   1.827   3.853   2.373
 2634SOL    HW2 8802   1.926   3.934   2.474
 2635SOL     OW 8803   5.452   6.046   4.496
 2635SOL    HW1 8804   5.461   6.084   4.404
 2635SOL    HW2 8805   5.432   5.948   4.491
 2636SOL     OW 8806   6.109   0.362   6.948
 2636SOL    HW1 8807   6.009   0.359   6.947
 2636SOL    HW2 8808   6.142   0.376   6.855
 2637SOL     OW 8809   6.582   0.892   3.447
 2637SOL    HW1 8810   6.679   0.893   3.424
 2637SOL    HW2 8811   6.552   0.798   3.462
 2638SOL     OW 8812   5.578   0.260   1.940
 2638SOL    HW1 8813   5.622   0.182   1.985
 2638SOL    HW2 8814   5.615   0.345   1.977
 2639SOL     OW 8815   6.031   6.767   2.454
 2639SOL    HW1 8816   6.126   6.756   2.425
 2639SOL    HW2 8817   5.978   6.686   2.427
 2640SOL     OW 8818   6.996   6.313   5.288
 2640SOL    HW1 8819   6.928   6.244   5.261
 2640SOL    HW2 8820   6.948   6.398   5.313
 2641SOL     OW 8821   5.708   3.392   0.770
 2641SOL    HW1 8822   5.679   3.465   0.832
 2641SOL    HW2 8823   5.662   3.403   0.682
 2642SOL     OW 8824   5.758   0.879   4.530
 2642SOL    HW1 8825   5.669   0.853   4.566
 2642SOL    HW2 8826   5.749   0.904   4.433
 2643SOL     OW 8827   0.053   5.456   3.134
 2643SOL    HW1 8828   6.994   5.418   3.083
 2643SOL    HW2 8829   0.107   5.382   3.175
 2644SOL     OW 8830   0.869   4.695   5.569
 2644SOL    HW1 8831   0.775   4.660   5.572
 2644SOL    HW2 8832   0.911   4.687   5.659
 2645SOL     OW 8833   4.531   6.677   4.968
 2645SOL    HW1 8834   4.441   6.660   5.008
 2645SOL    HW2 8835   4.601   6.671   5.039
 2646SOL     OW 8836   5.987   6.928   5.741
 2646SOL    HW1 8837   5.932   6.848   5.765
 2646SOL    HW2 8838   6.070   6.898   5.693
 2647SOL     OW 8839   5.112   0.383   0.970
 2647SOL    HW1 8840   5.046   0.309   0.976
 2647SOL    HW2 8841   5.201   0.352   1.003
 2648SOL     OW 8842   6.067   0.138   3.192
 2648SOL    HW1 8843   6.108   0.227   3.212
 2648SOL    HW2 8844   6.030   0.138   3.100
 2649SOL     OW 8845   4.329   1.457   6.084
 2649SOL    HW1 8846   4.336   1.433   6.181
 2649SOL    HW2 8847   4.277   1.542   6.075
 2650SOL     OW 8848   0.667   5.236   3.888
 2650SOL    HW1 8849   0.761   5.267   3.874
 2650SOL    HW2 8850   0.607   5.315   3.898
 2651SOL     OW 8851   0.902   1.236   0.966
 2651SOL    HW1 8852   0.864   1.195   0.883
 2651SOL    HW2 8853   0.828   1.255   1.030
 2652SOL     OW 8854   3.154   3.093   4.030
 2652SOL    HW1 8855   3.226   3.121   3.967
 2652SOL    HW2 8856   3.083   3.044   3.980
 2653SOL     OW 8857   5.265   6.944   5.412
 2653SOL    HW1 8858   5.199   7.003   5.366
 2653SOL    HW2 8859   5.225   6.909   5.496
 2654SOL     OW 8860   5.139   3.178   6.933
 2654SOL    HW1 8861   5.084   3.245   6.982
 2654SOL    HW2 8862   5.233   3.211   6.924
 2655SOL     OW 8863   3.743   4.877   4.256
 2655SOL    HW1 8864   3.649   4.868   4.222
 2655SOL    HW2 8865   3.747   4.848   4.351
 2656SOL     OW 8866   5.180   4.878   4.024
 2656SOL    HW1 8867   5.133   4.833   4.100
 2656SOL    HW2 8868   5.126   4.956   3.993
 2657SOL     OW 8869   2.506   4.011   6.333
 2657SOL    HW1 8870   2.476   4.089   6.388
 2657SOL    HW2 8871   2.553   4.043   6.251
 2658SOL     OW 8872   6.283   4.762   6.512
 2658SOL    HW1 8873   6.273   4.751   6.413
 2658SOL    HW2 8874   6.284   4.672   6.556
 2659SOL     OW 8875   6.763   1.955   4.324
 2659SOL    HW1 8876   6.668   1.971   4.296
 2659SOL    HW2 8877   6.785   2.012   4.403
 2660SOL     OW 8878   0.397   2.159   1.087
 2660SOL    HW1 8879   0.379   2.146   1.185
 2660SOL    HW2 8880   0.423   2.071   1.046
 2661SOL     OW 8881   2.656   6.782   1.757
 2661SOL    HW1 8882   2.724   6.738   1.698
 2661SOL    HW2 8883   2.656   6.880   1.738
 2662SOL     OW 8884   4.471   6.595   4.685
 2662SOL    HW1 8885   4.511   6.510   4.650
 2662SOL    HW2 8886   4.466   6.590   4.785
 2663SOL     OW 8887   2.145   4.494   1.483
 2663SOL    HW1 8888   2.117   4.406   1.522
 2663SOL    HW2 8889   2.086   4.517   1.406
 2664SOL     OW 8890   3.498   4.107   3.628
 2664SOL    HW1 8891   3.484   4.200   3.662
 2664SOL    HW2 8892   3.518   4.046   3.704
 2665SOL     OW 8893   3.561   2.164   5.265
 2665SOL    HW1 8894   3.465   2.194   5.265
 2665SOL    HW2 8895   3.584   2.126   5.175
 2666SOL     OW 8896   4.501   4.340   1.274
 2666SOL    HW1 8897   4.573   4.312   1.211
 2666SOL    HW2 8898   4.483   4.267   1.339
 2667SOL     OW 8899   1.386   6.117   4.812
 2667SOL    HW1 8900   1.432   6.066   4.740
 2667SOL    HW2 8901   1.307   6.165   4.773
 2668SOL     OW 8902   6.522   3.507   4.092
 2668SOL    HW1 8903   6.607   3.542   4.053
 2668SOL    HW2 8904   6.459   3.482   4.019
 2669SOL     OW 8905   3.346   4.902   5.617
 2669SOL    HW1 8906   3.429   4.954   5.600
 2669SOL    HW2 8907   3.270   4.939   5.563
 2670SOL     OW 8908   6.574   1.312   6.394
 2670SOL    HW1 8909   6.594   1.402   6.354
 2670SOL    HW2 8910   6.476   1.300   6.402
 2671SOL     OW 8911   2.719   3.878   0.415
 2671SOL    HW1 8912   2.654   3.951   0.433
 2671SOL    HW2 8913   2.747   3.836   0.502
 2672SOL     OW 8914   1.515   5.492   0.173
 2672SOL    HW1 8915   1.568   5.457   0.096
 2672SOL    HW2 8916   1.436   5.432   0.189
 2673SOL     OW 8917   5.537   2.485   3.698
 2673SOL    HW1 8918   5.577   2.549   3.764
 2673SOL    HW2 8919   5.512   2.535   3.615
 2674SOL     OW 8920   1.887   4.227   4.040
 2674SOL    HW1 8921   1.952   4.201   3.969
 2674SOL    HW2 8922   1.853   4.319   4.023
 2675SOL     OW 8923   1.571   4.631   5.409
 2675SOL    HW1 8924   1.474   4.632   5.434
 2675SOL    HW2 8925   1.598   4.539   5.383
 2676SOL     OW 8926   4.586   1.301   2.963
 2676SOL    HW1 8927   4.646   1.221   2.969
 2676SOL    HW2 8928   4.591   1.339   2.871
 2677SOL     OW 8929   2.807   4.938   1.326
 2677SOL    HW1 8930   2.863   4.934   1.409
 2677SOL    HW2 8931   2.824   5.024   1.279
 2678SOL     OW 8932   0.702   4.888   0.388
 2678SOL    HW1 8933   0.768   4.940   0.443
 2678SOL    HW2 8934   0.750   4.819   0.334
 2679SOL     OW 8935   3.927   5.230   1.085
 2679SOL    HW1 8936   3.859   5.163   1.057
 2679SOL    HW2 8937   4.011   5.183   1.111
 2680SOL     OW 8938   1.917   1.937   0.092
 2680SOL    HW1 8939   1.965   1.948   0.180
 2680SOL    HW2 8940   1.917   1.840   0.067
 2681SOL     OW 8941   1.870   3.573   4.012
 2681SOL    HW1 8942   1.796   3.554   4.077
 2681SOL    HW2 8943   1.849   3.529   3.925
 2682SOL     OW 8944   5.755   3.276   2.339
 2682SOL    HW1 8945   5.696   3.267   2.258
 2682SOL    HW2 8946   5.802   3.189   2.355
 2683SOL     OW 8947   1.273   4.360   1.339
 2683SOL    HW1 8948   1.278   4.309   1.253
 2683SOL    HW2 8949   1.178   4.377   1.363
 2684SOL     OW 8950   3.780   5.569   2.154
 2684SOL    HW1 8951   3.733   5.485   2.127
 2684SOL    HW2 8952   3.757   5.591   2.249
 2685SOL     OW 8953   6.081   6.723   4.661
 2685SOL    HW1 8954   6.096   6.704   4.758
 2685SOL    HW2 8955   6.129   6.806   4.635
 2686SOL     OW 8956   1.326   2.578   4.069
 2686SOL    HW1 8957   1.346   2.481   4.053
 2686SOL    HW2 8958   1.408   2.625   4.102
 2687SOL     OW 8959   4.187   4.855   2.546
 2687SOL    HW1 8960   4.254   4.812   2.485
 2687SOL    HW2 8961   4.216   4.842   2.641
 2688SOL     OW 8962   4.132   5.592   5.724
 2688SOL    HW1 8963   4.101   5.687   5.717
 2688SOL    HW2 8964   4.147   5.569   5.820
 2689SOL     OW 8965   1.929   1.811   3.974
 2689SOL    HW1 8966   1.844   1.863   3.967
 2689SOL    HW2 8967   2.001   1.856   3.921
 2690SOL     OW 8968   3.768   2.986   3.771
 2690SOL    HW1 8969   3.699   2.964   3.840
 2690SOL    HW2 8970   3.806   3.076   3.790
 2691SOL     OW 8971   1.868   5.473   2.071
 2691SOL    HW1 8972   1.908   5.532   2.140
 2691SOL    HW2 8973   1.910   5.382   2.075
 2692SOL     OW 8974   6.137   6.042   4.177
 2692SOL    HW1 8975   6.064   5.974   4.186
 2692SOL    HW2 8976   6.114   6.123   4.231
 2693SOL     OW 8977   2.435   4.854   3.130
 2693SOL    HW1 8978   2.419   4.847   3.228
 2693SOL    HW2 8979   2.352   4.825   3.081
 2694SOL     OW 8980   3.313   1.068   2.848
 2694SOL    HW1 8981   3.213   1.075   2.846
 2694SOL    HW2 8982   3.345   1.063   2.942
 2695SOL     OW 8983   5.077   1.926   2.656
 2695SOL    HW1 8984   4.980   1.947   2.649
 2695SOL    HW2 8985   5.122   1.996   2.711
 2696SOL     OW 8986   3.771   2.427   5.584
 2696SOL    HW1 8987   3.782   2.380   5.496
 2696SOL    HW2 8988   3.711   2.506   5.572
 2697SOL     OW 8989   4.381   2.312   3.948
 2697SOL    HW1 8990   4.414   2.404   3.928
 2697SOL    HW2 8991   4.358   2.266   3.862
 2698SOL     OW 8992   1.603   4.850   0.480
 2698SOL    HW1 8993   1.577   4.907   0.557
 2698SOL    HW2 8994   1.543   4.770   0.475
 2699SOL     OW 8995   3.756   5.626   6.824
 2699SOL    HW1 8996   3.668   5.597   6.787
 2699SOL    HW2 8997   3.830   5.583   6.771
 2700SOL     OW 8998   2.029   3.677   2.325
 2700SOL    HW1 8999   1.932   3.699   2.333
 2700SOL    HW2 9000   2.041   3.599   2.264
 2701SOL     OW 9001   3.820   0.004   6.301
 2701SOL    HW1 9002   3.883   7.011   6.225
 2701SOL    HW2 9003   3.757   0.079   6.283
 2702SOL     OW 9004   6.741   1.999   3.007
 2702SOL    HW1 9005   6.642   2.009   2.994
 2702SOL    HW2 9006   6.758   1.935   3.082
 2703SOL     OW 9007   2.704   0.942   3.149
 2703SOL    HW1 9008   2.691   0.851   3.110
 2703SOL    HW2 9009   2.622   0.969   3.199
 2704SOL     OW 9010   1.460   5.515   1.691
 2704SOL    HW1 9011   1.436   5.418   1.695
 2704SOL    HW2 9012   1.533   5.535   1.756
 2705SOL     OW 9013   0.387   5.198   4.462
 2705SOL    HW1 9014   0.313   5.191   4.529
 2705SOL    HW2 9015   0.406   5.294   4.443
 2706SOL     OW 9016   7.013   1.096   1.859
 2706SOL    HW1 9017   0.084   1.125   1.822
 2706SOL    HW2 9018   6.999   0.999   1.839
 2707SOL     OW 9019   2.150   0.325   6.021
 2707SOL    HW1 9020   2.207   0.265   6.077
 2707SOL    HW2 9021   2.170   0.309   5.924
 2708SOL     OW 9022   2.590   2.582   1.587
 2708SOL    HW1 9023   2.623   2.507   1.645
 2708SOL    HW2 9024   2.624   2.669   1.623
 2709SOL     OW 9025   4.891   6.450   0.874
 2709SOL    HW1 9026   4.854   6.504   0.950
 2709SOL    HW2 9027   4.821   6.385   0.843
 2710SOL     OW 9028   6.688   4.138   2.738
 2710SOL    HW1 9029   6.624   4.215   2.740
 2710SOL    HW2 9030   6.774   4.167   2.696
 2711SOL     OW 9031   2.253   0.531   2.777
 2711SOL    HW1 9032   2.252   0.472   2.858
 2711SOL    HW2 9033   2.174   0.593   2.780
 2712SOL     OW 9034   3.442   5.217   6.993
 2712SOL    HW1 9035   3.515   5.282   7.013
 2712SOL    HW2 9036   3.436   5.203   6.894
 2713SOL     OW 9037   1.997   2.742   4.810
 2713SOL    HW1 9038   2.087   2.783   4.821
 2713SOL    HW2 9039   1.959   2.719   4.900
 2714SOL     OW 9040   5.151   1.390   6.930
 2714SOL    HW1 9041   5.086   1.463   6.910
 2714SOL    HW2 9042   5.106   1.319   6.983
 2715SOL     OW 9043   6.343   0.567   0.476
 2715SOL    HW1 9044   6.423   0.569   0.535
 2715SOL    HW2 9045   6.319   0.661   0.449
 2716SOL     OW 9046   6.953   5.473   1.669
 2716SOL    HW1 9047   0.032   5.461   1.689
 2716SOL    HW2 9048   6.899   5.444   1.748
 2717SOL     OW 9049   0.881   5.628   2.108
 2717SOL    HW1 9050   0.888   5.717   2.152
 2717SOL    HW2 9051   0.901   5.638   2.010
 2718SOL     OW 9052   2.253   4.259   4.208
 2718SOL    HW1 9053   2.233   4.179   4.152
 2718SOL    HW2 9054   2.245   4.341   4.152
 2719SOL     OW 9055   4.443   5.061   2.087
 2719SOL    HW1 9056   4.493   5.110   2.159
 2719SOL    HW2 9057   4.465   4.964   2.092
 2720SOL     OW 9058   1.776   6.202   3.438
 2720SOL    HW1 9059   1.708   6.267   3.472
 2720SOL    HW2 9060   1.773   6.198   3.339
 2721SOL     OW 9061   2.729   0.469   5.142
 2721SOL    HW1 9062   2.760   0.455   5.236
 2721SOL    HW2 9063   2.714   0.380   5.098
 2722SOL     OW 9064   6.535   5.401   3.024
 2722SOL    HW1 9065   6.562   5.318   2.975
 2722SOL    HW2 9066   6.574   5.481   2.978
 2723SOL     OW 9067   1.839   1.226   5.659
 2723SOL    HW1 9068   1.815   1.164   5.583
 2723SOL    HW2 9069   1.773   1.215   5.733
 2724SOL     OW 9070   2.959   6.052   5.225
 2724SOL    HW1 9071   2.923   6.010   5.142
 2724SOL    HW2 9072   2.907   6.018   5.304
 2725SOL     OW 9073   5.986   4.473   3.304
 2725SOL    HW1 9074   5.906   4.524   3.335
 2725SOL    HW2 9075   6.059   4.480   3.372
 2726SOL     OW 9076   4.730   4.840   1.597
 2726SOL    HW1 9077   4.808   4.862   1.656
 2726SOL    HW2 9078   4.685   4.757   1.631
 2727SOL     OW 9079   0.801   4.488   2.933
 2727SOL    HW1 9080   0.772   4.402   2.974
 2727SOL    HW2 9081   0.833   4.472   2.840
 2728SOL     OW 9082   2.968   0.539   4.446
 2728SOL    HW1 9083   2.889   0.509   4.500
 2728SOL    HW2 9084   2.939   0.563   4.354
 2729SOL     OW 9085   6.804   6.159   2.154
 2729SOL    HW1 9086   6.812   6.103   2.236
 2729SOL    HW2 9087   6.887   6.213   2.141
 2730SOL     OW 9088   2.078   6.880   1.136
 2730SOL    HW1 9089   2.075   6.942   1.057
 2730SOL    HW2 9090   2.016   6.803   1.121
 2731SOL     OW 9091   2.827   3.645   1.408
 2731SOL    HW1 9092   2.737   3.609   1.435
 2731SOL    HW2 9093   2.857   3.712   1.475
 2732SOL     OW 9094   6.127   3.183   2.575
 2732SOL    HW1 9095   6.215   3.216   2.540
 2732SOL    HW2 9096   6.136   3.087   2.602
 2733SOL     OW 9097   0.861   6.652   5.374
 2733SOL    HW1 9098   0.833   6.557   5.364
 2733SOL    HW2 9099   0.785   6.706   5.411
 2734SOL     OW 9100   1.600   5.281   3.344
 2734SOL    HW1 9101   1.618   5.320   3.434
 2734SOL    HW2 9102   1.513   5.315   3.310
 2735SOL     OW 9103   0.243   3.452   2.522
 2735SOL    HW1 9104   0.343   3.447   2.513
 2735SOL    HW2 9105   0.201   3.391   2.455
 2736SOL     OW 9106   4.758   0.570   4.822
 2736SOL    HW1 9107   4.811   0.654   4.830
 2736SOL    HW2 9108   4.673   0.579   4.874
 2737SOL     OW 9109   3.165   3.064   6.481
 2737SOL    HW1 9110   3.124   2.999   6.417
 2737SOL    HW2 9111   3.129   3.156   6.463
 2738SOL     OW 9112   4.716   5.480   4.330
 2738SOL    HW1 9113   4.791   5.470   4.264
 2738SOL    HW2 9114   4.737   5.556   4.392
 2739SOL     OW 9115   5.990   4.315   0.830
 2739SOL    HW1 9116   6.062   4.343   0.767
 2739SOL    HW2 9117   6.023   4.323   0.924
 2740SOL     OW 9118   5.770   1.941   2.357
 2740SOL    HW1 9119   5.678   1.958   2.394
 2740SOL    HW2 9120   5.777   1.845   2.330
 2741SOL     OW 9121   6.892   1.770   5.773
 2741SOL    HW1 9122   6.811   1.830   5.768
 2741SOL    HW2 9123   6.879   1.704   5.846
 2742SOL     OW 9124   1.927   6.191   6.343
 2742SOL    HW1 9125   1.960   6.102   6.374
 2742SOL    HW2 9126   1.835   6.181   6.306
 2743SOL     OW 9127   6.227   6.004   1.599
 2743SOL    HW1 9128   6.262   6.023   1.508
 2743SOL    HW2 9129   6.127   5.997   1.596
 2744SOL     OW 9130   4.277   1.971   6.940
 2744SOL    HW1 9131   4.350   1.952   6.875
 2744SOL    HW2 9132   4.300   2.054   6.991
 2745SOL     OW 9133   2.341   6.410   0.514
 2745SOL    HW1 9134   2.252   6.374   0.486
 2745SOL    HW2 9135   2.408   6.336   0.517
 2746SOL     OW 9136   1.787   3.401   4.745
 2746SOL    HW1 9137   1.780   3.499   4.764
 2746SOL    HW2 9138   1.883   3.377   4.731
 2747SOL     OW 9139   5.207   4.423   5.403
 2747SOL    HW1 9140   5.181   4.437   5.307
 2747SOL    HW2 9141   5.267   4.498   5.432
 2748SOL     OW 9142   3.318   1.622   2.710
 2748SOL    HW1 9143   3.367   1.706   2.686
 2748SOL    HW2 9144   3.332   1.602   2.807
 2749SOL     OW 9145   5.170   5.091   4.230
 2749SOL    HW1 9146   5.230   5.072   4.308
 2749SOL    HW2 9147   5.106   5.015   4.218
 2750SOL     OW 9148   1.089   5.046   1.551
 2750SOL    HW1 9149   1.038   5.067   1.468
 2750SOL    HW2 9150   1.027   5.010   1.621
 2751SOL     OW 9151   1.829   0.036   0.224
 2751SOL    HW1 9152   1.927   0.023   0.239
 2751SOL    HW2 9153   1.789   6.968   0.191
 2752SOL     OW 9154   4.866   5.396   5.365
 2752SOL    HW1 9155   4.880   5.469   5.431
 2752SOL    HW2 9156   4.801   5.426   5.295
 2753SOL     OW 9157   3.038   5.787   6.284
 2753SOL    HW1 9158   3.121   5.735   6.305
 2753SOL    HW2 9159   3.053   5.883   6.309
 2754SOL     OW 9160   6.784   0.138   4.093
 2754SOL    HW1 9161   6.697   0.115   4.048
 2754SOL    HW2 9162   6.766   0.195   4.173
 2755SOL     OW 9163   2.863   6.695   3.467
 2755SOL    HW1 9164   2.962   6.682   3.465
 2755SOL    HW2 9165   2.843   6.791   3.488
 2756SOL     OW 9166   6.157   4.587   4.223
 2756SOL    HW1 9167   6.204   4.505   4.255
 2756SOL    HW2 9168   6.223   4.646   4.175
 2757SOL     OW 9169   3.415   1.602   6.529
 2757SOL    HW1 9170   3.478   1.679   6.535
 2757SOL    HW2 9171   3.418   1.563   6.437
 2758SOL     OW 9172   5.244   5.948   3.421
 2758SOL    HW1 9173   5.290   6.023   3.469
 2758SOL    HW2 9174   5.264   5.862   3.468
 2759SOL     OW 9175   3.463   4.661   5.691
 2759SOL    HW1 9176   3.446   4.592   5.620
 2759SOL    HW2 9177   3.429   4.750   5.661
 2760SOL     OW 9178   6.118   5.831   2.399
 2760SOL    HW1 9179   6.071   5.743   2.405
 2760SOL    HW2 9180   6.216   5.815   2.384
 2761SOL     OW 9181   1.330   4.290   3.188
 2761SOL    HW1 9182   1.263   4.351   3.144
 2761SOL    HW2 9183   1.362   4.223   3.121
 2762SOL     OW 9184   1.034   2.289   6.592
 2762SOL    HW1 9185   0.982   2.364   6.632
 2762SOL    HW2 9186   1.085   2.322   6.513
 2763SOL     OW 9187   5.204   1.812   5.953
 2763SOL    HW1 9188   5.106   1.832   5.958
 2763SOL    HW2 9189   5.219   1.714   5.963
 2764SOL     OW 9190   0.550   4.319   2.752
 2764SOL    HW1 9191   0.457   4.283   2.750
 2764SOL    HW2 9192   0.615   4.243   2.759
 2765SOL     OW 9193   6.606   0.034   0.627
 2765SOL    HW1 9194   6.641   6.966   0.589
 2765SOL    HW2 9195   6.509   0.024   0.649
 2766SOL     OW 9196   4.080   1.004   6.726
 2766SOL    HW1 9197   4.085   0.984   6.628
 2766SOL    HW2 9198   4.151   1.070   6.750
 2767SOL     OW 9199   5.821   5.858   6.304
 2767SOL    HW1 9200   5.742   5.858   6.244
 2767SOL    HW2 9201   5.828   5.947   6.349
 2768SOL     OW 9202   3.599   0.170   0.518
 2768SOL    HW1 9203   3.544   0.249   0.545
 2768SOL    HW2 9204   3.664   0.148   0.590
 2769SOL     OW 9205   1.703   4.109   5.969
 2769SOL    HW1 9206   1.741   4.017   5.958
 2769SOL    HW2 9207   1.777   4.171   5.997
 2770SOL     OW 9208   3.836   6.415   5.730
 2770SOL    HW1 9209   3.765   6.419   5.801
 2770SOL    HW2 9210   3.832   6.326   5.684
 2771SOL     OW 9211   5.554   6.349   4.048
 2771SOL    HW1 9212   5.513   6.408   4.117
 2771SOL    HW2 9213   5.538   6.388   3.957
 2772SOL     OW 9214   3.743   0.924   2.159
 2772SOL    HW1 9215   3.840   0.918   2.136
 2772SOL    HW2 9216   3.703   1.005   2.116
 2773SOL     OW 9217   0.156   3.075   4.114
 2773SOL    HW1 9218   0.149   3.144   4.186
 2773SOL    HW2 9219   0.101   2.995   4.138
 2774SOL     OW 9220   5.158   2.131   2.828
 2774SOL    HW1 9221   5.123   2.088   2.911
 2774SOL    HW2 9222   5.153   2.230   2.838
 2775SOL     OW 9223   0.202   3.723   3.637
 2775SOL    HW1 9224   0.210   3.749   3.733
 2775SOL    HW2 9225   0.121   3.665   3.625
 2776SOL     OW 9226   5.442   5.603   0.279
 2776SOL    HW1 9227   5.391   5.521   0.307
 2776SOL    HW2 9228   5.399   5.642   0.197
 2777SOL     OW 9229   2.621   1.849   5.773
 2777SOL    HW1 9230   2.592   1.862   5.868
 2777SOL    HW2 9231   2.610   1.753   5.748
 2778SOL     OW 9232   2.761   5.713   6.495
 2778SOL    HW1 9233   2.757   5.708   6.395
 2778SOL    HW2 9234   2.853   5.688   6.526
 2779SOL     OW 9235   5.572   6.458   1.783
 2779SOL    HW1 9236   5.630   6.443   1.863
 2779SOL    HW2 9237   5.624   6.501   1.710
 2780SOL     OW 9238   0.394   0.674   6.574
 2780SOL    HW1 9239   0.393   0.659   6.475
 2780SOL    HW2 9240   0.302   0.696   6.606
 2781SOL     OW 9241   6.484   0.745   2.309
 2781SOL    HW1 9242   6.553   0.816   2.313
 2781SOL    HW2 9243   6.409   0.767   2.371
 2782SOL     OW 9244   4.598   0.774   5.761
 2782SOL    HW1 9245   4.524   0.715   5.791
 2782SOL    HW2 9246   4.605   0.772   5.662
 2783SOL     OW 9247   6.206   3.427   1.140
 2783SOL    HW1 9248   6.154   3.362   1.195
 2783SOL    HW2 9249   6.151   3.456   1.062
 2784SOL     OW 9250   3.067   1.569   2.059
 2784SOL    HW1 9251   3.127   1.649   2.071
 2784SOL    HW2 9252   3.028   1.543   2.147
 2785SOL     OW 9253   5.215   2.745   1.369
 2785SOL    HW1 9254   5.193   2.649   1.355
 2785SOL    HW2 9255   5.195   2.771   1.464
 2786SOL     OW 9256   6.619   5.852   1.051
 2786SOL    HW1 9257   6.628   5.756   1.078
 2786SOL    HW2 9258   6.605   5.908   1.132
 2787SOL     OW 9259   6.389   6.106   5.750
 2787SOL    HW1 9260   6.410   6.023   5.698
 2787SOL    HW2 9261   6.303   6.093   5.800
 2788SOL     OW 9262   3.685   6.377   6.110
 2788SOL    HW1 9263   3.757   6.321   6.151
 2788SOL    HW2 9264   3.599   6.362   6.158
 2789SOL     OW 9265   0.776   2.640   3.829
 2789SOL    HW1 9266   0.872   2.663   3.813
 2789SOL    HW2 9267   0.768   2.542   3.845
 2790SOL     OW 9268   2.696   5.444   0.406
 2790SOL    HW1 9269   2.732   5.533   0.375
 2790SOL    HW2 9270   2.766   5.374   0.394
 2791SOL     OW 9271   0.347   4.068   2.221
 2791SOL    HW1 9272   0.248   4.078   2.235
 2791SOL    HW2 9273   0.394   4.146   2.261
 2792SOL     OW 9274   3.038   0.700   4.876
 2792SOL    HW1 9275   3.046   0.701   4.776
 2792SOL    HW2 9276   3.018   0.607   4.907
 2793SOL     OW 9277   4.154   4.270   1.329
 2793SOL    HW1 9278   4.222   4.201   1.356
 2793SOL    HW2 9279   4.084   4.276   1.399
 2794SOL     OW 9280   6.664   1.191   6.613
 2794SOL    HW1 9281   6.763   1.204   6.605
 2794SOL    HW2 9282   6.617   1.254   6.553
 2795SOL     OW 9283   0.440   4.860   0.911
 2795SOL    HW1 9284   0.512   4.904   0.964
 2795SOL    HW2 9285   0.412   4.919   0.836
 2796SOL     OW 9286   0.938   5.539   5.439
 2796SOL    HW1 9287   0.871   5.495   5.379
 2796SOL    HW2 9288   0.899   5.624   5.476
 2797SOL     OW 9289   5.841   5.828   5.129
 2797SOL    HW1 9290   5.902   5.760   5.088
 2797SOL    HW2 9291   5.895   5.900   5.172
 2798SOL     OW 9292   6.547   6.280   2.422
 2798SOL    HW1 9293   6.508   6.217   2.356
 2798SOL    HW2 9294   6.501   6.270   2.511
 2799SOL     OW 9295   5.113   5.382   5.692
 2799SOL    HW1 9296   5.155   5.427   5.770
 2799SOL    HW2 9297   5.053   5.446   5.644
 2800SOL     OW 9298   5.636   0.759   0.060
 2800SOL    HW1 9299   5.543   0.751   0.094
 2800SOL    HW2 9300   5.666   0.671   0.023
 2801SOL     OW 9301   0.622   5.345   5.849
 2801SOL    HW1 9302   0.600   5.305   5.760
 2801SOL    HW2 9303   0.676   5.427   5.836
 2802SOL     OW 9304   6.194   6.658   5.703
 2802SOL    HW1 9305   6.196   6.673   5.802
 2802SOL    HW2 9306   6.124   6.591   5.681
 2803SOL     OW 9307   3.296   3.197   6.199
 2803SOL    HW1 9308   3.216   3.166   6.250
 2803SOL    HW2 9309   3.329   3.124   6.140
 2804SOL     OW 9310   0.375   2.870   4.047
 2804SOL    HW1 9311   0.329   2.890   4.133
 2804SOL    HW2 9312   0.342   2.782   4.012
 2805SOL     OW 9313   4.846   3.618   2.393
 2805SOL    HW1 9314   4.888   3.530   2.370
 2805SOL    HW2 9315   4.789   3.606   2.475
 2806SOL     OW 9316   2.330   3.782   6.068
 2806SOL    HW1 9317   2.251   3.750   6.016
 2806SOL    HW2 9318   2.302   3.854   6.131
 2807SOL     OW 9319   2.804   0.536   3.145
 2807SOL    HW1 9320   2.726   0.506   3.199
 2807SOL    HW2 9321   2.881   0.557   3.205
 2808SOL     OW 9322   6.757   5.581   0.789
 2808SOL    HW1 9323   6.677   5.642   0.793
 2808SOL    HW2 9324   6.732   5.497   0.742
 2809SOL     OW 9325   5.338   3.855   2.118
 2809SOL    HW1 9326   5.410   3.902   2.168
 2809SOL    HW2 9327   5.316   3.906   2.035
 2810SOL     OW 9328   2.427   6.111   3.438
 2810SOL    HW1 9329   2.412   6.133   3.535
 2810SOL    HW2 9330   2.416   6.194   3.384
 2811SOL     OW 9331   0.733   0.462   2.590
 2811SOL    HW1 9332   0.687   0.530   2.647
 2811SOL    HW2 9333   0.827   0.450   2.622
 2812SOL     OW 9334   0.343   3.187   0.210
 2812SOL    HW1 9335   0.276   3.126   0.165
 2812SOL    HW2 9336   0.435   3.157   0.187
 2813SOL     OW 9337   1.015   1.771   1.071
 2813SOL    HW1 9338   0.917   1.789   1.074
 2813SOL    HW2 9339   1.057   1.825   0.998
 2814SOL     OW 9340   2.773   3.953   6.951
 2814SOL    HW1 9341   2.747   4.023   6.885
 2814SOL    HW2 9342   2.796   3.869   6.904
 2815SOL     OW 9343   0.250   5.912   5.090
 2815SOL    HW1 9344   0.323   5.845   5.106
 2815SOL    HW2 9345   0.290   5.995   5.052
 2816SOL     OW 9346   6.647   5.951   4.911
 2816SOL    HW1 9347   6.633   6.016   4.985
 2816SOL    HW2 9348   6.705   5.876   4.943
 2817SOL     OW 9349   3.886   0.553   2.043
 2817SOL    HW1 9350   3.976   0.597   2.049
 2817SOL    HW2 9351   3.897   0.462   2.002
 2818SOL     OW 9352   1.479   0.553   1.172
 2818SOL    HW1 9353   1.488   0.630   1.108
 2818SOL    HW2 9354   1.394   0.563   1.224
 2819SOL     OW 9355   0.757   0.323   0.793
 2819SOL    HW1 9356   0.843   0.373   0.778
 2819SOL    HW2 9357   0.768   0.228   0.765
 2820SOL     OW 9358   1.016   2.408   2.254
 2820SOL    HW1 9359   0.941   2.460   2.295
 2820SOL    HW2 9360   0.979   2.337   2.194
 2821SOL     OW 9361   3.677   5.225   6.588
 2821SOL    HW1 9362   3.705   5.204   6.682
 2821SOL    HW2 9363   3.743   5.184   6.524
 2822SOL     OW 9364   3.481   3.404   1.088
 2822SOL    HW1 9365   3.515   3.453   1.168
 2822SOL    HW2 9366   3.516   3.446   1.005
 2823SOL     OW 9367   4.733   0.977   0.800
 2823SOL    HW1 9368   4.772   1.068   0.792
 2823SOL    HW2 9369   4.803   0.909   0.780
 2824SOL     OW 9370   1.226   4.054   5.982
 2824SOL    HW1 9371   1.248   3.999   5.901
 2824SOL    HW2 9372   1.155   4.008   6.034
 2825SOL     OW 9373   5.015   0.564   6.885
 2825SOL    HW1 9374   4.960   0.575   6.967
 2825SOL    HW2 9375   4.956   0.563   6.804
 2826SOL     OW 9376   1.541   3.063   6.036
 2826SOL    HW1 9377   1.451   3.022   6.031
 2826SOL    HW2 9378   1.609   2.992   6.055
 2827SOL     OW 9379   0.118   0.691   6.677
 2827SOL    HW1 9380   0.103   0.598   6.711
 2827SOL    HW2 9381   0.030   0.737   6.665
 2828SOL     OW 9382   1.518   3.654   1.404
 2828SOL    HW1 9383   1.445   3.712   1.441
 2828SOL    HW2 9384   1.487   3.609   1.321
 2829SOL     OW 9385   3.157   4.048   3.499
 2829SOL    HW1 9386   3.162   4.062   3.598
 2829SOL    HW2 9387   3.105   3.964   3.481
 2830SOL     OW 9388   4.173   5.003   5.367
 2830SOL    HW1 9389   4.126   5.009   5.455
 2830SOL    HW2 9390   4.183   5.095   5.328
 2831SOL     OW 9391   6.531   2.366   1.829
 2831SOL    HW1 9392   6.583   2.300   1.883
 2831SOL    HW2 9393   6.580   2.385   1.744
 2832SOL     OW 9394   0.854   3.090   1.044
 2832SOL    HW1 9395   0.774   3.147   1.059
 2832SOL    HW2 9396   0.937   3.146   1.048
 2833SOL     OW 9397   2.213   0.663   2.296
 2833SOL    HW1 9398   2.183   0.591   2.359
 2833SOL    HW2 9399   2.182   0.641   2.203
 2834SOL     OW 9400   4.484   6.268   5.106
 2834SOL    HW1 9401   4.424   6.250   5.184
 2834SOL    HW2 9402   4.431   6.308   5.032
 2835SOL     OW 9403   1.067   6.549   0.929
 2835SOL    HW1 9404   1.157   6.553   0.885
 2835SOL    HW2 9405   1.060   6.465   0.983
 2836SOL     OW 9406   3.506   6.739   3.336
 2836SOL    HW1 9407   3.492   6.641   3.322
 2836SOL    HW2 9408   3.419   6.787   3.324
 2837SOL     OW 9409   5.632   4.256   2.366
 2837SOL    HW1 9410   5.585   4.341   2.340
 2837SOL    HW2 9411   5.633   4.248   2.466
 2838SOL     OW 9412   4.688   3.927   6.599
 2838SOL    HW1 9413   4.735   3.970   6.522
 2838SOL    HW2 9414   4.659   3.835   6.573
 2839SOL     OW 9415   6.134   3.325   4.213
 2839SOL    HW1 9416   6.177   3.334   4.302
 2839SOL    HW2 9417   6.068   3.399   4.200
 2840SOL     OW 9418   0.634   5.501   2.920
 2840SOL    HW1 9419   0.537   5.525   2.919
 2840SOL    HW2 9420   0.657   5.451   2.837
 2841SOL     OW 9421   6.188   2.424   0.942
 2841SOL    HW1 9422   6.169   2.399   0.847
 2841SOL    HW2 9423   6.261   2.492   0.945
 2842SOL     OW 9424   1.362   6.176   4.278
 2842SOL    HW1 9425   1.461   6.183   4.271
 2842SOL    HW2 9426   1.324   6.262   4.311
 2843SOL     OW 9427   2.152   3.566   3.109
 2843SOL    HW1 9428   2.197   3.479   3.132
 2843SOL    HW2 9429   2.053   3.557   3.122
 2844SOL     OW 9430   5.044   4.733   0.867
 2844SOL    HW1 9431   4.969   4.678   0.903
 2844SOL    HW2 9432   5.007   4.817   0.827
 2845SOL     OW 9433   4.819   3.098   3.493
 2845SOL    HW1 9434   4.785   3.163   3.425
 2845SOL    HW2 9435   4.877   3.146   3.559
 2846SOL     OW 9436   4.763   0.271   0.259
 2846SOL    HW1 9437   4.846   0.326   0.246
 2846SOL    HW2 9438   4.704   0.281   0.179
 2847SOL     OW 9439   4.684   4.351   2.251
 2847SOL    HW1 9440   4.773   4.375   2.213
 2847SOL    HW2 9441   4.633   4.296   2.184
 2848SOL     OW 9442   0.625   3.206   4.937
 2848SOL    HW1 9443   0.563   3.145   4.986
 2848SOL    HW2 9444   0.714   3.208   4.983
 2849SOL     OW 9445   3.808   0.805   2.406
 2849SOL    HW1 9446   3.785   0.840   2.315
 2849SOL    HW2 9447   3.891   0.850   2.438
 2850SOL     OW 9448   2.499   6.702   3.371
 2850SOL    HW1 9449   2.598   6.717   3.380
 2850SOL    HW2 9450   2.452   6.790   3.366
 2851SOL     OW 9451   4.482   3.535   0.655
 2851SOL    HW1 9452   4.413   3.508   0.721
 2851SOL    HW2 9453   4.441   3.545   0.564
 2852SOL     OW 9454   6.405   4.177   6.162
 2852SOL    HW1 9455   6.371   4.086   6.188
 2852SOL    HW2 9456   6.386   4.242   6.236
 2853SOL     OW 9457   0.368   3.621   0.232
 2853SOL    HW1 9458   0.340   3.669   0.149
 2853SOL    HW2 9459   0.319   3.658   0.311
 2854SOL     OW 9460   2.778   0.940   6.706
 2854SOL    HW1 9461   2.825   0.867   6.755
 2854SOL    HW2 9462   2.715   0.901   6.639
 2855SOL     OW 9463   1.287   2.131   4.418
 2855SOL    HW1 9464   1.302   2.229   4.412
 2855SOL    HW2 9465   1.374   2.083   4.403
 2856SOL     OW 9466   1.588   3.839   3.081
 2856SOL    HW1 9467   1.556   3.883   2.997
 2856SOL    HW2 9468   1.614   3.909   3.148
 2857SOL     OW 9469   0.277   3.399   0.033
 2857SOL    HW1 9470   0.323   3.320   0.076
 2857SOL    HW2 9471   0.302   3.482   0.083
 2858SOL     OW 9472   5.189   5.941   3.154
 2858SOL    HW1 9473   5.190   5.952   3.254
 2858SOL    HW2 9474   5.185   5.844   3.131
 2859SOL     OW 9475   5.409   6.108   0.770
 2859SOL    HW1 9476   5.438   6.198   0.803
 2859SOL    HW2 9477   5.473   6.076   0.700
 2860SOL     OW 9478   1.581   5.947   1.815
 2860SOL    HW1 9479   1.627   5.895   1.887
 2860SOL    HW2 9480   1.611   6.042   1.820
 2861SOL     OW 9481   3.563   5.084   6.142
 2861SOL    HW1 9482   3.477   5.040   6.116
 2861SOL    HW2 9483   3.600   5.039   6.223
 2862SOL     OW 9484   4.459   3.128   1.212
 2862SOL    HW1 9485   4.419   3.215   1.239
 2862SOL    HW2 9486   4.386   3.063   1.190
 2863SOL     OW 9487   5.191   0.312   5.815
 2863SOL    HW1 9488   5.177   0.350   5.724
 2863SOL    HW2 9489   5.121   0.243   5.834
 2864SOL     OW 9490   3.985   3.394   1.674
 2864SOL    HW1 9491   3.982   3.313   1.615
 2864SOL    HW2 9492   4.076   3.434   1.672
 2865SOL     OW 9493   4.832   6.290   4.378
 2865SOL    HW1 9494   4.856   6.248   4.291
 2865SOL    HW2 9495   4.809   6.386   4.364
 2866SOL     OW 9496   5.433   4.485   6.747
 2866SOL    HW1 9497   5.380   4.523   6.671
 2866SOL    HW2 9498   5.512   4.544   6.766
 2867SOL     OW 9499   6.338   6.687   2.132
 2867SOL    HW1 9500   6.264   6.624   2.109
 2867SOL    HW2 9501   6.423   6.654   2.090
 2868SOL     OW 9502   1.724   1.528   5.909
 2868SOL    HW1 9503   1.662   1.459   5.947
 2868SOL    HW2 9504   1.682   1.570   5.829
 2869SOL     OW 9505   5.542   6.119   4.205
 2869SOL    HW1 9506   5.474   6.051   4.178
 2869SOL    HW2 9507   5.533   6.199   4.145
 2870SOL     OW 9508   1.228   1.309   0.933
 2870SOL    HW1 9509   1.198   1.229   0.882
 2870SOL    HW2 9510   1.218   1.391   0.876
 2871SOL     OW 9511   6.534   1.347   1.874
 2871SOL    HW1 9512   6.515   1.442   1.896
 2871SOL    HW2 9513   6.514   1.331   1.777
 2872SOL     OW 9514   2.493   1.669   2.840
 2872SOL    HW1 9515   2.549   1.632   2.766
 2872SOL    HW2 9516   2.409   1.707   2.803
 2873SOL     OW 9517   0.833   5.853   1.417
 2873SOL    HW1 9518   0.819   5.868   1.515
 2873SOL    HW2 9519   0.805   5.935   1.367
 2874SOL     OW 9520   2.900   0.213   3.159
 2874SOL    HW1 9521   2.815   0.168   3.132
 2874SOL    HW2 9522   2.978   0.163   3.121
 2875SOL     OW 9523   2.863   6.889   2.919
 2875SOL    HW1 9524   2.961   6.884   2.935
 2875SOL    HW2 9525   2.832   6.806   2.871
 2876SOL     OW 9526   1.737   5.903   2.244
 2876SOL    HW1 9527   1.805   5.910   2.171
 2876SOL    HW2 9528   1.646   5.893   2.204
 2877SOL     OW 9529   1.994   1.594   5.931
 2877SOL    HW1 9530   1.991   1.682   5.978
 2877SOL    HW2 9531   1.903   1.570   5.897
 2878SOL     OW 9532   3.626   2.896   5.088
 2878SOL    HW1 9533   3.529   2.895   5.063
 2878SOL    HW2 9534   3.644   2.821   5.152
 2879SOL     OW 9535   4.375   4.661   5.973
 2879SOL    HW1 9536   4.458   4.716   5.983
 2879SOL    HW2 9537   4.299   4.721   5.947
 2880SOL     OW 9538   0.735   2.163   4.171
 2880SOL    HW1 9539   0.741   2.100   4.093
 2880SOL    HW2 9540   0.815   2.223   4.171
 2881SOL     OW 9541   3.642   5.859   6.704
 2881SOL    HW1 9542   3.683   5.789   6.761
 2881SOL    HW2 9543   3.713   5.920   6.668
 2882SOL     OW 9544   5.686   6.170   0.405
 2882SOL    HW1 9545   5.688   6.075   0.372
 2882SOL    HW2 9546   5.684   6.170   0.505
 2883SOL     OW 9547   5.806   6.302   3.020
 2883SOL    HW1 9548   5.764   6.352   2.944
 2883SOL    HW2 9549   5.795   6.203   3.005
 2884SOL     OW 9550   6.876   5.313   2.972
 2884SOL    HW1 9551   6.917   5.273   2.890
 2884SOL    HW2 9552   6.899   5.259   3.052
 2885SOL     OW 9553   1.507   3.597   3.224
 2885SOL    HW1 9554   1.591   3.577   3.276
 2885SOL    HW2 9555   1.527   3.664   3.153
 2886SOL     OW 9556   2.542   4.344   6.597
 2886SOL    HW1 9557   2.577   4.437   6.589
 2886SOL    HW2 9558   2.511   4.312   6.507
 2887SOL     OW 9559   0.157   6.010   4.600
 2887SOL    HW1 9560   0.196   6.083   4.656
 2887SOL    HW2 9561   0.230   5.960   4.555
 2888SOL     OW 9562   0.079   5.973   0.473
 2888SOL    HW1 9563   0.028   5.935   0.395
 2888SOL    HW2 9564   0.090   5.902   0.543
 2889SOL     OW 9565   2.818   6.792   3.174
 2889SOL    HW1 9566   2.836   6.838   3.087
 2889SOL    HW2 9567   2.867   6.840   3.248
 2890SOL     OW 9568   1.947   6.088   1.243
 2890SOL    HW1 9569   2.013   6.016   1.219
 2890SOL    HW2 9570   1.958   6.114   1.338
 2891SOL     OW 9571   0.506   3.356   2.676
 2891SOL    HW1 9572   0.453   3.294   2.619
 2891SOL    HW2 9573   0.603   3.343   2.658
 2892SOL     OW 9574   6.524   4.189   1.037
 2892SOL    HW1 9575   6.600   4.170   0.974
 2892SOL    HW2 9576   6.480   4.274   1.010
 2893SOL     OW 9577   0.452   5.862   4.786
 2893SOL    HW1 9578   0.495   5.849   4.697
 2893SOL    HW2 9579   0.356   5.834   4.782
 2894SOL     OW 9580   1.245   4.330   1.917
 2894SOL    HW1 9581   1.343   4.320   1.931
 2894SOL    HW2 9582   1.219   4.426   1.932
 2895SOL     OW 9583   3.608   0.179   6.246
 2895SOL    HW1 9584   3.541   0.230   6.300
 2895SOL    HW2 9585   3.572   0.089   6.223
 2896SOL     OW 9586   5.729   6.909   5.501
 2896SOL    HW1 9587   5.774   6.834   5.550
 2896SOL    HW2 9588   5.678   6.871   5.424
 2897SOL     OW 9589   3.344   5.490   2.721
 2897SOL    HW1 9590   3.323   5.586   2.740
 2897SOL    HW2 9591   3.409   5.456   2.788
 2898SOL     OW 9592   6.066   3.756   3.207
 2898SOL    HW1 9593   6.023   3.688   3.147
 2898SOL    HW2 9594   6.010   3.839   3.209
 2899SOL     OW 9595   6.989   2.020   1.148
 2899SOL    HW1 9596   0.014   1.971   1.072
 2899SOL    HW2 9597   0.020   2.106   1.163
 2900SOL     OW 9598   2.975   3.498   0.058
 2900SOL    HW1 9599   3.048   3.554   0.020
 2900SOL    HW2 9600   3.015   3.414   0.097
 2901SOL     OW 9601   1.847   4.461   3.264
 2901SOL    HW1 9602   1.867   4.522   3.341
 2901SOL    HW2 9603   1.768   4.496   3.214
 2902SOL     OW 9604   0.236   6.020   3.966
 2902SOL    HW1 9605   0.136   6.027   3.973
 2902SOL    HW2 9606   0.259   5.950   3.898
 2903SOL     OW 9607   4.804   6.003   0.827
 2903SOL    HW1 9608   4.839   6.072   0.765
 2903SOL    HW2 9609   4.847   6.013   0.917
 2904SOL     OW 9610   2.577   4.659   4.929
 2904SOL    HW1 9611   2.673   4.653   4.957
 2904SOL    HW2 9612   2.566   4.613   4.840
 2905SOL     OW 9613   0.995   4.545   2.670
 2905SOL    HW1 9614   0.900   4.532   2.642
 2905SOL    HW2 9615   1.002   4.626   2.728
 2906SOL     OW 9616   5.247   5.982   2.819
 2906SOL    HW1 9617   5.216   5.903   2.870
 2906SOL    HW2 9618   5.259   6.060   2.881
 2907SOL     OW 9619   0.920   0.946   3.931
 2907SOL    HW1 9620   0.837   0.909   3.889
 2907SOL    HW2 9621   0.985   0.872   3.946
 2908SOL     OW 9622   5.022   0.554   3.202
 2908SOL    HW1 9623   5.073   0.583   3.121
 2908SOL    HW2 9624   5.080   0.495   3.258
 2909SOL     OW 9625   1.314   5.731   2.965
 2909SOL    HW1 9626   1.344   5.677   2.886
 2909SOL    HW2 9627   1.224   5.700   2.995
 2910SOL     OW 9628   6.656   0.895   4.064
 2910SOL    HW1 9629   6.633   0.990   4.085
 2910SOL    HW2 9630   6.750   0.890   4.031
 2911SOL     OW 9631   0.166   4.568   4.083
 2911SOL    HW1 9632   0.146   4.545   3.988
 2911SOL    HW2 9633   0.257   4.608   4.090
 2912SOL     OW 9634   0.150   6.446   0.543
 2912SOL    HW1 9635   0.201   6.497   0.474
 2912SOL    HW2 9636   0.087   6.507   0.590
 2913SOL     OW 9637   1.624   4.717   2.002
 2913SOL    HW1 9638   1.605   4.619   1.990
 2913SOL    HW2 9639   1.679   4.750   1.925
 2914SOL     OW 9640   5.584   4.784   0.275
 2914SOL    HW1 9641   5.550   4.747   0.188
 2914SOL    HW2 9642   5.525   4.859   0.305
 2915SOL     OW 9643   3.250   2.122   2.715
 2915SOL    HW1 9644   3.308   2.098   2.793
 2915SOL    HW2 9645   3.269   2.216   2.688
 2916SOL     OW 9646   2.567   5.085   0.361
 2916SOL    HW1 9647   2.636   5.125   0.300
 2916SOL    HW2 9648   2.539   5.153   0.429
 2917SOL     OW 9649   2.474   0.356   3.830
 2917SOL    HW1 9650   2.531   0.274   3.825
 2917SOL    HW2 9651   2.517   0.422   3.891
 2918SOL     OW 9652   6.069   4.090   1.247
 2918SOL    HW1 9653   6.061   4.003   1.200
 2918SOL    HW2 9654   5.979   4.121   1.277
 2919SOL     OW 9655   0.365   6.035   4.328
 2919SOL    HW1 9656   0.440   6.077   4.379
 2919SOL    HW2 9657   0.303   6.106   4.295
 2920SOL     OW 9658   1.866   0.633   2.191
 2920SOL    HW1 9659   1.912   0.717   2.163
 2920SOL    HW2 9660   1.911   0.555   2.148
 2921SOL     OW 9661   0.253   6.903   5.846
 2921SOL    HW1 9662   0.156   6.914   5.869
 2921SOL    HW2 9663   0.308   6.962   5.906
 2922SOL     OW 9664   4.357   0.304   2.945
 2922SOL    HW1 9665   4.457   0.313   2.950
 2922SOL    HW2 9666   4.325   0.343   2.859
 2923SOL     OW 9667   6.554   4.548   4.899
 2923SOL    HW1 9668   6.585   4.469   4.847
 2923SOL    HW2 9669   6.611   4.627   4.876
 2924SOL     OW 9670   0.066   2.005   5.250
 2924SOL    HW1 9671   0.075   1.936   5.322
 2924SOL    HW2 9672   0.110   2.090   5.279
 2925SOL     OW 9673   5.342   0.849   6.258
 2925SOL    HW1 9674   5.431   0.884   6.287
 2925SOL    HW2 9675   5.308   0.904   6.182
 2926SOL     OW 9676   0.176   2.047   4.993
 2926SOL    HW1 9677   0.275   2.047   4.979
 2926SOL    HW2 9678   0.155   2.013   5.085
 2927SOL     OW 9679   2.104   3.120   1.403
 2927SOL    HW1 9680   2.193   3.165   1.399
 2927SOL    HW2 9681   2.033   3.184   1.372
 2928SOL     OW 9682   6.561   1.864   6.968
 2928SOL    HW1 9683   6.564   1.964   6.960
 2928SOL    HW2 9684   6.521   1.839   0.038
 2929SOL     OW 9685   1.041   2.810   4.624
 2929SOL    HW1 9686   0.985   2.746   4.571
 2929SOL    HW2 9687   1.091   2.871   4.562
 2930SOL     OW 9688   6.270   5.621   5.223
 2930SOL    HW1 9689   6.300   5.542   5.276
 2930SOL    HW2 9690   6.189   5.661   5.267
 2931SOL     OW 9691   3.873   4.622   6.890
 2931SOL    HW1 9692   3.896   4.525   6.891
 2931SOL    HW2 9693   3.956   4.676   6.908
 2932SOL     OW 9694   6.908   6.361   1.463
 2932SOL    HW1 9695   6.945   6.423   1.533
 2932SOL    HW2 9696   6.980   6.300   1.431
 2933SOL     OW 9697   0.612   0.432   1.791
 2933SOL    HW1 9698   0.568   0.352   1.751
 2933SOL    HW2 9699   0.561   0.460   1.873
 2934SOL     OW 9700   3.734   3.221   1.089
 2934SOL    HW1 9701   3.831   3.232   1.112
 2934SOL    HW2 9702   3.678   3.276   1.151
 2935SOL     OW 9703   0.551   2.521   6.262
 2935SOL    HW1 9704   0.619   2.582   6.221
 2935SOL    HW2 9705   0.596   2.452   6.318
 2936SOL     OW 9706   4.460   0.394   0.577
 2936SOL    HW1 9707   4.517   0.467   0.615
 2936SOL    HW2 9708   4.518   0.315   0.557
 2937SOL     OW 9709   4.439   5.570   1.321
 2937SOL    HW1 9710   4.497   5.624   1.382
 2937SOL    HW2 9711   4.487   5.488   1.292
 2938SOL     OW 9712   6.096   6.088   6.611
 2938SOL    HW1 9713   6.142   6.175   6.628
 2938SOL    HW2 9714   6.141   6.041   6.535
 2939SOL     OW 9715   0.577   5.955   1.904
 2939SOL    HW1 9716   0.501   5.997   1.855
 2939SOL    HW2 9717   0.556   5.859   1.923
 2940SOL     OW 9718   5.902   5.908   4.214
 2940SOL    HW1 9719   5.874   5.914   4.310
 2940SOL    HW2 9720   5.867   5.987   4.164
 2941SOL     OW 9721   1.850   3.088   3.421
 2941SOL    HW1 9722   1.888   3.040   3.500
 2941SOL    HW2 9723   1.916   3.155   3.387
 2942SOL     OW 9724   2.202   1.699   6.590
 2942SOL    HW1 9725   2.128   1.747   6.637
 2942SOL    HW2 9726   2.242   1.631   6.651
 2943SOL     OW 9727   6.233   4.289   3.494
 2943SOL    HW1 9728   6.292   4.210   3.480
 2943SOL    HW2 9729   6.282   4.358   3.548
 2944SOL     OW 9730   2.417   6.220   3.874
 2944SOL    HW1 9731   2.402   6.172   3.960
 2944SOL    HW2 9732   2.469   6.161   3.812
 2945SOL     OW 9733   5.230   4.248   1.653
 2945SOL    HW1 9734   5.179   4.334   1.652
 2945SOL    HW2 9735   5.327   4.267   1.638
 2946SOL     OW 9736   2.945   3.702   5.808
 2946SOL    HW1 9737   2.919   3.728   5.715
 2946SOL    HW2 9738   3.020   3.636   5.804
 2947SOL     OW 9739   6.655   6.137   0.735
 2947SOL    HW1 9740   6.622   6.198   0.807
 2947SOL    HW2 9741   6.742   6.171   0.700
 2948SOL     OW 9742   5.889   4.890   2.971
 2948SOL    HW1 9743   5.933   4.853   3.052
 2948SOL    HW2 9744   5.939   4.861   2.889
 2949SOL     OW 9745   0.754   6.312   0.987
 2949SOL    HW1 9746   0.854   6.310   0.986
 2949SOL    HW2 9747   0.724   6.400   1.025
 2950SOL     OW 9748   4.854   4.687   2.320
 2950SOL    HW1 9749   4.943   4.643   2.308
 2950SOL    HW2 9750   4.797   4.631   2.379
 2951SOL     OW 9751   5.646   0.528   1.887
 2951SOL    HW1 9752   5.721   0.548   1.949
 2951SOL    HW2 9753   5.595   0.612   1.868
 2952SOL     OW 9754   6.201   0.806   4.153
 2952SOL    HW1 9755   6.267   0.881   4.153
 2952SOL    HW2 9756   6.212   0.751   4.070
 2953SOL     OW 9757   0.046   5.740   2.999
 2953SOL    HW1 9758   0.067   5.674   3.071
 2953SOL    HW2 9759   0.103   5.822   3.011
 2954SOL     OW 9760   0.961   4.703   6.428
 2954SOL    HW1 9761   0.924   4.652   6.350
 2954SOL    HW2 9762   0.993   4.792   6.397
 2955SOL     OW 9763   1.151   4.109   0.029
 2955SOL    HW1 9764   1.069   4.078   6.999
 2955SOL    HW2 9765   1.164   4.056   0.113
 2956SOL     OW 9766   6.727   4.489   4.088
 2956SOL    HW1 9767   6.716   4.568   4.148
 2956SOL    HW2 9768   6.813   4.443   4.109
 2957SOL     OW 9769   2.833   5.213   1.605
 2957SOL    HW1 9770   2.895   5.288   1.628
 2957SOL    HW2 9771   2.829   5.149   1.682
 2958SOL     OW 9772   1.642   4.897   2.825
 2958SOL    HW1 9773   1.603   4.869   2.737
 2958SOL    HW2 9774   1.741   4.903   2.818
 2959SOL     OW 9775   5.379   2.651   3.255
 2959SOL    HW1 9776   5.427   2.652   3.343
 2959SOL    HW2 9777   5.286   2.617   3.268
 2960SOL     OW 9778   3.850   0.843   0.185
 2960SOL    HW1 9779   3.933   0.887   0.149
 2960SOL    HW2 9780   3.863   0.744   0.186
 2961SOL     OW 9781   5.363   4.371   2.923
 2961SOL    HW1 9782   5.345   4.462   2.959
 2961SOL    HW2 9783   5.452   4.338   2.955
 2962SOL     OW 9784   5.691   6.473   2.846
 2962SOL    HW1 9785   5.676   6.560   2.800
 2962SOL    HW2 9786   5.624   6.406   2.813
 2963SOL     OW 9787   1.078   0.816   5.929
 2963SOL    HW1 9788   1.053   0.873   5.851
 2963SOL    HW2 9789   1.071   0.719   5.903
 2964SOL     OW 9790   0.479   2.805   6.883
 2964SOL    HW1 9791   0.412   2.870   6.847
 2964SOL    HW2 9792   0.437   2.753   6.957
 2965SOL     OW 9793   0.484   0.352   4.379
 2965SOL    HW1 9794   0.565   0.348   4.320
 2965SOL    HW2 9795   0.461   0.260   4.410
 2966SOL     OW 9796   4.589   5.537   3.595
 2966SOL    HW1 9797   4.536   5.505   3.673
 2966SOL    HW2 9798   4.530   5.545   3.515
 2967SOL     OW 9799   0.036   0.917   5.695
 2967SOL    HW1 9800   0.103   0.927   5.621
 2967SOL    HW2 9801   6.961   0.924   5.657
 2968SOL     OW 9802   2.036   2.845   0.915
 2968SOL    HW1 9803   1.968   2.879   0.980
 2968SOL    HW2 9804   2.070   2.756   0.946
 2969SOL     OW 9805   4.822   3.930   4.475
 2969SOL    HW1 9806   4.849   3.864   4.544
 2969SOL    HW2 9807   4.791   4.014   4.519
 2970SOL     OW 9808   2.547   2.729   5.531
 2970SOL    HW1 9809   2.629   2.756   5.482
 2970SOL    HW2 9810   2.572   2.694   5.621
 2971SOL     OW 9811   5.692   3.876   0.087
 2971SOL    HW1 9812   5.761   3.943   0.114
 2971SOL    HW2 9813   5.602   3.905   0.119
 2972SOL     OW 9814   5.954   4.975   6.672
 2972SOL    HW1 9815   6.052   4.973   6.652
 2972SOL    HW2 9816   5.928   5.067   6.701
 2973SOL     OW 9817   4.647   6.677   2.306
 2973SOL    HW1 9818   4.679   6.601   2.249
 2973SOL    HW2 9819   4.690   6.671   2.396
 2974SOL     OW 9820   6.312   4.657   3.239
 2974SOL    HW1 9821   6.400   4.633   3.279
 2974SOL    HW2 9822   6.312   4.632   3.142
 2975SOL     OW 9823   4.373   4.580   4.029
 2975SOL    HW1 9824   4.364   4.660   3.971
 2975SOL    HW2 9825   4.382   4.498   3.973
 2976SOL     OW 9826   4.693   1.927   3.370
 2976SOL    HW1 9827   4.644   1.875   3.299
 2976SOL    HW2 9828   4.763   1.869   3.410
 2977SOL     OW 9829   0.860   0.421   2.211
 2977SOL    HW1 9830   0.892   0.507   2.250
 2977SOL    HW2 9831   0.838   0.434   2.115
 2978SOL     OW 9832   4.397   4.181   6.371
 2978SOL    HW1 9833   4.312   4.230   6.392
 2978SOL    HW2 9834   4.443   4.227   6.295
 2979SOL     OW 9835   3.327   1.640   4.707
 2979SOL    HW1 9836   3.264   1.704   4.750
 2979SOL    HW2 9837   3.362   1.679   4.622
 2980SOL     OW 9838   3.553   4.360   6.377
 2980SOL    HW1 9839   3.615   4.433   6.407
 2980SOL    HW2 9840   3.539   4.296   6.452
 2981SOL     OW 9841   2.027   1.524   0.447
 2981SOL    HW1 9842   2.081   1.453   0.493
 2981SOL    HW2 9843   1.945   1.483   0.407
 2982SOL     OW 9844   1.590   6.573   2.435
 2982SOL    HW1 9845   1.640   6.657   2.417
 2982SOL    HW2 9846   1.492   6.593   2.441
 2983SOL     OW 9847   6.985   2.355   6.440
 2983SOL    HW1 9848   7.010   2.413   6.362
 2983SOL    HW2 9849   6.920   2.286   6.410
 2984SOL     OW 9850   6.380   4.951   0.080
 2984SOL    HW1 9851   6.404   5.047   0.069
 2984SOL    HW2 9852   6.284   4.944   0.109
 2985SOL     OW 9853   0.711   0.155   4.351
 2985SOL    HW1 9854   0.771   0.178   4.427
 2985SOL    HW2 9855   0.665   0.068   4.371
 2986SOL     OW 9856   3.308   3.966   2.635
 2986SOL    HW1 9857   3.360   3.955   2.720
 2986SOL    HW2 9858   3.310   3.880   2.584
 2987SOL     OW 9859   0.965   2.334   4.125
 2987SOL    HW1 9860   1.038   2.266   4.115
 2987SOL    HW2 9861   1.005   2.421   4.154
 2988SOL     OW 9862   1.343   0.832   1.316
 2988SOL    HW1 9863   1.301   0.874   1.397
 2988SOL    HW2 9864   1.330   0.733   1.319
 2989SOL     OW 9865   5.348   3.478   5.272
 2989SOL    HW1 9866   5.329   3.575   5.288
 2989SOL    HW2 9867   5.401   3.441   5.349
 2990SOL     OW 9868   5.332   1.986   4.395
 2990SOL    HW1 9869   5.349   2.023   4.487
 2990SOL    HW2 9870   5.346   1.887   4.397
 2991SOL     OW 9871   5.804   3.576   0.992
 2991SOL    HW1 9872   5.840   3.564   1.084
 2991SOL    HW2 9873   5.833   3.665   0.957
 2992SOL     OW 9874   0.543   3.633   4.538
 2992SOL    HW1 9875   0.611   3.562   4.557
 2992SOL    HW2 9876   0.458   3.610   4.586
 2993SOL     OW 9877   0.787   4.636   0.052
 2993SOL    HW1 9878   0.881   4.642   0.018
 2993SOL    HW2 9879   0.728   4.697   7.017
 2994SOL     OW 9880   4.901   5.959   6.587
 2994SOL    HW1 9881   4.967   5.901   6.538
 2994SOL    HW2 9882   4.940   6.050   6.601
 2995SOL     OW 9883   4.593   0.592   0.699
 2995SOL    HW1 9884   4.631   0.675   0.659
 2995SOL    HW2 9885   4.577   0.606   0.797
 2996SOL     OW 9886   1.517   2.298   4.796
 2996SOL    HW1 9887   1.507   2.370   4.864
 2996SOL    HW2 9888   1.602   2.311   4.745
 2997SOL     OW 9889   4.496   0.751   3.545
 2997SOL    HW1 9890   4.497   0.657   3.513
 2997SOL    HW2 9891   4.472   0.754   3.642
 2998SOL     OW 9892   2.896   0.316   3.774
 2998SOL    HW1 9893   2.891   0.411   3.806
 2998SOL    HW2 9894   2.804   0.284   3.751
 2999SOL     OW 9895   3.151   4.560   6.843
 2999SOL    HW1 9896   3.224   4.628   6.852
 2999SOL    HW2 9897   3.191   4.468   6.845
 3000SOL     OW 9898   2.886   3.294   5.711
 3000SOL    HW1 9899   2.850   3.237   5.637
 3000SOL    HW2 9900   2.820   3.367   5.731
 3001SOL     OW 9901   5.788   0.986   6.682
 3001SOL    HW1 9902   5.739   0.903   6.656
 3001SOL    HW2 9903   5.744   1.026   6.763
 3002SOL     OW 9904   2.955   1.342   1.268
 3002SOL    HW1 9905   2.916   1.433   1.256
 3002SOL    HW2 9906   3.000   1.313   1.183
 3003SOL     OW 9907   1.036   6.063   0.820
 3003SOL    HW1 9908   0.952   6.037   0.867
 3003SOL    HW2 9909   1.103   6.096   0.886
 3004SOL     OW 9910   2.419   4.587   4.178
 3004SOL    HW1 9911   2.381   4.675   4.152
 3004SOL    HW2 9912   2.477   4.552   4.105
 3005SOL     OW 9913   1.098   3.052   5.396
 3005SOL    HW1 9914   1.059   2.965   5.366
 3005SOL    HW2 9915   1.153   3.091   5.322
 3006SOL     OW 9916   5.596   2.000   5.798
 3006SOL    HW1 9917   5.500   1.978   5.777
 3006SOL    HW2 9918   5.604   2.024   5.895
 3007SOL     OW 9919   5.112   5.505   0.138
 3007SOL    HW1 9920   5.048   5.511   0.061
 3007SOL    HW2 9921   5.203   5.531   0.108
 3008SOL     OW 9922   4.382   1.798   6.089
 3008SOL    HW1 9923   4.387   1.853   6.006
 3008SOL    HW2 9924   4.469   1.750   6.102
 3009SOL     OW 9925   6.836   2.946   2.922
 3009SOL    HW1 9926   6.809   2.947   3.018
 3009SOL    HW2 9927   6.815   2.857   2.882
 3010SOL     OW 9928   4.388   5.406   6.086
 3010SOL    HW1 9929   4.333   5.341   6.035
 3010SOL    HW2 9930   4.332   5.484   6.114
 3011SOL     OW 9931   6.317   6.948   1.741
 3011SOL    HW1 9932   6.307   0.003   1.809
 3011SOL    HW2 9933   6.295   6.985   1.651
 3012SOL     OW 9934   2.802   3.353   6.617
 3012SOL    HW1 9935   2.720   3.329   6.564
 3012SOL    HW2 9936   2.884   3.328   6.565
 3013SOL     OW 9937   7.016   6.095   3.333
 3013SOL    HW1 9938   7.006   6.124   3.237
 3013SOL    HW2 9939   7.010   5.996   3.339
 3014SOL     OW 9940   5.168   0.695   6.027
 3014SOL    HW1 9941   5.266   0.682   6.012
 3014SOL    HW2 9942   5.137   0.775   5.976
 3015SOL     OW 9943   1.899   1.247   0.101
 3015SOL    HW1 9944   1.943   1.180   0.159
 3015SOL    HW2 9945   1.859   1.320   0.157
 3016SOL     OW 9946   3.614   0.438   4.658
 3016SOL    HW1 9947   3.594   0.340   4.659
 3016SOL    HW2 9948   3.562   0.481   4.585
 3017SOL     OW 9949   6.706   5.929   1.737
 3017SOL    HW1 9950   6.712   6.026   1.759
 3017SOL    HW2 9951   6.633   5.887   1.791
 3018SOL     OW 9952   4.057   0.015   0.507
 3018SOL    HW1 9953   3.981   6.983   0.550
 3018SOL    HW2 9954   4.021   0.091   0.453
 3019SOL     OW 9955   1.462   6.722   6.856
 3019SOL    HW1 9956   1.370   6.745   6.887
 3019SOL    HW2 9957   1.501   6.653   6.917
 3020SOL     OW 9958   5.490   3.214   6.890
 3020SOL    HW1 9959   5.574   3.217   6.944
 3020SOL    HW2 9960   5.495   3.137   6.826
 3021SOL     OW 9961   3.420   6.212   4.556
 3021SOL    HW1 9962   3.323   6.233   4.539
 3021SOL    HW2 9963   3.476   6.286   4.519
 3022SOL     OW 9964   3.938   5.839   3.446
 3022SOL    HW1 9965   3.937   5.847   3.346
 3022SOL    HW2 9966   3.851   5.804   3.478
 3023SOL     OW 9967   3.810   6.644   2.625
 3023SOL    HW1 9968   3.758   6.617   2.706
 3023SOL    HW2 9969   3.905   6.615   2.636
 3024SOL     OW 9970   6.776   6.168   5.196
 3024SOL    HW1 9971   6.743   6.260   5.174
 3024SOL    HW2 9972   6.730   6.136   5.279
 3025SOL     OW 9973   4.406   5.718   0.163
 3025SOL    HW1 9974   4.458   5.780   0.222
 3025SOL    HW2 9975   4.308   5.725   0.184
 3026SOL     OW 9976   5.666   1.054   1.123
 3026SOL    HW1 9977   5.744   1.111   1.149
 3026SOL    HW2 9978   5.671   1.032   1.025
 3027SOL     OW 9979   4.761   1.695   1.622
 3027SOL    HW1 9980   4.683   1.639   1.653
 3027SOL    HW2 9981   4.794   1.749   1.699
 3028SOL     OW 9982   2.110   3.761   6.556
 3028SOL    HW1 9983   2.150   3.714   6.634
 3028SOL    HW2 9984   2.029   3.812   6.585
 3029SOL     OW 9985   0.660   2.756   4.078
 3029SOL    HW1 9986   0.618   2.779   3.989
 3029SOL    HW2 9987   0.598   2.698   4.130
 3030SOL     OW 9988   1.476   4.275   1.466
 3030SOL    HW1 9989   1.550   4.296   1.401
 3030SOL    HW2 9990   1.390   4.314   1.433
 3031SOL     OW 9991   1.602   5.100   1.178
 3031SOL    HW1 9992   1.605   5.172   1.248
 3031SOL    HW2 9993   1.509   5.093   1.142
 3032SOL     OW 9994   2.028   6.999   3.208
 3032SOL    HW1 9995   2.056   6.997   3.112
 3032SOL    HW2 9996   2.110   7.005   3.266
 3033SOL     OW 9997   6.104   2.873   4.105
 3033SOL    HW1 9998   6.139   2.816   4.179
 3033SOL    HW2 9999   6.065   2.957   4.143
 3034SOL     OW10000   0.838   6.232   3.692
 3034SOL    HW110001   0.818   6.170   3.767
 3034SOL    HW210002   0.756   6.242   3.635
 3035SOL     OW10003   1.377   2.453   6.075
 3035SOL    HW110004   1.367   2.406   5.987
 3035SOL    HW210005   1.286   2.474   6.111
 3036SOL     OW10006   1.353   2.147   6.072
 3036SOL    HW110007   1.380   2.122   5.979
 3036SOL    HW210008   1.282   2.217   6.068
 3037SOL     OW10009   0.739   4.971   5.756
 3037SOL    HW110010   0.651   4.954   5.711
 3037SOL    HW210011   0.811   4.968   5.687
 3038SOL     OW10012   4.890   5.000   6.115
 3038SOL    HW110013   4.907   5.052   6.199
 3038SOL    HW210014   4.971   5.004   6.057
 3039SOL     OW10015   6.136   3.347   0.620
 3039SOL    HW110016   6.054   3.298   0.650
 3039SOL    HW210017   6.110   3.420   0.557
 3040SOL     OW10018   3.683   4.057   5.861
 3040SOL    HW110019   3.686   3.973   5.915
 3040SOL    HW210020   3.720   4.039   5.770
 3041SOL     OW10021   1.325   3.773   4.784
 3041SOL    HW110022   1.367   3.844   4.840
 3041SOL    HW210023   1.394   3.703   4.762
 3042SOL     OW10024   0.564   4.639   2.987
 3042SOL    HW110025   0.573   4.735   2.961
 3042SOL    HW210026   0.648   4.590   2.962
 3043SOL     OW10027   2.485   3.266   0.628
 3043SOL    HW110028   2.471   3.360   0.659
 3043SOL    HW210029   2.576   3.257   0.589
 3044SOL     OW10030   3.279   3.568   5.339
 3044SOL    HW110031   3.247   3.661   5.320
 3044SOL    HW210032   3.337   3.569   5.421
 3045SOL     OW10033   4.941   1.303   3.478
 3045SOL    HW110034   4.881   1.377   3.447
 3045SOL    HW210035   4.886   1.230   3.519
 3046SOL     OW10036   5.538   5.604   0.696
 3046SOL    HW110037   5.511   5.519   0.652
 3046SOL    HW210038   5.471   5.628   0.766
 3047SOL     OW10039   6.085   6.694   0.463
 3047SOL    HW110040   6.028   6.769   0.430
 3047SOL    HW210041   6.169   6.691   0.410
 3048SOL     OW10042   4.218   3.234   0.994
 3048SOL    HW110043   4.315   3.237   0.969
 3048SOL    HW210044   4.183   3.142   0.979
 3049SOL     OW10045   1.082   0.985   4.667
 3049SOL    HW110046   1.014   0.946   4.605
 3049SOL    HW210047   1.048   1.072   4.703
 3050SOL     OW10048   2.435   2.319   1.334
 3050SOL    HW110049   2.505   2.248   1.333
 3050SOL    HW210050   2.463   2.393   1.396
 3051SOL     OW10051   3.438   6.808   5.917
 3051SOL    HW110052   3.480   6.836   5.830
 3051SOL    HW210053   3.493   6.841   5.993
 3052SOL     OW10054   5.512   6.301   2.722
 3052SOL    HW110055   5.422   6.345   2.718
 3052SOL    HW210056   5.499   6.202   2.736
 3053SOL     OW10057   1.819   4.553   0.405
 3053SOL    HW110058   1.829   4.639   0.355
 3053SOL    HW210059   1.908   4.525   0.442
 3054SOL     OW10060   5.631   1.064   3.251
 3054SOL    HW110061   5.534   1.077   3.273
 3054SOL    HW210062   5.640   1.001   3.174
 3055SOL     OW10063   6.440   6.269   6.412
 3055SOL    HW110064   6.431   6.362   6.376
 3055SOL    HW210065   6.536   6.250   6.433
 3056SOL     OW10066   5.429   1.819   6.142
 3056SOL    HW110067   5.338   1.828   6.102
 3056SOL    HW210068   5.462   1.910   6.171
 3057SOL     OW10069   5.471   6.143   3.327
 3057SOL    HW110070   5.395   6.203   3.350
 3057SOL    HW210071   5.486   6.145   3.228
 3058SOL     OW10072   6.168   4.487   0.614
 3058SOL    HW110073   6.112   4.539   0.549
 3058SOL    HW210074   6.210   4.409   0.567
 3059SOL     OW10075   2.247   2.502   4.168
 3059SOL    HW110076   2.240   2.521   4.070
 3059SOL    HW210077   2.263   2.404   4.182
 3060SOL     OW10078   2.944   4.596   5.996
 3060SOL    HW110079   3.043   4.595   6.007
 3060SOL    HW210080   2.909   4.503   5.999
 3061SOL     OW10081   5.670   4.682   5.942
 3061SOL    HW110082   5.598   4.646   6.001
 3061SOL    HW210083   5.638   4.684   5.847
 3062SOL     OW10084   4.084   4.614   1.376
 3062SOL    HW110085   4.018   4.541   1.388
 3062SOL    HW210086   4.159   4.582   1.317
 3063SOL     OW10087   0.723   4.167   0.579
 3063SOL    HW110088   0.625   4.144   0.584
 3063SOL    HW210089   0.759   4.178   0.672
 3064SOL     OW10090   4.437   2.730   0.221
 3064SOL    HW110091   4.532   2.759   0.222
 3064SOL    HW210092   4.392   2.767   0.139
 3065SOL     OW10093   1.145   1.034   6.661
 3065SOL    HW110094   1.218   0.967   6.675
 3065SOL    HW210095   1.123   1.078   6.748
 3066SOL     OW10096   5.220   5.176   5.521
 3066SOL    HW110097   5.247   5.211   5.431
 3066SOL    HW210098   5.176   5.249   5.574
 3067SOL     OW10099   2.572   1.581   6.639
 3067SOL    HW110100   2.520   1.524   6.702
 3067SOL    HW210101   2.612   1.658   6.689
 3068SOL     OW10102   0.754   1.302   1.661
 3068SOL    HW110103   0.806   1.276   1.742
 3068SOL    HW210104   0.744   1.222   1.601
 3069SOL     OW10105   5.496   0.214   3.699
 3069SOL    HW110106   5.589   0.189   3.722
 3069SOL    HW210107   5.497   0.279   3.622
 3070SOL     OW10108   2.857   1.341   6.603
 3070SOL    HW110109   2.845   1.382   6.694
 3070SOL    HW210110   2.902   1.252   6.612
 3071SOL     OW10111   6.982   4.072   3.618
 3071SOL    HW110112   6.939   4.111   3.538
 3071SOL    HW210113   0.046   4.021   3.591
 3072SOL     OW10114   2.156   6.022   0.004
 3072SOL    HW110115   2.072   5.979   0.036
 3072SOL    HW210116   2.150   6.038   6.923
 3073SOL     OW10117   6.466   4.753   0.465
 3073SOL    HW110118   6.428   4.824   0.524
 3073SOL    HW210119   6.506   4.680   0.521
 3074SOL     OW10120   1.035   3.747   0.652
 3074SOL    HW110121   1.036   3.716   0.747
 3074SOL    HW210122   0.971   3.823   0.642
 3075SOL     OW10123   2.600   5.141   3.939
 3075SOL    HW110124   2.655   5.207   3.991
 3075SOL    HW210125   2.623   5.048   3.969
 3076SOL     OW10126   0.148   1.176   4.942
 3076SOL    HW110127   0.088   1.197   4.865
 3076SOL    HW210128   0.214   1.105   4.916
 3077SOL     OW10129   5.973   3.662   1.637
 3077SOL    HW110130   5.923   3.625   1.716
 3077SOL    HW210131   6.065   3.688   1.665
 3078SOL     OW10132   6.125   3.314   1.870
 3078SOL    HW110133   6.164   3.233   1.914
 3078SOL    HW210134   6.165   3.396   1.909
 3079SOL     OW10135   2.072   2.736   5.137
 3079SOL    HW110136   2.114   2.653   5.100
 3079SOL    HW210137   1.978   2.716   5.166
 3080SOL     OW10138   4.481   4.807   1.269
 3080SOL    HW110139   4.406   4.810   1.336
 3080SOL    HW210140   4.562   4.769   1.313
 3081SOL     OW10141   0.968   3.982   0.454
 3081SOL    HW110142   0.875   3.990   0.420
 3081SOL    HW210143   1.027   3.950   0.380
 3082SOL     OW10144   3.508   5.178   4.233
 3082SOL    HW110145   3.481   5.218   4.320
 3082SOL    HW210146   3.530   5.251   4.168
 3083SOL     OW10147   2.690   5.139   2.715
 3083SOL    HW110148   2.609   5.180   2.674
 3083SOL    HW210149   2.771   5.171   2.667
 3084SOL     OW10150   0.529   3.815   2.835
 3084SOL    HW110151   0.473   3.749   2.785
 3084SOL    HW210152   0.607   3.768   2.877
 3085SOL     OW10153   4.665   5.151   0.744
 3085SOL    HW110154   4.686   5.171   0.840
 3085SOL    HW210155   4.629   5.234   0.701
 3086SOL     OW10156   5.865   1.144   0.049
 3086SOL    HW110157   5.852   1.048   0.023
 3086SOL    HW210158   5.867   1.152   0.149
 3087SOL     OW10159   2.566   6.277   2.401
 3087SOL    HW110160   2.626   6.260   2.479
 3087SOL    HW210161   2.473   6.292   2.433
 3088SOL     OW10162   0.405   3.200   5.365
 3088SOL    HW110163   0.403   3.176   5.462
 3088SOL    HW210164   0.499   3.221   5.339
 3089SOL     OW10165   4.598   0.851   4.697
 3089SOL    HW110166   4.619   0.816   4.606
 3089SOL    HW210167   4.586   0.774   4.760
 3090SOL     OW10168   1.048   1.573   1.630
 3090SOL    HW110169   1.059   1.575   1.531
 3090SOL    HW210170   1.089   1.490   1.667
 3091SOL     OW10171   1.104   1.616   0.483
 3091SOL    HW110172   1.038   1.627   0.409
 3091SOL    HW210173   1.054   1.598   0.568
 3092SOL     OW10174   5.351   6.865   2.592
 3092SOL    HW110175   5.266   6.916   2.604
 3092SOL    HW210176   5.403   6.866   2.677
 3093SOL     OW10177   5.687   5.298   6.174
 3093SOL    HW110178   5.654   5.216   6.127
 3093SOL    HW210179   5.652   5.300   6.267
 3094SOL     OW10180   2.464   0.840   4.953
 3094SOL    HW110181   2.456   0.817   5.050
 3094SOL    HW210182   2.558   0.869   4.935
 3095SOL     OW10183   2.755   3.032   5.299
 3095SOL    HW110184   2.828   3.056   5.235
 3095SOL    HW210185   2.666   3.041   5.254
 3096SOL     OW10186   0.669   3.455   5.382
 3096SOL    HW110187   0.579   3.448   5.425
 3096SOL    HW210188   0.690   3.371   5.333
 3097SOL     OW10189   6.277   2.449   6.506
 3097SOL    HW110190   6.281   2.440   6.606
 3097SOL    HW210191   6.271   2.546   6.482
 3098SOL     OW10192   2.120   2.115   2.647
 3098SOL    HW110193   2.208   2.126   2.692
 3098SOL    HW210194   2.131   2.055   2.567
 3099SOL     OW10195   0.605   6.291   3.537
 3099SOL    HW110196   0.605   6.389   3.559
 3099SOL    HW210197   0.624   6.278   3.440
 3100SOL     OW10198   6.105   6.413   2.831
 3100SOL    HW110199   6.132   6.485   2.766
 3100SOL    HW210200   6.005   6.405   2.833
 3101SOL     OW10201   4.833   6.815   6.169
 3101SOL    HW110202   4.752   6.756   6.166
 3101SOL    HW210203   4.822   6.891   6.105
 3102SOL     OW10204   0.499   5.521   0.433
 3102SOL    HW110205   0.413   5.541   0.386
 3102SOL    HW210206   0.508   5.422   0.444
 3103SOL     OW10207   3.714   0.216   0.779
 3103SOL    HW110208   3.655   0.247   0.853
 3103SOL    HW210209   3.789   0.161   0.816
 3104SOL     OW10210   4.708   0.198   6.247
 3104SOL    HW110211   4.618   0.237   6.264
 3104SOL    HW210212   4.759   0.258   6.185
 3105SOL     OW10213   5.260   3.200   0.642
 3105SOL    HW110214   5.175   3.212   0.692
 3105SOL    HW210215   5.311   3.123   0.680
 3106SOL     OW10216   5.747   0.795   5.026
 3106SOL    HW110217   5.791   0.726   4.968
 3106SOL    HW210218   5.694   0.857   4.968
 3107SOL     OW10219   4.712   2.041   4.611
 3107SOL    HW110220   4.698   1.994   4.523
 3107SOL    HW210221   4.628   2.088   4.637
 3108SOL     OW10222   2.415   4.519   4.439
 3108SOL    HW110223   2.424   4.546   4.343
 3108SOL    HW210224   2.361   4.436   4.445
 3109SOL     OW10225   6.303   0.198   4.600
 3109SOL    HW110226   6.264   0.211   4.509
 3109SOL    HW210227   6.399   0.173   4.592
 3110SOL     OW10228   2.479   4.722   3.716
 3110SOL    HW110229   2.387   4.757   3.733
 3110SOL    HW210230   2.545   4.797   3.726
 3111SOL     OW10231   6.741   4.766   4.846
 3111SOL    HW110232   6.818   4.801   4.900
 3111SOL    HW210233   6.741   4.809   4.756
 3112SOL     OW10234   4.071   2.725   0.453
 3112SOL    HW110235   4.077   2.734   0.354
 3112SOL    HW210236   4.162   2.721   0.493
 3113SOL     OW10237   2.683   5.621   2.543
 3113SOL    HW110238   2.734   5.706   2.529
 3113SOL    HW210239   2.729   5.566   2.614
 3114SOL     OW10240   3.737   1.335   6.939
 3114SOL    HW110241   3.654   1.352   6.886
 3114SOL    HW210242   3.724   1.253   6.995
 3115SOL     OW10243   4.215   4.077   5.506
 3115SOL    HW110244   4.192   4.126   5.422
 3115SOL    HW210245   4.134   4.068   5.563
 3116SOL     OW10246   0.821   2.082   0.835
 3116SOL    HW110247   0.803   2.180   0.832
 3116SOL    HW210248   0.742   2.034   0.874
 3117SOL     OW10249   5.042   2.258   5.602
 3117SOL    HW110250   5.054   2.297   5.694
 3117SOL    HW210251   5.077   2.323   5.535
 3118SOL     OW10252   1.382   0.324   3.151
 3118SOL    HW110253   1.353   0.410   3.109
 3118SOL    HW210254   1.474   0.335   3.188
 3119SOL     OW10255   3.597   2.662   5.529
 3119SOL    HW110256   3.627   2.713   5.610
 3119SOL    HW210257   3.632   2.706   5.447
 3120SOL     OW10258   2.999   0.249   5.136
 3120SOL    HW110259   3.050   0.252   5.223
 3120SOL    HW210260   3.038   0.315   5.072
 3121SOL     OW10261   5.015   1.991   4.434
 3121SOL    HW110262   5.086   1.983   4.364
 3121SOL    HW210263   4.953   1.913   4.427
 3122SOL     OW10264   4.430   4.612   4.309
 3122SOL    HW110265   4.378   4.583   4.228
 3122SOL    HW210266   4.488   4.690   4.285
 3123SOL     OW10267   2.238   1.000   3.594
 3123SOL    HW110268   2.228   0.927   3.526
 3123SOL    HW210269   2.204   1.086   3.557
 3124SOL     OW10270   5.086   6.264   4.827
 3124SOL    HW110271   5.141   6.252   4.909
 3124SOL    HW210272   5.100   6.187   4.765
 3125SOL     OW10273   0.860   3.111   5.063
 3125SOL    HW110274   0.852   3.013   5.079
 3125SOL    HW210275   0.956   3.137   5.067
 3126SOL     OW10276   5.728   5.509   4.695
 3126SOL    HW110277   5.691   5.566   4.769
 3126SOL    HW210278   5.655   5.452   4.658
 3127SOL     OW10279   0.929   2.634   4.460
 3127SOL    HW110280   0.983   2.588   4.389
 3127SOL    HW210281   0.889   2.565   4.520
 3128SOL     OW10282   3.538   0.395   0.288
 3128SOL    HW110283   3.498   0.465   0.229
 3128SOL    HW210284   3.468   0.327   0.311
 3129SOL     OW10285   5.001   3.427   1.281
 3129SOL    HW110286   4.936   3.412   1.207
 3129SOL    HW210287   5.072   3.356   1.278
 3130SOL     OW10288   1.652   4.331   1.253
 3130SOL    HW110289   1.608   4.339   1.164
 3130SOL    HW210290   1.749   4.309   1.241
 3131SOL     OW10291   6.949   3.865   1.926
 3131SOL    HW110292   0.029   3.888   1.936
 3131SOL    HW210293   6.894   3.930   1.978
 3132SOL     OW10294   3.844   4.388   0.622
 3132SOL    HW110295   3.895   4.430   0.548
 3132SOL    HW210296   3.889   4.407   0.709
 3133SOL     OW10297   3.480   0.448   3.268
 3133SOL    HW110298   3.416   0.463   3.193
 3133SOL    HW210299   3.571   0.429   3.231
 3134SOL     OW10300   3.417   4.921   1.815
 3134SOL    HW110301   3.506   4.904   1.857
 3134SOL    HW210302   3.368   4.834   1.804
 3135SOL     OW10303   5.582   6.662   5.857
 3135SOL    HW110304   5.525   6.585   5.829
 3135SOL    HW210305   5.561   6.741   5.800
 3136SOL     OW10306   6.130   1.143   2.282
 3136SOL    HW110307   6.083   1.065   2.242
 3136SOL    HW210308   6.063   1.202   2.328
 3137SOL     OW10309   6.314   0.439   0.823
 3137SOL    HW110310   6.341   0.453   0.728
 3137SOL    HW210311   6.218   0.465   0.835
 3138SOL     OW10312   5.779   5.515   4.252
 3138SOL    HW110313   5.846   5.547   4.185
 3138SOL    HW210314   5.773   5.415   4.249
 3139SOL     OW10315   2.525   4.832   1.287
 3139SOL    HW110316   2.497   4.782   1.369
 3139SOL    HW210317   2.611   4.880   1.306
 3140SOL     OW10318   6.021   6.429   5.669
 3140SOL    HW110319   6.108   6.382   5.653
 3140SOL    HW210320   5.994   6.417   5.765
 3141SOL     OW10321   0.512   2.534   0.414
 3141SOL    HW110322   0.558   2.568   0.332
 3141SOL    HW210323   0.518   2.435   0.416
 3142SOL     OW10324   4.324   0.961   2.688
 3142SOL    HW110325   4.408   0.908   2.699
 3142SOL    HW210326   4.275   0.929   2.607
 3143SOL     OW10327   5.828   1.984   0.381
 3143SOL    HW110328   5.928   1.986   0.381
 3143SOL    HW210329   5.795   1.970   0.287
 3144SOL     OW10330   4.438   3.756   0.003
 3144SOL    HW110331   4.527   3.720   0.030
 3144SOL    HW210332   4.443   3.790   6.926
 3145SOL     OW10333   2.706   6.712   2.022
 3145SOL    HW110334   2.678   6.779   1.952
 3145SOL    HW210335   2.750   6.634   1.978
 3146SOL     OW10336   0.530   0.586   5.053
 3146SOL    HW110337   0.624   0.554   5.067
 3146SOL    HW210338   0.531   0.680   5.020
 3147SOL     OW10339   3.634   5.459   6.477
 3147SOL    HW110340   3.661   5.450   6.381
 3147SOL    HW210341   3.632   5.369   6.520
 3148SOL     OW10342   0.422   6.590   2.962
 3148SOL    HW110343   0.373   6.602   3.048
 3148SOL    HW210344   0.493   6.660   2.954
 3149SOL     OW10345   3.091   1.421   0.030
 3149SOL    HW110346   3.087   1.495   6.981
 3149SOL    HW210347   3.015   1.357   0.014
 3150SOL     OW10348   6.374   5.793   5.019
 3150SOL    HW110349   6.320   5.732   5.077
 3150SOL    HW210350   6.425   5.739   4.952
 3151SOL     OW10351   6.801   1.661   6.015
 3151SOL    HW110352   6.704   1.646   6.033
 3151SOL    HW210353   6.830   1.748   6.055
 3152SOL     OW10354   1.505   3.933   6.458
 3152SOL    HW110355   1.600   3.908   6.438
 3152SOL    HW210356   1.443   3.881   6.398
 3153SOL     OW10357   6.387   5.005   0.530
 3153SOL    HW110358   6.300   5.055   0.531
 3153SOL    HW210359   6.462   5.069   0.513
 3154SOL     OW10360   6.040   1.354   1.781
 3154SOL    HW110361   6.079   1.446   1.780
 3154SOL    HW210362   5.978   1.346   1.860
 3155SOL     OW10363   6.548   4.614   0.702
 3155SOL    HW110364   6.602   4.624   0.786
 3155SOL    HW210365   6.452   4.627   0.723
 3156SOL     OW10366   3.579   4.137   2.247
 3156SOL    HW110367   3.662   4.153   2.300
 3156SOL    HW210368   3.595   4.166   2.152
 3157SOL     OW10369   1.019   2.298   5.275
 3157SOL    HW110370   0.962   2.216   5.271
 3157SOL    HW210371   1.064   2.311   5.186
 3158SOL     OW10372   2.817   1.978   5.901
 3158SOL    HW110373   2.741   1.950   5.843
 3158SOL    HW210374   2.812   2.077   5.917
 3159SOL     OW10375   4.641   6.662   0.620
 3159SOL    HW110376   4.710   6.668   0.547
 3159SOL    HW210377   4.553   6.638   0.580
 3160SOL     OW10378   1.631   6.721   5.473
 3160SOL    HW110379   1.707   6.685   5.419
 3160SOL    HW210380   1.644   6.697   5.569
 3161SOL     OW10381   1.846   2.715   2.624
 3161SOL    HW110382   1.899   2.773   2.686
 3161SOL    HW210383   1.895   2.706   2.537
 3162SOL     OW10384   2.068   5.498   6.833
 3162SOL    HW110385   2.082   5.400   6.845
 3162SOL    HW210386   2.156   5.545   6.834
 3163SOL     OW10387   4.366   3.572   0.414
 3163SOL    HW110388   4.378   3.531   0.324
 3163SOL    HW210389   4.308   3.653   0.407
 3164SOL     OW10390   3.337   5.922   2.422
 3164SOL    HW110391   3.246   5.881   2.427
 3164SOL    HW210392   3.370   5.921   2.328
 3165SOL     OW10393   0.675   5.250   0.372
 3165SOL    HW110394   0.772   5.235   0.391
 3165SOL    HW210395   0.666   5.299   0.285
 3166SOL     OW10396   4.216   1.386   4.684
 3166SOL    HW110397   4.309   1.393   4.649
 3166SOL    HW210398   4.212   1.424   4.776
 3167SOL     OW10399   5.362   4.341   0.308
 3167SOL    HW110400   5.454   4.305   0.320
 3167SOL    HW210401   5.317   4.350   0.398
 3168SOL     OW10402   5.049   2.894   1.212
 3168SOL    HW110403   5.129   2.852   1.254
 3168SOL    HW210404   5.074   2.934   1.124
 3169SOL     OW10405   1.740   4.845   2.322
 3169SOL    HW110406   1.728   4.756   2.278
 3169SOL    HW210407   1.687   4.847   2.407
 3170SOL     OW10408   4.077   6.080   2.286
 3170SOL    HW110409   4.019   6.000   2.295
 3170SOL    HW210410   4.021   6.162   2.278
 3171SOL     OW10411   5.570   2.522   2.176
 3171SOL    HW110412   5.552   2.483   2.266
 3171SOL    HW210413   5.522   2.468   2.107
 3172SOL     OW10414   0.336   5.112   6.808
 3172SOL    HW110415   0.240   5.101   6.833
 3172SOL    HW210416   0.379   5.022   6.801
 3173SOL     OW10417   2.627   2.269   6.493
 3173SOL    HW110418   2.550   2.320   6.531
 3173SOL    HW210419   2.598   2.223   6.409
 3174SOL     OW10420   2.233   2.637   5.818
 3174SOL    HW110421   2.262   2.574   5.890
 3174SOL    HW210422   2.241   2.593   5.729
 3175SOL     OW10423   6.383   1.373   3.017
 3175SOL    HW110424   6.298   1.327   3.042
 3175SOL    HW210425   6.460   1.317   3.047
 3176SOL     OW10426   0.002   3.750   4.674
 3176SOL    HW110427   0.042   3.824   4.728
 3176SOL    HW210428   0.010   3.664   4.724
 3177SOL     OW10429   5.364   4.059   3.515
 3177SOL    HW110430   5.452   4.015   3.534
 3177SOL    HW210431   5.303   3.993   3.470
 3178SOL     OW10432   5.775   1.967   0.098
 3178SOL    HW110433   5.689   1.919   0.113
 3178SOL    HW210434   5.848   1.900   0.083
 3179SOL     OW10435   1.372   1.572   1.830
 3179SOL    HW110436   1.449   1.629   1.800
 3179SOL    HW210437   1.360   1.581   1.929
 3180SOL     OW10438   6.008   6.437   6.895
 3180SOL    HW110439   6.104   6.458   6.912
 3180SOL    HW210440   5.988   6.344   6.927
 3181SOL     OW10441   0.227   1.354   3.959
 3181SOL    HW110442   0.186   1.387   4.045
 3181SOL    HW210443   0.173   1.279   3.923
 3182SOL     OW10444   3.149   0.658   0.143
 3182SOL    HW110445   3.129   0.596   0.068
 3182SOL    HW210446   3.134   0.610   0.230
 3183SOL     OW10447   4.650   4.807   2.189
 3183SOL    HW110448   4.727   4.761   2.232
 3183SOL    HW210449   4.582   4.739   2.161
 3184SOL     OW10450   0.376   2.054   3.463
 3184SOL    HW110451   0.348   2.107   3.383
 3184SOL    HW210452   0.449   1.991   3.437
 3185SOL     OW10453   6.597   6.736   5.565
 3185SOL    HW110454   6.622   6.664   5.500
 3185SOL    HW210455   6.505   6.769   5.546
 3186SOL     OW10456   1.902   0.979   6.993
 3186SOL    HW110457   1.927   1.073   7.015
 3186SOL    HW210458   1.845   0.978   6.911
 3187SOL     OW10459   2.992   5.071   2.115
 3187SOL    HW110460   3.056   5.130   2.164
 3187SOL    HW210461   3.017   4.976   2.130
 3188SOL     OW10462   2.081   5.276   4.797
 3188SOL    HW110463   2.049   5.182   4.800
 3188SOL    HW210464   2.032   5.326   4.725
 3189SOL     OW10465   2.081   1.161   0.289
 3189SOL    HW110466   2.065   1.234   0.356
 3189SOL    HW210467   2.151   1.191   0.223
 3190SOL     OW10468   6.529   5.384   6.115
 3190SOL    HW110469   6.627   5.370   6.100
 3190SOL    HW210470   6.500   5.470   6.074
 3191SOL     OW10471   4.475   5.518   2.240
 3191SOL    HW110472   4.552   5.474   2.194
 3191SOL    HW210473   4.509   5.591   2.299
 3192SOL     OW10474   6.791   2.739   0.912
 3192SOL    HW110475   6.835   2.688   0.838
 3192SOL    HW210476   6.756   2.826   0.878
 3193SOL     OW10477   3.993   1.275   5.025
 3193SOL    HW110478   3.928   1.341   5.062
 3193SOL    HW210479   4.081   1.286   5.069
 3194SOL     OW10480   0.838   1.610   5.829
 3194SOL    HW110481   0.754   1.588   5.780
 3194SOL    HW210482   0.913   1.555   5.792
 3195SOL     OW10483   0.840   1.397   2.048
 3195SOL    HW110484   0.780   1.473   2.021
 3195SOL    HW210485   0.841   1.328   1.975
 3196SOL     OW10486   6.924   0.857   6.599
 3196SOL    HW110487   6.940   0.928   6.531
 3196SOL    HW210488   6.866   0.893   6.672
 3197SOL     OW10489   2.705   6.496   5.809
 3197SOL    HW110490   2.618   6.542   5.830
 3197SOL    HW210491   2.721   6.500   5.711
 3198SOL     OW10492   6.337   2.340   4.020
 3198SOL    HW110493   6.255   2.389   4.049
 3198SOL    HW210494   6.413   2.362   4.081
 3199SOL     OW10495   5.596   4.799   2.936
 3199SOL    HW110496   5.578   4.851   2.853
 3199SOL    HW210497   5.680   4.833   2.979
 3200SOL     OW10498   6.425   3.303   2.926
 3200SOL    HW110499   6.475   3.375   2.973
 3200SOL    HW210500   6.484   3.259   2.859
 3201SOL     OW10501   6.034   4.812   3.200
 3201SOL    HW110502   6.084   4.728   3.219
 3201SOL    HW210503   6.099   4.888   3.188
 3202SOL     OW10504   1.064   5.225   1.018
 3202SOL    HW110505   1.020   5.282   1.088
 3202SOL    HW210506   0.995   5.186   0.958
 3203SOL     OW10507   4.815   0.507   1.431
 3203SOL    HW110508   4.870   0.482   1.352
 3203SOL    HW210509   4.874   0.545   1.503
 3204SOL     OW10510   3.127   1.709   3.374
 3204SOL    HW110511   3.219   1.703   3.336
 3204SOL    HW210512   3.062   1.670   3.308
 3205SOL     OW10513   5.024   2.727   6.189
 3205SOL    HW110514   4.926   2.748   6.183
 3205SOL    HW210515   5.072   2.804   6.232
 3206SOL     OW10516   2.894   3.113   1.416
 3206SOL    HW110517   2.859   3.022   1.398
 3206SOL    HW210518   2.980   3.107   1.466
 3207SOL     OW10519   1.404   0.757   5.966
 3207SOL    HW110520   1.304   0.750   5.976
 3207SOL    HW210521   1.448   0.705   6.039
 3208SOL     OW10522   5.820   5.541   6.180
 3208SOL    HW110523   5.912   5.533   6.218
 3208SOL    HW210524   5.778   5.450   6.174
 3209SOL     OW10525   3.643   5.651   4.828
 3209SOL    HW110526   3.652   5.749   4.842
 3209SOL    HW210527   3.627   5.633   4.730
 3210SOL     OW10528   0.620   5.089   1.692
 3210SOL    HW110529   0.612   5.188   1.680
 3210SOL    HW210530   0.618   5.045   1.602
 3211SOL     OW10531   1.466   4.698   0.842
 3211SOL    HW110532   1.434   4.688   0.748
 3211SOL    HW210533   1.427   4.625   0.898
 3212SOL     OW10534   3.164   0.109   2.565
 3212SOL    HW110535   3.110   0.121   2.482
 3212SOL    HW210536   3.196   0.015   2.572
 3213SOL     OW10537   1.767   0.416   6.069
 3213SOL    HW110538   1.788   0.511   6.049
 3213SOL    HW210539   1.778   0.399   6.167
 3214SOL     OW10540   4.864   0.012   3.285
 3214SOL    HW110541   4.891   0.036   3.192
 3214SOL    HW210542   4.928   0.055   3.350
 3215SOL     OW10543   1.089   3.655   0.163
 3215SOL    HW110544   1.032   3.624   0.240
 3215SOL    HW210545   1.031   3.699   0.094
 3216SOL     OW10546   5.700   5.046   1.281
 3216SOL    HW110547   5.784   5.041   1.228
 3216SOL    HW210548   5.670   5.142   1.287
 3217SOL     OW10549   0.293   5.409   2.417
 3217SOL    HW110550   0.344   5.485   2.456
 3217SOL    HW210551   0.260   5.349   2.491
 3218SOL     OW10552   5.778   2.473   3.497
 3218SOL    HW110553   5.841   2.399   3.524
 3218SOL    HW210554   5.690   2.459   3.541
 3219SOL     OW10555   6.681   1.141   4.959
 3219SOL    HW110556   6.745   1.064   4.960
 3219SOL    HW210557   6.697   1.198   4.879
 3220SOL     OW10558   0.915   5.834   6.889
 3220SOL    HW110559   0.944   5.855   6.795
 3220SOL    HW210560   0.836   5.890   6.912
 3221SOL     OW10561   3.953   0.303   2.475
 3221SOL    HW110562   3.858   0.275   2.483
 3221SOL    HW210563   3.957   0.401   2.453
 3222SOL     OW10564   2.862   0.875   2.543
 3222SOL    HW110565   2.872   0.834   2.452
 3222SOL    HW210566   2.816   0.964   2.534
 3223SOL     OW10567   2.305   6.642   0.378
 3223SOL    HW110568   2.332   6.703   0.452
 3223SOL    HW210569   2.321   6.547   0.404
 3224SOL     OW10570   4.990   2.219   5.130
 3224SOL    HW110571   5.041   2.171   5.200
 3224SOL    HW210572   4.922   2.279   5.173
 3225SOL     OW10573   4.236   1.325   5.113
 3225SOL    HW110574   4.321   1.275   5.132
 3225SOL    HW210575   4.241   1.415   5.156
 3226SOL     OW10576   1.726   0.275   1.794
 3226SOL    HW110577   1.634   0.235   1.792
 3226SOL    HW210578   1.794   0.203   1.783
 3227SOL     OW10579   3.341   2.224   6.635
 3227SOL    HW110580   3.387   2.288   6.697
 3227SOL    HW210581   3.242   2.234   6.645
 3228SOL     OW10582   0.167   4.048   0.196
 3228SOL    HW110583   0.104   3.988   0.146
 3228SOL    HW210584   0.173   4.135   0.148
 3229SOL     OW10585   3.357   0.656   5.649
 3229SOL    HW110586   3.367   0.747   5.608
 3229SOL    HW210587   3.406   0.589   5.592
 3230SOL     OW10588   2.028   5.529   5.991
 3230SOL    HW110589   2.106   5.536   6.053
 3230SOL    HW210590   2.058   5.490   5.904
 3231SOL     OW10591   2.736   1.037   2.842
 3231SOL    HW110592   2.669   0.965   2.865
 3231SOL    HW210593   2.823   1.016   2.887
 3232SOL     OW10594   4.013   5.624   3.837
 3232SOL    HW110595   4.029   5.653   3.931
 3232SOL    HW210596   3.925   5.658   3.806
 3233SOL     OW10597   6.754   2.893   0.584
 3233SOL    HW110598   6.717   2.981   0.554
 3233SOL    HW210599   6.843   2.908   0.627
 3234SOL     OW10600   1.690   2.472   0.078
 3234SOL    HW110601   1.592   2.466   0.096
 3234SOL    HW210602   1.739   2.474   0.165
 3235SOL     OW10603   6.264   5.967   2.042
 3235SOL    HW110604   6.215   5.882   2.024
 3235SOL    HW210605   6.232   6.007   2.128
 3236SOL     OW10606   1.504   4.009   0.905
 3236SOL    HW110607   1.485   4.000   1.002
 3236SOL    HW210608   1.594   3.970   0.885
 3237SOL     OW10609   6.233   1.995   4.014
 3237SOL    HW110610   6.226   2.085   3.969
 3237SOL    HW210611   6.273   2.006   4.105
 3238SOL     OW10612   5.859   5.232   6.648
 3238SOL    HW110613   5.807   5.314   6.672
 3238SOL    HW210614   5.934   5.256   6.587
 3239SOL     OW10615   6.831   0.438   3.427
 3239SOL    HW110616   6.845   0.340   3.440
 3239SOL    HW210617   6.804   0.455   3.333
 3240SOL     OW10618   6.940   0.416   6.043
 3240SOL    HW110619   6.933   0.513   6.019
 3240SOL    HW210620   0.011   0.381   6.014
 3241SOL     OW10621   4.971   1.238   6.142
 3241SOL    HW110622   4.937   1.152   6.106
 3241SOL    HW210623   4.912   1.269   6.217
 3242SOL     OW10624   4.673   3.682   6.287
 3242SOL    HW110625   4.696   3.769   6.242
 3242SOL    HW210626   4.574   3.679   6.302
 3243SOL     OW10627   4.699   5.278   0.313
 3243SOL    HW110628   4.639   5.236   0.382
 3243SOL    HW210629   4.679   5.376   0.307
 3244SOL     OW10630   5.622   6.229   6.674
 3244SOL    HW110631   5.603   6.279   6.759
 3244SOL    HW210632   5.632   6.294   6.599
 3245SOL     OW10633   4.670   2.487   4.198
 3245SOL    HW110634   4.758   2.488   4.152
 3245SOL    HW210635   4.667   2.412   4.264
 3246SOL     OW10636   6.495   0.341   2.903
 3246SOL    HW110637   6.435   0.267   2.873
 3246SOL    HW210638   6.552   0.309   2.979
 3247SOL     OW10639   6.656   4.896   2.114
 3247SOL    HW110640   6.597   4.925   2.039
 3247SOL    HW210641   6.728   4.836   2.080
 3248SOL     OW10642   5.926   2.414   1.941
 3248SOL    HW110643   5.832   2.393   1.917
 3248SOL    HW210644   5.935   2.416   2.041
 3249SOL     OW10645   4.139   3.597   4.037
 3249SOL    HW110646   4.092   3.684   4.022
 3249SOL    HW210647   4.159   3.586   4.134
 3250SOL     OW10648   5.054   6.776   3.588
 3250SOL    HW110649   5.075   6.724   3.671
 3250SOL    HW210650   4.974   6.834   3.605
 3251SOL     OW10651   2.582   1.249   4.724
 3251SOL    HW110652   2.668   1.220   4.681
 3251SOL    HW210653   2.580   1.218   4.819
 3252SOL     OW10654   3.130   1.247   2.608
 3252SOL    HW110655   3.090   1.203   2.528
 3252SOL    HW210656   3.123   1.185   2.686
 3253SOL     OW10657   4.443   3.726   1.336
 3253SOL    HW110658   4.356   3.716   1.288
 3253SOL    HW210659   4.497   3.798   1.292
 3254SOL     OW10660   4.979   6.699   5.947
 3254SOL    HW110661   4.944   6.761   6.018
 3254SOL    HW210662   5.077   6.684   5.962
 3255SOL     OW10663   5.576   6.482   1.421
 3255SOL    HW110664   5.479   6.469   1.441
 3255SOL    HW210665   5.591   6.472   1.323
 3256SOL     OW10666   4.130   2.258   1.514
 3256SOL    HW110667   4.135   2.334   1.449
 3256SOL    HW210668   4.220   2.215   1.522
 3257SOL     OW10669   2.920   2.076   1.918
 3257SOL    HW110670   3.014   2.057   1.892
 3257SOL    HW210671   2.912   2.170   1.950
 3258SOL     OW10672   3.710   5.123   3.203
 3258SOL    HW110673   3.709   5.027   3.229
 3258SOL    HW210674   3.771   5.135   3.124
 3259SOL     OW10675   5.178   5.344   4.189
 3259SOL    HW110676   5.271   5.377   4.203
 3259SOL    HW210677   5.171   5.248   4.216
 3260SOL     OW10678   1.759   3.683   2.406
 3260SOL    HW110679   1.736   3.594   2.368
 3260SOL    HW210680   1.715   3.693   2.495
 3261SOL     OW10681   4.658   0.691   2.457
 3261SOL    HW110682   4.729   0.619   2.459
 3261SOL    HW210683   4.571   0.651   2.428
 3262SOL     OW10684   4.148   2.171   2.506
 3262SOL    HW110685   4.084   2.095   2.513
 3262SOL    HW210686   4.148   2.222   2.593
 3263SOL     OW10687   3.490   1.382   3.669
 3263SOL    HW110688   3.530   1.473   3.681
 3263SOL    HW210689   3.515   1.324   3.746
 3264SOL     OW10690   2.065   5.013   0.782
 3264SOL    HW110691   1.973   4.977   0.770
 3264SOL    HW210692   2.099   4.989   0.873
 3265SOL     OW10693   6.105   6.125   5.847
 3265SOL    HW110694   6.097   6.209   5.901
 3265SOL    HW210695   6.013   6.095   5.820
 3266SOL     OW10696   2.879   4.271   6.913
 3266SOL    HW110697   2.791   4.224   6.915
 3266SOL    HW210698   2.877   4.343   6.844
 3267SOL     OW10699   3.581   0.413   1.810
 3267SOL    HW110700   3.523   0.404   1.730
 3267SOL    HW210701   3.581   0.327   1.862
 3268SOL     OW10702   1.197   4.637   1.196
 3268SOL    HW110703   1.115   4.692   1.214
 3268SOL    HW210704   1.205   4.567   1.267
 3269SOL     OW10705   0.480   5.301   2.258
 3269SOL    HW110706   0.397   5.305   2.314
 3269SOL    HW210707   0.522   5.392   2.254
 3270SOL     OW10708   1.763   2.717   6.313
 3270SOL    HW110709   1.777   2.625   6.277
 3270SOL    HW210710   1.774   2.784   6.239
 3271SOL     OW10711   6.685   3.527   1.744
 3271SOL    HW110712   6.692   3.483   1.654
 3271SOL    HW210713   6.604   3.493   1.792
 3272SOL     OW10714   3.414   4.697   6.902
 3272SOL    HW110715   3.442   4.785   6.942
 3272SOL    HW210716   3.427   4.625   6.969
 3273SOL     OW10717   5.613   4.506   6.174
 3273SOL    HW110718   5.528   4.559   6.173
 3273SOL    HW210719   5.641   4.490   6.269
 3274SOL     OW10720   5.884   0.312   0.864
 3274SOL    HW110721   5.875   0.266   0.775
 3274SOL    HW210722   5.963   0.373   0.862
 3275SOL     OW10723   4.727   1.059   0.426
 3275SOL    HW110724   4.756   1.136   0.483
 3275SOL    HW210725   4.718   0.977   0.483
 3276SOL     OW10726   4.629   6.280   0.156
 3276SOL    HW110727   4.567   6.226   0.098
 3276SOL    HW210728   4.691   6.333   0.097
 3277SOL     OW10729   3.059   1.338   0.989
 3277SOL    HW110730   3.132   1.404   1.004
 3277SOL    HW210731   3.005   1.364   0.909
 3278SOL     OW10732   0.258   0.327   5.662
 3278SOL    HW110733   0.228   0.409   5.613
 3278SOL    HW210734   0.356   0.332   5.679
 3279SOL     OW10735   4.820   6.702   1.093
 3279SOL    HW110736   4.920   6.714   1.092
 3279SOL    HW210737   4.784   6.731   1.182
 3280SOL     OW10738   4.711   4.626   4.087
 3280SOL    HW110739   4.745   4.597   4.177
 3280SOL    HW210740   4.634   4.568   4.060
 3281SOL     OW10741   0.449   4.466   1.409
 3281SOL    HW110742   0.453   4.565   1.398
 3281SOL    HW210743   0.477   4.422   1.323
 3282SOL     OW10744   0.131   3.932   4.832
 3282SOL    HW110745   0.051   3.988   4.853
 3282SOL    HW210746   0.214   3.986   4.849
 3283SOL     OW10747   3.874   1.268   1.106
 3283SOL    HW110748   3.919   1.256   1.017
 3283SOL    HW210749   3.801   1.201   1.115
 3284SOL     OW10750   1.134   5.608   5.007
 3284SOL    HW110751   1.189   5.636   5.086
 3284SOL    HW210752   1.193   5.597   4.927
 3285SOL     OW10753   5.853   1.987   4.664
 3285SOL    HW110754   5.773   1.975   4.605
 3285SOL    HW210755   5.895   1.898   4.680
 3286SOL     OW10756   3.324   2.499   1.567
 3286SOL    HW110757   3.403   2.465   1.516
 3286SOL    HW210758   3.240   2.474   1.519
 3287SOL     OW10759   0.652   0.518   0.306
 3287SOL    HW110760   0.745   0.537   0.273
 3287SOL    HW210761   0.586   0.549   0.237
 3288SOL     OW10762   1.800   6.892   0.554
 3288SOL    HW110763   1.736   6.869   0.628
 3288SOL    HW210764   1.827   6.988   0.561
 3289SOL     OW10765   2.615   1.713   6.221
 3289SOL    HW110766   2.650   1.664   6.141
 3289SOL    HW210767   2.579   1.647   6.287
 3290SOL     OW10768   0.221   5.431   1.098
 3290SOL    HW110769   0.254   5.524   1.080
 3290SOL    HW210770   0.233   5.375   1.016
 3291SOL     OW10771   2.931   0.717   6.006
 3291SOL    HW110772   2.899   0.624   6.026
 3291SOL    HW210773   3.021   0.712   5.963
 3292SOL     OW10774   7.010   1.258   0.854
 3292SOL    HW110775   0.063   1.207   0.903
 3292SOL    HW210776   6.972   1.328   0.915
 3293SOL     OW10777   6.833   4.884   1.562
 3293SOL    HW110778   6.901   4.824   1.604
 3293SOL    HW210779   6.873   4.973   1.543
 3294SOL     OW10780   5.354   1.896   5.759
 3294SOL    HW110781   5.334   1.839   5.680
 3294SOL    HW210782   5.286   1.880   5.831
 3295SOL     OW10783   1.829   3.567   0.947
 3295SOL    HW110784   1.788   3.627   0.879
 3295SOL    HW210785   1.827   3.472   0.913
 3296SOL     OW10786   6.968   0.128   4.367
 3296SOL    HW110787   6.878   0.161   4.338
 3296SOL    HW210788   0.000   0.202   4.412
 3297SOL     OW10789   3.400   1.923   5.168
 3297SOL    HW110790   3.486   1.885   5.201
 3297SOL    HW210791   3.358   1.979   5.239
 3298SOL     OW10792   6.541   2.694   5.626
 3298SOL    HW110793   6.492   2.775   5.660
 3298SOL    HW210794   6.476   2.633   5.580
 3299SOL     OW10795   4.096   6.132   2.890
 3299SOL    HW110796   4.107   6.222   2.931
 3299SOL    HW210797   4.137   6.132   2.799
 3300SOL     OW10798   1.517   0.432   5.950
 3300SOL    HW110799   1.508   0.356   5.885
 3300SOL    HW210800   1.609   0.432   5.990
 3301SOL     OW10801   1.525   3.862   3.426
 3301SOL    HW110802   1.604   3.839   3.483
 3301SOL    HW210803   1.556   3.918   3.349
 3302SOL     OW10804   1.364   4.542   6.976
 3302SOL    HW110805   1.358   4.442   6.985
 3302SOL    HW210806   1.273   4.581   6.984
 3303SOL     OW10807   3.464   3.147   0.477
 3303SOL    HW110808   3.427   3.192   0.396
 3303SOL    HW210809   3.429   3.191   0.560
 3304SOL     OW10810   2.057   5.102   5.916
 3304SOL    HW110811   2.074   5.058   6.004
 3304SOL    HW210812   1.958   5.114   5.903
 3305SOL     OW10813   3.017   0.870   1.689
 3305SOL    HW110814   2.917   0.876   1.692
 3305SOL    HW210815   3.044   0.794   1.629
 3306SOL     OW10816   1.322   5.975   5.782
 3306SOL    HW110817   1.396   6.031   5.820
 3306SOL    HW210818   1.362   5.898   5.732
 3307SOL     OW10819   1.122   0.140   5.694
 3307SOL    HW110820   1.151   0.044   5.688
 3307SOL    HW210821   1.024   0.144   5.710
 3308SOL     OW10822   3.339   5.336   0.821
 3308SOL    HW110823   3.413   5.309   0.883
 3308SOL    HW210824   3.369   5.414   0.765
 3309SOL     OW10825   6.066   4.512   3.638
 3309SOL    HW110826   6.149   4.546   3.683
 3309SOL    HW210827   6.045   4.421   3.671
 3310SOL     OW10828   0.496   4.238   4.387
 3310SOL    HW110829   0.556   4.158   4.393
 3310SOL    HW210830   0.508   4.295   4.467
 3311SOL     OW10831   3.043   3.211   0.808
 3311SOL    HW110832   2.979   3.244   0.739
 3311SOL    HW210833   2.994   3.159   0.877
 3312SOL     OW10834   4.169   2.754   5.754
 3312SOL    HW110835   4.116   2.770   5.670
 3312SOL    HW210836   4.263   2.731   5.730
 3313SOL     OW10837   0.610   0.418   3.202
 3313SOL    HW110838   0.525   0.407   3.151
 3313SOL    HW210839   0.640   0.514   3.196
 3314SOL     OW10840   3.074   0.524   2.519
 3314SOL    HW110841   3.082   0.614   2.562
 3314SOL    HW210842   3.152   0.510   2.457
 3315SOL     OW10843   0.895   5.071   5.297
 3315SOL    HW110844   0.859   5.011   5.225
 3315SOL    HW210845   0.826   5.139   5.321
 3316SOL     OW10846   3.817   1.061   5.076
 3316SOL    HW110847   3.773   1.092   5.160
 3316SOL    HW210848   3.862   1.138   5.031
 3317SOL     OW10849   5.477   1.894   2.328
 3317SOL    HW110850   5.544   1.854   2.266
 3317SOL    HW210851   5.388   1.898   2.283
 3318SOL     OW10852   2.041   0.878   6.684
 3318SOL    HW110853   2.116   0.892   6.619
 3318SOL    HW210854   2.050   0.787   6.726
 3319SOL     OW10855   6.223   0.352   3.305
 3319SOL    HW110856   6.184   0.328   3.394
 3319SOL    HW210857   6.316   0.315   3.299
 3320SOL     OW10858   6.544   0.460   0.265
 3320SOL    HW110859   6.633   0.499   0.287
 3320SOL    HW210860   6.490   0.451   0.349
 3321SOL     OW10861   6.016   1.254   0.891
 3321SOL    HW110862   6.113   1.278   0.886
 3321SOL    HW210863   5.974   1.301   0.969
 3322SOL     OW10864   0.103   2.915   1.004
 3322SOL    HW110865   0.029   2.971   1.040
 3322SOL    HW210866   0.088   2.819   1.028
 3323SOL     OW10867   2.421   1.627   1.060
 3323SOL    HW110868   2.400   1.619   0.963
 3323SOL    HW210869   2.506   1.579   1.080
 3324SOL     OW10870   4.616   5.206   5.484
 3324SOL    HW110871   4.688   5.255   5.534
 3324SOL    HW210872   4.596   5.255   5.398
 3325SOL     OW10873   0.380   2.981   6.358
 3325SOL    HW110874   0.426   2.950   6.441
 3325SOL    HW210875   0.444   2.976   6.281
 3326SOL     OW10876   4.808   1.240   1.711
 3326SOL    HW110877   4.736   1.268   1.647
 3326SOL    HW210878   4.770   1.179   1.780
 3327SOL     OW10879   2.340   5.536   1.657
 3327SOL    HW110880   2.375   5.519   1.750
 3327SOL    HW210881   2.262   5.598   1.662
 3328SOL     OW10882   3.608   1.806   1.180
 3328SOL    HW110883   3.517   1.777   1.212
 3328SOL    HW210884   3.652   1.862   1.251
 3329SOL     OW10885   6.662   0.110   5.454
 3329SOL    HW110886   6.695   0.180   5.391
 3329SOL    HW210887   6.612   0.040   5.402
 3330SOL     OW10888   6.150   3.844   1.977
 3330SOL    HW110889   6.078   3.856   2.047
 3330SOL    HW210890   6.231   3.805   2.020
 3331SOL     OW10891   2.372   2.722   1.233
 3331SOL    HW110892   2.459   2.692   1.193
 3331SOL    HW210893   2.385   2.809   1.280
 3332SOL     OW10894   5.879   5.547   0.171
 3332SOL    HW110895   5.812   5.569   0.242
 3332SOL    HW210896   5.947   5.621   0.165
 3333SOL     OW10897   4.111   5.456   6.227
 3333SOL    HW110898   4.115   5.366   6.184
 3333SOL    HW210899   4.158   5.454   6.316
 3334SOL     OW10900   3.170   3.443   1.463
 3334SOL    HW110901   3.112   3.385   1.407
 3334SOL    HW210902   3.222   3.505   1.404
 3335SOL     OW10903   4.588   5.681   5.574
 3335SOL    HW110904   4.635   5.595   5.593
 3335SOL    HW210905   4.551   5.679   5.481
 3336SOL     OW10906   3.212   5.242   5.318
 3336SOL    HW110907   3.279   5.239   5.393
 3336SOL    HW210908   3.165   5.154   5.313
 3337SOL     OW10909   3.086   2.437   1.485
 3337SOL    HW110910   3.060   2.380   1.563
 3337SOL    HW210911   3.052   2.395   1.400
 3338SOL     OW10912   6.182   3.363   1.581
 3338SOL    HW110913   6.156   3.378   1.677
 3338SOL    HW210914   6.183   3.451   1.533
 3339SOL     OW10915   0.117   6.604   7.015
 3339SOL    HW110916   0.079   6.560   0.079
 3339SOL    HW210917   0.153   6.535   6.953
 3340SOL     OW10918   3.834   0.154   1.693
 3340SOL    HW110919   3.745   0.135   1.735
 3340SOL    HW210920   3.904   0.096   1.735
 3341SOL     OW10921   1.535   0.114   3.968
 3341SOL    HW110922   1.584   0.161   3.895
 3341SOL    HW210923   1.521   0.177   4.045
 3342SOL     OW10924   2.218   0.001   3.867
 3342SOL    HW110925   2.207   0.098   3.889
 3342SOL    HW210926   2.306   7.005   3.821
 3343SOL     OW10927   4.871   3.127   0.482
 3343SOL    HW110928   4.957   3.167   0.514
 3343SOL    HW210929   4.852   3.157   0.389
 3344SOL     OW10930   5.462   4.234   4.882
 3344SOL    HW110931   5.523   4.157   4.903
 3344SOL    HW210932   5.421   4.221   4.792
 3345SOL     OW10933   2.572   3.886   5.980
 3345SOL    HW110934   2.490   3.834   6.006
 3345SOL    HW210935   2.650   3.823   5.975
 3346SOL     OW10936   1.163   0.855   1.821
 3346SOL    HW110937   1.146   0.789   1.893
 3346SOL    HW210938   1.170   0.947   1.861
 3347SOL     OW10939   0.570   5.049   3.528
 3347SOL    HW110940   0.540   5.055   3.623
 3347SOL    HW210941   0.666   5.079   3.522
 3348SOL     OW10942   3.118   3.164   3.659
 3348SOL    HW110943   3.195   3.224   3.638
 3348SOL    HW210944   3.045   3.217   3.701
 3349SOL     OW10945   0.493   4.365   4.637
 3349SOL    HW110946   0.550   4.446   4.630
 3349SOL    HW210947   0.457   4.357   4.730
 3350SOL     OW10948   1.363   1.803   6.483
 3350SOL    HW110949   1.429   1.733   6.507
 3350SOL    HW210950   1.295   1.765   6.420
 3351SOL     OW10951   5.040   0.304   2.238
 3351SOL    HW110952   5.096   0.355   2.302
 3351SOL    HW210953   5.097   0.270   2.163
 3352SOL     OW10954   6.958   3.551   0.316
 3352SOL    HW110955   6.971   3.479   0.247
 3352SOL    HW210956   6.893   3.618   0.282
 3353SOL     OW10957   1.483   0.051   2.060
 3353SOL    HW110958   1.384   0.035   2.066
 3353SOL    HW210959   1.532   6.995   2.107
 3354SOL     OW10960   6.568   2.738   4.028
 3354SOL    HW110961   6.583   2.644   3.999
 3354SOL    HW210962   6.516   2.739   4.114
 3355SOL     OW10963   0.908   1.626   7.013
 3355SOL    HW110964   0.840   1.683   0.042
 3355SOL    HW210965   0.997   1.640   0.038
 3356SOL     OW10966   2.527   2.491   0.332
 3356SOL    HW110967   2.445   2.544   0.351
 3356SOL    HW210968   2.583   2.539   0.265
 3357SOL     OW10969   2.510   4.814   1.630
 3357SOL    HW110970   2.475   4.723   1.607
 3357SOL    HW210971   2.596   4.805   1.682
 3358SOL     OW10972   4.642   6.157   1.678
 3358SOL    HW110973   4.568   6.089   1.681
 3358SOL    HW210974   4.679   6.169   1.770
 3359SOL     OW10975   0.125   0.702   3.743
 3359SOL    HW110976   0.085   0.793   3.729
 3359SOL    HW210977   0.055   0.632   3.724
 3360SOL     OW10978   0.224   1.150   0.917
 3360SOL    HW110979   0.276   1.151   1.003
 3360SOL    HW210980   0.224   1.058   0.879
 3361SOL     OW10981   6.887   4.900   2.557
 3361SOL    HW110982   6.961   4.960   2.529
 3361SOL    HW210983   6.803   4.953   2.568
 3362SOL     OW10984   3.462   1.146   4.624
 3362SOL    HW110985   3.542   1.088   4.638
 3362SOL    HW210986   3.491   1.242   4.623
 3363SOL     OW10987   0.257   0.282   6.280
 3363SOL    HW110988   0.288   0.334   6.359
 3363SOL    HW210989   0.312   0.198   6.272
 3364SOL     OW10990   1.207   5.093   5.315
 3364SOL    HW110991   1.190   5.147   5.397
 3364SOL    HW210992   1.152   5.129   5.239
 3365SOL     OW10993   0.362   2.774   4.583
 3365SOL    HW110994   0.358   2.867   4.546
 3365SOL    HW210995   0.410   2.776   4.671
 3366SOL     OW10996   6.222   0.892   4.684
 3366SOL    HW110997   6.305   0.886   4.628
 3366SOL    HW210998   6.146   0.922   4.626
 3367SOL     OW10999   2.175   3.028   1.891
 3367SOL    HW111000   2.098   2.967   1.871
 3367SOL    HW211001   2.259   2.989   1.853
 3368SOL     OW11002   0.319   5.742   6.732
 3368SOL    HW111003   0.298   5.790   6.817
 3368SOL    HW211004   0.393   5.677   6.747
 3369SOL     OW11005   3.566   2.182   6.497
 3369SOL    HW111006   3.480   2.186   6.548
 3369SOL    HW211007   3.642   2.204   6.557
 3370SOL     OW11008   6.641   6.520   5.407
 3370SOL    HW111009   6.625   6.504   5.309
 3370SOL    HW211010   6.738   6.514   5.426
 3371SOL     OW11011   0.928   4.186   2.490
 3371SOL    HW111012   0.989   4.250   2.442
 3371SOL    HW211013   0.917   4.103   2.435
 3372SOL     OW11014   1.140   1.455   2.510
 3372SOL    HW111015   1.074   1.408   2.569
 3372SOL    HW211016   1.160   1.545   2.548
 3373SOL     OW11017   6.787   1.368   3.905
 3373SOL    HW111018   6.837   1.403   3.825
 3373SOL    HW211019   6.850   1.352   3.980
 3374SOL     OW11020   3.320   5.636   4.471
 3374SOL    HW111021   3.327   5.727   4.430
 3374SOL    HW211022   3.308   5.645   4.570
 3375SOL     OW11023   3.948   4.949   4.873
 3375SOL    HW111024   4.013   4.992   4.810
 3375SOL    HW211025   3.976   4.966   4.967
 3376SOL     OW11026   4.056   3.541   2.837
 3376SOL    HW111027   4.027   3.576   2.927
 3376SOL    HW211028   4.003   3.459   2.814
 3377SOL     OW11029   0.506   6.416   4.416
 3377SOL    HW111030   0.553   6.336   4.453
 3377SOL    HW211031   0.489   6.482   4.489
 3378SOL     OW11032   6.587   0.516   1.744
 3378SOL    HW111033   6.647   0.436   1.739
 3378SOL    HW211034   6.625   0.590   1.689
 3379SOL     OW11035   0.227   4.919   5.958
 3379SOL    HW111036   0.283   4.990   5.916
 3379SOL    HW211037   0.137   4.957   5.981
 3380SOL     OW11038   6.433   5.601   5.998
 3380SOL    HW111039   6.470   5.566   5.912
 3380SOL    HW211040   6.340   5.634   5.983
 3381SOL     OW11041   1.707   2.124   0.209
 3381SOL    HW111042   1.785   2.080   0.164
 3381SOL    HW211043   1.627   2.064   0.203
 3382SOL     OW11044   0.735   1.476   0.574
 3382SOL    HW111045   0.829   1.470   0.609
 3382SOL    HW211046   0.737   1.504   0.478
 3383SOL     OW11047   5.573   4.919   2.303
 3383SOL    HW111048   5.635   4.936   2.380
 3383SOL    HW211049   5.626   4.893   2.223
 3384SOL     OW11050   2.948   3.401   4.834
 3384SOL    HW111051   2.898   3.395   4.748
 3384SOL    HW211052   2.926   3.488   4.880
 3385SOL     OW11053   0.559   4.002   3.854
 3385SOL    HW111054   0.562   3.922   3.795
 3385SOL    HW211055   0.650   4.043   3.861
 3386SOL     OW11056   6.144   3.219   5.720
 3386SOL    HW111057   6.150   3.256   5.813
 3386SOL    HW211058   6.223   3.251   5.667
 3387SOL     OW11059   2.058   1.044   2.918
 3387SOL    HW111060   2.039   1.031   3.015
 3387SOL    HW211061   2.155   1.065   2.906
 3388SOL     OW11062   5.989   3.695   1.298
 3388SOL    HW111063   6.036   3.749   1.228
 3388SOL    HW211064   6.057   3.646   1.353
 3389SOL     OW11065   4.294   5.033   4.603
 3389SOL    HW111066   4.215   5.062   4.655
 3389SOL    HW211067   4.283   4.938   4.575
 3390SOL     OW11068   4.794   3.747   5.758
 3390SOL    HW111069   4.894   3.742   5.762
 3390SOL    HW211070   4.765   3.757   5.663
 3391SOL     OW11071   5.341   2.406   4.783
 3391SOL    HW111072   5.385   2.323   4.750
 3391SOL    HW211073   5.312   2.393   4.878
 3392SOL     OW11074   3.037   0.941   3.682
 3392SOL    HW111075   2.971   0.966   3.753
 3392SOL    HW211076   3.102   1.016   3.669
 3393SOL     OW11077   6.800   6.662   0.806
 3393SOL    HW111078   6.704   6.687   0.807
 3393SOL    HW211079   6.809   6.564   0.823
 3394SOL     OW11080   5.823   3.418   1.242
 3394SOL    HW111081   5.878   3.336   1.228
 3394SOL    HW211082   5.839   3.453   1.334
 3395SOL     OW11083   6.929   3.281   3.924
 3395SOL    HW111084   6.899   3.189   3.902
 3395SOL    HW211085   6.888   3.346   3.859
 3396SOL     OW11086   0.231   2.966   3.827
 3396SOL    HW111087   0.189   3.024   3.897
 3396SOL    HW211088   0.301   2.908   3.869
 3397SOL     OW11089   2.783   1.067   5.332
 3397SOL    HW111090   2.728   1.081   5.414
 3397SOL    HW211091   2.783   0.970   5.308
 3398SOL     OW11092   1.172   6.997   4.331
 3398SOL    HW111093   1.252   6.968   4.278
 3398SOL    HW211094   1.122   0.050   4.280
 3399SOL     OW11095   4.946   4.484   3.837
 3399SOL    HW111096   4.955   4.584   3.844
 3399SOL    HW211097   4.862   4.462   3.787
 3400SOL     OW11098   4.198   1.517   5.452
 3400SOL    HW111099   4.167   1.568   5.532
 3400SOL    HW211100   4.232   1.428   5.481
 3401SOL     OW11101   0.010   3.773   0.708
 3401SOL    HW111102   6.966   3.851   0.702
 3401SOL    HW211103   0.105   3.803   0.700
 3402SOL     OW11104   5.141   5.817   0.709
 3402SOL    HW111105   5.088   5.865   0.640
 3402SOL    HW211106   5.212   5.762   0.664
 3403SOL     OW11107   3.560   0.758   4.610
 3403SOL    HW111108   3.617   0.839   4.596
 3403SOL    HW211109   3.534   0.751   4.706
 3404SOL     OW11110   3.743   1.615   0.594
 3404SOL    HW111111   3.840   1.625   0.613
 3404SOL    HW211112   3.689   1.655   0.668
 3405SOL     OW11113   6.523   3.236   4.615
 3405SOL    HW111114   6.587   3.310   4.595
 3405SOL    HW211115   6.467   3.262   4.694
 3406SOL     OW11116   1.527   4.416   1.962
 3406SOL    HW111117   1.597   4.374   2.020
 3406SOL    HW211118   1.565   4.431   1.870
 3407SOL     OW11119   1.816   4.894   0.749
 3407SOL    HW111120   1.785   4.901   0.654
 3407SOL    HW211121   1.736   4.885   0.809
 3408SOL     OW11122   4.689   4.206   4.514
 3408SOL    HW111123   4.662   4.302   4.511
 3408SOL    HW211124   4.639   4.159   4.587
 3409SOL     OW11125   3.666   6.637   5.642
 3409SOL    HW111126   3.599   6.608   5.711
 3409SOL    HW211127   3.750   6.584   5.653
 3410SOL     OW11128   6.119   5.813   6.744
 3410SOL    HW111129   6.196   5.798   6.807
 3410SOL    HW211130   6.124   5.905   6.706
 3411SOL     OW11131   0.108   2.905   1.916
 3411SOL    HW111132   0.100   2.812   1.881
 3411SOL    HW211133   0.149   2.964   1.847
 3412SOL     OW11134   4.698   2.825   6.891
 3412SOL    HW111135   4.611   2.811   6.843
 3412SOL    HW211136   4.681   2.871   6.978
 3413SOL     OW11137   4.757   1.120   2.405
 3413SOL    HW111138   4.784   1.060   2.330
 3413SOL    HW211139   4.837   1.144   2.460
 3414SOL     OW11140   2.095   0.942   5.218
 3414SOL    HW111141   2.180   0.914   5.264
 3414SOL    HW211142   2.104   1.037   5.186
 3415SOL     OW11143   1.834   4.195   4.625
 3415SOL    HW111144   1.800   4.156   4.710
 3415SOL    HW211145   1.807   4.137   4.548
 3416SOL     OW11146   6.593   4.814   6.504
 3416SOL    HW111147   6.626   4.732   6.457
 3416SOL    HW211148   6.506   4.794   6.549
 3417SOL     OW11149   6.270   5.797   2.958
 3417SOL    HW111150   6.209   5.740   3.013
 3417SOL    HW211151   6.361   5.755   2.954
 3418SOL     OW11152   4.104   0.210   5.008
 3418SOL    HW111153   4.075   0.153   5.084
 3418SOL    HW211154   4.024   0.245   4.959
 3419SOL     OW11155   3.186   5.489   5.725
 3419SOL    HW111156   3.154   5.455   5.637
 3419SOL    HW211157   3.118   5.467   5.796
 3420SOL     OW11158   5.234   2.333   3.469
 3420SOL    HW111159   5.236   2.310   3.371
 3420SOL    HW211160   5.311   2.289   3.515
 3421SOL     OW11161   6.480   0.016   6.292
 3421SOL    HW111162   6.550   6.995   6.351
 3421SOL    HW211163   6.498   0.114   6.278
 3422SOL     OW11164   2.450   6.673   1.286
 3422SOL    HW111165   2.352   6.689   1.272
 3422SOL    HW211166   2.487   6.743   1.347
 3423SOL     OW11167   2.453   0.329   0.682
 3423SOL    HW111168   2.488   0.333   0.775
 3423SOL    HW211169   2.355   0.353   0.682
 3424SOL     OW11170   3.146   0.465   2.160
 3424SOL    HW111171   3.186   0.385   2.114
 3424SOL    HW211172   3.048   0.467   2.143
 3425SOL     OW11173   4.718   4.495   2.482
 3425SOL    HW111174   4.642   4.466   2.541
 3425SOL    HW211175   4.723   4.436   2.402
 3426SOL     OW11176   3.738   3.001   6.932
 3426SOL    HW111177   3.744   3.099   6.909
 3426SOL    HW211178   3.674   2.956   6.871
 3427SOL     OW11179   6.770   6.490   6.836
 3427SOL    HW111180   6.827   6.569   6.814
 3427SOL    HW211181   6.809   6.408   6.794
 3428SOL     OW11182   3.625   4.912   1.471
 3428SOL    HW111183   3.652   4.892   1.566
 3428SOL    HW211184   3.649   4.835   1.413
 3429SOL     OW11185   0.490   1.737   6.876
 3429SOL    HW111186   0.511   1.720   6.972
 3429SOL    HW211187   0.563   1.791   6.835
 3430SOL     OW11188   0.555   0.005   6.167
 3430SOL    HW111189   0.642   6.996   6.124
 3430SOL    HW211190   0.558   7.001   6.264
 3431SOL     OW11191   2.022   0.113   1.241
 3431SOL    HW111192   2.024   0.016   1.217
 3431SOL    HW211193   2.030   0.168   1.158
 3432SOL     OW11194   2.774   2.276   5.927
 3432SOL    HW111195   2.686   2.318   5.903
 3432SOL    HW211196   2.807   2.314   6.013
 3433SOL     OW11197   1.487   0.073   6.256
 3433SOL    HW111198   1.430   0.066   6.174
 3433SOL    HW211199   1.554   7.016   6.256
 3434SOL     OW11200   3.527   2.857   1.032
 3434SOL    HW111201   3.455   2.794   1.062
 3434SOL    HW211202   3.497   2.904   0.949
 3435SOL     OW11203   0.541   2.112   1.656
 3435SOL    HW111204   0.599   2.194   1.651
 3435SOL    HW211205   0.598   2.033   1.676
 3436SOL     OW11206   3.918   6.865   5.388
 3436SOL    HW111207   3.973   6.866   5.472
 3436SOL    HW211208   3.832   6.913   5.403
 3437SOL     OW11209   4.566   0.500   6.605
 3437SOL    HW111210   4.565   0.528   6.509
 3437SOL    HW211211   4.473   0.505   6.642
 3438SOL     OW11212   1.199   2.528   6.479
 3438SOL    HW111213   1.138   2.569   6.546
 3438SOL    HW211214   1.293   2.532   6.512
 3439SOL     OW11215   2.456   0.323   5.659
 3439SOL    HW111216   2.421   0.386   5.590
 3439SOL    HW211217   2.541   0.358   5.697
 3440SOL     OW11218   4.759   3.733   1.563
 3440SOL    HW111219   4.668   3.702   1.591
 3440SOL    HW211220   4.818   3.653   1.546
 3441SOL     OW11221   5.164   0.441   3.412
 3441SOL    HW111222   5.225   0.362   3.418
 3441SOL    HW211223   5.103   0.442   3.491
 3442SOL     OW11224   2.975   4.823   2.809
 3442SOL    HW111225   2.908   4.827   2.883
 3442SOL    HW211226   3.063   4.858   2.841
 3443SOL     OW11227   5.858   0.781   2.374
 3443SOL    HW111228   5.933   0.812   2.316
 3443SOL    HW211229   5.828   0.691   2.344
 3444SOL     OW11230   5.237   4.812   0.054
 3444SOL    HW111231   5.192   4.871   0.120
 3444SOL    HW211232   5.177   4.797   6.993
 3445SOL     OW11233   5.919   4.597   4.027
 3445SOL    HW111234   5.996   4.612   4.088
 3445SOL    HW211235   5.921   4.502   3.993
 3446SOL     OW11236   6.319   0.831   3.349
 3446SOL    HW111237   6.382   0.878   3.412
 3446SOL    HW211238   6.225   0.850   3.376
 3447SOL     OW11239   4.936   4.406   0.737
 3447SOL    HW111240   4.970   4.447   0.652
 3447SOL    HW211241   4.878   4.471   0.786
 3448SOL     OW11242   2.982   7.005   0.806
 3448SOL    HW111243   2.952   0.056   0.740
 3448SOL    HW211244   2.996   0.031   0.895
 3449SOL     OW11245   5.327   6.667   3.403
 3449SOL    HW111246   5.349   6.652   3.307
 3449SOL    HW211247   5.244   6.616   3.426
 3450SOL     OW11248   0.998   2.647   0.503
 3450SOL    HW111249   0.969   2.697   0.584
 3450SOL    HW211250   1.072   2.585   0.526
 3451SOL     OW11251   0.281   5.422   3.498
 3451SOL    HW111252   0.225   5.427   3.581
 3451SOL    HW211253   0.230   5.377   3.425
 3452SOL     OW11254   5.672   1.396   0.089
 3452SOL    HW111255   5.653   1.413   0.185
 3452SOL    HW211256   5.742   1.325   0.080
 3453SOL     OW11257   6.424   5.927   5.485
 3453SOL    HW111258   6.376   5.937   5.398
 3453SOL    HW211259   6.363   5.883   5.551
 3454SOL     OW11260   2.091   0.696   5.446
 3454SOL    HW111261   2.005   0.646   5.436
 3454SOL    HW211262   2.123   0.689   5.541
 3455SOL     OW11263   1.654   3.177   4.390
 3455SOL    HW111264   1.725   3.177   4.461
 3455SOL    HW211265   1.690   3.135   4.307
 3456SOL     OW11266   5.350   6.491   2.112
 3456SOL    HW111267   5.376   6.394   2.111
 3456SOL    HW211268   5.255   6.499   2.144
 3457SOL     OW11269   2.472   5.478   3.945
 3457SOL    HW111270   2.437   5.448   4.033
 3457SOL    HW211271   2.550   5.539   3.959
 3458SOL     OW11272   5.190   6.840   6.934
 3458SOL    HW111273   5.138   6.894   7.000
 3458SOL    HW211274   5.280   6.819   6.972
 3459SOL     OW11275   6.818   4.301   3.154
 3459SOL    HW111276   6.773   4.234   3.095
 3459SOL    HW211277   6.810   4.392   3.113
 3460SOL     OW11278   2.918   3.597   0.322
 3460SOL    HW111279   2.921   3.513   0.377
 3460SOL    HW211280   2.903   3.573   0.226
 3461SOL     OW11281   4.358   5.659   4.177
 3461SOL    HW111282   4.358   5.604   4.260
 3461SOL    HW211283   4.401   5.748   4.195
 3462SOL     OW11284   6.388   3.715   2.397
 3462SOL    HW111285   6.327   3.719   2.477
 3462SOL    HW211286   6.470   3.664   2.421
 3463SOL     OW11287   1.224   3.022   2.408
 3463SOL    HW111288   1.182   2.942   2.365
 3463SOL    HW211289   1.215   3.101   2.347
 3464SOL     OW11290   6.255   2.463   6.813
 3464SOL    HW111291   6.242   2.369   6.844
 3464SOL    HW211292   6.331   2.504   6.865
 3465SOL     OW11293   1.276   3.242   1.750
 3465SOL    HW111294   1.251   3.224   1.845
 3465SOL    HW211295   1.358   3.298   1.747
 3466SOL     OW11296   6.803   5.314   6.036
 3466SOL    HW111297   6.812   5.407   6.000
 3466SOL    HW211298   6.853   5.250   5.978
 3467SOL     OW11299   1.654   1.730   0.618
 3467SOL    HW111300   1.736   1.779   0.648
 3467SOL    HW211301   1.591   1.721   0.695
 3468SOL     OW11302   5.750   1.713   3.314
 3468SOL    HW111303   5.650   1.713   3.311
 3468SOL    HW211304   5.781   1.633   3.365
 3469SOL     OW11305   4.617   0.376   4.617
 3469SOL    HW111306   4.540   0.362   4.679
 3469SOL    HW211307   4.685   0.434   4.661
 3470SOL     OW11308   0.158   2.645   1.774
 3470SOL    HW111309   0.189   2.554   1.802
 3470SOL    HW211310   0.213   2.675   1.696
 3471SOL     OW11311   4.293   4.644   3.495
 3471SOL    HW111312   4.212   4.677   3.543
 3471SOL    HW211313   4.349   4.722   3.467
 3472SOL     OW11314   2.978   1.274   1.805
 3472SOL    HW111315   2.984   1.331   1.722
 3472SOL    HW211316   2.885   1.241   1.815
 3473SOL     OW11317   5.927   3.296   2.702
 3473SOL    HW111318   5.997   3.278   2.633
 3473SOL    HW211319   5.854   3.229   2.693
 3474SOL     OW11320   6.986   4.249   2.345
 3474SOL    HW111321   6.968   4.340   2.383
 3474SOL    HW211322   0.051   4.252   2.289
 3475SOL     OW11323   1.104   4.609   5.077
 3475SOL    HW111324   1.185   4.659   5.044
 3475SOL    HW211325   1.073   4.650   5.163
 3476SOL     OW11326   2.155   2.421   2.570
 3476SOL    HW111327   2.142   2.335   2.521
 3476SOL    HW211328   2.252   2.441   2.580
 3477SOL     OW11329   1.191   4.495   0.971
 3477SOL    HW111330   1.214   4.404   1.004
 3477SOL    HW211331   1.219   4.563   1.039
 3478SOL     OW11332   3.181   6.292   6.974
 3478SOL    HW111333   3.214   6.370   0.011
 3478SOL    HW211334   3.088   6.269   7.003
 3479SOL     OW11335   0.282   0.982   2.780
 3479SOL    HW111336   0.339   1.031   2.846
 3479SOL    HW211337   0.310   0.887   2.775
 3480SOL     OW11338   0.545   6.394   5.215
 3480SOL    HW111339   0.473   6.341   5.260
 3480SOL    HW211340   0.506   6.475   5.173
 3481SOL     OW11341   5.134   0.653   0.483
 3481SOL    HW111342   5.114   0.606   0.397
 3481SOL    HW211343   5.131   0.752   0.469
 3482SOL     OW11344   6.181   1.371   2.080
 3482SOL    HW111345   6.234   1.417   2.151
 3482SOL    HW211346   6.230   1.379   1.992
 3483SOL     OW11347   5.498   1.735   2.583
 3483SOL    HW111348   5.546   1.648   2.576
 3483SOL    HW211349   5.464   1.762   2.493
 3484SOL     OW11350   1.304   3.126   0.136
 3484SOL    HW111351   1.300   3.067   0.217
 3484SOL    HW211352   1.360   3.083   0.066
 3485SOL     OW11353   1.532   2.171   4.015
 3485SOL    HW111354   1.624   2.136   4.031
 3485SOL    HW211355   1.506   2.233   4.089
 3486SOL     OW11356   1.824   0.182   3.201
 3486SOL    HW111357   1.827   0.086   3.175
 3486SOL    HW211358   1.896   0.201   3.267
 3487SOL     OW11359   6.477   1.708   0.235
 3487SOL    HW111360   6.503   1.639   0.167
 3487SOL    HW211361   6.409   1.668   0.298
 3488SOL     OW11362   5.540   1.303   5.315
 3488SOL    HW111363   5.525   1.363   5.236
 3488SOL    HW211364   5.475   1.227   5.312
 3489SOL     OW11365   3.674   0.247   2.219
 3489SOL    HW111366   3.661   0.340   2.253
 3489SOL    HW211367   3.760   0.241   2.169
 3490SOL     OW11368   3.707   4.667   1.320
 3490SOL    HW111369   3.779   4.605   1.352
 3490SOL    HW211370   3.723   4.691   1.225
 3491SOL     OW11371   4.296   2.363   6.135
 3491SOL    HW111372   4.364   2.377   6.062
 3491SOL    HW211373   4.205   2.380   6.099
 3492SOL     OW11374   6.288   4.681   0.753
 3492SOL    HW111375   6.223   4.703   0.825
 3492SOL    HW211376   6.249   4.613   0.691
 3493SOL     OW11377   5.263   4.049   3.989
 3493SOL    HW111378   5.180   4.072   4.040
 3493SOL    HW211379   5.342   4.050   4.050
 3494SOL     OW11380   2.380   0.852   2.058
 3494SOL    HW111381   2.391   0.946   2.088
 3494SOL    HW211382   2.460   0.824   2.005
 3495SOL     OW11383   6.949   4.540   2.163
 3495SOL    HW111384   6.964   4.620   2.104
 3495SOL    HW211385   6.992   4.460   2.121
 3496SOL     OW11386   6.035   5.349   0.964
 3496SOL    HW111387   5.937   5.333   0.951
 3496SOL    HW211388   6.054   5.447   0.955
 3497SOL     OW11389   2.525   1.425   3.940
 3497SOL    HW111390   2.514   1.504   4.000
 3497SOL    HW211391   2.437   1.403   3.897
 3498SOL     OW11392   2.703   1.212   1.814
 3498SOL    HW111393   2.709   1.312   1.822
 3498SOL    HW211394   2.608   1.184   1.827
 3499SOL     OW11395   5.929   4.536   4.387
 3499SOL    HW111396   6.016   4.540   4.337
 3499SOL    HW211397   5.856   4.574   4.330
 3500SOL     OW11398   1.580   3.172   3.041
 3500SOL    HW111399   1.511   3.239   3.013
 3500SOL    HW211400   1.607   3.189   3.136
 3501SOL     OW11401   3.547   6.515   5.875
 3501SOL    HW111402   3.503   6.600   5.901
 3501SOL    HW211403   3.577   6.466   5.957
 3502SOL     OW11404   0.033   2.456   1.468
 3502SOL    HW111405   0.113   2.441   1.527
 3502SOL    HW211406   6.994   2.373   1.467
 3503SOL     OW11407   6.176   6.201   5.057
 3503SOL    HW111408   6.231   6.259   5.117
 3503SOL    HW211409   6.080   6.210   5.081
 3504SOL     OW11410   2.189   0.630   2.008
 3504SOL    HW111411   2.262   0.694   2.031
 3504SOL    HW211412   2.228   0.544   1.975
 3505SOL     OW11413   5.201   4.088   5.628
 3505SOL    HW111414   5.142   4.103   5.708
 3505SOL    HW211415   5.157   4.126   5.547
 3506SOL     OW11416   5.269   4.404   4.999
 3506SOL    HW111417   5.360   4.379   4.965
 3506SOL    HW211418   5.200   4.345   4.956
 3507SOL     OW11419   2.784   0.910   0.867
 3507SOL    HW111420   2.816   0.815   0.870
 3507SOL    HW211421   2.854   0.970   0.907
 3508SOL     OW11422   2.197   1.371   5.980
 3508SOL    HW111423   2.253   1.335   5.905
 3508SOL    HW211424   2.117   1.419   5.942
 3509SOL     OW11425   5.834   7.015   6.993
 3509SOL    HW111426   5.791   0.087   7.009
 3509SOL    HW211427   5.787   6.969   6.918
 3510SOL     OW11428   1.453   0.841   2.291
 3510SOL    HW111429   1.358   0.867   2.276
 3510SOL    HW211430   1.480   0.774   2.222
 3511SOL     OW11431   2.004   4.050   1.721
 3511SOL    HW111432   2.051   3.975   1.674
 3511SOL    HW211433   2.063   4.086   1.793
 3512SOL     OW11434   0.422   4.130   0.598
 3512SOL    HW111435   0.403   4.102   0.692
 3512SOL    HW211436   0.422   4.230   0.592
 3513SOL     OW11437   5.675   2.129   0.543
 3513SOL    HW111438   5.725   2.190   0.605
 3513SOL    HW211439   5.739   2.086   0.480
 3514SOL     OW11440   0.105   0.919   2.195
 3514SOL    HW111441   0.030   0.982   2.177
 3514SOL    HW211442   0.087   0.831   2.151
 3515SOL     OW11443   4.542   5.949   3.069
 3515SOL    HW111444   4.515   6.045   3.074
 3515SOL    HW211445   4.534   5.907   3.159
 3516SOL     OW11446   4.302   6.444   0.805
 3516SOL    HW111447   4.226   6.445   0.871
 3516SOL    HW211448   4.383   6.485   0.846
 3517SOL     OW11449   6.800   1.012   1.566
 3517SOL    HW111450   6.856   0.933   1.593
 3517SOL    HW211451   6.809   1.084   1.634
 3518SOL     OW11452   5.212   3.067   5.277
 3518SOL    HW111453   5.255   3.097   5.362
 3518SOL    HW211454   5.279   3.070   5.203
 3519SOL     OW11455   1.468   6.494   5.783
 3519SOL    HW111456   1.373   6.463   5.789
 3519SOL    HW211457   1.507   6.467   5.695
 3520SOL     OW11458   3.313   6.071   0.001
 3520SOL    HW111459   3.247   6.136   6.980
 3520SOL    HW211460   3.377   6.043   6.948
 3521SOL     OW11461   4.714   2.828   0.225
 3521SOL    HW111462   4.803   2.862   0.195
 3521SOL    HW211463   4.713   2.728   0.222
 3522SOL     OW11464   0.281   5.548   0.270
 3522SOL    HW111465   0.256   5.546   0.173
 3522SOL    HW211466   0.200   5.533   0.326
 3523SOL     OW11467   1.323   4.774   4.982
 3523SOL    HW111468   1.405   4.719   4.992
 3523SOL    HW211469   1.325   4.850   5.047
 3524SOL     OW11470   4.823   1.630   1.925
 3524SOL    HW111471   4.852   1.674   2.010
 3524SOL    HW211472   4.899   1.578   1.886
 3525SOL     OW11473   6.775   3.590   4.044
 3525SOL    HW111474   6.844   3.533   4.089
 3525SOL    HW211475   6.801   3.687   4.052
 3526SOL     OW11476   1.833   6.866   3.957
 3526SOL    HW111477   1.883   6.832   3.878
 3526SOL    HW211478   1.835   6.966   3.959
 3527SOL     OW11479   6.040   3.459   6.383
 3527SOL    HW111480   6.103   3.382   6.372
 3527SOL    HW211481   6.059   3.505   6.470
 3528SOL     OW11482   1.552   6.454   5.246
 3528SOL    HW111483   1.592   6.402   5.321
 3528SOL    HW211484   1.624   6.506   5.199
 3529SOL     OW11485   3.976   0.303   0.973
 3529SOL    HW111486   3.990   0.354   0.889
 3529SOL    HW211487   4.064   0.266   1.005
 3530SOL     OW11488   6.546   5.756   0.820
 3530SOL    HW111489   6.566   5.801   0.907
 3530SOL    HW211490   6.473   5.805   0.773
 3531SOL     OW11491   5.019   2.501   0.569
 3531SOL    HW111492   5.025   2.600   0.584
 3531SOL    HW211493   5.035   2.453   0.655
 3532SOL     OW11494   2.483   6.981   2.108
 3532SOL    HW111495   2.565   6.953   2.156
 3532SOL    HW211496   2.491   0.059   2.079
 3533SOL     OW11497   0.509   1.432   2.751
 3533SOL    HW111498   0.483   1.376   2.830
 3533SOL    HW211499   0.461   1.399   2.670
 3534SOL     OW11500   0.547   1.667   0.654
 3534SOL    HW111501   0.618   1.601   0.629
 3534SOL    HW211502   0.476   1.668   0.584
 3535SOL     OW11503   1.914   5.121   6.242
 3535SOL    HW111504   1.845   5.075   6.297
 3535SOL    HW211505   1.871   5.196   6.191
 3536SOL     OW11506   3.569   1.752   2.979
 3536SOL    HW111507   3.632   1.780   2.906
 3536SOL    HW211508   3.476   1.747   2.943
 3537SOL     OW11509   2.336   5.529   2.746
 3537SOL    HW111510   2.243   5.566   2.738
 3537SOL    HW211511   2.374   5.515   2.655
 3538SOL     OW11512   2.091   6.552   5.324
 3538SOL    HW111513   2.176   6.504   5.346
 3538SOL    HW211514   2.108   6.621   5.255
 3539SOL     OW11515   3.577   3.212   5.553
 3539SOL    HW111516   3.675   3.231   5.546
 3539SOL    HW211517   3.530   3.251   5.474
 3540SOL     OW11518   1.982   3.055   4.771
 3540SOL    HW111519   1.980   2.956   4.785
 3540SOL    HW211520   1.891   3.093   4.789
 3541SOL     OW11521   2.159   2.561   6.329
 3541SOL    HW111522   2.138   2.466   6.304
 3541SOL    HW211523   2.152   2.571   6.428
 3542SOL     OW11524   1.415   5.404   3.584
 3542SOL    HW111525   1.363   5.355   3.655
 3542SOL    HW211526   1.353   5.427   3.508
 3543SOL     OW11527   0.397   2.577   4.841
 3543SOL    HW111528   0.469   2.518   4.806
 3543SOL    HW211529   0.431   2.670   4.851
 3544SOL     OW11530   1.792   4.021   5.641
 3544SOL    HW111531   1.699   3.988   5.627
 3544SOL    HW211532   1.800   4.114   5.605
 3545SOL     OW11533   4.280   5.471   6.449
 3545SOL    HW111534   4.369   5.426   6.459
 3545SOL    HW211535   4.213   5.424   6.506
 3546SOL     OW11536   1.752   4.572   4.031
 3546SOL    HW111537   1.659   4.597   4.060
 3546SOL    HW211538   1.818   4.632   4.076
 3547SOL     OW11539   6.491   4.571   3.947
 3547SOL    HW111540   6.554   4.519   4.006
 3547SOL    HW211541   6.449   4.508   3.882
 3548SOL     OW11542   5.960   2.043   6.066
 3548SOL    HW111543   5.985   2.102   5.990
 3548SOL    HW211544   5.878   2.080   6.111
 3549SOL     OW11545   6.342   4.493   5.773
 3549SOL    HW111546   6.434   4.497   5.733
 3549SOL    HW211547   6.313   4.398   5.781
 3550SOL     OW11548   5.432   2.261   2.765
 3550SOL    HW111549   5.483   2.217   2.691
 3550SOL    HW211550   5.362   2.198   2.798
 3551SOL     OW11551   3.730   6.874   2.979
 3551SOL    HW111552   3.760   6.969   2.972
 3551SOL    HW211553   3.667   6.853   2.905
 3552SOL     OW11554   5.287   6.133   1.405
 3552SOL    HW111555   5.234   6.049   1.395
 3552SOL    HW211556   5.363   6.118   1.467
 3553SOL     OW11557   5.483   3.946   1.665
 3553SOL    HW111558   5.497   3.848   1.683
 3553SOL    HW211559   5.410   3.956   1.597
 3554SOL     OW11560   3.676   2.589   1.044
 3554SOL    HW111561   3.687   2.577   0.945
 3554SOL    HW211562   3.584   2.622   1.063
 3555SOL     OW11563   1.199   4.104   3.376
 3555SOL    HW111564   1.197   4.023   3.318
 3555SOL    HW211565   1.242   4.179   3.326
 3556SOL     OW11566   4.652   0.762   4.426
 3556SOL    HW111567   4.584   0.690   4.417
 3556SOL    HW211568   4.697   0.778   4.338
 3557SOL     OW11569   0.972   0.408   3.827
 3557SOL    HW111570   1.066   0.381   3.805
 3557SOL    HW211571   0.925   0.439   3.745
 3558SOL     OW11572   1.292   5.585   0.942
 3558SOL    HW111573   1.352   5.509   0.920
 3558SOL    HW211574   1.261   5.577   1.037
 3559SOL     OW11575   0.875   6.910   4.561
 3559SOL    HW111576   0.913   7.002   4.571
 3559SOL    HW211577   0.909   6.867   4.478
 3560SOL     OW11578   1.490   5.781   1.576
 3560SOL    HW111579   1.504   5.851   1.645
 3560SOL    HW211580   1.478   5.692   1.620
 3561SOL     OW11581   3.808   4.950   5.455
 3561SOL    HW111582   3.820   4.871   5.396
 3561SOL    HW211583   3.891   4.965   5.508
 3562SOL     OW11584   5.525   1.041   4.454
 3562SOL    HW111585   5.466   0.986   4.394
 3562SOL    HW211586   5.588   1.095   4.398
 3563SOL     OW11587   5.314   0.654   1.513
 3563SOL    HW111588   5.409   0.624   1.525
 3563SOL    HW211589   5.256   0.575   1.493
 3564SOL     OW11590   1.496   4.580   4.211
 3564SOL    HW111591   1.486   4.484   4.238
 3564SOL    HW211592   1.525   4.634   4.290
 3565SOL     OW11593   3.753   6.600   5.124
 3565SOL    HW111594   3.719   6.594   5.030
 3565SOL    HW211595   3.679   6.630   5.184
 3566SOL     OW11596   6.629   3.494   6.586
 3566SOL    HW111597   6.562   3.537   6.646
 3566SOL    HW211598   6.714   3.548   6.586
 3567SOL     OW11599   1.015   3.116   0.016
 3567SOL    HW111600   1.107   3.128   0.055
 3567SOL    HW211601   1.000   3.020   7.013
 3568SOL     OW11602   4.978   6.150   3.881
 3568SOL    HW111603   4.940   6.155   3.789
 3568SOL    HW211604   4.978   6.242   3.923
 3569SOL     OW11605   3.062   2.582   6.350
 3569SOL    HW111606   2.992   2.631   6.402
 3569SOL    HW211607   3.145   2.572   6.406
 3570SOL     OW11608   5.507   0.735   4.558
 3570SOL    HW111609   5.560   0.672   4.501
 3570SOL    HW211610   5.437   0.779   4.502
 3571SOL     OW11611   2.220   0.787   4.828
 3571SOL    HW111612   2.309   0.792   4.875
 3571SOL    HW211613   2.167   0.711   4.866
 3572SOL     OW11614   5.708   3.661   3.025
 3572SOL    HW111615   5.769   3.650   2.947
 3572SOL    HW211616   5.625   3.708   2.996
 3573SOL     OW11617   5.842   4.043   2.634
 3573SOL    HW111618   5.881   4.013   2.721
 3573SOL    HW211619   5.773   3.977   2.603
 3574SOL     OW11620   1.422   3.620   0.402
 3574SOL    HW111621   1.381   3.589   0.317
 3574SOL    HW211622   1.392   3.714   0.421
 3575SOL     OW11623   4.806   5.849   1.919
 3575SOL    HW111624   4.720   5.811   1.885
 3575SOL    HW211625   4.828   5.806   2.007
 3576SOL     OW11626   0.608   1.923   0.461
 3576SOL    HW111627   0.535   1.930   0.529
 3576SOL    HW211628   0.690   1.967   0.496
 3577SOL     OW11629   2.064   2.839   6.466
 3577SOL    HW111630   2.060   2.834   6.367
 3577SOL    HW211631   1.976   2.872   6.502
 3578SOL     OW11632   4.953   1.861   1.116
 3578SOL    HW111633   4.909   1.790   1.062
 3578SOL    HW211634   4.884   1.921   1.156
 3579SOL     OW11635   6.746   3.046   2.662
 3579SOL    HW111636   6.838   3.027   2.696
 3579SOL    HW211637   6.724   2.982   2.588
 3580SOL     OW11638   6.413   3.045   6.976
 3580SOL    HW111639   6.501   3.094   6.972
 3580SOL    HW211640   6.410   2.976   6.904
 3581SOL     OW11641   0.525   5.963   2.785
 3581SOL    HW111642   0.569   5.973   2.696
 3581SOL    HW211643   0.584   5.911   2.846
 3582SOL     OW11644   2.053   4.994   5.460
 3582SOL    HW111645   2.120   4.965   5.528
 3582SOL    HW211646   1.966   5.016   5.505
 3583SOL     OW11647   1.395   4.637   0.302
 3583SOL    HW111648   1.345   4.551   0.288
 3583SOL    HW211649   1.457   4.652   0.225
 3584SOL     OW11650   5.612   4.367   5.748
 3584SOL    HW111651   5.521   4.365   5.706
 3584SOL    HW211652   5.681   4.383   5.677
 3585SOL     OW11653   3.245   2.030   4.970
 3585SOL    HW111654   3.192   2.113   4.989
 3585SOL    HW211655   3.282   1.993   5.055
 3586SOL     OW11656   0.177   2.495   5.246
 3586SOL    HW111657   0.222   2.567   5.298
 3586SOL    HW211658   0.193   2.510   5.148
 3587SOL     OW11659   2.971   5.442   6.466
 3587SOL    HW111660   3.070   5.430   6.466
 3587SOL    HW211661   2.930   5.387   6.394
 3588SOL     OW11662   6.576   3.352   5.039
 3588SOL    HW111663   6.518   3.335   5.119
 3588SOL    HW211664   6.562   3.446   5.008
 3589SOL     OW11665   6.216   7.010   6.568
 3589SOL    HW111666   6.187   0.028   6.657
 3589SOL    HW211667   6.153   0.026   6.497
 3590SOL     OW11668   0.470   3.879   0.110
 3590SOL    HW111669   0.540   3.919   0.051
 3590SOL    HW211670   0.476   3.918   0.202
 3591SOL     OW11671   5.573   3.510   1.120
 3591SOL    HW111672   5.668   3.506   1.089
 3591SOL    HW211673   5.555   3.434   1.183
 3592SOL     OW11674   0.231   6.804   2.814
 3592SOL    HW111675   0.256   6.867   2.887
 3592SOL    HW211676   0.255   6.711   2.840
 3593SOL     OW11677   0.864   4.444   5.937
 3593SOL    HW111678   0.946   4.389   5.919
 3593SOL    HW211679   0.881   4.538   5.909
 3594SOL     OW11680   5.306   0.378   4.032
 3594SOL    HW111681   5.242   0.412   3.963
 3594SOL    HW211682   5.305   0.438   4.112
 3595SOL     OW11683   5.603   5.167   6.443
 3595SOL    HW111684   5.674   5.097   6.448
 3595SOL    HW211685   5.629   5.244   6.501
 3596SOL     OW11686   4.596   2.628   3.611
 3596SOL    HW111687   4.533   2.551   3.618
 3596SOL    HW211688   4.620   2.661   3.702
 3597SOL     OW11689   1.839   3.224   5.524
 3597SOL    HW111690   1.893   3.166   5.584
 3597SOL    HW211691   1.782   3.285   5.579
 3598SOL     OW11692   2.010   6.281   5.195
 3598SOL    HW111693   1.945   6.344   5.238
 3598SOL    HW211694   2.025   6.203   5.255
 3599SOL     OW11695   4.405   2.187   0.032
 3599SOL    HW111696   4.503   2.168   0.029
 3599SOL    HW211697   4.389   2.284   0.014
 3600SOL     OW11698   1.008   3.429   1.457
 3600SOL    HW111699   0.946   3.504   1.436
 3600SOL    HW211700   0.959   3.357   1.505
 3601SOL     OW11701   5.407   2.297   6.074
 3601SOL    HW111702   5.403   2.374   6.137
 3601SOL    HW211703   5.389   2.212   6.123
 3602SOL     OW11704   1.610   3.295   0.601
 3602SOL    HW111705   1.586   3.391   0.588
 3602SOL    HW211706   1.532   3.238   0.576
 3603SOL     OW11707   3.703   1.175   5.295
 3603SOL    HW111708   3.776   1.232   5.334
 3603SOL    HW211709   3.637   1.152   5.366
 3604SOL     OW11710   6.210   0.849   3.688
 3604SOL    HW111711   6.252   0.925   3.639
 3604SOL    HW211712   6.229   0.764   3.640
 3605SOL     OW11713   0.980   5.377   4.188
 3605SOL    HW111714   0.913   5.410   4.254
 3605SOL    HW211715   0.991   5.278   4.199
 3606SOL     OW11716   1.366   6.622   2.734
 3606SOL    HW111717   1.301   6.626   2.809
 3606SOL    HW211718   1.420   6.538   2.741
 3607SOL     OW11719   5.572   3.197   2.136
 3607SOL    HW111720   5.604   3.200   2.041
 3607SOL    HW211721   5.491   3.138   2.141
 3608SOL     OW11722   5.165   1.601   4.213
 3608SOL    HW111723   5.214   1.646   4.139
 3608SOL    HW211724   5.174   1.656   4.297
 3609SOL     OW11725   2.114   0.392   4.224
 3609SOL    HW111726   2.156   0.483   4.227
 3609SOL    HW211727   2.181   0.323   4.251
 3610SOL     OW11728   1.496   0.252   5.720
 3610SOL    HW111729   1.527   0.316   5.650
 3610SOL    HW211730   1.551   0.169   5.716
 3611SOL     OW11731   4.169   4.860   4.044
 3611SOL    HW111732   4.070   4.867   4.030
 3611SOL    HW211733   4.213   4.843   3.956
 3612SOL     OW11734   6.374   0.996   6.506
 3612SOL    HW111735   6.359   0.992   6.408
 3612SOL    HW211736   6.399   0.905   6.540
 3613SOL     OW11737   4.039   5.274   1.686
 3613SOL    HW111738   3.963   5.226   1.642
 3613SOL    HW211739   4.025   5.373   1.678
 3614SOL     OW11740   2.614   3.229   6.995
 3614SOL    HW111741   2.535   3.246   6.935
 3614SOL    HW211742   2.619   3.301   0.046
 3615SOL     OW11743   5.993   2.869   6.460
 3615SOL    HW111744   5.988   2.909   6.368
 3615SOL    HW211745   6.056   2.791   6.458
 3616SOL     OW11746   1.250   0.774   6.224
 3616SOL    HW111747   1.190   0.701   6.193
 3616SOL    HW211748   1.345   0.744   6.216
 3617SOL     OW11749   4.135   0.603   6.077
 3617SOL    HW111750   4.082   0.529   6.036
 3617SOL    HW211751   4.230   0.575   6.085
 3618SOL     OW11752   2.684   3.375   5.340
 3618SOL    HW111753   2.588   3.347   5.344
 3618SOL    HW211754   2.741   3.295   5.323
 3619SOL     OW11755   5.707   3.207   0.295
 3619SOL    HW111756   5.673   3.298   0.318
 3619SOL    HW211757   5.785   3.185   0.353
 3620SOL     OW11758   6.318   5.351   5.284
 3620SOL    HW111759   6.395   5.290   5.302
 3620SOL    HW211760   6.246   5.335   5.351
 3621SOL     OW11761   3.149   3.461   4.602
 3621SOL    HW111762   3.111   3.373   4.631
 3621SOL    HW211763   3.097   3.535   4.645
 3622SOL     OW11764   1.695   0.429   0.731
 3622SOL    HW111765   1.637   0.478   0.667
 3622SOL    HW211766   1.782   0.408   0.688
 3623SOL     OW11767   0.304   5.564   5.274
 3623SOL    HW111768   0.340   5.477   5.240
 3623SOL    HW211769   0.227   5.592   5.217
 3624SOL     OW11770   1.523   6.933   2.577
 3624SOL    HW111771   1.519   7.007   2.510
 3624SOL    HW211772   1.619   6.912   2.598
 3625SOL     OW11773   0.148   3.548   6.585
 3625SOL    HW111774   0.221   3.616   6.585
 3625SOL    HW211775   0.158   3.488   6.665
 3626SOL     OW11776   0.642   3.426   3.817
 3626SOL    HW111777   0.560   3.484   3.812
 3626SOL    HW211778   0.629   3.356   3.888
 3627SOL     OW11779   4.777   3.322   1.716
 3627SOL    HW111780   4.794   3.391   1.646
 3627SOL    HW211781   4.689   3.277   1.698
 3628SOL     OW11782   1.502   1.192   2.325
 3628SOL    HW111783   1.596   1.221   2.342
 3628SOL    HW211784   1.496   1.093   2.331
 3629SOL     OW11785   1.123   0.780   4.024
 3629SOL    HW111786   1.187   0.725   3.969
 3629SOL    HW211787   1.175   0.848   4.077
 3630SOL     OW11788   6.301   2.839   3.902
 3630SOL    HW111789   6.235   2.834   3.977
 3630SOL    HW211790   6.393   2.846   3.938
 3631SOL     OW11791   1.508   6.810   3.573
 3631SOL    HW111792   1.557   6.796   3.659
 3631SOL    HW211793   1.574   6.820   3.498
 3632SOL     OW11794   4.478   4.306   0.661
 3632SOL    HW111795   4.533   4.334   0.582
 3632SOL    HW211796   4.501   4.212   0.686
 3633SOL     OW11797   4.241   2.456   5.767
 3633SOL    HW111798   4.315   2.426   5.828
 3633SOL    HW211799   4.239   2.556   5.765
 3634SOL     OW11800   2.033   6.668   6.226
 3634SOL    HW111801   2.082   6.584   6.247
 3634SOL    HW211802   2.005   6.668   6.130
 3635SOL     OW11803   1.946   1.369   0.747
 3635SOL    HW111804   1.868   1.423   0.777
 3635SOL    HW211805   1.948   1.283   0.799
 3636SOL     OW11806   0.340   6.373   1.237
 3636SOL    HW111807   0.324   6.283   1.278
 3636SOL    HW211808   0.339   6.366   1.137
 3637SOL     OW11809   0.835   2.823   0.972
 3637SOL    HW111810   0.863   2.913   1.006
 3637SOL    HW211811   0.736   2.814   0.982
 3638SOL     OW11812   6.565   3.997   2.463
 3638SOL    HW111813   6.468   3.993   2.439
 3638SOL    HW211814   6.575   4.030   2.557
 3639SOL     OW11815   3.488   4.573   5.970
 3639SOL    HW111816   3.466   4.615   5.882
 3639SOL    HW211817   3.509   4.476   5.956
 3640SOL     OW11818   5.118   2.134   0.900
 3640SOL    HW111819   5.160   2.140   0.990
 3640SOL    HW211820   5.022   2.107   0.909
 3641SOL     OW11821   5.084   4.383   1.224
 3641SOL    HW111822   5.021   4.308   1.244
 3641SOL    HW211823   5.124   4.416   1.309
 3642SOL     OW11824   5.375   2.086   6.710
 3642SOL    HW111825   5.314   2.158   6.678
 3642SOL    HW211826   5.434   2.122   6.782
 3643SOL     OW11827   4.097   6.464   6.145
 3643SOL    HW111828   4.172   6.528   6.127
 3643SOL    HW211829   4.089   6.401   6.068
 3644SOL     OW11830   2.991   0.651   1.538
 3644SOL    HW111831   2.974   0.584   1.610
 3644SOL    HW211832   2.903   0.677   1.496
 3645SOL     OW11833   1.368   3.668   4.354
 3645SOL    HW111834   1.341   3.604   4.425
 3645SOL    HW211835   1.337   3.634   4.265
 3646SOL     OW11836   2.200   4.962   4.616
 3646SOL    HW111837   2.238   4.945   4.525
 3646SOL    HW211838   2.117   4.907   4.628
 3647SOL     OW11839   2.764   6.306   6.761
 3647SOL    HW111840   2.716   6.256   6.832
 3647SOL    HW211841   2.698   6.344   6.696
 3648SOL     OW11842   4.957   6.112   3.029
 3648SOL    HW111843   4.915   6.044   3.089
 3648SOL    HW211844   5.053   6.124   3.053
 3649SOL     OW11845   6.004   4.234   0.424
 3649SOL    HW111846   5.993   4.179   0.342
 3649SOL    HW211847   6.056   4.182   0.492
 3650SOL     OW11848   5.849   4.447   1.234
 3650SOL    HW111849   5.812   4.354   1.224
 3650SOL    HW211850   5.801   4.493   1.309
 3651SOL     OW11851   1.951   1.975   4.903
 3651SOL    HW111852   2.025   1.926   4.856
 3651SOL    HW211853   1.984   2.066   4.931
 3652SOL     OW11854   5.877   0.500   2.473
 3652SOL    HW111855   5.874   0.521   2.570
 3652SOL    HW211856   5.785   0.477   2.441
 3653SOL     OW11857   1.095   0.954   2.922
 3653SOL    HW111858   1.137   1.026   2.867
 3653SOL    HW211859   1.158   0.877   2.930
 3654SOL     OW11860   5.219   6.250   0.610
 3654SOL    HW111861   5.235   6.221   0.516
 3654SOL    HW211862   5.280   6.200   0.671
 3655SOL     OW11863   2.727   1.089   4.091
 3655SOL    HW111864   2.751   1.158   4.023
 3655SOL    HW211865   2.671   1.019   4.048
 3656SOL     OW11866   0.885   4.955   1.180
 3656SOL    HW111867   0.961   5.019   1.179
 3656SOL    HW211868   0.909   4.874   1.234
 3657SOL     OW11869   4.863   5.543   5.608
 3657SOL    HW111870   4.903   5.609   5.672
 3657SOL    HW211871   4.823   5.467   5.659
 3658SOL     OW11872   1.997   4.775   6.424
 3658SOL    HW111873   1.990   4.804   6.519
 3658SOL    HW211874   1.984   4.676   6.418
 3659SOL     OW11875   0.444   1.707   6.252
 3659SOL    HW111876   0.534   1.675   6.224
 3659SOL    HW211877   0.409   1.650   6.326
 3660SOL     OW11878   6.220   6.433   5.388
 3660SOL    HW111879   6.132   6.386   5.381
 3660SOL    HW211880   6.256   6.420   5.481
 3661SOL     OW11881   0.063   0.359   4.514
 3661SOL    HW111882   0.071   0.437   4.576
 3661SOL    HW211883   0.142   0.356   4.453
 3662SOL     OW11884   3.592   0.958   4.942
 3662SOL    HW111885   3.681   0.990   4.912
 3662SOL    HW211886   3.582   0.974   5.041
 3663SOL     OW11887   2.428   2.428   6.579
 3663SOL    HW111888   2.339   2.473   6.590
 3663SOL    HW211889   2.472   2.419   6.668
 3664SOL     OW11890   3.559   1.630   2.120
 3664SOL    HW111891   3.501   1.616   2.200
 3664SOL    HW211892   3.525   1.576   2.043
 3665SOL     OW11893   0.673   6.050   5.675
 3665SOL    HW111894   0.628   6.020   5.591
 3665SOL    HW211895   0.667   6.149   5.683
 3666SOL     OW11896   0.992   3.151   3.230
 3666SOL    HW111897   0.991   3.092   3.311
 3666SOL    HW211898   0.997   3.247   3.260
 3667SOL     OW11899   0.811   1.451   3.952
 3667SOL    HW111900   0.720   1.473   3.986
 3667SOL    HW211901   0.876   1.455   4.028
 3668SOL     OW11902   0.923   0.586   1.265
 3668SOL    HW111903   0.906   0.487   1.266
 3668SOL    HW211904   0.902   0.622   1.174
 3669SOL     OW11905   6.012   1.933   4.416
 3669SOL    HW111906   6.022   1.834   4.407
 3669SOL    HW211907   5.989   1.955   4.511
 3670SOL     OW11908   3.023   5.036   1.116
 3670SOL    HW111909   3.082   5.011   1.192
 3670SOL    HW211910   2.969   5.117   1.141
 3671SOL     OW11911   6.705   1.388   2.658
 3671SOL    HW111912   6.729   1.291   2.660
 3671SOL    HW211913   6.613   1.399   2.620
 3672SOL     OW11914   5.160   1.407   2.575
 3672SOL    HW111915   5.111   1.448   2.498
 3672SOL    HW211916   5.130   1.450   2.660
 3673SOL     OW11917   4.253   5.432   6.720
 3673SOL    HW111918   4.171   5.403   6.770
 3673SOL    HW211919   4.297   5.507   6.770
 3674SOL     OW11920   1.706   5.882   5.913
 3674SOL    HW111921   1.727   5.850   5.821
 3674SOL    HW211922   1.741   5.818   5.981
 3675SOL     OW11923   6.919   2.831   3.595
 3675SOL    HW111924   6.885   2.889   3.668
 3675SOL    HW211925   7.014   2.854   3.575
 3676SOL     OW11926   5.255   2.909   2.972
 3676SOL    HW111927   5.220   2.988   3.023
 3676SOL    HW211928   5.190   2.833   2.981
 3677SOL     OW11929   2.122   0.697   5.082
 3677SOL    HW111930   2.031   0.684   5.045
 3677SOL    HW211931   2.131   0.792   5.115
 3678SOL     OW11932   1.313   1.649   4.494
 3678SOL    HW111933   1.400   1.697   4.508
 3678SOL    HW211934   1.244   1.714   4.462
 3679SOL     OW11935   5.754   0.140   3.735
 3679SOL    HW111936   5.810   0.092   3.667
 3679SOL    HW211937   5.811   0.206   3.784
 3680SOL     OW11938   4.879   2.305   3.752
 3680SOL    HW111939   4.831   2.218   3.768
 3680SOL    HW211940   4.881   2.325   3.654
 3681SOL     OW11941   0.386   0.572   6.286
 3681SOL    HW111942   0.390   0.656   6.233
 3681SOL    HW211943   0.390   0.493   6.224
 3682SOL     OW11944   5.083   2.422   0.839
 3682SOL    HW111945   5.119   2.329   0.852
 3682SOL    HW211946   5.101   2.475   0.922
 3683SOL     OW11947   0.138   0.610   4.851
 3683SOL    HW111948   0.215   0.549   4.868
 3683SOL    HW211949   0.053   0.559   4.863
 3684SOL     OW11950   2.071   6.322   6.752
 3684SOL    HW111951   1.980   6.316   6.712
 3684SOL    HW211952   2.113   6.231   6.751
 3685SOL     OW11953   2.816   5.944   4.996
 3685SOL    HW111954   2.720   5.935   5.023
 3685SOL    HW211955   2.828   5.908   4.903
 3686SOL     OW11956   6.612   4.225   4.079
 3686SOL    HW111957   6.615   4.324   4.068
 3686SOL    HW211958   6.698   4.186   4.047
 3687SOL     OW11959   5.456   6.944   3.328
 3687SOL    HW111960   5.376   6.952   3.387
 3687SOL    HW211961   5.452   6.858   3.278
 3688SOL     OW11962   6.025   3.431   0.356
 3688SOL    HW111963   6.007   3.526   0.382
 3688SOL    HW211964   6.050   3.428   0.259
 3689SOL     OW11965   2.221   1.915   5.633
 3689SOL    HW111966   2.264   1.998   5.668
 3689SOL    HW211967   2.139   1.895   5.687
 3690SOL     OW11968   4.889   5.713   0.894
 3690SOL    HW111969   4.958   5.708   0.967
 3690SOL    HW211970   4.883   5.807   0.861
 3691SOL     OW11971   2.518   2.141   6.117
 3691SOL    HW111972   2.611   2.145   6.154
 3691SOL    HW211973   2.498   2.226   6.069
 3692SOL     OW11974   6.702   4.468   5.965
 3692SOL    HW111975   6.709   4.371   5.990
 3692SOL    HW211976   6.629   4.511   6.017
 3693SOL     OW11977   1.352   1.987   2.737
 3693SOL    HW111978   1.323   2.055   2.669
 3693SOL    HW211979   1.449   1.966   2.724
 3694SOL     OW11980   0.969   0.480   1.628
 3694SOL    HW111981   0.872   0.499   1.613
 3694SOL    HW211982   1.005   0.425   1.552
 3695SOL     OW11983   6.166   2.090   1.884
 3695SOL    HW111984   6.130   2.183   1.873
 3695SOL    HW211985   6.266   2.094   1.889
 3696SOL     OW11986   5.378   0.732   5.298
 3696SOL    HW111987   5.370   0.831   5.312
 3696SOL    HW211988   5.472   0.710   5.271
 3697SOL     OW11989   6.129   5.986   3.265
 3697SOL    HW111990   6.147   5.915   3.196
 3697SOL    HW211991   6.100   6.070   3.219
 3698SOL     OW11992   2.512   1.092   3.729
 3698SOL    HW111993   2.564   1.170   3.762
 3698SOL    HW211994   2.417   1.120   3.712
 3699SOL     OW11995   2.235   2.170   3.556
 3699SOL    HW111996   2.293   2.123   3.489
 3699SOL    HW211997   2.182   2.102   3.608
 3700SOL     OW11998   1.643   5.587   5.018
 3700SOL    HW111999   1.584   5.667   5.025
 3700SOL    HW212000   1.722   5.607   4.961
 3701SOL     OW12001   0.673   6.440   1.914
 3701SOL    HW112002   0.758   6.452   1.966
 3701SOL    HW212003   0.690   6.384   1.833
 3702SOL     OW12004   5.023   6.571   3.830
 3702SOL    HW112005   5.029   6.515   3.913
 3702SOL    HW212006   4.933   6.558   3.788
 3703SOL     OW12007   0.554   1.000   6.502
 3703SOL    HW112008   0.529   0.946   6.582
 3703SOL    HW212009   0.653   0.998   6.489
 3704SOL     OW12010   5.544   3.637   0.827
 3704SOL    HW112011   5.485   3.567   0.787
 3704SOL    HW212012   5.565   3.613   0.921
 3705SOL     OW12013   4.855   5.015   3.477
 3705SOL    HW112014   4.873   4.919   3.500
 3705SOL    HW212015   4.930   5.050   3.421
 3706SOL     OW12016   0.645   3.917   6.866
 3706SOL    HW112017   0.615   3.863   6.787
 3706SOL    HW212018   0.651   4.013   6.841
 3707SOL     OW12019   3.822   5.195   4.034
 3707SOL    HW112020   3.898   5.231   3.979
 3707SOL    HW212021   3.737   5.201   3.983
 3708SOL     OW12022   4.306   0.201   1.409
 3708SOL    HW112023   4.240   0.275   1.397
 3708SOL    HW212024   4.330   0.193   1.506
 3709SOL     OW12025   2.624   0.024   1.728
 3709SOL    HW112026   2.676   0.065   1.803
 3709SOL    HW212027   2.547   0.083   1.705
 3710SOL     OW12028   0.694   5.466   5.287
 3710SOL    HW112029   0.679   5.565   5.276
 3710SOL    HW212030   0.622   5.416   5.239
 3711SOL     OW12031   1.450   6.437   4.973
 3711SOL    HW112032   1.427   6.425   5.070
 3711SOL    HW212033   1.500   6.357   4.941
 3712SOL     OW12034   2.286   5.359   6.569
 3712SOL    HW112035   2.195   5.381   6.537
 3712SOL    HW212036   2.333   5.442   6.598
 3713SOL     OW12037   0.129   6.516   5.079
 3713SOL    HW112038   0.052   6.576   5.101
 3713SOL    HW212039   0.133   6.442   5.146
 3714SOL     OW12040   0.695   5.098   6.980
 3714SOL    HW112041   0.670   5.180   0.014
 3714SOL    HW212042   0.632   5.087   6.904
 3715SOL     OW12043   0.336   5.198   3.054
 3715SOL    HW112044   0.360   5.182   3.150
 3715SOL    HW212045   0.398   5.146   2.995
 3716SOL     OW12046   6.057   5.405   4.147
 3716SOL    HW112047   6.045   5.504   4.141
 3716SOL    HW212048   6.136   5.378   4.092
 3717SOL     OW12049   5.308   1.453   0.323
 3717SOL    HW112050   5.318   1.545   0.285
 3717SOL    HW212051   5.241   1.401   0.271
 3718SOL     OW12052   0.909   0.383   0.069
 3718SOL    HW112053   0.943   0.290   0.078
 3718SOL    HW212054   0.836   0.386   0.001
 3719SOL     OW12055   4.234   2.846   6.464
 3719SOL    HW112056   4.333   2.830   6.465
 3719SOL    HW212057   4.202   2.851   6.370
 3720SOL     OW12058   5.246   3.743   0.692
 3720SOL    HW112059   5.181   3.802   0.741
 3720SOL    HW212060   5.290   3.682   0.756
 3721SOL     OW12061   6.681   5.273   6.874
 3721SOL    HW112062   6.595   5.248   6.918
 3721SOL    HW212063   6.758   5.245   6.931
 3722SOL     OW12064   4.815   0.194   1.142
 3722SOL    HW112065   4.833   0.106   1.185
 3722SOL    HW212066   4.721   0.222   1.161
 3723SOL     OW12067   4.391   4.977   0.034
 3723SOL    HW112068   4.470   5.038   0.031
 3723SOL    HW212069   4.422   4.883   0.048
 3724SOL     OW12070   1.784   5.035   5.318
 3724SOL    HW112071   1.705   4.975   5.307
 3724SOL    HW212072   1.788   5.068   5.412
 3725SOL     OW12073   0.464   6.022   6.762
 3725SOL    HW112074   0.389   6.089   6.767
 3725SOL    HW212075   0.449   5.952   6.832
 3726SOL     OW12076   5.191   4.084   5.205
 3726SOL    HW112077   5.137   4.127   5.277
 3726SOL    HW212078   5.131   4.049   5.134
 3727SOL     OW12079   6.789   3.352   4.829
 3727SOL    HW112080   6.719   3.353   4.900
 3727SOL    HW212081   6.758   3.406   4.751
 3728SOL     OW12082   2.615   3.714   0.157
 3728SOL    HW112083   2.674   3.741   0.232
 3728SOL    HW212084   2.538   3.778   0.150
 3729SOL     OW12085   0.678   0.423   4.098
 3729SOL    HW112086   0.730   0.449   4.179
 3729SOL    HW212087   0.714   0.337   4.062
 3730SOL     OW12088   4.253   6.293   5.775
 3730SOL    HW112089   4.313   6.246   5.840
 3730SOL    HW212090   4.176   6.333   5.824
 3731SOL     OW12091   0.650   1.572   0.333
 3731SOL    HW112092   0.646   1.507   0.258
 3731SOL    HW212093   0.589   1.649   0.314
 3732SOL     OW12094   1.485   1.613   0.841
 3732SOL    HW112095   1.490   1.662   0.928
 3732SOL    HW212096   1.561   1.548   0.835
 3733SOL     OW12097   1.884   2.944   3.707
 3733SOL    HW112098   1.923   2.926   3.797
 3733SOL    HW212099   1.785   2.960   3.716
 3734SOL     OW12100   3.572   1.119   1.652
 3734SOL    HW112101   3.544   1.185   1.723
 3734SOL    HW212102   3.651   1.067   1.685
 3735SOL     OW12103   3.922   0.574   2.488
 3735SOL    HW112104   3.886   0.648   2.432
 3735SOL    HW212105   3.868   0.566   2.572
 3736SOL     OW12106   6.605   0.823   1.219
 3736SOL    HW112107   6.672   0.750   1.230
 3736SOL    HW212108   6.633   0.903   1.272
 3737SOL     OW12109   5.843   2.250   3.968
 3737SOL    HW112110   5.778   2.260   4.043
 3737SOL    HW212111   5.792   2.239   3.882
 3738SOL     OW12112   6.363   5.958   0.709
 3738SOL    HW112113   6.276   5.924   0.675
 3738SOL    HW212114   6.409   6.010   0.637
 3739SOL     OW12115   2.904   4.433   1.524
 3739SOL    HW112116   2.848   4.477   1.454
 3739SOL    HW212117   2.896   4.483   1.610
 3740SOL     OW12118   6.037   5.765   0.198
 3740SOL    HW112119   6.063   5.861   0.199
 3740SOL    HW212120   6.079   5.719   0.277
 3741SOL     OW12121   4.769   3.442   6.933
 3741SOL    HW112122   4.844   3.436   6.999
 3741SOL    HW212123   4.769   3.360   6.875
 3742SOL     OW12124   4.874   5.909   0.450
 3742SOL    HW112125   4.874   5.945   0.543
 3742SOL    HW212126   4.806   5.836   0.442
 3743SOL     OW12127   4.757   4.410   1.446
 3743SOL    HW112128   4.694   4.348   1.493
 3743SOL    HW212129   4.712   4.499   1.433
 3744SOL     OW12130   0.815   6.273   2.486
 3744SOL    HW112131   0.825   6.355   2.429
 3744SOL    HW212132   0.835   6.296   2.581
 3745SOL     OW12133   4.755   4.043   2.259
 3745SOL    HW112134   4.705   4.093   2.187
 3745SOL    HW212135   4.790   4.108   2.326
 3746SOL     OW12136   6.698   0.481   3.175
 3746SOL    HW112137   6.638   0.560   3.169
 3746SOL    HW212138   6.786   0.503   3.132
 3747SOL     OW12139   5.159   6.255   5.646
 3747SOL    HW112140   5.168   6.259   5.746
 3747SOL    HW212141   5.062   6.249   5.622
 3748SOL     OW12142   5.852   0.593   2.059
 3748SOL    HW112143   5.924   0.656   2.030
 3748SOL    HW212144   5.893   0.509   2.094
 3749SOL     OW12145   1.654   5.066   3.052
 3749SOL    HW112146   1.658   5.013   2.967
 3749SOL    HW212147   1.744   5.066   3.095
 3750SOL     OW12148   5.583   4.696   0.920
 3750SOL    HW112149   5.521   4.618   0.929
 3750SOL    HW212150   5.623   4.696   0.828
 3751SOL     OW12151   0.372   2.236   0.825
 3751SOL    HW112152   0.462   2.265   0.794
 3751SOL    HW212153   0.377   2.208   0.921
 3752SOL     OW12154   0.419   6.986   0.057
 3752SOL    HW112155   0.354   6.920   0.095
 3752SOL    HW212156   0.506   6.980   0.106
 3753SOL     OW12157   0.436   6.587   4.984
 3753SOL    HW112158   0.462   6.672   4.938
 3753SOL    HW212159   0.360   6.544   4.936
 3754SOL     OW12160   5.332   6.638   1.462
 3754SOL    HW112161   5.337   6.686   1.374
 3754SOL    HW212162   5.246   6.586   1.466
 3755SOL     OW12163   5.553   5.363   4.522
 3755SOL    HW112164   5.604   5.287   4.562
 3755SOL    HW212165   5.551   5.353   4.422
 3756SOL     OW12166   2.006   0.580   6.079
 3756SOL    HW112167   2.022   0.491   6.037
 3756SOL    HW212168   1.971   0.568   6.172
 3757SOL     OW12169   3.389   5.857   5.837
 3757SOL    HW112170   3.433   5.934   5.884
 3757SOL    HW212171   3.374   5.881   5.741
 3758SOL     OW12172   1.586   1.531   4.769
 3758SOL    HW112173   1.508   1.470   4.783
 3758SOL    HW212174   1.668   1.491   4.809
 3759SOL     OW12175   4.396   5.101   5.568
 3759SOL    HW112176   4.325   5.096   5.498
 3759SOL    HW212177   4.462   5.172   5.543
 3760SOL     OW12178   1.328   4.109   3.892
 3760SOL    HW112179   1.424   4.080   3.890
 3760SOL    HW212180   1.286   4.092   3.803
 3761SOL     OW12181   0.875   6.693   4.959
 3761SOL    HW112182   0.804   6.719   4.894
 3761SOL    HW212183   0.901   6.598   4.943
 3762SOL     OW12184   0.920   4.921   6.994
 3762SOL    HW112185   0.948   4.930   6.899
 3762SOL    HW212186   0.876   5.005   0.007
 3763SOL     OW12187   6.993   4.823   0.195
 3763SOL    HW112188   6.949   4.846   0.108
 3763SOL    HW212189   6.965   4.732   0.223
 3764SOL     OW12190   1.795   0.831   4.771
 3764SOL    HW112191   1.816   0.820   4.674
 3764SOL    HW212192   1.816   0.925   4.800
 3765SOL     OW12193   4.872   0.800   1.832
 3765SOL    HW112194   4.953   0.851   1.804
 3765SOL    HW212195   4.884   0.769   1.927
 3766SOL     OW12196   0.409   0.605   4.467
 3766SOL    HW112197   0.417   0.644   4.376
 3766SOL    HW212198   0.446   0.511   4.467
 3767SOL     OW12199   2.321   4.668   0.148
 3767SOL    HW112200   2.393   4.613   0.107
 3767SOL    HW212201   2.357   4.715   0.229
 3768SOL     OW12202   3.255   5.964   6.165
 3768SOL    HW112203   3.202   5.882   6.144
 3768SOL    HW212204   3.193   6.040   6.184
 3769SOL     OW12205   5.590   5.949   5.054
 3769SOL    HW112206   5.579   6.045   5.078
 3769SOL    HW212207   5.679   5.916   5.085
 3770SOL     OW12208   1.901   0.107   6.666
 3770SOL    HW112209   1.934   0.028   6.616
 3770SOL    HW212210   1.866   0.077   6.755
 3771SOL     OW12211   5.178   1.813   0.577
 3771SOL    HW112212   5.189   1.717   0.605
 3771SOL    HW212213   5.104   1.855   0.631
 3772SOL     OW12214   6.286   1.338   0.901
 3772SOL    HW112215   6.353   1.398   0.857
 3772SOL    HW212216   6.251   1.383   0.984
 3773SOL     OW12217   5.322   2.836   6.206
 3773SOL    HW112218   5.277   2.814   6.120
 3773SOL    HW212219   5.276   2.914   6.248
 3774SOL     OW12220   1.204   6.739   0.186
 3774SOL    HW112221   1.232   6.801   0.112
 3774SOL    HW212222   1.257   6.654   0.179
 3775SOL     OW12223   5.167   3.696   2.259
 3775SOL    HW112224   5.232   3.752   2.207
 3775SOL    HW212225   5.094   3.755   2.295
 3776SOL     OW12226   3.035   1.354   1.535
 3776SOL    HW112227   3.003   1.340   1.441
 3776SOL    HW212228   3.101   1.429   1.536
 3777SOL     OW12229   2.699   4.873   4.395
 3777SOL    HW112230   2.658   4.878   4.486
 3777SOL    HW212231   2.778   4.934   4.391
 3778SOL     OW12232   2.183   5.996   3.076
 3778SOL    HW112233   2.194   5.902   3.107
 3778SOL    HW212234   2.167   5.997   2.977
 3779SOL     OW12235   2.730   4.906   6.843
 3779SOL    HW112236   2.714   4.844   6.920
 3779SOL    HW212237   2.677   4.875   6.764
 3780SOL     OW12238   3.775   5.200   4.963
 3780SOL    HW112239   3.732   5.120   4.921
 3780SOL    HW212240   3.791   5.182   5.060
 3781SOL     OW12241   1.654   6.815   4.163
 3781SOL    HW112242   1.616   6.723   4.151
 3781SOL    HW212243   1.715   6.836   4.086
 3782SOL     OW12244   2.617   2.129   4.324
 3782SOL    HW112245   2.692   2.151   4.386
 3782SOL    HW212246   2.639   2.158   4.231
 3783SOL     OW12247   6.581   6.610   4.922
 3783SOL    HW112248   6.673   6.647   4.937
 3783SOL    HW212249   6.588   6.514   4.896
 3784SOL     OW12250   4.526   1.526   3.190
 3784SOL    HW112251   4.618   1.489   3.183
 3784SOL    HW212252   4.462   1.467   3.141
 3785SOL     OW12253   2.355   1.260   6.659
 3785SOL    HW112254   2.275   1.211   6.693
 3785SOL    HW212255   2.353   1.354   6.694
 3786SOL     OW12256   3.080   5.967   3.150
 3786SOL    HW112257   3.128   5.881   3.167
 3786SOL    HW212258   2.999   5.971   3.209
 3787SOL     OW12259   5.606   6.197   3.563
 3787SOL    HW112260   5.622   6.186   3.465
 3787SOL    HW212261   5.682   6.157   3.614
 3788SOL     OW12262   0.170   2.910   3.567
 3788SOL    HW112263   0.157   2.993   3.513
 3788SOL    HW212264   0.207   2.934   3.656
 3789SOL     OW12265   1.709   4.204   3.725
 3789SOL    HW112266   1.787   4.250   3.768
 3789SOL    HW212267   1.625   4.254   3.748
 3790SOL     OW12268   1.619   3.673   5.047
 3790SOL    HW112269   1.529   3.638   5.073
 3790SOL    HW212270   1.620   3.772   5.056
 3791SOL     OW12271   5.874   0.145   1.090
 3791SOL    HW112272   5.947   0.148   1.158
 3791SOL    HW212273   5.871   0.232   1.041
 3792SOL     OW12274   6.720   0.543   4.570
 3792SOL    HW112275   6.637   0.544   4.515
 3792SOL    HW212276   6.707   0.482   4.648
 3793SOL     OW12277   2.540   0.265   2.980
 3793SOL    HW112278   2.538   0.364   2.998
 3793SOL    HW212279   2.464   0.241   2.919
 3794SOL     OW12280   3.775   5.107   1.676
 3794SOL    HW112281   3.849   5.126   1.740
 3794SOL    HW212282   3.746   5.012   1.685
 3795SOL     OW12283   4.046   6.413   6.963
 3795SOL    HW112284   4.014   6.475   6.891
 3795SOL    HW212285   4.109   6.462   0.005
 3796SOL     OW12286   2.092   2.297   1.583
 3796SOL    HW112287   2.039   2.373   1.546
 3796SOL    HW212288   2.181   2.331   1.613
 3797SOL     OW12289   6.782   5.306   2.659
 3797SOL    HW112290   6.799   5.367   2.582
 3797SOL    HW212291   6.867   5.262   2.687
 3798SOL     OW12292   2.758   5.002   3.437
 3798SOL    HW112293   2.848   4.987   3.395
 3798SOL    HW212294   2.691   4.940   3.396
 3799SOL     OW12295   0.806   2.405   4.546
 3799SOL    HW112296   0.822   2.310   4.520
 3799SOL    HW212297   0.717   2.435   4.512
 3800SOL     OW12298   5.335   2.287   5.014
 3800SOL    HW112299   5.405   2.216   5.013
 3800SOL    HW212300   5.248   2.249   5.045
 3801SOL     OW12301   6.975   6.216   4.993
 3801SOL    HW112302   6.955   6.309   5.024
 3801SOL    HW212303   6.906   6.153   5.030
 3802SOL     OW12304   0.722   1.702   4.756
 3802SOL    HW112305   0.777   1.774   4.798
 3802SOL    HW212306   0.625   1.725   4.764
 3803SOL     OW12307   3.441   1.503   1.915
 3803SOL    HW112308   3.502   1.492   1.837
 3803SOL    HW212309   3.359   1.447   1.902
 3804SOL     OW12310   5.122   2.415   4.482
 3804SOL    HW112311   5.040   2.363   4.459
 3804SOL    HW212312   5.096   2.501   4.526
 3805SOL     OW12313   2.902   3.796   1.712
 3805SOL    HW112314   2.949   3.884   1.717
 3805SOL    HW212315   2.959   3.725   1.752
 3806SOL     OW12316   2.494   2.789   0.004
 3806SOL    HW112317   2.581   2.832   6.995
 3806SOL    HW212318   2.464   2.828   0.091
 3807SOL     OW12319   2.286   1.679   4.685
 3807SOL    HW112320   2.318   1.588   4.712
 3807SOL    HW212321   2.229   1.671   4.602
 3808SOL     OW12322   3.120   1.000   1.939
 3808SOL    HW112323   3.027   1.035   1.940
 3808SOL    HW212324   3.127   0.928   1.869
 3809SOL     OW12325   6.032   1.839   0.037
 3809SOL    HW112326   6.035   1.915   6.990
 3809SOL    HW212327   6.067   1.756   7.011
 3810SOL     OW12328   4.017   2.776   5.540
 3810SOL    HW112329   3.965   2.856   5.508
 3810SOL    HW212330   3.960   2.694   5.532
 3811SOL     OW12331   1.162   4.508   4.661
 3811SOL    HW112332   1.258   4.526   4.684
 3811SOL    HW212333   1.153   4.414   4.627
 3812SOL     OW12334   5.680   1.730   5.565
 3812SOL    HW112335   5.716   1.819   5.592
 3812SOL    HW212336   5.619   1.695   5.637
 3813SOL     OW12337   4.340   4.549   1.252
 3813SOL    HW112338   4.394   4.627   1.220
 3813SOL    HW212339   4.401   4.477   1.284
 3814SOL     OW12340   0.326   6.427   0.932
 3814SOL    HW112341   0.237   6.463   0.961
 3814SOL    HW212342   0.312   6.363   0.856
 3815SOL     OW12343   4.438   2.108   0.713
 3815SOL    HW112344   4.483   2.145   0.794
 3815SOL    HW212345   4.429   2.179   0.644
 3816SOL     OW12346   0.134   6.808   1.404
 3816SOL    HW112347   0.215   6.858   1.374
 3816SOL    HW212348   0.104   6.844   1.493
 3817SOL     OW12349   4.800   2.986   3.945
 3817SOL    HW112350   4.864   2.940   3.883
 3817SOL    HW212351   4.814   3.085   3.940
 3818SOL     OW12352   4.818   6.713   1.608
 3818SOL    HW112353   4.804   6.737   1.704
 3818SOL    HW212354   4.842   6.617   1.601
 3819SOL     OW12355   5.257   4.594   0.951
 3819SOL    HW112356   5.297   4.521   0.896
 3819SOL    HW212357   5.179   4.633   0.904
 3820SOL     OW12358   6.227   6.664   3.638
 3820SOL    HW112359   6.143   6.717   3.630
 3820SOL    HW212360   6.209   6.569   3.614
 3821SOL     OW12361   1.604   3.133   2.015
 3821SOL    HW112362   1.679   3.186   1.977
 3821SOL    HW212363   1.584   3.166   2.108
 3822SOL     OW12364   1.028   5.461   2.222
 3822SOL    HW112365   0.971   5.521   2.166
 3822SOL    HW212366   1.018   5.367   2.192
 3823SOL     OW12367   3.947   2.170   5.129
 3823SOL    HW112368   3.982   2.143   5.039
 3823SOL    HW212369   3.937   2.088   5.186
 3824SOL     OW12370   5.994   1.871   5.676
 3824SOL    HW112371   5.961   1.817   5.754
 3824SOL    HW212372   5.934   1.950   5.663
 3825SOL     OW12373   0.209   0.330   0.093
 3825SOL    HW112374   0.112   0.324   0.119
 3825SOL    HW212375   0.226   0.420   0.052
 3826SOL     OW12376   0.343   3.699   6.984
 3826SOL    HW112377   0.408   3.653   6.924
 3826SOL    HW212378   0.391   3.772   0.016
 3827SOL     OW12379   3.625   3.763   1.210
 3827SOL    HW112380   3.633   3.676   1.259
 3827SOL    HW212381   3.599   3.746   1.115
 3828SOL     OW12382   4.417   2.453   1.182
 3828SOL    HW112383   4.385   2.535   1.134
 3828SOL    HW212384   4.496   2.476   1.239
 3829SOL     OW12385   2.325   5.051   4.056
 3829SOL    HW112386   2.283   5.099   3.979
 3829SOL    HW212387   2.423   5.040   4.039
 3830SOL     OW12388   1.043   0.116   5.020
 3830SOL    HW112389   1.058   0.150   5.113
 3830SOL    HW212390   0.967   0.052   5.020
 3831SOL     OW12391   4.714   1.669   2.556
 3831SOL    HW112392   4.695   1.576   2.526
 3831SOL    HW212393   4.698   1.733   2.481
 3832SOL     OW12394   6.309   0.603   2.136
 3832SOL    HW112395   6.353   0.643   2.216
 3832SOL    HW212396   6.367   0.615   2.056
 3833SOL     OW12397   1.063   5.550   6.566
 3833SOL    HW112398   0.977   5.506   6.541
 3833SOL    HW212399   1.058   5.647   6.543
 3834SOL     OW12400   3.159   2.331   6.998
 3834SOL    HW112401   3.145   2.314   0.078
 3834SOL    HW212402   3.246   2.291   6.970
 3835SOL     OW12403   3.357   5.201   5.550
 3835SOL    HW112404   3.446   5.160   5.533
 3835SOL    HW212405   3.322   5.172   5.639
 3836SOL     OW12406   2.238   3.291   5.153
 3836SOL    HW112407   2.227   3.248   5.063
 3836SOL    HW212408   2.167   3.257   5.215
 3837SOL     OW12409   4.771   3.438   0.670
 3837SOL    HW112410   4.701   3.505   0.644
 3837SOL    HW212411   4.850   3.486   0.708
 3838SOL     OW12412   5.588   3.593   4.706
 3838SOL    HW112413   5.606   3.579   4.608
 3838SOL    HW212414   5.674   3.603   4.755
 3839SOL     OW12415   4.594   0.118   4.838
 3839SOL    HW112416   4.620   0.102   4.933
 3839SOL    HW212417   4.505   0.164   4.835
 3840SOL     OW12418   1.058   0.667   5.515
 3840SOL    HW112419   1.029   0.578   5.481
 3840SOL    HW212420   1.011   0.740   5.465
 3841SOL     OW12421   0.242   3.840   5.171
 3841SOL    HW112422   0.298   3.923   5.164
 3841SOL    HW212423   0.252   3.802   5.263
 3842SOL     OW12424   0.976   5.479   0.314
 3842SOL    HW112425   0.893   5.535   0.318
 3842SOL    HW212426   0.955   5.385   0.341
 3843SOL     OW12427   6.934   3.113   1.049
 3843SOL    HW112428   6.921   3.140   0.954
 3843SOL    HW212429   6.845   3.088   1.089
 3844SOL     OW12430   1.184   4.942   5.776
 3844SOL    HW112431   1.106   4.963   5.718
 3844SOL    HW212432   1.206   4.845   5.769
 3845SOL     OW12433   3.319   2.894   2.644
 3845SOL    HW112434   3.298   2.893   2.741
 3845SOL    HW212435   3.266   2.966   2.598
 3846SOL     OW12436   0.254   4.894   4.148
 3846SOL    HW112437   0.281   4.953   4.072
 3846SOL    HW212438   0.311   4.812   4.148
 3847SOL     OW12439   6.065   0.829   6.143
 3847SOL    HW112440   6.112   0.909   6.180
 3847SOL    HW212441   6.123   0.786   6.074
 3848SOL     OW12442   2.007   5.594   3.060
 3848SOL    HW112443   1.981   5.529   2.988
 3848SOL    HW212444   1.970   5.562   3.148
 3849SOL     OW12445   0.562   1.572   5.741
 3849SOL    HW112446   0.504   1.591   5.662
 3849SOL    HW212447   0.532   1.627   5.819
 3850SOL     OW12448   2.611   3.395   1.700
 3850SOL    HW112449   2.582   3.453   1.624
 3850SOL    HW212450   2.544   3.401   1.774
 3851SOL     OW12451   1.899   4.322   2.716
 3851SOL    HW112452   1.957   4.370   2.781
 3851SOL    HW212453   1.862   4.239   2.759
 3852SOL     OW12454   4.319   6.446   4.940
 3852SOL    HW112455   4.254   6.454   5.015
 3852SOL    HW212456   4.269   6.440   4.853
 3853SOL     OW12457   0.829   3.276   2.444
 3853SOL    HW112458   0.857   3.180   2.441
 3853SOL    HW212459   0.901   3.330   2.490
 3854SOL     OW12460   0.991   3.391   3.313
 3854SOL    HW112461   0.910   3.432   3.356
 3854SOL    HW212462   1.071   3.408   3.370
 3855SOL     OW12463   5.978   4.576   6.338
 3855SOL    HW112464   6.068   4.616   6.324
 3855SOL    HW212465   5.915   4.610   6.268
 3856SOL     OW12466   0.152   0.273   5.938
 3856SOL    HW112467   0.194   0.310   5.855
 3856SOL    HW212468   0.080   0.209   5.913
 3857SOL     OW12469   1.569   6.827   4.909
 3857SOL    HW112470   1.594   6.924   4.914
 3857SOL    HW212471   1.517   6.802   4.991
 3858SOL     OW12472   1.320   6.034   6.089
 3858SOL    HW112473   1.344   5.948   6.043
 3858SOL    HW212474   1.247   6.079   6.038
 3859SOL     OW12475   6.767   2.365   3.846
 3859SOL    HW112476   6.842   2.301   3.859
 3859SOL    HW212477   6.802   2.451   3.809
 3860SOL     OW12478   2.448   6.036   4.383
 3860SOL    HW112479   2.524   5.972   4.371
 3860SOL    HW212480   2.410   6.025   4.475
 3861SOL     OW12481   5.563   4.833   1.408
 3861SOL    HW112482   5.610   4.911   1.367
 3861SOL    HW212483   5.474   4.862   1.442
 3862SOL     OW12484   6.895   0.126   6.463
 3862SOL    HW112485   6.960   0.130   6.539
 3862SOL    HW212486   6.936   0.167   6.382
 3863SOL     OW12487   3.196   3.628   6.976
 3863SOL    HW112488   3.264   3.692   7.015
 3863SOL    HW212489   3.166   3.662   6.887
 3864SOL     OW12490   4.519   1.944   6.363
 3864SOL    HW112491   4.472   1.988   6.287
 3864SOL    HW212492   4.454   1.887   6.414
 3865SOL     OW12493   3.579   0.478   2.364
 3865SOL    HW112494   3.579   0.568   2.322
 3865SOL    HW212495   3.491   0.461   2.407
 3866SOL     OW12496   4.083   0.645   0.368
 3866SOL    HW112497   4.020   0.682   0.437
 3866SOL    HW212498   4.120   0.558   0.400
 3867SOL     OW12499   1.914   3.704   3.432
 3867SOL    HW112500   2.002   3.661   3.454
 3867SOL    HW212501   1.925   3.764   3.353
 3868SOL     OW12502   2.082   5.835   1.755
 3868SOL    HW112503   2.060   5.756   1.812
 3868SOL    HW212504   1.997   5.880   1.726
 3869SOL     OW12505   0.167   2.655   3.985
 3869SOL    HW112506   0.077   2.693   3.962
 3869SOL    HW212507   0.219   2.639   3.901
 3870SOL     OW12508   3.150   5.059   6.540
 3870SOL    HW112509   3.176   4.986   6.476
 3870SOL    HW212510   3.056   5.088   6.519
 3871SOL     OW12511   3.099   0.092   3.066
 3871SOL    HW112512   3.121   0.151   2.988
 3871SOL    HW212513   3.104   7.014   3.038
 3872SOL     OW12514   3.564   3.512   1.327
 3872SOL    HW112515   3.587   3.475   1.417
 3872SOL    HW212516   3.466   3.532   1.323
 3873SOL     OW12517   5.140   5.279   1.225
 3873SOL    HW112518   5.068   5.340   1.191
 3873SOL    HW212519   5.114   5.184   1.208
 3874SOL     OW12520   4.601   6.338   6.787
 3874SOL    HW112521   4.657   6.386   6.854
 3874SOL    HW212522   4.586   6.244   6.817
 3875SOL     OW12523   1.481   3.790   2.482
 3875SOL    HW112524   1.428   3.867   2.518
 3875SOL    HW212525   1.517   3.814   2.392
 3876SOL     OW12526   5.585   4.815   5.713
 3876SOL    HW112527   5.620   4.869   5.637
 3876SOL    HW212528   5.590   4.869   5.797
 3877SOL     OW12529   5.771   1.023   1.577
 3877SOL    HW112530   5.679   1.055   1.599
 3877SOL    HW212531   5.766   0.934   1.533
 3878SOL     OW12532   3.767   6.720   6.257
 3878SOL    HW112533   3.828   6.719   6.337
 3878SOL    HW212534   3.810   6.670   6.182
 3879SOL     OW12535   4.689   5.474   1.004
 3879SOL    HW112536   4.640   5.436   0.925
 3879SOL    HW212537   4.682   5.573   1.003
 3880SOL     OW12538   6.013   3.975   2.397
 3880SOL    HW112539   6.004   4.012   2.489
 3880SOL    HW212540   6.074   4.033   2.343
 3881SOL     OW12541   1.822   5.258   0.667
 3881SOL    HW112542   1.789   5.187   0.604
 3881SOL    HW212543   1.802   5.231   0.761
 3882SOL     OW12544   6.360   1.251   6.108
 3882SOL    HW112545   6.400   1.279   6.020
 3882SOL    HW212546   6.272   1.206   6.091
 3883SOL     OW12547   4.763   1.348   3.868
 3883SOL    HW112548   4.750   1.432   3.815
 3883SOL    HW212549   4.686   1.286   3.851
 3884SOL     OW12550   1.804   6.117   5.093
 3884SOL    HW112551   1.859   6.200   5.107
 3884SOL    HW212552   1.717   6.142   5.052
 3885SOL     OW12553   6.877   1.133   4.170
 3885SOL    HW112554   6.909   1.175   4.085
 3885SOL    HW212555   6.779   1.112   4.162
 3886SOL     OW12556   6.968   0.286   5.568
 3886SOL    HW112557   6.919   0.372   5.587
 3886SOL    HW212558   0.038   0.306   5.525
 3887SOL     OW12559   3.760   1.664   5.551
 3887SOL    HW112560   3.693   1.618   5.492
 3887SOL    HW212561   3.735   1.652   5.647
 3888SOL     OW12562   6.429   1.532   0.626
 3888SOL    HW112563   6.354   1.512   0.562
 3888SOL    HW212564   6.395   1.590   0.700
 3889SOL     OW12565   0.734   5.491   6.229
 3889SOL    HW112566   0.797   5.437   6.173
 3889SOL    HW212567   0.641   5.481   6.193
 3890SOL     OW12568   5.326   5.320   3.301
 3890SOL    HW112569   5.297   5.293   3.209
 3890SOL    HW212570   5.426   5.332   3.302
 3891SOL     OW12571   4.947   5.651   4.861
 3891SOL    HW112572   4.929   5.730   4.920
 3891SOL    HW212573   5.038   5.615   4.881
 3892SOL     OW12574   6.238   6.613   3.011
 3892SOL    HW112575   6.221   6.545   2.940
 3892SOL    HW212576   6.190   6.698   2.988
 3893SOL     OW12577   3.302   5.575   3.874
 3893SOL    HW112578   3.295   5.620   3.963
 3893SOL    HW212579   3.289   5.642   3.802
 3894SOL     OW12580   4.599   3.233   0.672
 3894SOL    HW112581   4.626   3.142   0.639
 3894SOL    HW212582   4.669   3.300   0.646
 3895SOL     OW12583   1.316   0.743   5.617
 3895SOL    HW112584   1.227   0.702   5.596
 3895SOL    HW212585   1.340   0.724   5.712
 3896SOL     OW12586   0.009   2.570   5.547
 3896SOL    HW112587   6.940   2.606   5.582
 3896SOL    HW212588   7.008   2.498   5.480
 3897SOL     OW12589   3.174   6.770   2.208
 3897SOL    HW112590   3.084   6.751   2.171
 3897SOL    HW212591   3.212   6.851   2.163
 3898SOL     OW12592   4.030   3.359   4.301
 3898SOL    HW112593   4.052   3.273   4.256
 3898SOL    HW212594   3.978   3.417   4.239
 3899SOL     OW12595   4.811   1.255   5.817
 3899SOL    HW112596   4.859   1.328   5.867
 3899SOL    HW212597   4.713   1.272   5.821
 3900SOL     OW12598   6.531   2.284   3.297
 3900SOL    HW112599   6.554   2.362   3.355
 3900SOL    HW212600   6.547   2.308   3.202
 3901SOL     OW12601   1.301   6.598   4.787
 3901SOL    HW112602   1.360   6.539   4.843
 3901SOL    HW212603   1.293   6.560   4.695
 3902SOL     OW12604   5.088   5.041   1.442
 3902SOL    HW112605   5.091   4.972   1.371
 3902SOL    HW212606   5.114   5.130   1.403
 3903SOL     OW12607   4.335   2.623   0.560
 3903SOL    HW112608   4.378   2.705   0.522
 3903SOL    HW212609   4.398   2.579   0.625
 3904SOL     OW12610   1.028   6.828   0.861
 3904SOL    HW112611   1.016   6.885   0.943
 3904SOL    HW212612   1.018   6.731   0.886
 3905SOL     OW12613   6.741   6.953   5.821
 3905SOL    HW112614   6.668   7.003   5.775
 3905SOL    HW212615   6.709   6.923   5.911
 3906SOL     OW12616   1.849   5.146   4.227
 3906SOL    HW112617   1.822   5.241   4.209
 3906SOL    HW212618   1.778   5.084   4.193
 3907SOL     OW12619   0.120   1.388   4.493
 3907SOL    HW112620   0.217   1.396   4.515
 3907SOL    HW212621   0.082   1.479   4.476
 3908SOL     OW12622   1.054   0.833   5.158
 3908SOL    HW112623   1.097   0.745   5.139
 3908SOL    HW212624   0.957   0.829   5.132
 3909SOL     OW12625   5.142   2.847   5.939
 3909SOL    HW112626   5.131   2.947   5.934
 3909SOL    HW212627   5.053   2.805   5.958
 3910SOL     OW12628   3.334   2.878   0.464
 3910SOL    HW112629   3.255   2.868   0.524
 3910SOL    HW212630   3.388   2.958   0.493
 3911SOL     OW12631   5.983   1.229   1.545
 3911SOL    HW112632   5.890   1.191   1.542
 3911SOL    HW212633   5.993   1.287   1.626
 3912SOL     OW12634   4.027   2.065   0.473
 3912SOL    HW112635   4.023   1.966   0.484
 3912SOL    HW212636   4.103   2.089   0.412
 3913SOL     OW12637   4.546   5.873   0.618
 3913SOL    HW112638   4.545   5.923   0.704
 3913SOL    HW212639   4.456   5.881   0.574
 3914SOL     OW12640   5.766   0.563   0.937
 3914SOL    HW112641   5.741   0.632   0.870
 3914SOL    HW212642   5.785   0.476   0.890
 3915SOL     OW12643   4.948   5.199   0.189
 3915SOL    HW112644   4.863   5.231   0.230
 3915SOL    HW212645   5.018   5.190   0.260
 3916SOL     OW12646   1.722   0.808   2.622
 3916SOL    HW112647   1.812   0.824   2.582
 3916SOL    HW212648   1.732   0.757   2.708
 3917SOL     OW12649   3.137   4.652   0.458
 3917SOL    HW112650   3.083   4.605   0.528
 3917SOL    HW212651   3.194   4.722   0.500
 3918SOL     OW12652   5.402   6.932   0.666
 3918SOL    HW112653   5.354   7.017   0.687
 3918SOL    HW212654   5.477   6.919   0.731
 3919SOL     OW12655   3.903   0.569   1.260
 3919SOL    HW112656   3.963   0.624   1.201
 3919SOL    HW212657   3.831   0.628   1.298
 3920SOL     OW12658   3.513   0.759   5.840
 3920SOL    HW112659   3.605   0.721   5.848
 3920SOL    HW212660   3.456   0.697   5.787
 3921SOL     OW12661   0.752   2.610   6.082
 3921SOL    HW112662   0.711   2.579   5.996
 3921SOL    HW212663   0.815   2.685   6.065
 3922SOL     OW12664   3.998   5.118   2.173
 3922SOL    HW112665   4.096   5.128   2.184
 3922SOL    HW212666   3.966   5.181   2.102
 3923SOL     OW12667   4.974   0.621   1.651
 3923SOL    HW112668   4.994   0.673   1.568
 3923SOL    HW212669   4.916   0.677   1.711
 3924SOL     OW12670   6.175   4.391   4.547
 3924SOL    HW112671   6.226   4.471   4.515
 3924SOL    HW212672   6.114   4.418   4.621
 3925SOL     OW12673   4.649   3.780   0.703
 3925SOL    HW112674   4.679   3.788   0.799
 3925SOL    HW212675   4.590   3.700   0.693
 3926SOL     OW12676   0.443   0.309   5.369
 3926SOL    HW112677   0.498   0.281   5.448
 3926SOL    HW212678   0.424   0.407   5.375
 3927SOL     OW12679   6.913   2.647   5.108
 3927SOL    HW112680   6.929   2.739   5.143
 3927SOL    HW212681   6.849   2.650   5.032
 3928SOL     OW12682   2.240   6.315   2.984
 3928SOL    HW112683   2.146   6.313   3.018
 3928SOL    HW212684   2.303   6.315   3.061
 3929SOL     OW12685   0.444   2.026   4.995
 3929SOL    HW112686   0.439   1.942   4.941
 3929SOL    HW212687   0.540   2.056   5.002
 3930SOL     OW12688   1.359   3.469   3.893
 3930SOL    HW112689   1.315   3.447   3.806
 3930SOL    HW212690   1.406   3.557   3.885
 3931SOL     OW12691   1.154   2.174   1.623
 3931SOL    HW112692   1.230   2.175   1.688
 3931SOL    HW212693   1.075   2.129   1.664
 3932SOL     OW12694   1.465   5.725   4.237
 3932SOL    HW112695   1.413   5.740   4.153
 3932SOL    HW212696   1.542   5.787   4.239
 3933SOL     OW12697   1.860   5.065   0.460
 3933SOL    HW112698   1.873   4.971   0.428
 3933SOL    HW212699   1.947   5.101   0.493
 3934SOL     OW12700   0.581   1.559   1.992
 3934SOL    HW112701   0.520   1.499   1.940
 3934SOL    HW212702   0.530   1.599   2.068
 3935SOL     OW12703   6.304   3.330   7.012
 3935SOL    HW112704   6.287   3.328   6.914
 3935SOL    HW212705   6.273   3.244   0.035
 3936SOL     OW12706   0.044   5.001   5.508
 3936SOL    HW112707   0.082   5.080   5.557
 3936SOL    HW212708   0.079   4.998   5.415
 3937SOL     OW12709   7.015   6.888   2.478
 3937SOL    HW112710   7.015   6.849   2.570
 3937SOL    HW212711   0.088   6.880   2.438
 3938SOL     OW12712   0.044   4.213   2.921
 3938SOL    HW112713   0.054   4.147   2.995
 3938SOL    HW212714   7.010   4.292   2.955
 3939SOL     OW12715   0.616   1.140   2.549
 3939SOL    HW112716   0.598   1.085   2.467
 3939SOL    HW212717   0.678   1.215   2.525
 3940SOL     OW12718   3.334   4.773   1.253
 3940SOL    HW112719   3.262   4.842   1.260
 3940SOL    HW212720   3.327   4.710   1.330
 3941SOL     OW12721   5.985   6.296   4.292
 3941SOL    HW112722   5.987   6.377   4.350
 3941SOL    HW212723   5.984   6.214   4.349
 3942SOL     OW12724   0.924   5.856   6.614
 3942SOL    HW112725   0.977   5.854   6.529
 3942SOL    HW212726   0.844   5.798   6.605
 3943SOL     OW12727   1.382   3.146   0.619
 3943SOL    HW112728   1.292   3.187   0.602
 3943SOL    HW212729   1.399   3.142   0.717
 3944SOL     OW12730   6.390   1.867   6.346
 3944SOL    HW112731   6.324   1.879   6.272
 3944SOL    HW212732   6.345   1.824   6.425
 3945SOL     OW12733   6.845   1.138   2.883
 3945SOL    HW112734   6.930   1.115   2.837
 3945SOL    HW212735   6.854   1.228   2.926
 3946SOL     OW12736   1.001   2.987   0.449
 3946SOL    HW112737   1.077   2.939   0.494
 3946SOL    HW212738   0.953   2.923   0.389
 3947SOL     OW12739   6.313   5.471   0.986
 3947SOL    HW112740   6.232   5.434   1.031
 3947SOL    HW212741   6.333   5.417   0.904
 3948SOL     OW12742   1.730   2.465   5.787
 3948SOL    HW112743   1.779   2.432   5.867
 3948SOL    HW212744   1.794   2.482   5.713
 3949SOL     OW12745   6.389   6.266   2.682
 3949SOL    HW112746   6.315   6.300   2.623
 3949SOL    HW212747   6.360   6.182   2.727
 3950SOL     OW12748   3.348   4.230   1.372
 3950SOL    HW112749   3.254   4.261   1.357
 3950SOL    HW212750   3.409   4.309   1.370
 3951SOL     OW12751   0.700   1.613   5.154
 3951SOL    HW112752   0.718   1.584   5.248
 3951SOL    HW212753   0.638   1.691   5.155
 3952SOL     OW12754   6.720   3.588   5.692
 3952SOL    HW112755   6.665   3.536   5.627
 3952SOL    HW212756   6.662   3.621   5.766
 3953SOL     OW12757   3.507   4.294   5.896
 3953SOL    HW112758   3.420   4.253   5.870
 3953SOL    HW212759   3.577   4.223   5.903
 3954SOL     OW12760   1.256   4.056   5.715
 3954SOL    HW112761   1.171   4.103   5.737
 3954SOL    HW212762   1.334   4.115   5.737
 3955SOL     OW12763   5.483   5.159   0.087
 3955SOL    HW112764   5.572   5.191   0.053
 3955SOL    HW212765   5.410   5.207   0.039
 3956SOL     OW12766   0.514   3.203   5.972
 3956SOL    HW112767   0.569   3.239   5.897
 3956SOL    HW212768   0.565   3.132   6.020
 3957SOL     OW12769   1.884   0.144   3.959
 3957SOL    HW112770   1.980   0.155   3.933
 3957SOL    HW212771   1.872   0.165   4.056
 3958SOL     OW12772   5.949   6.317   5.425
 3958SOL    HW112773   5.873   6.252   5.428
 3958SOL    HW212774   5.965   6.354   5.516
 3959SOL     OW12775   3.236   4.878   0.168
 3959SOL    HW112776   3.271   4.924   0.250
 3959SOL    HW212777   3.295   4.898   0.090
 3960SOL     OW12778   4.033   3.348   0.229
 3960SOL    HW112779   3.976   3.286   0.282
 3960SOL    HW212780   4.129   3.325   0.243
 3961SOL     OW12781   4.571   0.437   1.165
 3961SOL    HW112782   4.506   0.362   1.157
 3961SOL    HW212783   4.551   0.490   1.248
 3962SOL     OW12784   0.792   0.307   6.499
 3962SOL    HW112785   0.805   0.228   6.558
 3962SOL    HW212786   0.776   0.389   6.555
 3963SOL     OW12787   4.320   5.831   3.858
 3963SOL    HW112788   4.356   5.739   3.846
 3963SOL    HW212789   4.345   5.864   3.949
 3964SOL     OW12790   5.005   5.860   5.450
 3964SOL    HW112791   5.076   5.807   5.404
 3964SOL    HW212792   4.915   5.836   5.411
 3965SOL     OW12793   3.069   3.260   0.266
 3965SOL    HW112794   3.157   3.219   0.247
 3965SOL    HW212795   3.073   3.311   0.352
 3966SOL     OW12796   6.538   4.079   5.080
 3966SOL    HW112797   6.557   4.159   5.137
 3966SOL    HW212798   6.623   4.029   5.064
 3967SOL     OW12799   0.581   5.953   6.317
 3967SOL    HW112800   0.659   5.890   6.313
 3967SOL    HW212801   0.614   6.047   6.327
 3968SOL     OW12802   5.638   1.153   2.043
 3968SOL    HW112803   5.706   1.081   2.055
 3968SOL    HW212804   5.574   1.127   1.971
 3969SOL     OW12805   0.648   5.163   2.739
 3969SOL    HW112806   0.601   5.240   2.697
 3969SOL    HW212807   0.704   5.117   2.670
 3970SOL     OW12808   5.276   4.586   2.643
 3970SOL    HW112809   5.296   4.489   2.654
 3970SOL    HW212810   5.179   4.602   2.659
 3971SOL     OW12811   1.638   5.831   3.111
 3971SOL    HW112812   1.582   5.748   3.112
 3971SOL    HW212813   1.623   5.880   3.026
 3972SOL     OW12814   0.477   6.965   0.491
 3972SOL    HW112815   0.554   6.995   0.546
 3972SOL    HW212816   0.509   6.942   0.398
 3973SOL     OW12817   3.189   3.866   4.631
 3973SOL    HW112818   3.178   3.936   4.560
 3973SOL    HW212819   3.284   3.838   4.636
 3974SOL     OW12820   6.186   1.255   6.360
 3974SOL    HW112821   6.087   1.258   6.375
 3974SOL    HW212822   6.226   1.344   6.378
 3975SOL     OW12823   6.783   0.914   6.042
 3975SOL    HW112824   6.702   0.867   6.078
 3975SOL    HW212825   6.865   0.865   6.069
 3976SOL     OW12826   1.197   3.297   0.436
 3976SOL    HW112827   1.115   3.275   0.382
 3976SOL    HW212828   1.278   3.290   0.378
 3977SOL     OW12829   3.353   6.241   6.369
 3977SOL    HW112830   3.418   6.169   6.390
 3977SOL    HW212831   3.260   6.204   6.370
 3978SOL     OW12832   6.433   2.794   6.298
 3978SOL    HW112833   6.471   2.878   6.337
 3978SOL    HW212834   6.479   2.773   6.212
 3979SOL     OW12835   0.677   6.769   2.424
 3979SOL    HW112836   0.628   6.740   2.342
 3979SOL    HW212837   0.634   6.729   2.505
 3980SOL     OW12838   5.200   2.899   4.470
 3980SOL    HW112839   5.261   2.822   4.486
 3980SOL    HW212840   5.154   2.889   4.382
 3981SOL     OW12841   0.108   2.317   0.080
 3981SOL    HW112842   0.168   2.368   0.142
 3981SOL    HW212843   0.087   2.374   0.000
 3982SOL     OW12844   2.405   1.867   3.746
 3982SOL    HW112845   2.471   1.919   3.800
 3982SOL    HW212846   2.434   1.866   3.650
 3983SOL     OW12847   2.799   6.148   4.198
 3983SOL    HW112848   2.762   6.110   4.114
 3983SOL    HW212849   2.816   6.075   4.264
 3984SOL     OW12850   1.807   6.261   1.774
 3984SOL    HW112851   1.778   6.346   1.817
 3984SOL    HW212852   1.879   6.218   1.828
 3985SOL     OW12853   2.324   3.145   1.104
 3985SOL    HW112854   2.225   3.149   1.087
 3985SOL    HW212855   2.371   3.118   1.020
 3986SOL     OW12856   0.209   1.791   1.995
 3986SOL    HW112857   0.121   1.797   1.948
 3986SOL    HW212858   0.206   1.844   2.079
 3987SOL     OW12859   2.673   4.737   6.630
 3987SOL    HW112860   2.742   4.678   6.587
 3987SOL    HW212861   2.668   4.824   6.582
 3988SOL     OW12862   4.106   3.007   0.954
 3988SOL    HW112863   4.072   2.965   0.870
 3988SOL    HW212864   4.030   3.018   1.019
 3989SOL     OW12865   5.776   6.593   6.894
 3989SOL    HW112866   5.725   6.608   6.809
 3989SOL    HW212867   5.844   6.521   6.879
 3990SOL     OW12868   1.053   3.792   3.422
 3990SOL    HW112869   0.975   3.805   3.362
 3990SOL    HW212870   1.029   3.819   3.515
 3991SOL     OW12871   0.341   2.143   3.988
 3991SOL    HW112872   0.301   2.115   3.901
 3991SOL    HW212873   0.378   2.063   4.035
 3992SOL     OW12874   4.611   3.642   6.588
 3992SOL    HW112875   4.544   3.579   6.629
 3992SOL    HW212876   4.620   3.622   6.490
 3993SOL     OW12877   2.852   2.221   2.809
 3993SOL    HW112878   2.770   2.275   2.789
 3993SOL    HW212879   2.859   2.145   2.745
 3994SOL     OW12880   2.360   2.689   3.510
 3994SOL    HW112881   2.432   2.621   3.525
 3994SOL    HW212882   2.336   2.692   3.413
 3995SOL     OW12883   2.169   4.132   3.156
 3995SOL    HW112884   2.223   4.176   3.228
 3995SOL    HW212885   2.169   4.033   3.170
 3996SOL     OW12886   0.375   1.492   3.357
 3996SOL    HW112887   0.441   1.548   3.407
 3996SOL    HW212888   0.355   1.535   3.269
 3997SOL     OW12889   5.763   3.819   3.354
 3997SOL    HW112890   5.789   3.862   3.267
 3997SOL    HW212891   5.830   3.749   3.378
 3998SOL     OW12892   6.387   2.058   3.217
 3998SOL    HW112893   6.312   2.016   3.267
 3998SOL    HW212894   6.409   2.146   3.259
 3999SOL     OW12895   5.580   3.899   2.569
 3999SOL    HW112896   5.587   3.893   2.470
 3999SOL    HW212897   5.516   3.830   2.603
 4000SOL     OW12898   2.443   5.471   2.505
 4000SOL    HW112899   2.415   5.414   2.428
 4000SOL    HW212900   2.535   5.506   2.488
 4001SOL     OW12901   2.556   3.920   5.311
 4001SOL    HW112902   2.503   3.928   5.395
 4001SOL    HW212903   2.494   3.916   5.233
 4002SOL     OW12904   3.176   2.937   4.870
 4002SOL    HW112905   3.169   2.946   4.771
 4002SOL    HW212906   3.117   3.005   4.914
 4003SOL     OW12907   2.150   1.091   5.778
 4003SOL    HW112908   2.246   1.074   5.759
 4003SOL    HW212909   2.094   1.044   5.709
 4004SOL     OW12910   0.078   3.921   2.820
 4004SOL    HW112911   0.106   3.887   2.731
 4004SOL    HW212912   0.154   3.914   2.884
 4005SOL     OW12913   4.460   3.578   1.561
 4005SOL    HW112914   4.466   3.632   1.477
 4005SOL    HW212915   4.403   3.497   1.544
 4006SOL     OW12916   5.069   5.500   2.517
 4006SOL    HW112917   4.972   5.499   2.541
 4006SOL    HW212918   5.118   5.434   2.574
 4007SOL     OW12919   0.834   2.031   3.144
 4007SOL    HW112920   0.869   1.939   3.124
 4007SOL    HW212921   0.848   2.051   3.241
 4008SOL     OW12922   2.257   0.155   0.979
 4008SOL    HW112923   2.220   0.155   0.886
 4008SOL    HW212924   2.304   0.069   0.996
 4009SOL     OW12925   4.311   1.871   1.204
 4009SOL    HW112926   4.363   1.810   1.263
 4009SOL    HW212927   4.217   1.879   1.237
 4010SOL     OW12928   3.510   4.445   1.330
 4010SOL    HW112929   3.576   4.519   1.324
 4010SOL    HW212930   3.474   4.424   1.239
 4011SOL     OW12931   6.698   5.904   0.326
 4011SOL    HW112932   6.708   5.998   0.292
 4011SOL    HW212933   6.730   5.901   0.421
 4012SOL     OW12934   4.465   6.724   1.626
 4012SOL    HW112935   4.500   6.814   1.650
 4012SOL    HW212936   4.520   6.654   1.672
 4013SOL     OW12937   1.767   0.672   0.812
 4013SOL    HW112938   1.754   0.573   0.813
 4013SOL    HW212939   1.824   0.699   0.889
 4014SOL     OW12940   3.005   5.673   3.367
 4014SOL    HW112941   2.940   5.655   3.293
 4014SOL    HW212942   3.097   5.682   3.328
 4015SOL     OW12943   4.379   5.058   6.111
 4015SOL    HW112944   4.384   4.984   6.178
 4015SOL    HW212945   4.468   5.068   6.065
 4016SOL     OW12946   3.246   5.357   6.371
 4016SOL    HW112947   3.255   5.305   6.456
 4016SOL    HW212948   3.317   5.328   6.307
 4017SOL     OW12949   0.955   5.313   5.710
 4017SOL    HW112950   0.911   5.402   5.708
 4017SOL    HW212951   0.896   5.248   5.759
 4018SOL     OW12952   3.734   6.489   1.807
 4018SOL    HW112953   3.776   6.398   1.807
 4018SOL    HW212954   3.636   6.481   1.823
 4019SOL     OW12955   5.739   3.105   2.654
 4019SOL    HW112956   5.642   3.131   2.649
 4019SOL    HW212957   5.769   3.071   2.565
 4020SOL     OW12958   0.167   3.948   4.199
 4020SOL    HW112959   0.194   3.936   4.295
 4020SOL    HW212960   0.188   3.865   4.148
 4021SOL     OW12961   3.386   3.591   5.603
 4021SOL    HW112962   3.368   3.505   5.651
 4021SOL    HW212963   3.472   3.629   5.634
 4022SOL     OW12964   3.667   6.853   0.963
 4022SOL    HW112965   3.576   6.870   0.999
 4022SOL    HW212966   3.661   6.824   0.867
 4023SOL     OW12967   0.382   1.568   5.525
 4023SOL    HW112968   0.356   1.643   5.465
 4023SOL    HW212969   0.363   1.481   5.480
 4024SOL     OW12970   1.729   4.899   4.236
 4024SOL    HW112971   1.752   4.923   4.330
 4024SOL    HW212972   1.785   4.821   4.207
 4025SOL     OW12973   0.965   5.999   4.240
 4025SOL    HW112974   0.972   5.938   4.161
 4025SOL    HW212975   1.027   6.077   4.228
 4026SOL     OW12976   6.399   6.313   4.227
 4026SOL    HW112977   6.497   6.319   4.245
 4026SOL    HW212978   6.351   6.294   4.313
 4027SOL     OW12979   2.836   2.147   6.608
 4027SOL    HW112980   2.751   2.199   6.598
 4027SOL    HW212981   2.880   2.171   6.695
 4028SOL     OW12982   4.487   1.585   3.496
 4028SOL    HW112983   4.439   1.497   3.503
 4028SOL    HW212984   4.511   1.602   3.400
 4029SOL     OW12985   2.885   3.919   6.009
 4029SOL    HW112986   2.927   3.860   5.940
 4029SOL    HW212987   2.924   3.898   6.098
 4030SOL     OW12988   6.891   1.074   2.108
 4030SOL    HW112989   6.791   1.083   2.116
 4030SOL    HW212990   6.916   1.081   2.011
 4031SOL     OW12991   5.631   0.287   2.604
 4031SOL    HW112992   5.611   0.384   2.620
 4031SOL    HW212993   5.660   0.275   2.509
 4032SOL     OW12994   6.535   6.582   2.001
 4032SOL    HW112995   6.574   6.492   2.019
 4032SOL    HW212996   6.523   6.595   1.902
 4033SOL     OW12997   2.620   2.045   3.031
 4033SOL    HW112998   2.624   2.140   3.062
 4033SOL    HW212999   2.599   2.042   2.934
 4034SOL     OW13000   6.298   2.476   5.296
 4034SOL    HW113001   6.238   2.439   5.225
 4034SOL    HW213002   6.311   2.573   5.281
 4035SOL     OW13003   6.141   1.690   1.345
 4035SOL    HW113004   6.063   1.628   1.350
 4035SOL    HW213005   6.189   1.692   1.433
 4036SOL     OW13006   3.898   4.791   2.459
 4036SOL    HW113007   3.925   4.791   2.363
 4036SOL    HW213008   3.979   4.780   2.517
 4037SOL     OW13009   2.806   0.961   5.962
 4037SOL    HW113010   2.707   0.945   5.969
 4037SOL    HW213011   2.854   0.875   5.980
 4038SOL     OW13012   4.686   3.445   0.337
 4038SOL    HW113013   4.654   3.367   0.282
 4038SOL    HW213014   4.696   3.415   0.432
 4039SOL     OW13015   5.152   5.892   1.945
 4039SOL    HW113016   5.064   5.894   1.993
 4039SOL    HW213017   5.226   5.886   2.012
 4040SOL     OW13018   3.079   5.976   4.605
 4040SOL    HW113019   3.152   5.993   4.671
 4040SOL    HW213020   3.093   5.886   4.563
 4041SOL     OW13021   1.614   6.469   1.594
 4041SOL    HW113022   1.635   6.395   1.659
 4041SOL    HW213023   1.560   6.432   1.519
 4042SOL     OW13024   5.721   6.467   3.215
 4042SOL    HW113025   5.764   6.397   3.158
 4042SOL    HW213026   5.713   6.552   3.163
 4043SOL     OW13027   6.777   1.848   6.602
 4043SOL    HW113028   6.820   1.935   6.627
 4043SOL    HW213029   6.732   1.857   6.513
 4044SOL     OW13030   5.306   4.909   2.272
 4044SOL    HW113031   5.291   4.866   2.361
 4044SOL    HW213032   5.405   4.920   2.257
 4045SOL     OW13033   3.842   6.583   6.042
 4045SOL    HW113034   3.939   6.563   6.053
 4045SOL    HW213035   3.789   6.500   6.062
 4046SOL     OW13036   0.911   1.856   2.566
 4046SOL    HW113037   0.817   1.834   2.592
 4046SOL    HW213038   0.911   1.890   2.472
 4047SOL     OW13039   2.148   2.260   6.847
 4047SOL    HW113040   2.097   2.344   6.833
 4047SOL    HW213041   2.088   2.181   6.834
 4048SOL     OW13042   5.451   1.054   1.854
 4048SOL    HW113043   5.500   1.000   1.785
 4048SOL    HW213044   5.371   1.004   1.885
 4049SOL     OW13045   4.469   6.446   6.281
 4049SOL    HW113046   4.487   6.521   6.344
 4049SOL    HW213047   4.380   6.406   6.302
 4050SOL     OW13048   0.838   6.514   2.355
 4050SOL    HW113049   0.806   6.550   2.443
 4050SOL    HW213050   0.910   6.572   2.319
 4051SOL     OW13051   4.820   1.134   6.433
 4051SOL    HW113052   4.775   1.080   6.362
 4051SOL    HW213053   4.786   1.105   6.523
 4052SOL     OW13054   5.969   2.284   3.551
 4052SOL    HW113055   6.024   2.358   3.511
 4052SOL    HW213056   6.006   2.196   3.523
 4053SOL     OW13057   1.794   6.221   4.712
 4053SOL    HW113058   1.775   6.170   4.628
 4053SOL    HW213059   1.870   6.284   4.697
 4054SOL     OW13060   4.856   4.550   0.981
 4054SOL    HW113061   4.850   4.457   1.016
 4054SOL    HW213062   4.838   4.615   1.054
 4055SOL     OW13063   1.436   4.081   1.234
 4055SOL    HW113064   1.485   3.994   1.228
 4055SOL    HW213065   1.500   4.154   1.254
 4056SOL     OW13066   5.186   3.626   1.207
 4056SOL    HW113067   5.253   3.662   1.271
 4056SOL    HW213068   5.116   3.575   1.257
 4057SOL     OW13069   6.628   3.215   6.950
 4057SOL    HW113070   6.647   3.313   6.961
 4057SOL    HW213071   6.637   3.169   0.021
 4058SOL     OW13072   2.808   6.611   4.930
 4058SOL    HW113073   2.828   6.631   5.026
 4058SOL    HW213074   2.821   6.514   4.912
 4059SOL     OW13075   0.407   2.749   3.297
 4059SOL    HW113076   0.314   2.756   3.334
 4059SOL    HW213077   0.431   2.835   3.252
 4060SOL     OW13078   5.960   4.649   5.826
 4060SOL    HW113079   5.971   4.633   5.924
 4060SOL    HW213080   5.863   4.662   5.805
 4061SOL     OW13081   2.600   4.690   2.088
 4061SOL    HW113082   2.694   4.679   2.056
 4061SOL    HW213083   2.558   4.769   2.044
 4062SOL     OW13084   2.869   0.458   2.107
 4062SOL    HW113085   2.780   0.482   2.068
 4062SOL    HW213086   2.857   0.419   2.198
 4063SOL     OW13087   6.129   6.809   0.708
 4063SOL    HW113088   6.070   6.767   0.777
 4063SOL    HW213089   6.108   6.769   0.619
 4064SOL     OW13090   2.866   2.282   4.288
 4064SOL    HW113091   2.895   2.236   4.372
 4064SOL    HW213092   2.943   2.332   4.250
 4065SOL     OW13093   0.435   0.265   1.611
 4065SOL    HW113094   0.350   0.304   1.646
 4065SOL    HW213095   0.429   0.256   1.511
 4066SOL     OW13096   6.651   4.109   3.025
 4066SOL    HW113097   6.707   4.028   3.043
 4066SOL    HW213098   6.612   4.103   2.933
 4067SOL     OW13099   5.209   3.887   3.777
 4067SOL    HW113100   5.214   3.944   3.859
 4067SOL    HW213101   5.297   3.887   3.730
 4068SOL     OW13102   2.380   1.987   4.334
 4068SOL    HW113103   2.476   2.011   4.320
 4068SOL    HW213104   2.349   2.023   4.422
 4069SOL     OW13105   3.160   5.191   7.011
 4069SOL    HW113106   3.144   5.125   6.938
 4069SOL    HW213107   3.256   5.219   7.011
 4070SOL     OW13108   0.387   2.879   2.681
 4070SOL    HW113109   0.486   2.890   2.682
 4070SOL    HW213110   0.343   2.969   2.680
 4071SOL     OW13111   1.372   1.339   4.813
 4071SOL    HW113112   1.425   1.259   4.786
 4071SOL    HW213113   1.285   1.310   4.853
 4072SOL     OW13114   0.641   5.576   4.761
 4072SOL    HW113115   0.698   5.600   4.840
 4072SOL    HW213116   0.696   5.580   4.678
 4073SOL     OW13117   2.839   5.344   6.253
 4073SOL    HW113118   2.757   5.390   6.219
 4073SOL    HW213119   2.856   5.261   6.200
 4074SOL     OW13120   0.477   4.776   1.394
 4074SOL    HW113121   0.558   4.834   1.400
 4074SOL    HW213122   0.459   4.754   1.298
 4075SOL     OW13123   4.768   2.057   1.162
 4075SOL    HW113124   4.765   2.156   1.168
 4075SOL    HW213125   4.739   2.017   1.249
 4076SOL     OW13126   2.518   3.221   5.989
 4076SOL    HW113127   2.528   3.222   6.089
 4076SOL    HW213128   2.596   3.268   5.948
 4077SOL     OW13129   3.960   1.680   1.183
 4077SOL    HW113130   3.961   1.779   1.200
 4077SOL    HW213131   3.886   1.658   1.119
 4078SOL     OW13132   2.213   5.068   2.324
 4078SOL    HW113133   2.261   5.067   2.412
 4078SOL    HW213134   2.196   4.975   2.294
 4079SOL     OW13135   2.558   1.247   2.936
 4079SOL    HW113136   2.615   1.168   2.913
 4079SOL    HW213137   2.613   1.330   2.934
 4080SOL     OW13138   4.750   2.664   6.073
 4080SOL    HW113139   4.690   2.734   6.111
 4080SOL    HW213140   4.746   2.668   5.973
 4081SOL     OW13141   1.455   2.800   3.802
 4081SOL    HW113142   1.474   2.705   3.777
 4081SOL    HW213143   1.357   2.812   3.819
 4082SOL     OW13144   0.452   4.092   0.301
 4082SOL    HW113145   0.368   4.071   0.252
 4082SOL    HW213146   0.435   4.090   0.400
 4083SOL     OW13147   6.224   3.131   2.987
 4083SOL    HW113148   6.135   3.174   2.973
 4083SOL    HW213149   6.296   3.187   2.945
 4084SOL     OW13150   5.850   1.811   3.718
 4084SOL    HW113151   5.920   1.837   3.784
 4084SOL    HW213152   5.891   1.799   3.628
 4085SOL     OW13153   3.893   5.457   0.539
 4085SOL    HW113154   3.985   5.496   0.541
 4085SOL    HW213155   3.874   5.413   0.626
 4086SOL     OW13156   2.355   6.361   1.862
 4086SOL    HW113157   2.435   6.305   1.884
 4086SOL    HW213158   2.372   6.411   1.777
 4087SOL     OW13159   3.177   2.176   3.437
 4087SOL    HW113160   3.235   2.256   3.449
 4087SOL    HW213161   3.176   2.149   3.340
 4088SOL     OW13162   0.133   1.598   0.844
 4088SOL    HW113163   0.039   1.585   0.813
 4088SOL    HW213164   0.184   1.513   0.830
 4089SOL     OW13165   6.423   6.332   3.497
 4089SOL    HW113166   6.324   6.342   3.509
 4089SOL    HW213167   6.450   6.238   3.515
 4090SOL     OW13168   2.447   3.997   5.561
 4090SOL    HW113169   2.521   4.000   5.629
 4090SOL    HW213170   2.371   3.944   5.598
 4091SOL     OW13171   6.460   6.099   0.514
 4091SOL    HW113172   6.434   6.142   0.427
 4091SOL    HW213173   6.546   6.139   0.546
 4092SOL     OW13174   6.360   3.074   5.009
 4092SOL    HW113175   6.290   3.007   4.984
 4092SOL    HW213176   6.342   3.108   5.102
 4093SOL     OW13177   4.277   0.391   3.619
 4093SOL    HW113178   4.197   0.445   3.647
 4093SOL    HW213179   4.306   0.333   3.695
 4094SOL     OW13180   2.432   5.958   4.641
 4094SOL    HW113181   2.394   5.865   4.635
 4094SOL    HW213182   2.415   5.995   4.732
 4095SOL     OW13183   0.877   3.656   6.436
 4095SOL    HW113184   0.883   3.647   6.536
 4095SOL    HW213185   0.843   3.747   6.413
 4096SOL     OW13186   4.469   5.276   0.896
 4096SOL    HW113187   4.446   5.228   0.811
 4096SOL    HW213188   4.500   5.209   0.964
 4097SOL     OW13189   3.630   3.985   6.202
 4097SOL    HW113190   3.707   4.020   6.257
 4097SOL    HW213191   3.665   3.930   6.127
 4098SOL     OW13192   7.012   3.128   2.058
 4098SOL    HW113193   0.068   3.196   2.058
 4098SOL    HW213194   0.028   3.043   2.016
 4099SOL     OW13195   2.807   4.604   1.359
 4099SOL    HW113196   2.814   4.703   1.343
 4099SOL    HW213197   2.712   4.575   1.346
 4100SOL     OW13198   6.310   5.944   5.240
 4100SOL    HW113199   6.320   6.044   5.236
 4100SOL    HW213200   6.340   5.904   5.153
 4101SOL     OW13201   5.600   0.668   0.754
 4101SOL    HW113202   5.608   0.726   0.672
 4101SOL    HW213203   5.520   0.608   0.745
 4102SOL     OW13204   6.423   0.670   1.893
 4102SOL    HW113205   6.494   0.616   1.848
 4102SOL    HW213206   6.398   0.747   1.834
 4103SOL     OW13207   0.642   1.078   1.395
 4103SOL    HW113208   0.591   1.044   1.316
 4103SOL    HW213209   0.736   1.044   1.391
 4104SOL     OW13210   0.801   4.394   1.962
 4104SOL    HW113211   0.706   4.404   1.931
 4104SOL    HW213212   0.807   4.418   2.059
 4105SOL     OW13213   4.249   5.376   1.034
 4105SOL    HW113214   4.264   5.314   1.112
 4105SOL    HW213215   4.326   5.368   0.971
 4106SOL     OW13216   0.699   2.095   5.097
 4106SOL    HW113217   0.738   2.005   5.078
 4106SOL    HW213218   0.711   2.117   5.194
 4107SOL     OW13219   1.420   6.298   0.984
 4107SOL    HW113220   1.424   6.339   0.893
 4107SOL    HW213221   1.437   6.368   1.053
 4108SOL     OW13222   0.372   5.079   5.789
 4108SOL    HW113223   0.298   5.127   5.743
 4108SOL    HW213224   0.387   5.119   5.879
 4109SOL     OW13225   4.715   6.149   5.304
 4109SOL    HW113226   4.645   6.095   5.351
 4109SOL    HW213227   4.683   6.172   5.212
 4110SOL     OW13228   4.658   3.187   6.561
 4110SOL    HW113229   4.559   3.184   6.568
 4110SOL    HW213230   4.698   3.177   6.652
 4111SOL     OW13231   3.988   2.751   6.571
 4111SOL    HW113232   4.078   2.781   6.538
 4111SOL    HW213233   3.982   2.765   6.670
 4112SOL     OW13234   5.075   0.950   5.579
 4112SOL    HW113235   5.016   0.879   5.540
 4112SOL    HW213236   5.169   0.918   5.580
 4113SOL     OW13237   4.584   6.345   4.587
 4113SOL    HW113238   4.640   6.301   4.517
 4113SOL    HW213239   4.540   6.274   4.643
 4114SOL     OW13240   4.091   2.271   3.442
 4114SOL    HW113241   4.079   2.370   3.433
 4114SOL    HW213242   4.075   2.227   3.354
 4115SOL     OW13243   4.555   5.833   2.090
 4115SOL    HW113244   4.542   5.931   2.075
 4115SOL    HW213245   4.572   5.816   2.188
 4116SOL     OW13246   4.247   2.267   1.806
 4116SOL    HW113247   4.172   2.268   1.739
 4116SOL    HW213248   4.210   2.251   1.897
 4117SOL     OW13249   0.686   5.167   1.951
 4117SOL    HW113250   0.664   5.112   1.869
 4117SOL    HW213251   0.601   5.196   1.994
 4118SOL     OW13252   2.159   6.403   0.737
 4118SOL    HW113253   2.214   6.383   0.657
 4118SOL    HW213254   2.130   6.318   0.780
 4119SOL     OW13255   4.128   1.899   3.334
 4119SOL    HW113256   4.162   1.990   3.357
 4119SOL    HW213257   4.199   1.831   3.351
 4120SOL     OW13258   4.279   0.720   0.724
 4120SOL    HW113259   4.321   0.780   0.656
 4120SOL    HW213260   4.186   0.751   0.743
 4121SOL     OW13261   5.778   1.167   5.213
 4121SOL    HW113262   5.700   1.191   5.155
 4121SOL    HW213263   5.777   1.069   5.231
 4122SOL     OW13264   0.970   6.428   5.564
 4122SOL    HW113265   0.897   6.424   5.496
 4122SOL    HW213266   1.036   6.355   5.548
 4123SOL     OW13267   4.796   4.724   5.501
 4123SOL    HW113268   4.719   4.784   5.482
 4123SOL    HW213269   4.805   4.710   5.600
 4124SOL     OW13270   6.087   5.162   5.854
 4124SOL    HW113271   6.118   5.247   5.812
 4124SOL    HW213272   5.987   5.157   5.849
 4125SOL     OW13273   4.459   1.249   1.843
 4125SOL    HW113274   4.510   1.167   1.820
 4125SOL    HW213275   4.363   1.238   1.817
 4126SOL     OW13276   1.305   4.734   3.913
 4126SOL    HW113277   1.317   4.797   3.991
 4126SOL    HW213278   1.227   4.764   3.858
 4127SOL     OW13279   4.600   4.467   4.506
 4127SOL    HW113280   4.570   4.482   4.600
 4127SOL    HW213281   4.534   4.505   4.442
 4128SOL     OW13282   1.501   3.384   1.772
 4128SOL    HW113283   1.484   3.479   1.796
 4128SOL    HW213284   1.593   3.357   1.803
 4129SOL     OW13285   5.216   1.249   6.581
 4129SOL    HW113286   5.209   1.200   6.668
 4129SOL    HW213287   5.307   1.289   6.572
 4130SOL     OW13288   6.965   3.717   5.688
 4130SOL    HW113289   6.868   3.694   5.696
 4130SOL    HW213290   7.015   3.638   5.655
 4131SOL     OW13291   1.030   5.896   3.764
 4131SOL    HW113292   1.075   5.936   3.684
 4131SOL    HW213293   1.091   5.832   3.809
 4132SOL     OW13294   5.351   4.504   3.931
 4132SOL    HW113295   5.311   4.498   3.840
 4132SOL    HW213296   5.388   4.596   3.945
 4133SOL     OW13297   2.967   0.012   2.033
 4133SOL    HW113298   2.892   7.000   2.092
 4133SOL    HW213299   2.983   6.961   1.961
 4134SOL     OW13300   1.659   2.343   0.650
 4134SOL    HW113301   1.604   2.342   0.566
 4134SOL    HW213302   1.624   2.274   0.713
 4135SOL     OW13303   1.886   0.382   2.608
 4135SOL    HW113304   1.876   0.430   2.694
 4135SOL    HW213305   1.805   0.398   2.551
 4136SOL     OW13306   0.964   1.962   2.840
 4136SOL    HW113307   0.870   1.929   2.852
 4136SOL    HW213308   0.989   1.955   2.743
 4137SOL     OW13309   1.876   4.139   1.298
 4137SOL    HW113310   1.902   4.114   1.204
 4137SOL    HW213311   1.835   4.059   1.343
 4138SOL     OW13312   3.664   5.476   3.239
 4138SOL    HW113313   3.651   5.396   3.299
 4138SOL    HW213314   3.762   5.486   3.219
 4139SOL     OW13315   2.069   2.364   5.290
 4139SOL    HW113316   1.974   2.349   5.261
 4139SOL    HW213317   2.100   2.284   5.342
 4140SOL     OW13318   2.719   0.791   5.355
 4140SOL    HW113319   2.800   0.737   5.332
 4140SOL    HW213320   2.683   0.760   5.443
 4141SOL     OW13321   5.288   6.001   1.716
 4141SOL    HW113322   5.292   6.100   1.723
 4141SOL    HW213323   5.231   5.965   1.790
 4142SOL     OW13324   0.004   5.624   0.838
 4142SOL    HW113325   6.924   5.606   0.843
 4142SOL    HW213326   0.051   5.544   0.800
 4143SOL     OW13327   6.945   2.929   6.900
 4143SOL    HW113328   6.864   2.885   6.938
 4143SOL    HW213329   6.937   2.934   6.801
 4144SOL     OW13330   5.481   3.090   0.258
 4144SOL    HW113331   5.574   3.112   0.285
 4144SOL    HW213332   5.465   3.122   0.165
 4145SOL     OW13333   0.147   6.243   1.656
 4145SOL    HW113334   0.227   6.267   1.601
 4145SOL    HW213335   0.091   6.176   1.607
 4146SOL     OW13336   6.567   0.688   5.657
 4146SOL    HW113337   6.655   0.670   5.614
 4146SOL    HW213338   6.494   0.656   5.596
 4147SOL     OW13339   3.811   1.942   5.497
 4147SOL    HW113340   3.799   1.844   5.512
 4147SOL    HW213341   3.891   1.974   5.547
 4148SOL     OW13342   0.471   0.048   3.767
 4148SOL    HW113343   0.375   0.042   3.794
 4148SOL    HW213344   0.512   0.128   3.810
 4149SOL     OW13345   0.636   3.137   0.020
 4149SOL    HW113346   0.570   3.138   6.962
 4149SOL    HW213347   0.664   3.042   0.038
 4150SOL     OW13348   6.641   0.686   5.934
 4150SOL    HW113349   6.580   0.697   5.855
 4150SOL    HW213350   6.731   0.658   5.902
 4151SOL     OW13351   4.671   6.301   6.182
 4151SOL    HW113352   4.754   6.292   6.238
 4151SOL    HW213353   4.603   6.352   6.234
 4152SOL     OW13354   2.934   5.568   1.110
 4152SOL    HW113355   3.021   5.552   1.063
 4152SOL    HW213356   2.944   5.547   1.207
 4153SOL     OW13357   4.822   4.821   6.403
 4153SOL    HW113358   4.757   4.762   6.356
 4153SOL    HW213359   4.843   4.900   6.345
 4154SOL     OW13360   0.281   4.357   4.944
 4154SOL    HW113361   0.211   4.369   5.015
 4154SOL    HW213362   0.336   4.276   4.965
 4155SOL     OW13363   5.843   2.770   3.487
 4155SOL    HW113364   5.876   2.677   3.471
 4155SOL    HW213365   5.903   2.816   3.552
 4156SOL     OW13366   5.509   0.114   5.270
 4156SOL    HW113367   5.592   0.063   5.245
 4156SOL    HW213368   5.533   0.184   5.338
 4157SOL     OW13369   3.979   6.683   3.735
 4157SOL    HW113370   4.055   6.713   3.677
 4157SOL    HW213371   4.014   6.626   3.809
 4158SOL     OW13372   1.685   5.537   4.282
 4158SOL    HW113373   1.700   5.473   4.206
 4158SOL    HW213374   1.595   5.580   4.271
 4159SOL     OW13375   1.971   3.040   3.964
 4159SOL    HW113376   1.886   3.084   3.934
 4159SOL    HW213377   2.009   3.090   4.042
 4160SOL     OW13378   6.327   0.694   1.135
 4160SOL    HW113379   6.320   0.641   1.219
 4160SOL    HW213380   6.370   0.782   1.154
 4161SOL     OW13381   2.483   5.832   6.553
 4161SOL    HW113382   2.576   5.816   6.520
 4161SOL    HW213383   2.447   5.915   6.511
 4162SOL     OW13384   6.523   0.243   5.153
 4162SOL    HW113385   6.556   0.321   5.100
 4162SOL    HW213386   6.600   0.200   5.200
 4163SOL     OW13387   5.842   1.218   3.192
 4163SOL    HW113388   5.852   1.317   3.183
 4163SOL    HW213389   5.747   1.195   3.215
 4164SOL     OW13390   1.235   6.816   6.164
 4164SOL    HW113391   1.312   6.777   6.214
 4164SOL    HW213392   1.163   6.747   6.154
 4165SOL     OW13393   4.697   0.224   0.536
 4165SOL    HW113394   4.737   0.139   0.570
 4165SOL    HW213395   4.734   0.245   0.446
 4166SOL     OW13396   5.750   2.961   0.942
 4166SOL    HW113397   5.745   3.020   0.862
 4166SOL    HW213398   5.704   3.006   1.019
 4167SOL     OW13399   2.435   3.635   0.419
 4167SOL    HW113400   2.352   3.580   0.406
 4167SOL    HW213401   2.516   3.577   0.406
 4168SOL     OW13402   0.714   4.943   0.945
 4168SOL    HW113403   0.766   4.927   1.029
 4168SOL    HW213404   0.710   4.859   0.892
 4169SOL     OW13405   5.799   3.389   4.212
 4169SOL    HW113406   5.804   3.298   4.251
 4169SOL    HW213407   5.750   3.385   4.125
 4170SOL     OW13408   3.478   3.303   5.319
 4170SOL    HW113409   3.461   3.233   5.250
 4170SOL    HW213410   3.391   3.345   5.345
 4171SOL     OW13411   5.029   4.297   0.978
 4171SOL    HW113412   5.037   4.342   1.068
 4171SOL    HW213413   4.998   4.364   0.910
 4172SOL     OW13414   6.987   2.352   5.759
 4172SOL    HW113415   6.990   2.406   5.844
 4172SOL    HW213416   6.927   2.397   5.693
 4173SOL     OW13417   6.138   3.315   4.637
 4173SOL    HW113418   6.206   3.277   4.700
 4173SOL    HW213419   6.155   3.413   4.626
 4174SOL     OW13420   5.684   1.134   3.549
 4174SOL    HW113421   5.703   1.154   3.453
 4174SOL    HW213422   5.763   1.162   3.605
 4175SOL     OW13423   2.583   6.437   3.962
 4175SOL    HW113424   2.552   6.368   3.897
 4175SOL    HW213425   2.525   6.518   3.955
 4176SOL     OW13426   3.452   0.028   2.210
 4176SOL    HW113427   3.501   6.977   2.157
 4176SOL    HW213428   3.515   0.072   2.274
 4177SOL     OW13429   0.804   5.269   5.438
 4177SOL    HW113430   0.781   5.343   5.375
 4177SOL    HW213431   0.899   5.278   5.466
 4178SOL     OW13432   3.822   1.003   4.130
 4178SOL    HW113433   3.763   0.954   4.195
 4178SOL    HW213434   3.885   1.062   4.180
 4179SOL     OW13435   4.950   3.364   4.312
 4179SOL    HW113436   4.897   3.293   4.358
 4179SOL    HW213437   4.923   3.454   4.346
 4180SOL     OW13438   5.331   3.284   2.591
 4180SOL    HW113439   5.349   3.188   2.570
 4180SOL    HW213440   5.415   3.337   2.581
 4181SOL     OW13441   2.092   1.896   6.014
 4181SOL    HW113442   2.133   1.981   6.046
 4181SOL    HW213443   2.125   1.820   6.070
 4182SOL     OW13444   0.264   6.838   3.167
 4182SOL    HW113445   0.206   6.762   3.136
 4182SOL    HW213446   0.272   6.834   3.267
 4183SOL     OW13447   3.259   1.357   1.264
 4183SOL    HW113448   3.301   1.278   1.220
 4183SOL    HW213449   3.225   1.420   1.194
 4184SOL     OW13450   3.997   4.842   1.248
 4184SOL    HW113451   3.926   4.807   1.186
 4184SOL    HW213452   4.033   4.768   1.304
 4185SOL     OW13453   0.432   5.147   3.323
 4185SOL    HW113454   0.492   5.226   3.313
 4185SOL    HW213455   0.467   5.087   3.396
 4186SOL     OW13456   1.375   4.673   0.568
 4186SOL    HW113457   1.329   4.597   0.615
 4186SOL    HW213458   1.382   4.654   0.471
 4187SOL     OW13459   3.892   3.235   5.965
 4187SOL    HW113460   3.846   3.157   5.925
 4187SOL    HW213461   3.967   3.203   6.024
 4188SOL     OW13462   5.157   6.737   4.586
 4188SOL    HW113463   5.153   6.638   4.573
 4188SOL    HW213464   5.087   6.765   4.653
 4189SOL     OW13465   3.153   1.785   4.842
 4189SOL    HW113466   3.176   1.868   4.892
 4189SOL    HW213467   3.061   1.793   4.802
 4190SOL     OW13468   2.337   6.886   6.362
 4190SOL    HW113469   2.335   6.982   6.389
 4190SOL    HW213470   2.256   6.864   6.307
 4191SOL     OW13471   6.115   3.438   3.230
 4191SOL    HW113472   6.028   3.391   3.225
 4191SOL    HW213473   6.147   3.461   3.138
 4192SOL     OW13474   0.210   1.732   3.767
 4192SOL    HW113475   0.139   1.746   3.697
 4192SOL    HW213476   0.265   1.815   3.775
 4193SOL     OW13477   2.283   6.590   1.546
 4193SOL    HW113478   2.277   6.664   1.480
 4193SOL    HW213479   2.224   6.514   1.518
 4194SOL     OW13480   6.829   2.125   5.188
 4194SOL    HW113481   6.909   2.065   5.196
 4194SOL    HW213482   6.846   2.195   5.119
 4195SOL     OW13483   3.671   0.651   1.903
 4195SOL    HW113484   3.617   0.570   1.881
 4195SOL    HW213485   3.739   0.628   1.973
 4196SOL     OW13486   6.248   1.730   4.482
 4196SOL    HW113487   6.153   1.699   4.473
 4196SOL    HW213488   6.292   1.729   4.392
 4197SOL     OW13489   4.892   4.751   3.920
 4197SOL    HW113490   4.826   4.697   3.973
 4197SOL    HW213491   4.857   4.843   3.907
 4198SOL     OW13492   6.009   3.741   0.066
 4198SOL    HW113493   5.940   3.738   0.139
 4198SOL    HW213494   5.994   3.823   0.010
 4199SOL     OW13495   2.289   3.345   6.087
 4199SOL    HW113496   2.356   3.292   6.034
 4199SOL    HW213497   2.268   3.430   6.039
 4200SOL     OW13498   2.821   6.470   5.529
 4200SOL    HW113499   2.885   6.394   5.540
 4200SOL    HW213500   2.863   6.554   5.563
 4201SOL     OW13501   5.799   6.107   4.058
 4201SOL    HW113502   5.746   6.177   4.011
 4201SOL    HW213503   5.897   6.124   4.044
 4202SOL     OW13504   4.017   4.718   6.031
 4202SOL    HW113505   4.088   4.779   5.996
 4202SOL    HW213506   3.949   4.702   5.959
 4203SOL     OW13507   3.868   6.023   2.838
 4203SOL    HW113508   3.867   6.006   2.739
 4203SOL    HW213509   3.961   6.050   2.865
 4204SOL     OW13510   3.243   2.793   1.855
 4204SOL    HW113511   3.276   2.878   1.814
 4204SOL    HW213512   3.191   2.741   1.787
 4205SOL     OW13513   3.877   5.098   4.294
 4205SOL    HW113514   3.858   5.164   4.221
 4205SOL    HW213515   3.830   5.012   4.274
 4206SOL     OW13516   4.786   0.785   5.960
 4206SOL    HW113517   4.824   0.874   5.984
 4206SOL    HW213518   4.717   0.797   5.889
 4207SOL     OW13519   2.158   1.571   1.824
 4207SOL    HW113520   2.145   1.670   1.818
 4207SOL    HW213521   2.242   1.545   1.777
 4208SOL     OW13522   1.657   2.120   0.810
 4208SOL    HW113523   1.643   2.024   0.785
 4208SOL    HW213524   1.571   2.158   0.844
 4209SOL     OW13525   0.981   1.546   5.034
 4209SOL    HW113526   0.891   1.534   4.993
 4209SOL    HW213527   1.044   1.583   4.966
 4210SOL     OW13528   3.128   3.269   1.942
 4210SOL    HW113529   3.086   3.335   1.880
 4210SOL    HW213530   3.228   3.275   1.936
 4211SOL     OW13531   5.364   5.679   5.642
 4211SOL    HW113532   5.398   5.630   5.561
 4211SOL    HW213533   5.416   5.650   5.722
 4212SOL     OW13534   6.401   2.273   2.128
 4212SOL    HW113535   6.487   2.234   2.095
 4212SOL    HW213536   6.392   2.367   2.093
 4213SOL     OW13537   2.404   0.655   2.562
 4213SOL    HW113538   2.342   0.733   2.556
 4213SOL    HW213539   2.381   0.601   2.643
 4214SOL     OW13540   0.900   4.128   6.193
 4214SOL    HW113541   0.950   4.214   6.201
 4214SOL    HW213542   0.824   4.140   6.130
 4215SOL     OW13543   6.925   5.561   4.815
 4215SOL    HW113544   6.919   5.563   4.715
 4215SOL    HW213545   6.884   5.645   4.852
 4216SOL     OW13546   1.376   1.962   3.807
 4216SOL    HW113547   1.342   2.029   3.872
 4216SOL    HW213548   1.392   2.006   3.719
 4217SOL     OW13549   6.668   0.216   3.082
 4217SOL    HW113550   6.744   0.158   3.112
 4217SOL    HW213551   6.687   0.311   3.105
 4218SOL     OW13552   5.179   6.954   1.754
 4218SOL    HW113553   5.101   6.978   1.811
 4218SOL    HW213554   5.254   0.002   1.771
 4219SOL     OW13555   2.972   4.827   5.167
 4219SOL    HW113556   2.914   4.889   5.221
 4219SOL    HW213557   2.919   4.746   5.142
 4220SOL     OW13558   6.438   3.748   2.913
 4220SOL    HW113559   6.488   3.793   2.988
 4220SOL    HW213560   6.368   3.810   2.879
 4221SOL     OW13561   6.501   5.759   6.220
 4221SOL    HW113562   6.456   5.717   6.142
 4221SOL    HW213563   6.502   5.859   6.209
 4222SOL     OW13564   6.308   1.995   2.176
 4222SOL    HW113565   6.338   2.048   2.097
 4222SOL    HW213566   6.215   2.022   2.201
 4223SOL     OW13567   3.935   3.068   3.319
 4223SOL    HW113568   4.011   3.088   3.257
 4223SOL    HW213569   3.849   3.073   3.269
 4224SOL     OW13570   4.902   3.263   4.006
 4224SOL    HW113571   4.944   3.208   4.078
 4224SOL    HW213572   4.858   3.344   4.047
 4225SOL     OW13573   5.642   0.628   5.315
 4225SOL    HW113574   5.700   0.565   5.263
 4225SOL    HW213575   5.682   0.720   5.312
 4226SOL     OW13576   2.145   1.228   3.457
 4226SOL    HW113577   2.052   1.201   3.432
 4226SOL    HW213578   2.182   1.290   3.388
 4227SOL     OW13579   3.257   4.133   6.410
 4227SOL    HW113580   3.183   4.201   6.413
 4227SOL    HW213581   3.304   4.140   6.322
 4228SOL     OW13582   5.461   5.692   4.182
 4228SOL    HW113583   5.447   5.622   4.112
 4228SOL    HW213584   5.511   5.652   4.259
 4229SOL     OW13585   3.885   4.792   5.799
 4229SOL    HW113586   3.830   4.724   5.751
 4229SOL    HW213587   3.827   4.868   5.828
 4230SOL     OW13588   2.295   0.097   4.838
 4230SOL    HW113589   2.219   0.093   4.774
 4230SOL    HW213590   2.325   0.192   4.848
 4231SOL     OW13591   5.179   6.505   5.200
 4231SOL    HW113592   5.148   6.560   5.278
 4231SOL    HW213593   5.272   6.534   5.175
 4232SOL     OW13594   0.681   5.107   2.219
 4232SOL    HW113595   0.704   5.107   2.122
 4232SOL    HW213596   0.614   5.179   2.238
 4233SOL     OW13597   6.233   0.429   0.278
 4233SOL    HW113598   6.291   0.349   0.259
 4233SOL    HW213599   6.282   0.493   0.337
 4234SOL     OW13600   2.063   5.391   5.760
 4234SOL    HW113601   2.039   5.380   5.663
 4234SOL    HW213602   2.063   5.302   5.805
 4235SOL     OW13603   6.481   4.498   5.400
 4235SOL    HW113604   6.508   4.548   5.482
 4235SOL    HW213605   6.401   4.441   5.420
 4236SOL     OW13606   6.826   3.049   3.802
 4236SOL    HW113607   6.801   3.082   3.711
 4236SOL    HW213608   6.744   3.046   3.860
 4237SOL     OW13609   6.225   4.315   4.293
 4237SOL    HW113610   6.182   4.324   4.383
 4237SOL    HW213611   6.300   4.249   4.299
 4238SOL     OW13612   4.246   4.745   3.822
 4238SOL    HW113613   4.205   4.782   3.738
 4238SOL    HW213614   4.300   4.664   3.800
 4239SOL     OW13615   4.936   6.978   4.379
 4239SOL    HW113616   4.898   0.053   4.382
 4239SOL    HW213617   5.007   6.974   4.308
 4240SOL     OW13618   3.030   6.399   6.180
 4240SOL    HW113619   2.948   6.456   6.176
 4240SOL    HW213620   3.077   6.403   6.092
 4241SOL     OW13621   5.558   0.304   0.933
 4241SOL    HW113622   5.635   0.317   0.996
 4241SOL    HW213623   5.558   0.378   0.865
 4242SOL     OW13624   2.461   6.690   3.090
 4242SOL    HW113625   2.446   6.786   3.066
 4242SOL    HW213626   2.478   6.682   3.188
 4243SOL     OW13627   0.332   3.755   2.437
 4243SOL    HW113628   0.283   3.841   2.424
 4243SOL    HW213629   0.367   3.722   2.349
 4244SOL     OW13630   5.243   5.952   0.934
 4244SOL    HW113631   5.180   5.905   0.872
 4244SOL    HW213632   5.311   6.002   0.880
 4245SOL     OW13633   6.515   2.616   6.924
 4245SOL    HW113634   6.505   2.585   0.001
 4245SOL    HW213635   6.536   2.538   6.865
 4246SOL     OW13636   5.147   2.656   2.618
 4246SOL    HW113637   5.112   2.744   2.587
 4246SOL    HW213638   5.247   2.657   2.613
 4247SOL     OW13639   2.656   5.642   4.024
 4247SOL    HW113640   2.744   5.660   4.068
 4247SOL    HW213641   2.609   5.729   4.007
 4248SOL     OW13642   1.652   0.403   3.226
 4248SOL    HW113643   1.719   0.329   3.223
 4248SOL    HW213644   1.607   0.405   3.315
 4249SOL     OW13645   0.187   1.452   3.662
 4249SOL    HW113646   0.213   1.548   3.653
 4249SOL    HW213647   0.196   1.423   3.757
 4250SOL     OW13648   0.376   5.773   4.436
 4250SOL    HW113649   0.375   5.862   4.390
 4250SOL    HW213650   0.282   5.741   4.447
 4251SOL     OW13651   5.948   2.655   0.011
 4251SOL    HW113652   5.906   2.682   6.941
 4251SOL    HW213653   5.983   2.561   0.003
 4252SOL     OW13654   6.124   5.494   6.108
 4252SOL    HW113655   6.174   5.536   6.184
 4252SOL    HW213656   6.125   5.394   6.118
 4253SOL     OW13657   4.138   6.461   2.063
 4253SOL    HW113658   4.129   6.407   2.147
 4253SOL    HW213659   4.166   6.402   1.988
 4254SOL     OW13660   2.029   4.124   0.620
 4254SOL    HW113661   2.052   4.217   0.591
 4254SOL    HW213662   2.111   4.066   0.612
 4255SOL     OW13663   0.850   4.526   3.938
 4255SOL    HW113664   0.882   4.447   3.989
 4255SOL    HW213665   0.824   4.498   3.846
 4256SOL     OW13666   0.970   5.519   1.019
 4256SOL    HW113667   0.976   5.608   0.974
 4256SOL    HW213668   1.038   5.514   1.093
 4257SOL     OW13669   5.931   1.657   5.211
 4257SOL    HW113670   5.999   1.641   5.139
 4257SOL    HW213671   5.975   1.702   5.289
 4258SOL     OW13672   3.584   5.532   1.083
 4258SOL    HW113673   3.485   5.524   1.099
 4258SOL    HW213674   3.631   5.544   1.170
 4259SOL     OW13675   1.497   0.144   1.766
 4259SOL    HW113676   1.480   0.070   1.831
 4259SOL    HW213677   1.415   0.160   1.712
 4260SOL     OW13678   4.929   0.382   4.395
 4260SOL    HW113679   4.900   0.455   4.458
 4260SOL    HW213680   4.876   0.299   4.413
 4261SOL     OW13681   1.875   0.470   4.107
 4261SOL    HW113682   1.866   0.546   4.171
 4261SOL    HW213683   1.956   0.416   4.131
 4262SOL     OW13684   1.795   5.049   5.604
 4262SOL    HW113685   1.808   5.139   5.647
 4262SOL    HW213686   1.824   4.978   5.668
 4263SOL     OW13687   2.846   2.308   3.303
 4263SOL    HW113688   2.788   2.313   3.222
 4263SOL    HW213689   2.940   2.330   3.278
 4264SOL     OW13690   5.912   1.518   4.250
 4264SOL    HW113691   5.938   1.422   4.263
 4264SOL    HW213692   5.818   1.523   4.215
 4265SOL     OW13693   3.554   6.870   0.672
 4265SOL    HW113694   3.498   6.787   0.669
 4265SOL    HW213695   3.518   6.932   0.741
 4266SOL     OW13696   1.355   0.533   6.963
 4266SOL    HW113697   1.332   0.451   7.016
 4266SOL    HW213698   1.447   0.523   6.925
 4267SOL     OW13699   2.160   4.062   4.050
 4267SOL    HW113700   2.119   4.014   3.972
 4267SOL    HW213701   2.167   3.999   4.128
 4268SOL     OW13702   1.385   4.944   6.784
 4268SOL    HW113703   1.292   4.930   6.818
 4268SOL    HW213704   1.382   4.998   6.700
 4269SOL     OW13705   3.603   1.629   3.741
 4269SOL    HW113706   3.597   1.679   3.655
 4269SOL    HW213707   3.540   1.670   3.808
 4270SOL     OW13708   3.425   3.195   1.341
 4270SOL    HW113709   3.363   3.241   1.404
 4270SOL    HW213710   3.474   3.264   1.286
 4271SOL     OW13711   5.992   0.678   1.319
 4271SOL    HW113712   5.905   0.720   1.294
 4271SOL    HW213713   6.066   0.743   1.302
 4272SOL     OW13714   6.862   3.359   5.828
 4272SOL    HW113715   6.860   3.297   5.749
 4272SOL    HW213716   6.836   3.451   5.798
 4273SOL     OW13717   4.848   6.393   5.452
 4273SOL    HW113718   4.759   6.437   5.468
 4273SOL    HW213719   4.834   6.302   5.413
 4274SOL     OW13720   0.501   6.656   2.257
 4274SOL    HW113721   0.468   6.570   2.297
 4274SOL    HW213722   0.425   6.705   2.216
 4275SOL     OW13723   0.129   2.099   4.199
 4275SOL    HW113724   0.067   2.041   4.145
 4275SOL    HW213725   0.205   2.128   4.141
 4276SOL     OW13726   2.931   4.937   3.987
 4276SOL    HW113727   2.911   4.877   3.910
 4276SOL    HW213728   2.897   4.896   4.071
 4277SOL     OW13729   6.917   4.681   3.910
 4277SOL    HW113730   6.982   4.644   3.977
 4277SOL    HW213731   6.837   4.718   3.958
 4278SOL     OW13732   6.384   6.598   3.243
 4278SOL    HW113733   6.332   6.568   3.323
 4278SOL    HW213734   6.326   6.590   3.161
 4279SOL     OW13735   1.637   1.432   2.713
 4279SOL    HW113736   1.554   1.478   2.745
 4279SOL    HW213737   1.717   1.478   2.750
 4280SOL     OW13738   6.670   6.665   6.358
 4280SOL    HW113739   6.707   6.757   6.369
 4280SOL    HW213740   6.600   6.665   6.286
 4281SOL     OW13741   4.700   5.739   4.109
 4281SOL    HW113742   4.679   5.700   4.020
 4281SOL    HW213743   4.652   5.689   4.181
 4282SOL     OW13744   3.222   3.859   0.569
 4282SOL    HW113745   3.142   3.875   0.511
 4282SOL    HW213746   3.292   3.927   0.549
 4283SOL     OW13747   4.954   0.898   2.898
 4283SOL    HW113748   4.935   0.826   2.965
 4283SOL    HW213749   4.996   0.858   2.817
 4284SOL     OW13750   4.161   5.483   0.306
 4284SOL    HW113751   4.134   5.578   0.291
 4284SOL    HW213752   4.231   5.457   0.238
 4285SOL     OW13753   3.543   0.585   6.247
 4285SOL    HW113754   3.630   0.585   6.297
 4285SOL    HW213755   3.468   0.564   6.310
 4286SOL     OW13756   6.708   0.964   0.169
 4286SOL    HW113757   6.796   0.951   0.214
 4286SOL    HW213758   6.637   0.981   0.237
 4287SOL     OW13759   4.480   0.838   0.284
 4287SOL    HW113760   4.556   0.896   0.252
 4287SOL    HW213761   4.507   0.742   0.278
 4288SOL     OW13762   6.480   6.015   1.867
 4288SOL    HW113763   6.388   6.005   1.903
 4288SOL    HW213764   6.488   6.102   1.817
 4289SOL     OW13765   0.497   2.536   5.259
 4289SOL    HW113766   0.426   2.551   5.327
 4289SOL    HW213767   0.495   2.440   5.230
 4290SOL     OW13768   0.039   0.054   3.346
 4290SOL    HW113769   0.121   7.016   3.334
 4290SOL    HW213770   0.064   0.140   3.392
 4291SOL     OW13771   4.802   3.098   6.162
 4291SOL    HW113772   4.754   3.103   6.075
 4291SOL    HW213773   4.897   3.125   6.149
 4292SOL     OW13774   4.916   1.971   0.113
 4292SOL    HW113775   4.947   1.923   0.195
 4292SOL    HW213776   4.835   1.927   0.076
 4293SOL     OW13777   5.227   3.684   6.776
 4293SOL    HW113778   5.210   3.752   6.705
 4293SOL    HW213779   5.224   3.592   6.735
 4294SOL     OW13780   2.783   1.489   6.109
 4294SOL    HW113781   2.859   1.481   6.044
 4294SOL    HW213782   2.807   1.442   6.194
 4295SOL     OW13783   4.141   6.488   2.356
 4295SOL    HW113784   4.109   6.573   2.316
 4295SOL    HW213785   4.197   6.508   2.437
 4296SOL     OW13786   3.076   6.654   0.891
 4296SOL    HW113787   3.051   6.612   0.978
 4296SOL    HW213788   3.154   6.716   0.905
 4297SOL     OW13789   6.814   5.378   1.083
 4297SOL    HW113790   6.908   5.411   1.094
 4297SOL    HW213791   6.802   5.296   1.138
 4298SOL     OW13792   3.886   5.937   1.636
 4298SOL    HW113793   3.971   5.967   1.679
 4298SOL    HW213794   3.862   5.999   1.561
 4299SOL     OW13795   0.714   2.669   6.938
 4299SOL    HW113796   0.728   2.626   0.009
 4299SOL    HW213797   0.625   2.713   6.934
 4300SOL     OW13798   3.176   0.293   0.979
 4300SOL    HW113799   3.197   0.381   1.022
 4300SOL    HW213800   3.172   0.304   0.880
 4301SOL     OW13801   3.045   6.114   1.429
 4301SOL    HW113802   3.139   6.148   1.430
 4301SOL    HW213803   2.995   6.148   1.509
 4302SOL     OW13804   0.256   6.797   6.846
 4302SOL    HW113805   0.259   6.871   6.914
 4302SOL    HW213806   0.208   6.718   6.885
 4303SOL     OW13807   0.068   4.896   3.822
 4303SOL    HW113808   0.026   4.964   3.882
 4303SOL    HW213809   0.021   4.808   3.833
 4304SOL     OW13810   3.574   4.198   1.984
 4304SOL    HW113811   3.612   4.289   1.966
 4304SOL    HW213812   3.475   4.201   1.976
 4305SOL     OW13813   0.806   0.000   5.411
 4305SOL    HW113814   0.808   6.977   5.320
 4305SOL    HW213815   0.712   0.005   5.443
 4306SOL     OW13816   4.956   3.722   4.776
 4306SOL    HW113817   4.950   3.651   4.706
 4306SOL    HW213818   4.877   3.717   4.837
 4307SOL     OW13819   6.094   2.717   5.633
 4307SOL    HW113820   6.067   2.688   5.725
 4307SOL    HW213821   6.132   2.809   5.636
 4308SOL     OW13822   5.032   5.273   1.649
 4308SOL    HW113823   4.977   5.342   1.696
 4308SOL    HW213824   5.073   5.212   1.717
 4309SOL     OW13825   1.068   3.487   6.322
 4309SOL    HW113826   1.138   3.455   6.385
 4309SOL    HW213827   1.014   3.558   6.366
 4310SOL     OW13828   1.460   2.300   2.843
 4310SOL    HW113829   1.470   2.284   2.745
 4310SOL    HW213830   1.506   2.227   2.894
 4311SOL     OW13831   1.490   6.266   2.426
 4311SOL    HW113832   1.516   6.170   2.437
 4311SOL    HW213833   1.553   6.311   2.363
 4312SOL     OW13834   0.957   5.006   2.233
 4312SOL    HW113835   0.864   5.041   2.227
 4312SOL    HW213836   0.961   4.935   2.304
 4313SOL     OW13837   4.630   1.841   0.448
 4313SOL    HW113838   4.666   1.892   0.526
 4313SOL    HW213839   4.587   1.904   0.384
 4314SOL     OW13840   6.683   2.446   5.856
 4314SOL    HW113841   6.740   2.374   5.895
 4314SOL    HW213842   6.741   2.518   5.819
 4315SOL     OW13843   1.990   1.918   2.836
 4315SOL    HW113844   1.995   1.964   2.925
 4315SOL    HW213845   2.031   1.977   2.766
 4316SOL     OW13846   4.564   0.868   2.655
 4316SOL    HW113847   4.606   0.837   2.569
 4316SOL    HW213848   4.634   0.876   2.725
 4317SOL     OW13849   4.565   0.853   5.218
 4317SOL    HW113850   4.569   0.953   5.217
 4317SOL    HW213851   4.644   0.817   5.267
 4318SOL     OW13852   0.436   0.926   4.314
 4318SOL    HW113853   0.418   0.833   4.283
 4318SOL    HW213854   0.356   0.983   4.297
 4319SOL     OW13855   1.512   1.838   1.787
 4319SOL    HW113856   1.437   1.845   1.721
 4319SOL    HW213857   1.599   1.841   1.739
 4320SOL     OW13858   3.945   6.313   0.514
 4320SOL    HW113859   4.015   6.243   0.530
 4320SOL    HW213860   3.934   6.328   0.416
 4321SOL     OW13861   6.590   5.798   3.185
 4321SOL    HW113862   6.681   5.797   3.143
 4321SOL    HW213863   6.562   5.892   3.203
 4322SOL     OW13864   0.741   2.631   5.246
 4322SOL    HW113865   0.646   2.603   5.260
 4322SOL    HW213866   0.799   2.586   5.314
 4323SOL     OW13867   4.312   5.368   0.115
 4323SOL    HW113868   4.401   5.328   0.137
 4323SOL    HW213869   4.253   5.297   0.076
 4324SOL     OW13870   0.000   3.836   5.445
 4324SOL    HW113871   6.981   3.808   5.534
 4324SOL    HW213872   0.098   3.816   5.441
 4325SOL     OW13873   3.026   1.121   2.860
 4325SOL    HW113874   3.047   1.174   2.942
 4325SOL    HW213875   2.940   1.153   2.821
 4326SOL     OW13876   5.028   2.885   2.553
 4326SOL    HW113877   5.077   2.961   2.596
 4326SOL    HW213878   4.960   2.922   2.489
 4327SOL     OW13879   3.465   5.545   3.070
 4327SOL    HW113880   3.487   5.496   2.986
 4327SOL    HW213881   3.541   5.536   3.135
 4328SOL     OW13882   5.831   4.725   4.962
 4328SOL    HW113883   5.753   4.665   4.979
 4328SOL    HW213884   5.912   4.688   5.007
 4329SOL     OW13885   5.564   3.188   5.303
 4329SOL    HW113886   5.622   3.252   5.253
 4329SOL    HW213887   5.506   3.139   5.239
 4330SOL     OW13888   2.604   6.254   5.039
 4330SOL    HW113889   2.700   6.231   5.026
 4330SOL    HW213890   2.573   6.310   4.962
 4331SOL     OW13891   6.992   0.643   1.533
 4331SOL    HW113892   6.949   0.553   1.530
 4331SOL    HW213893   0.028   0.658   1.450
 4332SOL     OW13894   6.041   3.683   2.885
 4332SOL    HW113895   5.985   3.665   2.804
 4332SOL    HW213896   6.108   3.611   2.896
 4333SOL     OW13897   4.809   2.419   4.765
 4333SOL    HW113898   4.895   2.380   4.733
 4333SOL    HW213899   4.757   2.349   4.816
 4334SOL     OW13900   0.862   2.749   2.508
 4334SOL    HW113901   0.954   2.712   2.516
 4334SOL    HW213902   0.850   2.791   2.418
 4335SOL     OW13903   3.092   2.890   0.581
 4335SOL    HW113904   3.074   2.793   0.593
 4335SOL    HW213905   3.008   2.936   0.550
 4336SOL     OW13906   1.998   5.262   5.485
 4336SOL    HW113907   2.063   5.323   5.440
 4336SOL    HW213908   2.012   5.169   5.451
 4337SOL     OW13909   1.474   5.797   2.723
 4337SOL    HW113910   1.429   5.765   2.640
 4337SOL    HW213911   1.552   5.738   2.744
 4338SOL     OW13912   6.354   6.771   5.992
 4338SOL    HW113913   6.272   6.718   5.968
 4338SOL    HW213914   6.435   6.723   5.959
 4339SOL     OW13915   4.075   2.574   0.195
 4339SOL    HW113916   4.001   2.515   0.228
 4339SOL    HW213917   4.162   2.543   0.235
 4340SOL     OW13918   6.058   3.475   0.915
 4340SOL    HW113919   5.963   3.504   0.900
 4340SOL    HW213920   6.089   3.423   0.836
 4341SOL     OW13921   0.989   5.880   2.210
 4341SOL    HW113922   0.907   5.937   2.211
 4341SOL    HW213923   1.067   5.935   2.181
 4342SOL     OW13924   4.973   3.492   3.060
 4342SOL    HW113925   4.949   3.588   3.073
 4342SOL    HW213926   5.024   3.460   3.141
 4343SOL     OW13927   3.577   0.209   5.930
 4343SOL    HW113928   3.601   0.205   6.027
 4343SOL    HW213929   3.583   0.303   5.898
 4344SOL     OW13930   0.341   3.235   3.980
 4344SOL    HW113931   0.277   3.310   3.966
 4344SOL    HW213932   0.291   3.155   4.013
 4345SOL     OW13933   2.918   3.518   2.624
 4345SOL    HW113934   2.937   3.615   2.614
 4345SOL    HW213935   2.904   3.477   2.533
 4346SOL     OW13936   2.269   2.959   3.088
 4346SOL    HW113937   2.170   2.945   3.092
 4346SOL    HW213938   2.294   2.993   2.997
 4347SOL     OW13939   6.332   5.727   1.193
 4347SOL    HW113940   6.377   5.645   1.156
 4347SOL    HW213941   6.275   5.768   1.122
 4348SOL     OW13942   6.584   6.111   3.980
 4348SOL    HW113943   6.646   6.034   3.998
 4348SOL    HW213944   6.489   6.079   3.988
 4349SOL     OW13945   0.369   4.097   3.677
 4349SOL    HW113946   0.429   4.069   3.752
 4349SOL    HW213947   0.301   4.161   3.711
 4350SOL     OW13948   5.761   1.722   4.835
 4350SOL    HW113949   5.753   1.798   4.899
 4350SOL    HW213950   5.689   1.730   4.765
 4351SOL     OW13951   1.504   6.223   1.822
 4351SOL    HW113952   1.419   6.251   1.868
 4351SOL    HW213953   1.488   6.217   1.724
 4352SOL     OW13954   5.531   4.263   1.222
 4352SOL    HW113955   5.514   4.330   1.293
 4352SOL    HW213956   5.449   4.253   1.165
 4353SOL     OW13957   3.232   3.364   6.622
 4353SOL    HW113958   3.213   3.416   6.539
 4353SOL    HW213959   3.277   3.424   6.689
 4354SOL     OW13960   0.446   0.226   4.691
 4354SOL    HW113961   0.370   0.161   4.684
 4354SOL    HW213962   0.427   0.292   4.764
 4355SOL     OW13963   1.261   0.022   3.919
 4355SOL    HW113964   1.359   0.037   3.933
 4355SOL    HW213965   1.246   6.988   3.835
 4356SOL     OW13966   4.908   3.178   5.761
 4356SOL    HW113967   4.922   3.250   5.694
 4356SOL    HW213968   4.990   3.169   5.818
 4357SOL     OW13969   6.804   1.351   2.334
 4357SOL    HW113970   6.842   1.437   2.370
 4357SOL    HW213971   6.791   1.360   2.235
 4358SOL     OW13972   0.187   1.108   0.297
 4358SOL    HW113973   0.246   1.038   0.338
 4358SOL    HW213974   0.096   1.102   0.337
 4359SOL     OW13975   2.240   0.815   6.152
 4359SOL    HW113976   2.196   0.843   6.237
 4359SOL    HW213977   2.173   0.817   6.078
 4360SOL     OW13978   0.926   2.626   3.539
 4360SOL    HW113979   0.961   2.626   3.633
 4360SOL    HW213980   0.837   2.581   3.536
 4361SOL     OW13981   1.802   2.389   1.098
 4361SOL    HW113982   1.732   2.438   1.046
 4361SOL    HW213983   1.846   2.321   1.039
 4362SOL     OW13984   0.724   6.430   4.076
 4362SOL    HW113985   0.821   6.407   4.075
 4362SOL    HW213986   0.670   6.347   4.087
 4363SOL     OW13987   4.311   0.607   3.191
 4363SOL    HW113988   4.307   0.510   3.169
 4363SOL    HW213989   4.249   0.658   3.131
 4364SOL     OW13990   2.948   3.784   2.609
 4364SOL    HW113991   2.971   3.828   2.522
 4364SOL    HW213992   2.987   3.837   2.684
 4365SOL     OW13993   2.727   1.850   1.512
 4365SOL    HW113994   2.693   1.943   1.497
 4365SOL    HW213995   2.742   1.836   1.610
 4366SOL     OW13996   5.450   5.892   5.477
 4366SOL    HW113997   5.399   5.975   5.456
 4366SOL    HW213998   5.413   5.850   5.560
 4367SOL     OW13999   3.211   4.966   2.894
 4367SOL    HW114000   3.303   4.944   2.860
 4367SOL    HW214001   3.195   5.064   2.886
 4368SOL     OW14002   4.240   6.176   2.646
 4368SOL    HW114003   4.307   6.179   2.721
 4368SOL    HW214004   4.240   6.265   2.599
 4369SOL     OW14005   5.115   5.527   3.407
 4369SOL    HW114006   5.020   5.504   3.427
 4369SOL    HW214007   5.175   5.478   3.471
 4370SOL     OW14008   3.736   4.026   1.626
 4370SOL    HW114009   3.795   3.993   1.553
 4370SOL    HW214010   3.704   4.118   1.603
 4371SOL     OW14011   2.824   0.416   2.355
 4371SOL    HW114012   2.895   0.425   2.425
 4371SOL    HW214013   2.735   0.407   2.399
 4372SOL     OW14014   1.392   2.683   4.747
 4372SOL    HW114015   1.458   2.668   4.821
 4372SOL    HW214016   1.333   2.602   4.739
 4373SOL     OW14017   4.553   0.739   6.104
 4373SOL    HW114018   4.641   0.755   6.059
 4373SOL    HW214019   4.509   0.827   6.125
 4374SOL     OW14020   2.497   1.908   1.137
 4374SOL    HW114021   2.463   1.958   1.216
 4374SOL    HW214022   2.435   1.833   1.115
 4375SOL     OW14023   3.641   0.113   3.548
 4375SOL    HW114024   3.669   0.100   3.643
 4375SOL    HW214025   3.718   0.097   3.487
 4376SOL     OW14026   6.559   6.050   1.340
 4376SOL    HW114027   6.600   6.141   1.331
 4376SOL    HW214028   6.632   5.982   1.348
 4377SOL     OW14029   6.389   5.844   0.424
 4377SOL    HW114030   6.303   5.857   0.473
 4377SOL    HW214031   6.443   5.928   0.429
 4378SOL     OW14032   1.619   5.123   2.340
 4378SOL    HW114033   1.698   5.178   2.367
 4378SOL    HW214034   1.650   5.034   2.307
 4379SOL     OW14035   2.080   0.403   1.831
 4379SOL    HW114036   2.039   0.476   1.776
 4379SOL    HW214037   2.038   0.402   1.921
 4380SOL     OW14038   2.070   6.010   4.802
 4380SOL    HW114039   2.092   6.053   4.715
 4380SOL    HW214040   2.073   6.078   4.875
 4381SOL     OW14041   3.499   5.491   4.302
 4381SOL    HW114042   3.412   5.479   4.349
 4381SOL    HW214043   3.507   5.585   4.269
 4382SOL     OW14044   4.808   4.545   4.332
 4382SOL    HW114045   4.748   4.527   4.409
 4382SOL    HW214046   4.902   4.556   4.364
 4383SOL     OW14047   1.421   1.723   5.647
 4383SOL    HW114048   1.505   1.777   5.644
 4383SOL    HW214049   1.432   1.642   5.590
 4384SOL     OW14050   4.084   0.377   1.364
 4384SOL    HW114051   4.025   0.451   1.331
 4384SOL    HW214052   4.041   0.289   1.344
 4385SOL     OW14053   0.015   1.621   3.927
 4385SOL    HW114054   0.095   1.661   3.882
 4385SOL    HW214055   6.952   1.678   3.910
 4386SOL     OW14056   1.097   4.278   6.335
 4386SOL    HW114057   1.139   4.195   6.371
 4386SOL    HW214058   1.047   4.325   6.408
 4387SOL     OW14059   6.681   2.445   1.283
 4387SOL    HW114060   6.760   2.472   1.228
 4387SOL    HW214061   6.680   2.345   1.293
 4388SOL     OW14062   3.955   0.717   6.525
 4388SOL    HW114063   3.914   0.787   6.467
 4388SOL    HW214064   4.038   0.753   6.567
 4389SOL     OW14065   5.468   2.377   1.549
 4389SOL    HW114066   5.442   2.454   1.608
 4389SOL    HW214067   5.386   2.325   1.525
 4390SOL     OW14068   4.502   2.187   1.855
 4390SOL    HW114069   4.497   2.129   1.936
 4390SOL    HW214070   4.413   2.230   1.839
 4391SOL     OW14071   1.433   5.766   6.487
 4391SOL    HW114072   1.480   5.771   6.575
 4391SOL    HW214073   1.354   5.705   6.494
 4392SOL     OW14074   5.099   3.289   4.892
 4392SOL    HW114075   5.075   3.318   4.984
 4392SOL    HW214076   5.031   3.324   4.827
 4393SOL     OW14077   4.530   0.037   3.612
 4393SOL    HW114078   4.515   6.976   3.552
 4393SOL    HW214079   4.556   0.006   3.703
 4394SOL     OW14080   5.913   5.763   2.749
 4394SOL    HW114081   5.976   5.840   2.741
 4394SOL    HW214082   5.829   5.783   2.698
 4395SOL     OW14083   4.544   1.715   0.901
 4395SOL    HW114084   4.508   1.780   0.969
 4395SOL    HW214085   4.484   1.636   0.896
 4396SOL     OW14086   1.928   1.929   4.514
 4396SOL    HW114087   1.855   1.947   4.447
 4396SOL    HW214088   1.944   1.831   4.519
 4397SOL     OW14089   0.483   1.452   3.938
 4397SOL    HW114090   0.493   1.465   3.839
 4397SOL    HW214091   0.387   1.438   3.959
 4398SOL     OW14092   1.459   4.425   4.672
 4398SOL    HW114093   1.437   4.328   4.681
 4398SOL    HW214094   1.514   4.455   4.750
 4399SOL     OW14095   2.870   0.647   0.913
 4399SOL    HW114096   2.833   0.577   0.852
 4399SOL    HW214097   2.883   0.608   1.004
 4400SOL     OW14098   1.782   6.971   4.336
 4400SOL    HW114099   1.784   0.039   4.285
 4400SOL    HW214100   1.735   6.901   4.282
 4401SOL     OW14101   5.786   6.112   5.293
 4401SOL    HW114102   5.863   6.137   5.235
 4401SOL    HW214103   5.806   6.027   5.340
 4402SOL     OW14104   1.088   5.648   3.105
 4402SOL    HW114105   1.000   5.604   3.088
 4402SOL    HW214106   1.075   5.729   3.163
 4403SOL     OW14107   6.503   0.149   3.294
 4403SOL    HW114108   6.563   0.171   3.218
 4403SOL    HW214109   6.495   0.050   3.303
 4404SOL     OW14110   1.055   3.598   4.500
 4404SOL    HW114111   0.984   3.583   4.568
 4404SOL    HW214112   1.142   3.560   4.534
 4405SOL     OW14113   3.042   4.624   5.617
 4405SOL    HW114114   3.094   4.642   5.534
 4405SOL    HW214115   3.060   4.530   5.647
 4406SOL     OW14116   4.824   5.004   1.070
 4406SOL    HW114117   4.815   5.031   1.166
 4406SOL    HW214118   4.921   5.008   1.044
 4407SOL     OW14119   0.030   5.723   0.587
 4407SOL    HW114120   0.032   5.641   0.530
 4407SOL    HW214121   0.025   5.697   0.684
 4408SOL     OW14122   4.576   0.608   0.962
 4408SOL    HW114123   4.503   0.671   0.985
 4408SOL    HW214124   4.591   0.544   1.037
 4409SOL     OW14125   3.983   1.259   1.674
 4409SOL    HW114126   3.936   1.233   1.589
 4409SOL    HW214127   3.926   1.322   1.725
 4410SOL     OW14128   2.407   4.305   0.058
 4410SOL    HW114129   2.311   4.300   0.085
 4410SOL    HW214130   2.426   4.235   7.006
 4411SOL     OW14131   3.296   3.233   3.048
 4411SOL    HW114132   3.210   3.183   3.065
 4411SOL    HW214133   3.339   3.198   2.965
 4412SOL     OW14134   4.623   1.600   5.622
 4412SOL    HW114135   4.657   1.572   5.712
 4412SOL    HW214136   4.597   1.697   5.626
 4413SOL     OW14137   4.588   5.727   4.710
 4413SOL    HW114138   4.526   5.783   4.655
 4413SOL    HW214139   4.682   5.742   4.681
 4414SOL     OW14140   4.801   5.009   2.331
 4414SOL    HW114141   4.716   5.008   2.278
 4414SOL    HW214142   4.850   5.094   2.314
 4415SOL     OW14143   5.544   3.568   6.295
 4415SOL    HW114144   5.551   3.511   6.214
 4415SOL    HW214145   5.449   3.598   6.307
 4416SOL     OW14146   2.758   1.783   4.110
 4416SOL    HW114147   2.833   1.744   4.162
 4416SOL    HW214148   2.795   1.839   4.035
 4417SOL     OW14149   6.844   4.680   2.693
 4417SOL    HW114150   6.846   4.770   2.648
 4417SOL    HW214151   6.909   4.680   2.769
 4418SOL     OW14152   4.475   6.685   4.051
 4418SOL    HW114153   4.414   6.654   3.978
 4418SOL    HW214154   4.423   6.697   4.136
 4419SOL     OW14155   5.709   5.602   0.368
 4419SOL    HW114156   5.624   5.597   0.316
 4419SOL    HW214157   5.690   5.593   0.465
 4420SOL     OW14158   4.535   1.073   0.648
 4420SOL    HW114159   4.510   1.156   0.697
 4420SOL    HW214160   4.572   1.006   0.713
 4421SOL     OW14161   2.459   1.546   2.281
 4421SOL    HW114162   2.482   1.475   2.213
 4421SOL    HW214163   2.388   1.606   2.244
 4422SOL     OW14164   2.647   2.970   5.719
 4422SOL    HW114165   2.680   2.954   5.812
 4422SOL    HW214166   2.548   2.982   5.720
 4423SOL     OW14167   1.183   2.174   5.540
 4423SOL    HW114168   1.112   2.104   5.535
 4423SOL    HW214169   1.148   2.259   5.500
 4424SOL     OW14170   4.997   6.682   3.311
 4424SOL    HW114171   5.027   6.713   3.401
 4424SOL    HW214172   4.925   6.613   3.321
 4425SOL     OW14173   3.464   5.584   6.064
 4425SOL    HW114174   3.543   5.645   6.063
 4425SOL    HW214175   3.444   5.553   5.971
 4426SOL     OW14176   0.080   1.077   5.382
 4426SOL    HW114177   0.084   0.987   5.338
 4426SOL    HW214178   7.002   1.100   5.402
 4427SOL     OW14179   0.445   1.020   3.004
 4427SOL    HW114180   0.433   1.098   3.065
 4427SOL    HW214181   0.447   0.936   3.058
 4428SOL     OW14182   2.849   4.765   4.187
 4428SOL    HW114183   2.792   4.774   4.268
 4428SOL    HW214184   2.815   4.689   4.131
 4429SOL     OW14185   3.391   0.113   3.754
 4429SOL    HW114186   3.464   0.063   3.708
 4429SOL    HW214187   3.397   0.210   3.731
 4430SOL     OW14188   4.460   2.388   3.569
 4430SOL    HW114189   4.448   2.412   3.473
 4430SOL    HW214190   4.509   2.301   3.575
 4431SOL     OW14191   3.028   1.129   2.375
 4431SOL    HW114192   2.948   1.125   2.315
 4431SOL    HW214193   3.107   1.090   2.328
 4432SOL     OW14194   3.537   2.882   3.939
 4432SOL    HW114195   3.534   2.876   4.039
 4432SOL    HW214196   3.535   2.790   3.900
 4433SOL     OW14197   6.128   0.323   3.598
 4433SOL    HW114198   6.169   0.236   3.626
 4433SOL    HW214199   6.039   0.334   3.643
 4434SOL     OW14200   4.756   1.340   4.394
 4434SOL    HW114201   4.800   1.272   4.334
 4434SOL    HW214202   4.740   1.424   4.342
 4435SOL     OW14203   3.565   3.480   0.855
 4435SOL    HW114204   3.505   3.465   0.776
 4435SOL    HW214205   3.656   3.507   0.823
 4436SOL     OW14206   3.150   2.012   6.869
 4436SOL    HW114207   3.142   1.966   6.781
 4436SOL    HW214208   3.235   2.066   6.871
 4437SOL     OW14209   4.325   0.867   4.486
 4437SOL    HW114210   4.286   0.789   4.533
 4437SOL    HW214211   4.424   0.868   4.499
 4438SOL     OW14212   4.567   1.596   0.010
 4438SOL    HW114213   4.509   1.575   0.088
 4438SOL    HW214214   4.593   1.693   0.013
 4439SOL     OW14215   0.930   5.231   1.379
 4439SOL    HW114216   0.978   5.297   1.437
 4439SOL    HW214217   0.832   5.243   1.390
 4440SOL     OW14218   2.013   5.292   0.057
 4440SOL    HW114219   2.059   5.203   0.057
 4440SOL    HW214220   1.947   5.296   6.999
 4441SOL     OW14221   6.205   1.798   1.588
 4441SOL    HW114222   6.257   1.859   1.648
 4441SOL    HW214223   6.114   1.836   1.572
 4442SOL     OW14224   3.398   6.430   3.622
 4442SOL    HW114225   3.368   6.525   3.628
 4442SOL    HW214226   3.354   6.386   3.544
 4443SOL     OW14227   1.196   2.260   6.824
 4443SOL    HW114228   1.293   2.261   6.800
 4443SOL    HW214229   1.141   2.273   6.741
 4444SOL     OW14230   4.034   6.163   6.651
 4444SOL    HW114231   4.026   6.259   6.626
 4444SOL    HW214232   3.986   6.147   6.737
 4445SOL     OW14233   1.350   1.052   6.200
 4445SOL    HW114234   1.298   0.967   6.187
 4445SOL    HW214235   1.305   1.126   6.151
 4446SOL     OW14236   6.076   0.930   1.575
 4446SOL    HW114237   5.983   0.965   1.561
 4446SOL    HW214238   6.123   0.986   1.644
 4447SOL     OW14239   5.202   3.404   5.531
 4447SOL    HW114240   5.133   3.446   5.472
 4447SOL    HW214241   5.215   3.462   5.612
 4448SOL     OW14242   3.020   3.996   0.090
 4448SOL    HW114243   2.996   3.947   0.173
 4448SOL    HW214244   2.943   3.995   0.027
 4449SOL     OW14245   3.442   0.501   5.998
 4449SOL    HW114246   3.486   0.517   6.086
 4449SOL    HW214247   3.485   0.558   5.928
 4450SOL     OW14248   3.421   2.850   3.020
 4450SOL    HW114249   3.489   2.832   2.949
 4450SOL    HW214250   3.456   2.817   3.108
 4451SOL     OW14251   5.650   4.233   2.653
 4451SOL    HW114252   5.724   4.167   2.641
 4451SOL    HW214253   5.640   4.256   2.749
 4452SOL     OW14254   6.004   6.369   4.783
 4452SOL    HW114255   5.948   6.428   4.841
 4452SOL    HW214256   5.956   6.283   4.767
 4453SOL     OW14257   5.992   3.175   0.896
 4453SOL    HW114258   5.931   3.254   0.889
 4453SOL    HW214259   6.060   3.192   0.967
 4454SOL     OW14260   5.190   2.150   1.147
 4454SOL    HW114261   5.156   2.138   1.240
 4454SOL    HW214262   5.257   2.224   1.145
 4455SOL     OW14263   2.855   6.389   1.005
 4455SOL    HW114264   2.905   6.305   0.984
 4455SOL    HW214265   2.779   6.399   0.940
 4456SOL     OW14266   2.541   5.094   2.347
 4456SOL    HW114267   2.474   5.071   2.418
 4456SOL    HW214268   2.503   5.164   2.287
 4457SOL     OW14269   4.272   2.591   6.800
 4457SOL    HW114270   4.226   2.565   6.716
 4457SOL    HW214271   4.205   2.627   6.865
 4458SOL     OW14272   1.930   3.107   6.761
 4458SOL    HW114273   1.925   3.037   6.690
 4458SOL    HW214274   1.840   3.118   6.803
 4459SOL     OW14275   5.159   6.971   4.217
 4459SOL    HW114276   5.231   6.957   4.285
 4459SOL    HW214277   5.151   6.889   4.160
 4460SOL     OW14278   2.202   3.067   6.329
 4460SOL    HW114279   2.243   3.156   6.307
 4460SOL    HW214280   2.247   2.996   6.275
 4461SOL     OW14281   0.888   0.105   2.728
 4461SOL    HW114282   0.894   0.026   2.789
 4461SOL    HW214283   0.947   0.178   2.762
 4462SOL     OW14284   6.635   4.143   1.351
 4462SOL    HW114285   6.719   4.102   1.317
 4462SOL    HW214286   6.600   4.209   1.284
 4463SOL     OW14287   1.846   2.661   7.014
 4463SOL    HW114288   1.783   2.592   0.033
 4463SOL    HW214289   1.819   2.751   0.030
 4464SOL     OW14290   6.084   4.873   0.597
 4464SOL    HW114291   6.069   4.790   0.543
 4464SOL    HW214292   6.178   4.904   0.585
 4465SOL     OW14293   1.909   6.141   2.868
 4465SOL    HW114294   1.906   6.047   2.901
 4465SOL    HW214295   1.824   6.188   2.892
 4466SOL     OW14296   0.822   0.845   2.907
 4466SOL    HW114297   0.789   0.907   2.836
 4466SOL    HW214298   0.920   0.860   2.922
 4467SOL     OW14299   0.813   6.728   3.529
 4467SOL    HW114300   0.811   6.805   3.592
 4467SOL    HW214301   0.908   6.702   3.511
 4468SOL     OW14302   0.534   1.809   0.232
 4468SOL    HW114303   0.540   1.859   0.319
 4468SOL    HW214304   0.465   1.853   0.174
 4469SOL     OW14305   2.996   6.808   1.862
 4469SOL    HW114306   2.950   6.755   1.791
 4469SOL    HW214307   3.080   6.761   1.890
 4470SOL     OW14308   5.457   3.323   1.571
 4470SOL    HW114309   5.393   3.394   1.544
 4470SOL    HW214310   5.412   3.258   1.631
 4471SOL     OW14311   0.214   2.977   0.063
 4471SOL    HW114312   0.236   2.881   0.078
 4471SOL    HW214313   0.114   2.988   0.058
 4472SOL     OW14314   1.813   4.094   2.825
 4472SOL    HW114315   1.830   4.002   2.789
 4472SOL    HW214316   1.840   4.097   2.922
 4473SOL     OW14317   6.793   0.234   4.911
 4473SOL    HW114318   6.850   0.221   4.831
 4473SOL    HW214319   6.705   0.186   4.898
 4474SOL     OW14320   3.051   0.430   2.799
 4474SOL    HW114321   3.101   0.348   2.825
 4474SOL    HW214322   3.073   0.453   2.704
 4475SOL     OW14323   1.271   3.736   1.499
 4475SOL    HW114324   1.222   3.800   1.440
 4475SOL    HW214325   1.216   3.718   1.581
 4476SOL     OW14326   5.201   6.461   2.969
 4476SOL    HW114327   5.195   6.362   2.975
 4476SOL    HW214328   5.133   6.503   3.029
 4477SOL     OW14329   1.675   0.280   6.603
 4477SOL    HW114330   1.611   0.204   6.587
 4477SOL    HW214331   1.766   0.243   6.625
 4478SOL     OW14332   2.325   6.299   2.576
 4478SOL    HW114333   2.349   6.378   2.633
 4478SOL    HW214334   2.342   6.215   2.627
 4479SOL     OW14335   1.550   0.472   6.467
 4479SOL    HW114336   1.485   0.404   6.432
 4479SOL    HW214337   1.614   0.427   6.530
 4480SOL     OW14338   2.008   3.388   4.474
 4480SOL    HW114339   1.981   3.476   4.437
 4480SOL    HW214340   2.043   3.400   4.567
 4481SOL     OW14341   2.093   6.629   4.388
 4481SOL    HW114342   2.159   6.583   4.329
 4481SOL    HW214343   2.141   6.696   4.445
 4482SOL     OW14344   1.029   3.886   3.857
 4482SOL    HW114345   1.009   3.817   3.927
 4482SOL    HW214346   1.119   3.868   3.817
 4483SOL     OW14347   6.722   3.084   1.281
 4483SOL    HW114348   6.754   2.998   1.321
 4483SOL    HW214349   6.623   3.078   1.265
 4484SOL     OW14350   3.604   2.096   5.542
 4484SOL    HW114351   3.690   2.047   5.530
 4484SOL    HW214352   3.569   2.125   5.453
 4485SOL     OW14353   5.230   2.705   6.566
 4485SOL    HW114354   5.284   2.636   6.517
 4485SOL    HW214355   5.134   2.698   6.536
 4486SOL     OW14356   6.892   4.093   4.830
 4486SOL    HW114357   6.866   4.127   4.920
 4486SOL    HW214358   6.822   4.031   4.796
 4487SOL     OW14359   2.401   3.307   6.848
 4487SOL    HW114360   2.307   3.272   6.842
 4487SOL    HW214361   2.402   3.389   6.905
 4488SOL     OW14362   5.539   2.650   6.516
 4488SOL    HW114363   5.614   2.598   6.475
 4488SOL    HW214364   5.556   2.661   6.614
 4489SOL     OW14365   5.132   6.057   4.326
 4489SOL    HW114366   5.200   6.014   4.267
 4489SOL    HW214367   5.161   6.048   4.422
 4490SOL     OW14368   5.383   1.693   1.557
 4490SOL    HW114369   5.354   1.781   1.520
 4490SOL    HW214370   5.469   1.665   1.513
 4491SOL     OW14371   1.010   3.102   2.928
 4491SOL    HW114372   0.995   3.163   3.005
 4491SOL    HW214373   0.933   3.038   2.921
 4492SOL     OW14374   5.282   2.599   0.423
 4492SOL    HW114375   5.310   2.648   0.506
 4492SOL    HW214376   5.233   2.516   0.449
 4493SOL     OW14377   3.798   4.898   4.533
 4493SOL    HW114378   3.841   4.985   4.556
 4493SOL    HW214379   3.838   4.825   4.587
 4494SOL     OW14380   0.037   2.495   6.001
 4494SOL    HW114381   0.072   2.485   6.094
 4494SOL    HW214382   7.004   2.580   5.993
 4495SOL     OW14383   5.260   6.950   3.506
 4495SOL    HW114384   5.322   6.947   3.585
 4495SOL    HW214385   5.192   6.877   3.516
 4496SOL     OW14386   5.296   5.052   0.516
 4496SOL    HW114387   5.370   5.070   0.452
 4496SOL    HW214388   5.324   4.980   0.580
 4497SOL     OW14389   5.496   5.987   6.755
 4497SOL    HW114390   5.528   6.074   6.718
 4497SOL    HW214391   5.560   5.915   6.730
 4498SOL     OW14392   0.388   3.668   6.565
 4498SOL    HW114393   0.453   3.620   6.625
 4498SOL    HW214394   0.420   3.662   6.470
 4499SOL     OW14395   6.502   3.233   4.149
 4499SOL    HW114396   6.505   3.330   4.124
 4499SOL    HW214397   6.422   3.216   4.208
 4500SOL     OW14398   2.979   3.591   4.174
 4500SOL    HW114399   2.936   3.508   4.137
 4500SOL    HW214400   2.936   3.672   4.134
 4501SOL     OW14401   0.946   3.861   5.559
 4501SOL    HW114402   1.044   3.853   5.542
 4501SOL    HW214403   0.903   3.771   5.552
 4502SOL     OW14404   1.966   2.571   5.936
 4502SOL    HW114405   1.967   2.519   5.850
 4502SOL    HW214406   2.018   2.655   5.925
 4503SOL     OW14407   2.275   0.826   3.199
 4503SOL    HW114408   2.180   0.847   3.223
 4503SOL    HW214409   2.289   0.727   3.203
 4504SOL     OW14410   6.417   2.226   5.350
 4504SOL    HW114411   6.480   2.208   5.274
 4504SOL    HW214412   6.353   2.297   5.324
 4505SOL     OW14413   0.377   6.108   4.920
 4505SOL    HW114414   0.407   6.051   4.843
 4505SOL    HW214415   0.295   6.158   4.894
 4506SOL     OW14416   3.994   2.106   4.597
 4506SOL    HW114417   4.018   2.118   4.501
 4506SOL    HW214418   3.955   2.015   4.611
 4507SOL     OW14419   4.997   4.414   1.595
 4507SOL    HW114420   4.924   4.415   1.526
 4507SOL    HW214421   4.966   4.365   1.676
 4508SOL     OW14422   1.497   4.077   6.829
 4508SOL    HW114423   1.510   4.078   6.730
 4508SOL    HW214424   1.435   4.003   6.853
 4509SOL     OW14425   4.422   1.922   4.301
 4509SOL    HW114426   4.521   1.934   4.299
 4509SOL    HW214427   4.400   1.828   4.325
 4510SOL     OW14428   5.491   0.359   4.904
 4510SOL    HW114429   5.473   0.412   4.821
 4510SOL    HW214430   5.534   0.272   4.879
 4511SOL     OW14431   0.237   3.231   6.370
 4511SOL    HW114432   0.305   3.172   6.327
 4511SOL    HW214433   0.203   3.187   6.453
 4512SOL     OW14434   2.632   6.704   6.031
 4512SOL    HW114435   2.556   6.693   5.967
 4512SOL    HW214436   2.695   6.774   5.997
 4513SOL     OW14437   5.147   6.457   1.501
 4513SOL    HW114438   5.183   6.409   1.581
 4513SOL    HW214439   5.048   6.444   1.496
 4514SOL     OW14440   3.958   0.992   4.617
 4514SOL    HW114441   4.008   0.997   4.531
 4514SOL    HW214442   3.964   1.080   4.664
 4515SOL     OW14443   6.603   4.231   0.050
 4515SOL    HW114444   6.504   4.237   0.066
 4515SOL    HW214445   6.622   4.247   6.971
 4516SOL     OW14446   1.265   1.257   6.036
 4516SOL    HW114447   1.259   1.234   5.939
 4516SOL    HW214448   1.191   1.319   6.060
 4517SOL     OW14449   2.693   6.995   5.815
 4517SOL    HW114450   2.694   6.906   5.770
 4517SOL    HW214451   2.720   6.985   5.910
 4518SOL     OW14452   0.110   2.074   3.805
 4518SOL    HW114453   0.021   2.037   3.832
 4518SOL    HW214454   0.096   2.153   3.745
 4519SOL     OW14455   0.247   1.449   2.600
 4519SOL    HW114456   0.283   1.358   2.583
 4519SOL    HW214457   0.187   1.448   2.680
 4520SOL     OW14458   5.657   4.998   2.750
 4520SOL    HW114459   5.754   4.990   2.774
 4520SOL    HW214460   5.629   5.094   2.755
 4521SOL     OW14461   4.951   1.816   5.765
 4521SOL    HW114462   5.011   1.893   5.746
 4521SOL    HW214463   4.989   1.734   5.721
 4522SOL     OW14464   4.848   6.924   3.697
 4522SOL    HW114465   4.907   6.995   3.660
 4522SOL    HW214466   4.862   6.916   3.796
 4523SOL     OW14467   1.893   4.240   0.041
 4523SOL    HW114468   1.833   4.195   6.993
 4523SOL    HW214469   1.912   4.334   0.010
 4524SOL     OW14470   5.357   2.141   5.349
 4524SOL    HW114471   5.387   2.046   5.348
 4524SOL    HW214472   5.434   2.200   5.323
 4525SOL     OW14473   6.621   1.944   4.001
 4525SOL    HW114474   6.596   2.035   3.967
 4525SOL    HW214475   6.598   1.938   4.098
 4526SOL     OW14476   4.982   0.075   1.389
 4526SOL    HW114477   5.004   7.005   1.431
 4526SOL    HW214478   5.031   0.148   1.435
 4527SOL     OW14479   4.408   1.002   3.784
 4527SOL    HW114480   4.459   0.916   3.791
 4527SOL    HW214481   4.370   1.011   3.692
 4528SOL     OW14482   4.795   6.422   6.996
 4528SOL    HW114483   4.884   6.401   6.956
 4528SOL    HW214484   4.807   6.484   0.056
 4529SOL     OW14485   2.659   0.949   3.550
 4529SOL    HW114486   2.579   1.002   3.578
 4529SOL    HW214487   2.728   1.011   3.512
 4530SOL     OW14488   0.552   3.643   5.754
 4530SOL    HW114489   0.558   3.611   5.848
 4530SOL    HW214490   0.591   3.735   5.747
 4531SOL     OW14491   1.183   3.875   3.158
 4531SOL    HW114492   1.113   3.808   3.182
 4531SOL    HW214493   1.260   3.829   3.114
 4532SOL     OW14494   0.190   1.520   1.938
 4532SOL    HW114495   0.206   1.614   1.969
 4532SOL    HW214496   0.275   1.481   1.903
 4533SOL     OW14497   1.525   0.449   3.456
 4533SOL    HW114498   1.494   0.544   3.465
 4533SOL    HW214499   1.482   0.394   3.528
 4534SOL     OW14500   6.251   3.554   4.944
 4534SOL    HW114501   6.264   3.577   5.040
 4534SOL    HW214502   6.315   3.607   4.888
 4535SOL     OW14503   4.490   1.931   2.656
 4535SOL    HW114504   4.466   1.838   2.629
 4535SOL    HW214505   4.420   1.967   2.717
 4536SOL     OW14506   4.949   1.217   4.584
 4536SOL    HW114507   4.862   1.232   4.538
 4536SOL    HW214508   4.945   1.252   4.677
 4537SOL     OW14509   3.548   3.221   6.362
 4537SOL    HW114510   3.556   3.147   6.429
 4537SOL    HW214511   3.465   3.208   6.308
 4538SOL     OW14512   3.457   2.131   3.984
 4538SOL    HW114513   3.493   2.183   4.062
 4538SOL    HW214514   3.525   2.131   3.910
 4539SOL     OW14515   2.718   2.194   4.068
 4539SOL    HW114516   2.779   2.218   4.143
 4539SOL    HW214517   2.746   2.242   3.985
 4540SOL     OW14518   4.024   3.868   3.748
 4540SOL    HW114519   4.052   3.875   3.844
 4540SOL    HW214520   4.104   3.879   3.689
 4541SOL     OW14521   5.499   0.410   0.160
 4541SOL    HW114522   5.443   0.354   0.221
 4541SOL    HW214523   5.473   0.506   0.170
 4542SOL     OW14524   6.063   6.190   2.075
 4542SOL    HW114525   6.049   6.143   1.988
 4542SOL    HW214526   5.976   6.196   2.125
 4543SOL     OW14527   4.536   1.314   6.916
 4543SOL    HW114528   4.559   1.410   6.901
 4543SOL    HW214529   4.464   1.286   6.853
 4544SOL     OW14530   2.711   6.133   6.440
 4544SOL    HW114531   2.695   6.131   6.341
 4544SOL    HW214532   2.633   6.177   6.485
 4545SOL     OW14533   4.754   2.408   5.187
 4545SOL    HW114534   4.795   2.490   5.226
 4545SOL    HW214535   4.690   2.434   5.114
 4546SOL     OW14536   0.792   6.986   6.333
 4546SOL    HW114537   0.853   0.040   6.299
 4546SOL    HW214538   0.810   6.901   6.283
 4547SOL     OW14539   5.721   3.193   1.910
 4547SOL    HW114540   5.753   3.104   1.942
 4547SOL    HW214541   5.768   3.266   1.961
 4548SOL     OW14542   1.405   4.877   4.139
 4548SOL    HW114543   1.424   4.950   4.205
 4548SOL    HW214544   1.478   4.809   4.144
 4549SOL     OW14545   6.810   3.633   2.994
 4549SOL    HW114546   6.876   3.575   2.946
 4549SOL    HW214547   6.803   3.603   3.089
 4550SOL     OW14548   0.572   5.874   3.757
 4550SOL    HW114549   0.563   5.895   3.659
 4550SOL    HW214550   0.480   5.868   3.797
 4551SOL     OW14551   0.211   1.736   5.372
 4551SOL    HW114552   0.123   1.691   5.387
 4551SOL    HW214553   0.251   1.701   5.287
 4552SOL     OW14554   0.286   3.340   5.928
 4552SOL    HW114555   0.206   3.287   5.957
 4552SOL    HW214556   0.368   3.306   5.974
 4553SOL     OW14557   3.820   4.895   6.608
 4553SOL    HW114558   3.785   4.816   6.659
 4553SOL    HW214559   3.813   4.977   6.665
 4554SOL     OW14560   4.143   1.101   2.036
 4554SOL    HW114561   4.052   1.129   2.066
 4554SOL    HW214562   4.152   1.117   1.938
 4555SOL     OW14563   4.365   1.385   6.640
 4555SOL    HW114564   4.306   1.314   6.679
 4555SOL    HW214565   4.371   1.372   6.541
 4556SOL     OW14566   4.113   1.065   3.820
 4556SOL    HW114567   4.201   1.028   3.849
 4556SOL    HW214568   4.039   1.005   3.853
 4557SOL     OW14569   5.116   0.103   4.630
 4557SOL    HW114570   5.136   0.200   4.644
 4557SOL    HW214571   5.018   0.087   4.641
 4558SOL     OW14572   6.632   3.857   6.522
 4558SOL    HW114573   6.720   3.883   6.563
 4558SOL    HW214574   6.558   3.897   6.576
 4559SOL     OW14575   1.737   6.761   2.067
 4559SOL    HW114576   1.820   6.807   2.099
 4559SOL    HW214577   1.661   6.782   2.128
 4560SOL     OW14578   4.949   4.298   3.156
 4560SOL    HW114579   4.973   4.273   3.062
 4560SOL    HW214580   5.005   4.246   3.220
 4561SOL     OW14581   2.859   0.473   1.144
 4561SOL    HW114582   2.762   0.482   1.166
 4561SOL    HW214583   2.887   0.378   1.156
 4562SOL     OW14584   2.943   5.595   5.366
 4562SOL    HW114585   2.953   5.574   5.268
 4562SOL    HW214586   2.980   5.520   5.420
 4563SOL     OW14587   5.693   3.730   0.517
 4563SOL    HW114588   5.624   3.658   0.506
 4563SOL    HW214589   5.652   3.819   0.497
 4564SOL     OW14590   1.342   5.172   1.128
 4564SOL    HW114591   1.243   5.164   1.115
 4564SOL    HW214592   1.364   5.261   1.168
 4565SOL     OW14593   0.388   1.369   5.330
 4565SOL    HW114594   0.447   1.311   5.274
 4565SOL    HW214595   0.293   1.337   5.323
 4566SOL     OW14596   6.795   0.623   0.321
 4566SOL    HW114597   6.783   0.626   0.221
 4566SOL    HW214598   6.852   0.699   0.350
 4567SOL     OW14599   0.337   1.049   0.683
 4567SOL    HW114600   0.298   0.966   0.723
 4567SOL    HW214601   0.368   1.110   0.756
 4568SOL     OW14602   1.636   3.939   5.066
 4568SOL    HW114603   1.666   3.923   5.160
 4568SOL    HW214604   1.653   4.034   5.041
 4569SOL     OW14605   1.826   2.172   4.065
 4569SOL    HW114606   1.844   2.270   4.054
 4569SOL    HW214607   1.827   2.149   4.162
 4570SOL     OW14608   6.954   6.330   3.105
 4570SOL    HW114609   7.016   6.350   3.181
 4570SOL    HW214610   6.888   6.405   3.095
 4571SOL     OW14611   3.713   3.881   4.890
 4571SOL    HW114612   3.648   3.899   4.965
 4571SOL    HW214613   3.801   3.854   4.929
 4572SOL     OW14614   0.143   0.062   1.055
 4572SOL    HW114615   0.060   0.045   1.003
 4572SOL    HW214616   0.136   0.018   1.145
 4573SOL     OW14617   6.037   5.634   0.924
 4573SOL    HW114618   6.093   5.706   0.962
 4573SOL    HW214619   6.012   5.657   0.829
 4574SOL     OW14620   0.219   4.598   0.887
 4574SOL    HW114621   0.307   4.593   0.841
 4574SOL    HW214622   0.148   4.622   0.820
 4575SOL     OW14623   0.019   1.920   0.524
 4575SOL    HW114624   0.038   1.828   0.490
 4575SOL    HW214625   0.089   1.945   0.591
 4576SOL     OW14626   2.840   5.682   6.080
 4576SOL    HW114627   2.909   5.710   6.147
 4576SOL    HW214628   2.868   5.711   5.989
 4577SOL     OW14629   0.346   3.384   2.918
 4577SOL    HW114630   0.256   3.387   2.875
 4577SOL    HW214631   0.416   3.364   2.849
 4578SOL     OW14632   0.770   4.071   3.592
 4578SOL    HW114633   0.773   3.971   3.593
 4578SOL    HW214634   0.784   4.105   3.685
 4579SOL     OW14635   4.285   1.357   3.073
 4579SOL    HW114636   4.357   1.306   3.026
 4579SOL    HW214637   4.251   1.429   3.012
 4580SOL     OW14638   6.417   4.922   0.862
 4580SOL    HW114639   6.337   4.975   0.891
 4580SOL    HW214640   6.387   4.845   0.807
 4581SOL     OW14641   3.321   5.098   2.250
 4581SOL    HW114642   3.403   5.113   2.195
 4581SOL    HW214643   3.271   5.019   2.214
 4582SOL     OW14644   5.998   6.547   4.454
 4582SOL    HW114645   5.998   6.591   4.544
 4582SOL    HW214646   5.991   6.616   4.383
 4583SOL     OW14647   2.743   1.718   5.090
 4583SOL    HW114648   2.693   1.647   5.041
 4583SOL    HW214649   2.813   1.676   5.148
 4584SOL     OW14650   0.762   5.745   6.347
 4584SOL    HW114651   0.748   5.714   6.441
 4584SOL    HW214652   0.777   5.666   6.287
 4585SOL     OW14653   2.639   6.343   3.057
 4585SOL    HW114654   2.703   6.405   3.104
 4585SOL    HW214655   2.600   6.390   2.978
 4586SOL     OW14656   3.496   4.833   1.028
 4586SOL    HW114657   3.482   4.831   1.127
 4586SOL    HW214658   3.462   4.919   0.991
 4587SOL     OW14659   4.155   3.679   1.821
 4587SOL    HW114660   4.088   3.682   1.896
 4587SOL    HW214661   4.194   3.588   1.814
 4588SOL     OW14662   3.747   3.367   5.260
 4588SOL    HW114663   3.776   3.295   5.196
 4588SOL    HW214664   3.650   3.354   5.281
 4589SOL     OW14665   5.610   1.956   2.743
 4589SOL    HW114666   5.705   1.943   2.770
 4589SOL    HW214667   5.568   1.868   2.722
 4590SOL     OW14668   4.436   5.978   1.632
 4590SOL    HW114669   4.407   5.887   1.661
 4590SOL    HW214670   4.359   6.026   1.589
 4591SOL     OW14671   6.821   5.802   5.485
 4591SOL    HW114672   6.850   5.884   5.534
 4591SOL    HW214673   6.797   5.826   5.391
 4592SOL     OW14674   3.972   3.169   1.527
 4592SOL    HW114675   4.004   3.139   1.437
 4592SOL    HW214676   3.898   3.109   1.557
 4593SOL     OW14677   4.588   5.307   3.288
 4593SOL    HW114678   4.616   5.332   3.195
 4593SOL    HW214679   4.499   5.261   3.284
 4594SOL     OW14680   4.466   1.533   1.625
 4594SOL    HW114681   4.400   1.459   1.613
 4594SOL    HW214682   4.419   1.612   1.666
 4595SOL     OW14683   3.573   2.875   6.757
 4595SOL    HW114684   3.477   2.874   6.731
 4595SOL    HW214685   3.630   2.856   6.677
 4596SOL     OW14686   6.143   6.527   2.048
 4596SOL    HW114687   6.047   6.550   2.038
 4596SOL    HW214688   6.153   6.428   2.060
 4597SOL     OW14689   5.327   5.144   6.493
 4597SOL    HW114690   5.423   5.146   6.463
 4597SOL    HW214691   5.324   5.130   6.592
 4598SOL     OW14692   1.097   5.193   6.567
 4598SOL    HW114693   1.030   5.179   6.495
 4598SOL    HW214694   1.051   5.217   6.652
 4599SOL     OW14695   1.389   3.521   1.186
 4599SOL    HW114696   1.308   3.572   1.156
 4599SOL    HW214697   1.363   3.458   1.259
 4600SOL     OW14698   3.197   5.111   5.763
 4600SOL    HW114699   3.218   5.187   5.823
 4600SOL    HW214700   3.193   5.026   5.816
 4601SOL     OW14701   1.809   0.818   5.217
 4601SOL    HW114702   1.899   0.861   5.211
 4601SOL    HW214703   1.802   0.745   5.149
 4602SOL     OW14704   1.309   6.685   1.423
 4602SOL    HW114705   1.253   6.756   1.468
 4602SOL    HW214706   1.401   6.686   1.462
 4603SOL     OW14707   3.810   6.314   1.327
 4603SOL    HW114708   3.711   6.329   1.328
 4603SOL    HW214709   3.846   6.322   1.420
 4604SOL     OW14710   4.128   1.051   0.915
 4604SOL    HW114711   4.128   1.019   1.009
 4604SOL    HW214712   4.036   1.079   0.888
 4605SOL     OW14713   4.880   0.561   3.881
 4605SOL    HW114714   4.848   0.649   3.916
 4605SOL    HW214715   4.900   0.500   3.957
 4606SOL     OW14716   6.998   6.783   2.732
 4606SOL    HW114717   0.060   6.823   2.778
 4606SOL    HW214718   7.006   6.683   2.733
 4607SOL     OW14719   2.314   2.062   0.701
 4607SOL    HW114720   2.380   2.076   0.776
 4607SOL    HW214721   2.223   2.090   0.732
 4608SOL     OW14722   1.379   5.032   5.101
 4608SOL    HW114723   1.308   5.055   5.167
 4608SOL    HW214724   1.459   4.995   5.149
 4609SOL     OW14725   4.564   5.295   6.448
 4609SOL    HW114726   4.593   5.293   6.352
 4609SOL    HW214727   4.628   5.351   6.501
 4610SOL     OW14728   0.066   2.553   0.318
 4610SOL    HW114729   6.993   2.543   0.277
 4610SOL    HW214730   0.080   2.648   0.346
 4611SOL     OW14731   6.798   4.107   6.819
 4611SOL    HW114732   6.711   4.154   6.803
 4611SOL    HW214733   6.860   4.168   6.869
 4612SOL     OW14734   1.722   6.294   6.867
 4612SOL    HW114735   1.720   6.310   6.769
 4612SOL    HW214736   1.688   6.201   6.886
 4613SOL     OW14737   2.268   5.953   2.734
 4613SOL    HW114738   2.323   5.875   2.704
 4613SOL    HW214739   2.193   5.967   2.669
 4614SOL     OW14740   1.764   4.822   6.309
 4614SOL    HW114741   1.709   4.896   6.347
 4614SOL    HW214742   1.854   4.821   6.352
 4615SOL     OW14743   1.873   1.645   0.055
 4615SOL    HW114744   1.783   1.653   0.096
 4615SOL    HW214745   1.864   1.621   6.976
 4616SOL     OW14746   6.753   0.682   6.465
 4616SOL    HW114747   6.717   0.747   6.398
 4616SOL    HW214748   6.818   0.728   6.525
 4617SOL     OW14749   1.233   2.549   2.095
 4617SOL    HW114750   1.270   2.535   2.003
 4617SOL    HW214751   1.148   2.497   2.105
 4618SOL     OW14752   1.470   2.530   4.992
 4618SOL    HW114753   1.483   2.459   5.061
 4618SOL    HW214754   1.555   2.542   4.940
 4619SOL     OW14755   4.407   6.894   3.409
 4619SOL    HW114756   4.353   6.957   3.353
 4619SOL    HW214757   4.494   6.875   3.364
 4620SOL     OW14758   3.252   3.770   6.737
 4620SOL    HW114759   3.164   3.731   6.707
 4620SOL    HW214760   3.236   3.841   6.805
 4621SOL     OW14761   6.155   2.234   4.453
 4621SOL    HW114762   6.135   2.207   4.547
 4621SOL    HW214763   6.228   2.303   4.452
 4622SOL     OW14764   1.276   2.754   0.894
 4622SOL    HW114765   1.339   2.784   0.965
 4622SOL    HW214766   1.192   2.719   0.936
 4623SOL     OW14767   0.354   5.281   0.890
 4623SOL    HW114768   0.381   5.200   0.837
 4623SOL    HW214769   0.436   5.323   0.929
 4624SOL     OW14770   4.633   0.551   4.093
 4624SOL    HW114771   4.581   0.520   4.013
 4624SOL    HW214772   4.726   0.514   4.088
 4625SOL     OW14773   1.366   4.274   6.971
 4625SOL    HW114774   1.420   4.217   6.909
 4625SOL    HW214775   1.278   4.230   6.988
 4626SOL     OW14776   6.042   5.080   1.728
 4626SOL    HW114777   6.137   5.066   1.756
 4626SOL    HW214778   6.006   4.993   1.694
 4627SOL     OW14779   3.310   5.577   5.343
 4627SOL    HW114780   3.367   5.570   5.425
 4627SOL    HW214781   3.332   5.502   5.281
 4628SOL     OW14782   5.845   3.996   3.168
 4628SOL    HW114783   5.922   4.058   3.178
 4628SOL    HW214784   5.760   4.049   3.164
 4629SOL     OW14785   2.105   4.920   6.235
 4629SOL    HW114786   2.075   4.845   6.294
 4629SOL    HW214787   2.036   4.993   6.235
 4630SOL     OW14788   3.266   5.703   3.575
 4630SOL    HW114789   3.326   5.769   3.530
 4630SOL    HW214790   3.267   5.617   3.524
 4631SOL     OW14791   2.937   6.851   3.777
 4631SOL    HW114792   2.992   6.876   3.697
 4631SOL    HW214793   2.945   6.923   3.846
 4632SOL     OW14794   4.392   5.099   3.192
 4632SOL    HW114795   4.341   5.127   3.111
 4632SOL    HW214796   4.328   5.072   3.264
 4633SOL     OW14797   6.720   1.702   4.485
 4633SOL    HW114798   6.775   1.786   4.494
 4633SOL    HW214799   6.646   1.703   4.552
 4634SOL     OW14800   2.855   4.584   6.495
 4634SOL    HW114801   2.864   4.543   6.585
 4634SOL    HW214802   2.896   4.523   6.426
 4635SOL     OW14803   6.000   3.365   2.240
 4635SOL    HW114804   5.925   3.336   2.299
 4635SOL    HW214805   5.964   3.407   2.157
 4636SOL     OW14806   3.015   5.023   6.834
 4636SOL    HW114807   3.042   5.071   6.750
 4636SOL    HW214808   2.937   4.963   6.815
 4637SOL     OW14809   1.362   0.836   6.689
 4637SOL    HW114810   1.424   0.891   6.634
 4637SOL    HW214811   1.357   0.743   6.651
 4638SOL     OW14812   4.172   2.527   6.555
 4638SOL    HW114813   4.095   2.582   6.521
 4638SOL    HW214814   4.250   2.537   6.493
 4639SOL     OW14815   1.694   4.367   5.386
 4639SOL    HW114816   1.728   4.318   5.466
 4639SOL    HW214817   1.761   4.361   5.312
 4640SOL     OW14818   4.957   5.489   4.173
 4640SOL    HW114819   5.042   5.438   4.191
 4640SOL    HW214820   4.979   5.583   4.149
 4641SOL     OW14821   2.607   5.160   4.339
 4641SOL    HW114822   2.639   5.249   4.307
 4641SOL    HW214823   2.657   5.134   4.422
 4642SOL     OW14824   6.037   5.923   5.289
 4642SOL    HW114825   6.018   5.934   5.386
 4642SOL    HW214826   6.135   5.935   5.273
 4643SOL     OW14827   4.630   2.435   0.403
 4643SOL    HW114828   4.676   2.517   0.437
 4643SOL    HW214829   4.555   2.462   0.343
 4644SOL     OW14830   1.576   5.227   5.430
 4644SOL    HW114831   1.518   5.153   5.463
 4644SOL    HW214832   1.571   5.231   5.330
 4645SOL     OW14833   1.761   0.183   4.199
 4645SOL    HW114834   1.792   0.248   4.269
 4645SOL    HW214835   1.665   0.201   4.178
 4646SOL     OW14836   2.521   6.672   2.232
 4646SOL    HW114837   2.569   6.619   2.302
 4646SOL    HW214838   2.573   6.667   2.146
 4647SOL     OW14839   0.973   6.491   3.001
 4647SOL    HW114840   1.038   6.458   3.069
 4647SOL    HW214841   0.958   6.420   2.932
 4648SOL     OW14842   3.534   6.965   1.420
 4648SOL    HW114843   3.611   6.921   1.466
 4648SOL    HW214844   3.533   6.937   1.324
 4649SOL     OW14845   4.952   0.735   5.449
 4649SOL    HW114846   4.970   0.738   5.351
 4649SOL    HW214847   5.003   0.659   5.490
 4650SOL     OW14848   3.821   5.879   3.062
 4650SOL    HW114849   3.838   5.931   2.979
 4650SOL    HW214850   3.726   5.846   3.062
 4651SOL     OW14851   0.246   2.101   1.660
 4651SOL    HW114852   0.192   2.017   1.655
 4651SOL    HW214853   0.342   2.080   1.639
 4652SOL     OW14854   0.725   0.182   3.565
 4652SOL    HW114855   0.674   0.213   3.645
 4652SOL    HW214856   0.811   0.140   3.594
 4653SOL     OW14857   6.622   5.398   0.222
 4653SOL    HW114858   6.638   5.395   0.321
 4653SOL    HW214859   6.615   5.493   0.193
 4654SOL     OW14860   0.616   0.194   0.162
 4654SOL    HW114861   0.575   0.226   0.076
 4654SOL    HW214862   0.577   0.245   0.238
 4655SOL     OW14863   0.379   4.844   2.200
 4655SOL    HW114864   0.303   4.801   2.248
 4655SOL    HW214865   0.344   4.894   2.121
 4656SOL     OW14866   0.918   6.885   2.853
 4656SOL    HW114867   1.009   6.879   2.895
 4656SOL    HW214868   0.850   6.849   2.917
 4657SOL     OW14869   5.240   6.867   2.222
 4657SOL    HW114870   5.323   6.824   2.187
 4657SOL    HW214871   5.256   6.966   2.233
 4658SOL     OW14872   3.577   0.285   2.717
 4658SOL    HW114873   3.551   0.340   2.796
 4658SOL    HW214874   3.522   0.313   2.638
 4659SOL     OW14875   1.896   3.316   5.012
 4659SOL    HW114876   1.818   3.327   4.950
 4659SOL    HW214877   1.946   3.402   5.017
 4660SOL     OW14878   1.270   2.365   4.677
 4660SOL    HW114879   1.320   2.387   4.594
 4660SOL    HW214880   1.325   2.304   4.734
 4661SOL     OW14881   3.738   3.597   4.565
 4661SOL    HW114882   3.642   3.617   4.584
 4661SOL    HW214883   3.744   3.523   4.498
 4662SOL     OW14884   4.906   0.703   5.046
 4662SOL    HW114885   4.893   0.791   5.000
 4662SOL    HW214886   4.976   0.712   5.117
 4663SOL     OW14887   6.624   1.601   2.807
 4663SOL    HW114888   6.561   1.589   2.884
 4663SOL    HW214889   6.647   1.511   2.769
 4664SOL     OW14890   2.293   2.285   6.368
 4664SOL    HW114891   2.299   2.244   6.459
 4664SOL    HW214892   2.353   2.364   6.363
 4665SOL     OW14893   4.714   6.653   6.843
 4665SOL    HW114894   4.753   6.564   6.868
 4665SOL    HW214895   4.718   6.715   6.921
 4666SOL     OW14896   2.461   1.186   6.964
 4666SOL    HW114897   2.429   1.138   0.027
 4666SOL    HW214898   2.421   1.145   6.882
 4667SOL     OW14899   6.798   4.818   6.996
 4667SOL    HW114900   6.761   4.852   6.910
 4667SOL    HW214901   6.738   4.845   0.054
 4668SOL     OW14902   0.125   1.707   4.249
 4668SOL    HW114903   0.198   1.684   4.184
 4668SOL    HW214904   0.045   1.739   4.199
 4669SOL     OW14905   3.143   6.424   0.733
 4669SOL    HW114906   3.140   6.447   0.636
 4669SOL    HW214907   3.126   6.506   0.788
 4670SOL     OW14908   3.539   1.303   5.125
 4670SOL    HW114909   3.593   1.248   5.189
 4670SOL    HW214910   3.475   1.245   5.075
 4671SOL     OW14911   5.874   3.435   1.514
 4671SOL    HW114912   5.797   3.403   1.570
 4671SOL    HW214913   5.912   3.518   1.554
 4672SOL     OW14914   2.752   4.798   6.010
 4672SOL    HW114915   2.722   4.795   5.914
 4672SOL    HW214916   2.847   4.766   6.016
 4673SOL     OW14917   3.747   0.424   1.061
 4673SOL    HW114918   3.755   0.496   1.129
 4673SOL    HW214919   3.838   0.395   1.032
 4674SOL     OW14920   5.456   5.819   6.483
 4674SOL    HW114921   5.443   5.881   6.560
 4674SOL    HW214922   5.545   5.836   6.441
 4675SOL     OW14923   0.712   3.432   0.714
 4675SOL    HW114924   0.774   3.450   0.638
 4675SOL    HW214925   0.716   3.335   0.739
 4676SOL     OW14926   0.984   5.488   3.703
 4676SOL    HW114927   0.916   5.547   3.660
 4676SOL    HW214928   0.940   5.408   3.742
 4677SOL     OW14929   1.511   1.814   0.388
 4677SOL    HW114930   1.565   1.781   0.465
 4677SOL    HW214931   1.435   1.751   0.370
 4678SOL     OW14932   2.403   4.545   2.915
 4678SOL    HW114933   2.379   4.470   2.852
 4678SOL    HW214934   2.480   4.597   2.878
 4679SOL     OW14935   4.751   6.974   2.236
 4679SOL    HW114936   4.707   6.930   2.314
 4679SOL    HW214937   4.730   6.923   2.152
 4680SOL     OW14938   4.167   1.138   1.370
 4680SOL    HW114939   4.165   1.082   1.287
 4680SOL    HW214940   4.073   1.158   1.399
 4681SOL     OW14941   4.494   4.835   6.808
 4681SOL    HW114942   4.592   4.853   6.801
 4681SOL    HW214943   4.471   4.811   6.902
 4682SOL     OW14944   5.396   3.325   6.178
 4682SOL    HW114945   5.303   3.353   6.199
 4682SOL    HW214946   5.401   3.290   6.085
 4683SOL     OW14947   5.747   5.101   3.164
 4683SOL    HW114948   5.658   5.087   3.122
 4683SOL    HW214949   5.811   5.032   3.131
 4684SOL     OW14950   4.498   5.759   5.980
 4684SOL    HW114951   4.510   5.670   6.025
 4684SOL    HW214952   4.459   5.824   6.045
 4685SOL     OW14953   2.091   3.937   6.139
 4685SOL    HW114954   2.131   3.930   6.231
 4685SOL    HW214955   2.148   3.995   6.082
 4686SOL     OW14956   3.888   5.378   0.231
 4686SOL    HW114957   3.984   5.397   0.255
 4686SOL    HW214958   3.832   5.388   0.313
 4687SOL     OW14959   3.996   1.987   3.806
 4687SOL    HW114960   3.957   2.020   3.893
 4687SOL    HW214961   3.950   2.034   3.730
 4688SOL     OW14962   6.007   2.644   5.870
 4688SOL    HW114963   6.073   2.614   5.939
 4688SOL    HW214964   5.921   2.668   5.915
 4689SOL     OW14965   5.381   0.075   1.248
 4689SOL    HW114966   5.408   0.075   1.345
 4689SOL    HW214967   5.462   0.058   1.192
 4690SOL     OW14968   1.850   0.981   0.447
 4690SOL    HW114969   1.800   1.057   0.488
 4690SOL    HW214970   1.946   0.987   0.472
 4691SOL     OW14971   4.317   3.900   0.308
 4691SOL    HW114972   4.269   3.938   0.230
 4691SOL    HW214973   4.388   3.837   0.276
 4692SOL     OW14974   5.981   4.185   3.450
 4692SOL    HW114975   6.005   4.179   3.353
 4692SOL    HW214976   6.050   4.239   3.498
 4693SOL     OW14977   1.512   1.005   3.969
 4693SOL    HW114978   1.584   0.985   4.034
 4693SOL    HW214979   1.494   1.104   3.969
 4694SOL     OW14980   2.429   2.026   0.366
 4694SOL    HW114981   2.521   2.064   0.370
 4694SOL    HW214982   2.362   2.095   0.396
 4695SOL     OW14983   1.685   5.818   0.710
 4695SOL    HW114984   1.682   5.746   0.779
 4695SOL    HW214985   1.593   5.834   0.675
 4696SOL     OW14986   0.440   5.550   6.175
 4696SOL    HW114987   0.458   5.476   6.240
 4696SOL    HW214988   0.362   5.604   6.206
 4697SOL     OW14989   1.387   3.412   2.346
 4697SOL    HW114990   1.368   3.498   2.299
 4697SOL    HW214991   1.436   3.431   2.432
 4698SOL     OW14992   3.741   6.835   3.232
 4698SOL    HW114993   3.651   6.805   3.262
 4698SOL    HW214994   3.741   6.848   3.133
 4699SOL     OW14995   0.617   6.449   2.855
 4699SOL    HW114996   0.572   6.370   2.812
 4699SOL    HW214997   0.553   6.494   2.917
 4700SOL     OW14998   6.810   1.674   2.042
 4700SOL    HW114999   6.869   1.692   2.120
 4700SOL    HW215000   6.770   1.582   2.050
 4701SOL     OW15001   3.205   2.138   1.857
 4701SOL    HW115002   3.290   2.181   1.825
 4701SOL    HW215003   3.222   2.091   1.944
 4702SOL     OW15004   4.526   5.198   0.498
 4702SOL    HW115005   4.531   5.288   0.541
 4702SOL    HW215006   4.431   5.166   0.499
 4703SOL     OW15007   1.485   5.515   2.792
 4703SOL    HW115008   1.560   5.556   2.741
 4703SOL    HW215009   1.403   5.511   2.734
 4704SOL     OW15010   0.638   6.327   5.680
 4704SOL    HW115011   0.632   6.425   5.696
 4704SOL    HW215012   0.546   6.288   5.678
 4705SOL     OW15013   3.152   2.047   0.599
 4705SOL    HW115014   3.227   2.112   0.611
 4705SOL    HW215015   3.069   2.083   0.643
 4706SOL     OW15016   1.565   0.211   0.819
 4706SOL    HW115017   1.547   0.137   0.753
 4706SOL    HW215018   1.614   0.285   0.774
 4707SOL     OW15019   1.340   5.818   1.854
 4707SOL    HW115020   1.285   5.882   1.909
 4707SOL    HW215021   1.427   5.861   1.831
 4708SOL     OW15022   0.948   1.884   5.696
 4708SOL    HW115023   0.895   1.800   5.708
 4708SOL    HW215024   1.040   1.869   5.732
 4709SOL     OW15025   4.713   4.989   4.489
 4709SOL    HW115026   4.656   4.922   4.443
 4709SOL    HW215027   4.727   5.068   4.429
 4710SOL     OW15028   6.301   0.401   5.199
 4710SOL    HW115029   6.318   0.473   5.267
 4710SOL    HW215030   6.381   0.341   5.194
 4711SOL     OW15031   6.219   2.697   3.318
 4711SOL    HW115032   6.154   2.739   3.255
 4711SOL    HW215033   6.273   2.768   3.363
 4712SOL     OW15034   4.023   4.480   6.214
 4712SOL    HW115035   4.031   4.557   6.151
 4712SOL    HW215036   3.932   4.440   6.205
 4713SOL     OW15037   5.407   5.696   0.943
 4713SOL    HW115038   5.443   5.710   1.035
 4713SOL    HW215039   5.370   5.782   0.908
 4714SOL     OW15040   0.183   1.934   6.524
 4714SOL    HW115041   0.166   1.836   6.514
 4714SOL    HW215042   0.177   1.978   6.434
 4715SOL     OW15043   5.998   2.576   1.202
 4715SOL    HW115044   6.093   2.544   1.198
 4715SOL    HW215045   5.991   2.666   1.159
 4716SOL     OW15046   5.042   5.467   5.971
 4716SOL    HW115047   5.141   5.470   5.987
 4716SOL    HW215048   5.000   5.404   6.036
 4717SOL     OW15049   2.063   5.404   5.072
 4717SOL    HW115050   2.014   5.319   5.093
 4717SOL    HW215051   2.096   5.401   4.978
 4718SOL     OW15052   5.191   2.912   0.988
 4718SOL    HW115053   5.261   2.846   0.963
 4718SOL    HW215054   5.122   2.916   0.916
 4719SOL     OW15055   5.220   3.628   2.902
 4719SOL    HW115056   5.231   3.529   2.891
 4719SOL    HW215057   5.153   3.662   2.836
 4720SOL     OW15058   2.222   4.426   5.690
 4720SOL    HW115059   2.182   4.510   5.654
 4720SOL    HW215060   2.320   4.425   5.670
 4721SOL     OW15061   5.750   2.570   1.612
 4721SOL    HW115062   5.743   2.594   1.709
 4721SOL    HW215063   5.820   2.499   1.601
 4722SOL     OW15064   1.200   5.619   0.115
 4722SOL    HW115065   1.232   5.704   0.074
 4722SOL    HW215066   1.127   5.580   0.058
 4723SOL     OW15067   3.979   4.231   5.535
 4723SOL    HW115068   3.970   4.229   5.435
 4723SOL    HW215069   3.980   4.326   5.566
 4724SOL     OW15070   0.168   6.644   3.875
 4724SOL    HW115071   0.211   6.555   3.894
 4724SOL    HW215072   0.098   6.632   3.805
 4725SOL     OW15073   6.130   4.894   0.178
 4725SOL    HW115074   6.201   4.834   0.215
 4725SOL    HW215075   6.045   4.881   0.229
 4726SOL     OW15076   1.273   2.993   5.993
 4726SOL    HW115077   1.311   2.989   5.900
 4726SOL    HW215078   1.234   2.904   6.017
 4727SOL     OW15079   0.431   5.784   0.168
 4727SOL    HW115080   0.375   5.824   0.241
 4727SOL    HW215081   0.400   5.691   0.150
 4728SOL     OW15082   6.455   1.835   2.765
 4728SOL    HW115083   6.537   1.780   2.784
 4728SOL    HW215084   6.443   1.903   2.837
 4729SOL     OW15085   4.776   0.010   0.293
 4729SOL    HW115086   4.852   0.005   0.358
 4729SOL    HW215087   4.755   0.105   0.273
 4730SOL     OW15088   3.454   6.255   5.196
 4730SOL    HW115089   3.435   6.159   5.215
 4730SOL    HW215090   3.374   6.297   5.154
 4731SOL     OW15091   3.131   0.745   0.912
 4731SOL    HW115092   3.036   0.713   0.915
 4731SOL    HW215093   3.162   0.748   0.817
 4732SOL     OW15094   0.632   4.066   5.185
 4732SOL    HW115095   0.670   4.095   5.097
 4732SOL    HW215096   0.706   4.035   5.245
 4733SOL     OW15097   1.747   4.295   2.475
 4733SOL    HW115098   1.744   4.339   2.565
 4733SOL    HW215099   1.788   4.204   2.484
 4734SOL     OW15100   5.006   3.385   0.031
 4734SOL    HW115101   5.049   3.467   7.011
 4734SOL    HW215102   5.042   3.368   0.123
 4735SOL     OW15103   6.738   5.677   3.841
 4735SOL    HW115104   6.758   5.700   3.936
 4735SOL    HW215105   6.640   5.661   3.831
 4736SOL     OW15106   5.991   2.238   4.248
 4736SOL    HW115107   6.047   2.231   4.331
 4736SOL    HW215108   5.970   2.145   4.215
 4737SOL     OW15109   2.290   4.409   0.493
 4737SOL    HW115110   2.376   4.449   0.461
 4737SOL    HW215111   2.302   4.377   0.587
 4738SOL     OW15112   3.331   6.547   4.085
 4738SOL    HW115113   3.341   6.604   4.167
 4738SOL    HW215114   3.260   6.587   4.026
 4739SOL     OW15115   5.556   1.985   4.222
 4739SOL    HW115116   5.463   1.979   4.257
 4739SOL    HW215117   5.555   2.011   4.125
 4740SOL     OW15118   0.613   0.784   0.840
 4740SOL    HW115119   0.575   0.694   0.821
 4740SOL    HW215120   0.652   0.822   0.756
 4741SOL     OW15121   4.604   4.849   0.775
 4741SOL    HW115122   4.654   4.871   0.691
 4741SOL    HW215123   4.631   4.912   0.848
 4742SOL     OW15124   2.867   5.225   1.220
 4742SOL    HW115125   2.780   5.260   1.186
 4742SOL    HW215126   2.896   5.281   1.298
 4743SOL     OW15127   2.089   1.348   5.675
 4743SOL    HW115128   2.005   1.298   5.654
 4743SOL    HW215129   2.161   1.282   5.701
 4744SOL     OW15130   2.391   2.922   5.409
 4744SOL    HW115131   2.459   2.870   5.459
 4744SOL    HW215132   2.429   2.951   5.320
 4745SOL     OW15133   2.570   5.006   5.556
 4745SOL    HW115134   2.611   4.938   5.495
 4745SOL    HW215135   2.589   5.098   5.522
 4746SOL     OW15136   5.794   5.957   1.359
 4746SOL    HW115137   5.833   6.013   1.286
 4746SOL    HW215138   5.717   6.004   1.401
 4747SOL     OW15139   1.052   3.673   6.098
 4747SOL    HW115140   1.070   3.769   6.117
 4747SOL    HW215141   1.039   3.624   6.185
 4748SOL     OW15142   1.359   0.252   1.306
 4748SOL    HW115143   1.436   0.246   1.369
 4748SOL    HW215144   1.390   0.290   1.219
 4749SOL     OW15145   3.206   6.472   5.961
 4749SOL    HW115146   3.205   6.572   5.959
 4749SOL    HW215147   3.250   6.437   5.879
 4750SOL     OW15148   0.451   1.941   4.124
 4750SOL    HW115149   0.441   2.005   4.201
 4750SOL    HW215150   0.546   1.915   4.114
 4751SOL     OW15151   1.927   3.245   0.305
 4751SOL    HW115152   1.918   3.147   0.287
 4751SOL    HW215153   1.907   3.296   0.222
 4752SOL     OW15154   2.900   6.689   0.517
 4752SOL    HW115155   2.932   6.740   0.597
 4752SOL    HW215156   2.827   6.625   0.544
 4753SOL     OW15157   5.488   6.697   4.528
 4753SOL    HW115158   5.424   6.773   4.529
 4753SOL    HW215159   5.557   6.711   4.457
 4754SOL     OW15160   6.439   0.436   5.980
 4754SOL    HW115161   6.530   0.435   6.022
 4754SOL    HW215162   6.448   0.464   5.884
 4755SOL     OW15163   2.217   0.441   6.923
 4755SOL    HW115164   2.309   0.437   6.884
 4755SOL    HW215165   2.194   0.354   6.966
 4756SOL     OW15166   5.674   2.236   1.618
 4756SOL    HW115167   5.594   2.285   1.583
 4756SOL    HW215168   5.749   2.244   1.552
 4757SOL     OW15169   2.090   1.836   1.781
 4757SOL    HW115170   2.038   1.881   1.708
 4757SOL    HW215171   2.188   1.844   1.762
 4758SOL     OW15172   3.314   5.780   5.004
 4758SOL    HW115173   3.284   5.823   5.089
 4758SOL    HW215174   3.335   5.684   5.021
 4759SOL     OW15175   5.212   5.573   4.899
 4759SOL    HW115176   5.210   5.516   4.982
 4759SOL    HW215177   5.279   5.646   4.911
 4760SOL     OW15178   3.344   1.744   1.283
 4760SOL    HW115179   3.301   1.815   1.339
 4760SOL    HW215180   3.340   1.657   1.331
 4761SOL     OW15181   6.672   0.728   6.859
 4761SOL    HW115182   6.576   0.742   6.834
 4761SOL    HW215183   6.677   0.676   6.944
 4762SOL     OW15184   2.977   4.785   3.335
 4762SOL    HW115185   3.047   4.819   3.273
 4762SOL    HW215186   3.010   4.790   3.430
 4763SOL     OW15187   5.710   6.049   3.027
 4763SOL    HW115188   5.804   6.020   3.047
 4763SOL    HW215189   5.664   5.980   2.972
 4764SOL     OW15190   5.039   3.977   4.990
 4764SOL    HW115191   5.070   3.967   4.896
 4764SOL    HW215192   5.047   3.889   5.037
 4765SOL     OW15193   4.827   6.556   4.603
 4765SOL    HW115194   4.765   6.477   4.608
 4765SOL    HW215195   4.788   6.631   4.656
 4766SOL     OW15196   4.407   0.844   4.131
 4766SOL    HW115197   4.492   0.792   4.130
 4766SOL    HW215198   4.426   0.939   4.156
 4767SOL     OW15199   4.670   5.938   0.125
 4767SOL    HW115200   4.640   5.996   0.049
 4767SOL    HW215201   4.604   5.944   0.200
 4768SOL     OW15202   5.502   2.088   4.985
 4768SOL    HW115203   5.420   2.037   5.012
 4768SOL    HW215204   5.581   2.027   4.987
 4769SOL     OW15205   4.396   5.087   1.462
 4769SOL    HW115206   4.310   5.133   1.441
 4769SOL    HW215207   4.391   4.992   1.433
 4770SOL     OW15208   2.114   0.099   3.574
 4770SOL    HW115209   2.213   0.090   3.566
 4770SOL    HW215210   2.081   0.036   3.645
 4771SOL     OW15211   2.935   5.049   6.204
 4771SOL    HW115212   2.951   5.070   6.107
 4771SOL    HW215213   2.967   4.956   6.223
 4772SOL     OW15214   2.294   6.130   2.029
 4772SOL    HW115215   2.267   6.175   2.114
 4772SOL    HW215216   2.328   6.197   1.964
 4773SOL     OW15217   6.870   5.600   4.556
 4773SOL    HW115218   6.849   5.669   4.486
 4773SOL    HW215219   6.785   5.552   4.581
 4774SOL     OW15220   0.571   2.979   2.389
 4774SOL    HW115221   0.590   3.024   2.476
 4774SOL    HW215222   0.535   3.046   2.324
 4775SOL     OW15223   5.645   0.513   3.074
 4775SOL    HW115224   5.729   0.504   3.127
 4775SOL    HW215225   5.655   0.467   2.986
 4776SOL     OW15226   2.438   0.036   3.709
 4776SOL    HW115227   2.429   0.049   3.610
 4776SOL    HW215228   2.534   0.017   3.732
 4777SOL     OW15229   2.287   4.699   0.944
 4777SOL    HW115230   2.354   4.771   0.926
 4777SOL    HW215231   2.316   4.614   0.900
 4778SOL     OW15232   5.419   2.409   1.960
 4778SOL    HW115233   5.370   2.484   1.915
 4778SOL    HW215234   5.362   2.327   1.959
 4779SOL     OW15235   6.019   6.888   1.994
 4779SOL    HW115236   6.031   6.928   1.903
 4779SOL    HW215237   6.107   6.883   2.040
 4780SOL     OW15238   0.861   6.741   0.057
 4780SOL    HW115239   0.876   6.760   0.154
 4780SOL    HW215240   0.896   6.816   0.002
 4781SOL     OW15241   3.314   6.185   1.055
 4781SOL    HW115242   3.227   6.184   1.006
 4781SOL    HW215243   3.319   6.265   1.114
 4782SOL     OW15244   4.798   6.632   0.146
 4782SOL    HW115245   4.853   6.634   0.229
 4782SOL    HW215246   4.804   6.720   0.099
 4783SOL     OW15247   4.622   4.482   0.452
 4783SOL    HW115248   4.642   4.536   0.369
 4783SOL    HW215249   4.628   4.385   0.430
 4784SOL     OW15250   6.130   4.723   6.968
 4784SOL    HW115251   6.141   4.807   0.004
 4784SOL    HW215252   6.217   4.701   6.923
 4785SOL     OW15253   6.957   6.064   1.580
 4785SOL    HW115254   6.893   6.051   1.504
 4785SOL    HW215255   6.908   6.095   1.661
 4786SOL     OW15256   1.906   2.342   2.352
 4786SOL    HW115257   1.832   2.404   2.329
 4786SOL    HW215258   1.919   2.341   2.452
 4787SOL     OW15259   3.420   1.927   3.522
 4787SOL    HW115260   3.442   2.020   3.552
 4787SOL    HW215261   3.345   1.890   3.576
 4788SOL     OW15262   1.745   5.059   6.485
 4788SOL    HW115263   1.706   5.149   6.470
 4788SOL    HW215264   1.756   5.043   6.583
 4789SOL     OW15265   5.397   0.683   0.147
 4789SOL    HW115266   5.332   0.727   0.085
 4789SOL    HW215267   5.366   0.693   0.242
 4790SOL     OW15268   6.453   3.616   6.746
 4790SOL    HW115269   6.364   3.570   6.748
 4790SOL    HW215270   6.449   3.699   6.801
 4791SOL     OW15271   5.481   2.052   1.651
 4791SOL    HW115272   5.479   2.018   1.557
 4791SOL    HW215273   5.564   2.106   1.665
 4792SOL     OW15274   1.664   3.042   2.431
 4792SOL    HW115275   1.762   3.036   2.453
 4792SOL    HW215276   1.611   3.007   2.507
 4793SOL     OW15277   1.049   2.466   5.632
 4793SOL    HW115278   0.952   2.474   5.653
 4793SOL    HW215279   1.097   2.427   5.711
 4794SOL     OW15280   3.951   0.666   3.337
 4794SOL    HW115281   3.852   0.662   3.329
 4794SOL    HW215282   3.979   0.650   3.431
 4795SOL     OW15283   6.742   2.417   4.157
 4795SOL    HW115284   6.799   2.362   4.218
 4795SOL    HW215285   6.781   2.509   4.149
 4796SOL     OW15286   4.835   1.885   6.660
 4796SOL    HW115287   4.756   1.939   6.687
 4796SOL    HW215288   4.864   1.827   6.737
 4797SOL     OW15289   1.496   5.850   5.072
 4797SOL    HW115290   1.463   5.874   4.980
 4797SOL    HW215291   1.418   5.832   5.132
 4798SOL     OW15292   0.345   4.007   5.533
 4798SOL    HW115293   0.349   4.062   5.450
 4798SOL    HW215294   0.401   4.049   5.604
 4799SOL     OW15295   5.023   2.284   5.904
 4799SOL    HW115296   4.978   2.351   5.963
 4799SOL    HW215297   5.039   2.200   5.957
 4800SOL     OW15298   3.356   3.010   5.986
 4800SOL    HW115299   3.264   3.024   5.950
 4800SOL    HW215300   3.423   3.022   5.913
 4801SOL     OW15301   2.397   1.985   0.084
 4801SOL    HW115302   2.437   2.066   0.040
 4801SOL    HW215303   2.426   1.983   0.180
 4802SOL     OW15304   1.152   6.421   2.185
 4802SOL    HW115305   1.138   6.360   2.263
 4802SOL    HW215306   1.249   6.420   2.159
 4803SOL     OW15307   0.646   6.702   0.583
 4803SOL    HW115308   0.648   6.787   0.636
 4803SOL    HW215309   0.723   6.644   0.611
 4804SOL     OW15310   3.891   5.108   6.394
 4804SOL    HW115311   3.965   5.041   6.394
 4804SOL    HW215312   3.809   5.068   6.355
 4805SOL     OW15313   6.679   7.006   1.381
 4805SOL    HW115314   6.594   6.991   1.330
 4805SOL    HW215315   6.687   6.938   1.454
 4806SOL     OW15316   6.962   3.635   3.639
 4806SOL    HW115317   6.900   3.681   3.575
 4806SOL    HW215318   6.965   3.537   3.619
 4807SOL     OW15319   1.433   5.369   0.865
 4807SOL    HW115320   1.358   5.305   0.851
 4807SOL    HW215321   1.520   5.319   0.866
 4808SOL     OW15322   6.063   3.927   0.322
 4808SOL    HW115323   5.998   3.852   0.336
 4808SOL    HW215324   6.148   3.906   0.371
 4809SOL     OW15325   3.796   3.953   6.631
 4809SOL    HW115326   3.818   3.951   6.534
 4809SOL    HW215327   3.708   3.907   6.646
 4810SOL     OW15328   1.411   4.385   2.247
 4810SOL    HW115329   1.328   4.354   2.200
 4810SOL    HW215330   1.486   4.390   2.181
 4811SOL     OW15331   2.387   4.495   2.239
 4811SOL    HW115332   2.442   4.558   2.184
 4811SOL    HW215333   2.447   4.432   2.288
 4812SOL     OW15334   6.644   4.873   5.280
 4812SOL    HW115335   6.735   4.909   5.257
 4812SOL    HW215336   6.623   4.895   5.375
 4813SOL     OW15337   5.004   1.243   2.088
 4813SOL    HW115338   4.963   1.333   2.106
 4813SOL    HW215339   4.937   1.171   2.105
 4814SOL     OW15340   6.004   4.669   0.463
 4814SOL    HW115341   5.990   4.587   0.407
 4814SOL    HW215342   5.954   4.745   0.422
 4815SOL     OW15343   5.350   4.637   2.075
 4815SOL    HW115344   5.257   4.663   2.047
 4815SOL    HW215345   5.408   4.718   2.076
 4816SOL     OW15346   5.984   5.141   2.905
 4816SOL    HW115347   5.949   5.048   2.906
 4816SOL    HW215348   5.997   5.173   2.999
 4817SOL     OW15349   0.505   2.232   6.122
 4817SOL    HW115350   0.434   2.284   6.169
 4817SOL    HW215351   0.594   2.254   6.162
 4818SOL     OW15352   0.910   0.183   4.574
 4818SOL    HW115353   0.915   0.176   4.673
 4818SOL    HW215354   0.986   0.238   4.540
 4819SOL     OW15355   1.794   3.338   0.807
 4819SOL    HW115356   1.720   3.329   0.741
 4819SOL    HW215357   1.882   3.327   0.760
 4820SOL     OW15358   0.263   3.156   1.803
 4820SOL    HW115359   0.220   3.097   1.735
 4820SOL    HW215360   0.308   3.232   1.756
 4821SOL     OW15361   0.890   5.895   2.817
 4821SOL    HW115362   0.940   5.835   2.755
 4821SOL    HW215363   0.810   5.847   2.853
 4822SOL     OW15364   1.204   3.543   4.116
 4822SOL    HW115365   1.279   3.550   4.050
 4822SOL    HW215366   1.187   3.447   4.138
 4823SOL     OW15367   1.630   2.089   2.913
 4823SOL    HW115368   1.715   2.131   2.881
 4823SOL    HW215369   1.591   2.032   2.841
 4824SOL     OW15370   5.109   2.400   5.365
 4824SOL    HW115371   5.050   2.457   5.308
 4824SOL    HW215372   5.205   2.420   5.344
 4825SOL     OW15373   1.146   1.713   4.012
 4825SOL    HW115374   1.214   1.664   4.066
 4825SOL    HW215375   1.159   1.693   3.915
 4826SOL     OW15376   5.117   0.400   0.685
 4826SOL    HW115377   5.031   0.437   0.652
 4826SOL    HW215378   5.120   0.404   0.785
 4827SOL     OW15379   6.033   1.749   0.306
 4827SOL    HW115380   6.070   1.837   0.338
 4827SOL    HW215381   6.043   1.743   0.206
 4828SOL     OW15382   4.556   0.608   1.355
 4828SOL    HW115383   4.512   0.657   1.431
 4828SOL    HW215384   4.639   0.564   1.388
 4829SOL     OW15385   4.261   6.669   6.484
 4829SOL    HW115386   4.309   6.597   6.536
 4829SOL    HW215387   4.326   6.712   6.421
 4830SOL     OW15388   3.971   5.969   4.100
 4830SOL    HW115389   4.006   5.875   4.103
 4830SOL    HW215390   3.877   5.971   4.134
 4831SOL     OW15391   2.796   5.235   5.191
 4831SOL    HW115392   2.834   5.280   5.111
 4831SOL    HW215393   2.742   5.156   5.163
 4832SOL     OW15394   3.543   2.841   4.734
 4832SOL    HW115395   3.540   2.936   4.766
 4832SOL    HW215396   3.476   2.787   4.784
 4833SOL     OW15397   5.751   2.162   3.188
 4833SOL    HW115398   5.700   2.154   3.102
 4833SOL    HW215399   5.797   2.250   3.191
 4834SOL     OW15400   2.526   6.060   2.202
 4834SOL    HW115401   2.551   6.136   2.262
 4834SOL    HW215402   2.460   6.091   2.134
 4835SOL     OW15403   6.130   3.291   5.976
 4835SOL    HW115404   6.129   3.391   5.972
 4835SOL    HW215405   6.206   3.261   6.033
 4836SOL     OW15406   5.065   1.630   5.620
 4836SOL    HW115407   5.066   1.531   5.605
 4836SOL    HW215408   5.158   1.665   5.614
 4837SOL     OW15409   6.904   3.534   2.727
 4837SOL    HW115410   6.851   3.618   2.738
 4837SOL    HW215411   6.866   3.480   2.652
 4838SOL     OW15412   1.947   5.065   6.748
 4838SOL    HW115413   2.003   5.144   6.772
 4838SOL    HW215414   1.997   4.981   6.770
 4839SOL     OW15415   1.321   3.394   6.966
 4839SOL    HW115416   1.340   3.376   6.869
 4839SOL    HW215417   1.288   3.310   7.009
 4840SOL     OW15418   5.324   3.764   5.292
 4840SOL    HW115419   5.299   3.766   5.388
 4840SOL    HW215420   5.293   3.848   5.247
 4841SOL     OW15421   3.284   5.746   2.795
 4841SOL    HW115422   3.355   5.817   2.795
 4841SOL    HW215423   3.195   5.788   2.776
 4842SOL     OW15424   2.579   5.360   3.053
 4842SOL    HW115425   2.573   5.387   3.149
 4842SOL    HW215426   2.543   5.267   3.043
 4843SOL     OW15427   6.494   2.753   1.812
 4843SOL    HW115428   6.439   2.817   1.864
 4843SOL    HW215429   6.556   2.705   1.873
 4844SOL     OW15430   1.207   3.960   5.461
 4844SOL    HW115431   1.217   4.005   5.372
 4844SOL    HW215432   1.241   4.021   5.533
 4845SOL     OW15433   4.561   4.879   5.418
 4845SOL    HW115434   4.519   4.964   5.448
 4845SOL    HW215435   4.553   4.870   5.318
 4846SOL     OW15436   0.080   2.033   3.383
 4846SOL    HW115437   0.029   2.090   3.448
 4846SOL    HW215438   0.178   2.056   3.389
 4847SOL     OW15439   2.468   0.731   5.244
 4847SOL    HW115440   2.472   0.631   5.247
 4847SOL    HW215441   2.557   0.768   5.273
 4848SOL     OW15442   2.183   1.013   3.883
 4848SOL    HW115443   2.267   1.033   3.934
 4848SOL    HW215444   2.207   0.985   3.790
 4849SOL     OW15445   1.811   6.990   0.898
 4849SOL    HW115446   1.769   0.058   0.928
 4849SOL    HW215447   1.741   6.920   0.887
 4850SOL     OW15448   4.257   0.515   1.534
 4850SOL    HW115449   4.202   0.479   1.458
 4850SOL    HW215450   4.266   0.614   1.524
 4851SOL     OW15451   3.883   5.496   6.615
 4851SOL    HW115452   3.785   5.491   6.593
 4851SOL    HW215453   3.918   5.404   6.633
 4852SOL     OW15454   3.470   5.753   4.217
 4852SOL    HW115455   3.399   5.731   4.151
 4852SOL    HW215456   3.469   5.852   4.236
 4853SOL     OW15457   3.703   1.183   2.793
 4853SOL    HW115458   3.670   1.178   2.888
 4853SOL    HW215459   3.765   1.261   2.784
 4854SOL     OW15460   5.466   6.724   2.135
 4854SOL    HW115461   5.420   6.636   2.124
 4854SOL    HW215462   5.563   6.709   2.153
 4855SOL     OW15463   0.076   3.536   4.853
 4855SOL    HW115464   0.071   3.449   4.805
 4855SOL    HW215465   0.123   3.524   4.941
 4856SOL     OW15466   0.362   3.178   2.537
 4856SOL    HW115467   0.322   3.129   2.459
 4856SOL    HW215468   0.319   3.146   2.622
 4857SOL     OW15469   3.548   2.150   3.596
 4857SOL    HW115470   3.570   2.154   3.693
 4857SOL    HW215471   3.563   2.240   3.555
 4858SOL     OW15472   1.019   0.328   4.861
 4858SOL    HW115473   1.091   0.321   4.792
 4858SOL    HW215474   1.016   0.245   4.915
 4859SOL     OW15475   1.317   4.950   1.694
 4859SOL    HW115476   1.225   4.961   1.657
 4859SOL    HW215477   1.379   4.921   1.621
 4860SOL     OW15478   4.014   4.505   0.173
 4860SOL    HW115479   4.006   4.527   0.270
 4860SOL    HW215480   3.957   4.425   0.152
 4861SOL     OW15481   6.420   4.850   6.035
 4861SOL    HW115482   6.329   4.872   5.998
 4861SOL    HW215483   6.469   4.935   6.056
 4862SOL     OW15484   2.976   4.786   4.810
 4862SOL    HW115485   2.938   4.720   4.875
 4862SOL    HW215486   3.018   4.737   4.733
 4863SOL     OW15487   4.950   3.362   2.802
 4863SOL    HW115488   4.962   3.418   2.884
 4863SOL    HW215489   4.910   3.274   2.826
 4864SOL     OW15490   2.928   1.643   1.806
 4864SOL    HW115491   2.968   1.595   1.883
 4864SOL    HW215492   2.994   1.709   1.770
 4865SOL     OW15493   2.915   5.057   5.927
 4865SOL    HW115494   2.901   4.979   5.866
 4865SOL    HW215495   2.829   5.079   5.973
 4866SOL     OW15496   6.276   5.050   1.856
 4866SOL    HW115497   6.256   5.025   1.950
 4866SOL    HW215498   6.358   5.001   1.825
 4867SOL     OW15499   4.967   5.917   3.469
 4867SOL    HW115500   5.062   5.900   3.444
 4867SOL    HW215501   4.932   5.841   3.523
 4868SOL     OW15502   1.085   5.424   1.528
 4868SOL    HW115503   1.085   5.510   1.477
 4868SOL    HW215504   1.176   5.383   1.525
 4869SOL     OW15505   6.555   2.175   0.701
 4869SOL    HW115506   6.622   2.120   0.652
 4869SOL    HW215507   6.512   2.120   0.772
 4870SOL     OW15508   4.118   5.762   1.536
 4870SOL    HW115509   4.121   5.702   1.456
 4870SOL    HW215510   4.023   5.784   1.558
 4871SOL     OW15511   1.324   1.739   3.132
 4871SOL    HW115512   1.294   1.823   3.086
 4871SOL    HW215513   1.404   1.702   3.084
 4872SOL     OW15514   1.121   6.908   3.060
 4872SOL    HW115515   1.165   6.885   3.147
 4872SOL    HW215516   1.126   7.007   3.046
 4873SOL     OW15517   0.189   4.945   5.212
 4873SOL    HW115518   0.251   4.976   5.140
 4873SOL    HW215519   0.183   4.845   5.210
 4874SOL     OW15520   5.410   4.096   2.513
 4874SOL    HW115521   5.414   4.071   2.416
 4874SOL    HW215522   5.475   4.039   2.564
 4875SOL     OW15523   5.519   1.884   1.190
 4875SOL    HW115524   5.529   1.786   1.179
 4875SOL    HW215525   5.580   1.932   1.128
 4876SOL     OW15526   5.794   0.408   5.583
 4876SOL    HW115527   5.811   0.310   5.575
 4876SOL    HW215528   5.747   0.426   5.669
 4877SOL     OW15529   6.386   1.610   0.915
 4877SOL    HW115530   6.325   1.660   0.976
 4877SOL    HW215531   6.454   1.673   0.877
 4878SOL     OW15532   0.414   1.891   1.832
 4878SOL    HW115533   0.354   1.844   1.897
 4878SOL    HW215534   0.479   1.947   1.883
 4879SOL     OW15535   4.290   4.772   2.821
 4879SOL    HW115536   4.238   4.711   2.882
 4879SOL    HW215537   4.388   4.755   2.833
 4880SOL     OW15538   5.261   1.748   0.332
 4880SOL    HW115539   5.227   1.758   0.425
 4880SOL    HW215540   5.310   1.831   0.305
 4881SOL     OW15541   2.786   6.288   5.970
 4881SOL    HW115542   2.747   6.344   5.897
 4881SOL    HW215543   2.866   6.239   5.936
 4882SOL     OW15544   6.416   1.527   5.514
 4882SOL    HW115545   6.391   1.586   5.437
 4882SOL    HW215546   6.515   1.518   5.518
 4883SOL     OW15547   5.595   4.553   2.546
 4883SOL    HW115548   5.553   4.465   2.525
 4883SOL    HW215549   5.548   4.595   2.623
 4884SOL     OW15550   4.486   0.380   1.548
 4884SOL    HW115551   4.394   0.418   1.551
 4884SOL    HW215552   4.507   0.349   1.456
 4885SOL     OW15553   1.777   6.470   1.998
 4885SOL    HW115554   1.730   6.556   2.018
 4885SOL    HW215555   1.873   6.479   2.022
 4886SOL     OW15556   0.253   6.473   6.772
 4886SOL    HW115557   0.234   6.510   6.681
 4886SOL    HW215558   0.343   6.505   6.803
 4887SOL     OW15559   6.448   2.117   3.627
 4887SOL    HW115560   6.495   2.154   3.708
 4887SOL    HW215561   6.377   2.181   3.598
 4888SOL     OW15562   1.763   7.016   3.584
 4888SOL    HW115563   1.859   0.006   3.557
 4888SOL    HW215564   1.710   6.981   3.508
 4889SOL     OW15565   0.605   2.250   0.345
 4889SOL    HW115566   0.511   2.216   0.339
 4889SOL    HW215567   0.662   2.180   0.387
 4890SOL     OW15568   0.954   1.492   4.165
 4890SOL    HW115569   1.022   1.565   4.169
 4890SOL    HW215570   0.880   1.512   4.229
 4891SOL     OW15571   1.283   5.174   0.460
 4891SOL    HW115572   1.315   5.165   0.554
 4891SOL    HW215573   1.342   5.121   0.399
 4892SOL     OW15574   1.025   5.660   2.410
 4892SOL    HW115575   1.007   5.736   2.348
 4892SOL    HW215576   1.033   5.575   2.358
 4893SOL     OW15577   6.859   4.542   6.890
 4893SOL    HW115578   6.761   4.557   6.877
 4893SOL    HW215579   6.901   4.626   6.925
 4894SOL     OW15580   2.166   0.375   2.993
 4894SOL    HW115581   2.068   0.379   3.015
 4894SOL    HW215582   2.214   0.324   3.065
 4895SOL     OW15583   1.018   3.619   0.896
 4895SOL    HW115584   0.927   3.609   0.936
 4895SOL    HW215585   1.047   3.532   0.857
 4896SOL     OW15586   3.311   5.488   3.402
 4896SOL    HW115587   3.396   5.435   3.406
 4896SOL    HW215588   3.233   5.427   3.410
 4897SOL     OW15589   3.204   4.835   6.354
 4897SOL    HW115590   3.248   4.805   6.438
 4897SOL    HW215591   3.127   4.774   6.334
 4898SOL     OW15592   5.310   2.551   5.583
 4898SOL    HW115593   5.257   2.495   5.647
 4898SOL    HW215594   5.391   2.500   5.554
 4899SOL     OW15595   6.330   4.717   2.725
 4899SOL    HW115596   6.393   4.676   2.658
 4899SOL    HW215597   6.330   4.816   2.714
 4900SOL     OW15598   0.087   6.565   5.711
 4900SOL    HW115599   7.016   6.539   5.751
 4900SOL    HW215600   0.079   6.654   5.667
 4901SOL     OW15601   1.847   0.334   4.420
 4901SOL    HW115602   1.772   0.391   4.453
 4901SOL    HW215603   1.927   0.391   4.402
 4902SOL     OW15604   1.316   3.661   2.222
 4902SOL    HW115605   1.397   3.640   2.168
 4902SOL    HW215606   1.263   3.733   2.177
 4903SOL     OW15607   4.003   6.606   6.773
 4903SOL    HW115608   3.992   6.542   6.697
 4903SOL    HW215609   3.915   6.648   6.794
 4904SOL     OW15610   2.199   5.674   4.397
 4904SOL    HW115611   2.120   5.621   4.367
 4904SOL    HW215612   2.282   5.637   4.356
 4905SOL     OW15613   4.669   2.589   2.162
 4905SOL    HW115614   4.614   2.524   2.110
 4905SOL    HW215615   4.654   2.575   2.260
 4906SOL     OW15616   4.472   6.921   0.553
 4906SOL    HW115617   4.461   6.825   0.525
 4906SOL    HW215618   4.499   6.925   0.649
 4907SOL     OW15619   4.220   6.267   3.310
 4907SOL    HW115620   4.136   6.243   3.261
 4907SOL    HW215621   4.235   6.202   3.384
 4908SOL     OW15622   4.101   5.811   6.818
 4908SOL    HW115623   4.049   5.782   6.737
 4908SOL    HW215624   4.175   5.872   6.790
 4909SOL     OW15625   5.875   0.138   5.521
 4909SOL    HW115626   5.892   0.128   5.619
 4909SOL    HW215627   5.802   0.075   5.493
 4910SOL     OW15628   5.165   0.340   5.332
 4910SOL    HW115629   5.145   0.243   5.345
 4910SOL    HW215630   5.238   0.349   5.264
 4911SOL     OW15631   6.660   1.916   5.821
 4911SOL    HW115632   6.638   1.952   5.912
 4911SOL    HW215633   6.599   1.840   5.800
 4912SOL     OW15634   4.582   1.515   1.975
 4912SOL    HW115635   4.678   1.538   1.955
 4912SOL    HW215636   4.551   1.445   1.910
 4913SOL     OW15637   3.173   4.049   3.810
 4913SOL    HW115638   3.218   4.137   3.826
 4913SOL    HW215639   3.163   4.000   3.897
 4914SOL     OW15640   2.950   1.090   4.265
 4914SOL    HW115641   2.884   1.087   4.340
 4914SOL    HW215642   2.904   1.062   4.180
 4915SOL     OW15643   4.531   6.835   4.346
 4915SOL    HW115644   4.613   6.791   4.382
 4915SOL    HW215645   4.555   6.892   4.268
 4916SOL     OW15646   2.387   1.871   3.034
 4916SOL    HW115647   2.472   1.913   3.066
 4916SOL    HW215648   2.408   1.785   2.987
 4917SOL     OW15649   1.518   3.717   0.945
 4917SOL    HW115650   1.595   3.739   0.886
 4917SOL    HW215651   1.501   3.618   0.943
 4918SOL     OW15652   2.703   0.069   3.051
 4918SOL    HW115653   2.719   0.009   2.973
 4918SOL    HW215654   2.643   0.144   3.024
 4919SOL     OW15655   1.707   1.938   3.169
 4919SOL    HW115656   1.641   1.864   3.186
 4919SOL    HW215657   1.680   1.987   3.086
 4920SOL     OW15658   4.203   0.653   6.993
 4920SOL    HW115659   4.190   0.563   0.017
 4920SOL    HW215660   4.190   0.724   0.044
 4921SOL     OW15661   2.399   3.845   1.722
 4921SOL    HW115662   2.357   3.806   1.640
 4921SOL    HW215663   2.338   3.828   1.801
 4922SOL     OW15664   1.165   3.434   5.372
 4922SOL    HW115665   1.182   3.368   5.298
 4922SOL    HW215666   1.126   3.518   5.335
 4923SOL     OW15667   4.956   0.080   2.380
 4923SOL    HW115668   4.972   0.162   2.325
 4923SOL    HW215669   4.890   0.021   2.334
 4924SOL     OW15670   1.662   3.444   4.493
 4924SOL    HW115671   1.596   3.372   4.472
 4924SOL    HW215672   1.718   3.417   4.571
 4925SOL     OW15673   5.501   6.365   0.835
 4925SOL    HW115674   5.501   6.390   0.931
 4925SOL    HW215675   5.473   6.443   0.780
 4926SOL     OW15676   5.288   2.897   1.595
 4926SOL    HW115677   5.228   2.964   1.551
 4926SOL    HW215678   5.241   2.856   1.673
 4927SOL     OW15679   3.827   3.079   2.820
 4927SOL    HW115680   3.841   3.062   2.722
 4927SOL    HW215681   3.736   3.047   2.846
 4928SOL     OW15682   0.505   6.668   6.399
 4928SOL    HW115683   0.460   6.730   6.463
 4928SOL    HW215684   0.595   6.642   6.435
 4929SOL     OW15685   1.347   4.467   5.127
 4929SOL    HW115686   1.257   4.497   5.094
 4929SOL    HW215687   1.370   4.516   5.210
 4930SOL     OW15688   0.985   1.281   0.304
 4930SOL    HW115689   1.081   1.307   0.318
 4930SOL    HW215690   0.958   1.216   0.375
 4931SOL     OW15691   0.702   0.780   6.920
 4931SOL    HW115692   0.712   0.870   6.962
 4931SOL    HW215693   0.776   0.721   6.950
 4932SOL     OW15694   2.336   2.857   1.731
 4932SOL    HW115695   2.433   2.848   1.711
 4932SOL    HW215696   2.286   2.871   1.645
 4933SOL     OW15697   2.475   1.394   4.403
 4933SOL    HW115698   2.520   1.306   4.392
 4933SOL    HW215699   2.473   1.419   4.500
 4934SOL     OW15700   0.802   5.424   4.385
 4934SOL    HW115701   0.854   5.472   4.455
 4934SOL    HW215702   0.743   5.355   4.428
 4935SOL     OW15703   1.491   0.965   6.488
 4935SOL    HW115704   1.587   0.982   6.464
 4935SOL    HW215705   1.438   0.951   6.405
 4936SOL     OW15706   2.694   5.858   1.497
 4936SOL    HW115707   2.781   5.854   1.448
 4936SOL    HW215708   2.705   5.818   1.588
 4937SOL     OW15709   0.745   3.805   6.160
 4937SOL    HW115710   0.708   3.729   6.107
 4937SOL    HW215711   0.756   3.885   6.100
 4938SOL     OW15712   3.111   4.633   1.605
 4938SOL    HW115713   3.086   4.562   1.540
 4938SOL    HW215714   3.210   4.647   1.603
 4939SOL     OW15715   1.769   1.806   1.987
 4939SOL    HW115716   1.822   1.829   1.905
 4939SOL    HW215717   1.703   1.878   2.006
 4940SOL     OW15718   6.914   1.568   4.970
 4940SOL    HW115719   6.979   1.642   4.985
 4940SOL    HW215720   6.913   1.543   4.874
 4941SOL     OW15721   3.933   2.570   5.330
 4941SOL    HW115722   3.891   2.481   5.316
 4941SOL    HW215723   4.015   2.578   5.273
 4942SOL     OW15724   5.349   3.181   4.013
 4942SOL    HW115725   5.388   3.092   4.034
 4942SOL    HW215726   5.291   3.212   4.088
 4943SOL     OW15727   6.084   4.127   6.813
 4943SOL    HW115728   5.999   4.085   6.783
 4943SOL    HW215729   6.158   4.098   6.752
 4944SOL     OW15730   1.960   4.790   0.511
 4944SOL    HW115731   1.951   4.773   0.609
 4944SOL    HW215732   2.027   4.726   0.472
 4945SOL     OW15733   1.597   1.265   5.308
 4945SOL    HW115734   1.539   1.238   5.232
 4945SOL    HW215735   1.676   1.315   5.273
 4946SOL     OW15736   1.070   4.393   0.100
 4946SOL    HW115737   1.076   4.299   0.066
 4946SOL    HW215738   1.056   4.455   0.023
 4947SOL     OW15739   2.978   0.815   2.281
 4947SOL    HW115740   3.020   0.731   2.314
 4947SOL    HW215741   3.051   0.881   2.259
 4948SOL     OW15742   1.743   2.538   2.253
 4948SOL    HW115743   1.798   2.616   2.284
 4948SOL    HW215744   1.653   2.571   2.225
 4949SOL     OW15745   6.728   3.928   5.903
 4949SOL    HW115746   6.764   3.995   5.968
 4949SOL    HW215747   6.781   3.932   5.818
 4950SOL     OW15748   2.038   4.126   4.877
 4950SOL    HW115749   2.127   4.083   4.891
 4950SOL    HW215750   2.051   4.217   4.838
 4951SOL     OW15751   6.341   6.316   3.812
 4951SOL    HW115752   6.319   6.249   3.883
 4951SOL    HW215753   6.438   6.340   3.818
 4952SOL     OW15754   6.701   0.257   6.617
 4952SOL    HW115755   6.757   0.336   6.640
 4952SOL    HW215756   6.758   0.188   6.572
 4953SOL     OW15757   1.995   1.647   4.207
 4953SOL    HW115758   2.075   1.679   4.256
 4953SOL    HW215759   1.977   1.707   4.129
 4954SOL     OW15760   2.140   3.758   5.804
 4954SOL    HW115761   2.068   3.778   5.737
 4954SOL    HW215762   2.185   3.843   5.831
 4955SOL     OW15763   2.887   5.266   0.369
 4955SOL    HW115764   2.893   5.167   0.360
 4955SOL    HW215765   2.926   5.309   0.287
 4956SOL     OW15766   2.983   0.657   5.313
 4956SOL    HW115767   2.947   0.564   5.320
 4956SOL    HW215768   3.073   0.655   5.270
 4957SOL     OW15769   5.891   3.666   0.334
 4957SOL    HW115770   5.835   3.627   0.260
 4957SOL    HW215771   5.832   3.698   0.407
 4958SOL     OW15772   2.313   6.243   5.377
 4958SOL    HW115773   2.230   6.197   5.346
 4958SOL    HW215774   2.393   6.188   5.354
 4959SOL     OW15775   6.751   1.938   1.218
 4959SOL    HW115776   6.751   1.845   1.255
 4959SOL    HW215777   6.844   1.963   1.190
 4960SOL     OW15778   4.068   4.846   3.583
 4960SOL    HW115779   3.985   4.839   3.638
 4960SOL    HW215780   4.053   4.909   3.507
 4961SOL     OW15781   3.111   0.816   6.919
 4961SOL    HW115782   3.083   0.896   6.972
 4961SOL    HW215783   3.072   0.733   6.959
 4962SOL     OW15784   5.659   2.048   0.797
 4962SOL    HW115785   5.629   2.091   0.711
 4962SOL    HW215786   5.667   2.117   0.868
 4963SOL     OW15787   1.530   6.045   1.039
 4963SOL    HW115788   1.482   6.121   0.995
 4963SOL    HW215789   1.629   6.059   1.030
 4964SOL     OW15790   2.073   6.574   4.917
 4964SOL    HW115791   1.997   6.536   4.969
 4964SOL    HW215792   2.117   6.501   4.864
 4965SOL     OW15793   0.820   6.718   3.079
 4965SOL    HW115794   0.873   6.636   3.059
 4965SOL    HW215795   0.772   6.707   3.166
 4966SOL     OW15796   2.286   6.436   4.269
 4966SOL    HW115797   2.361   6.424   4.334
 4966SOL    HW215798   2.318   6.488   4.190
 4967SOL     OW15799   3.214   4.574   6.056
 4967SOL    HW115800   3.303   4.588   6.015
 4967SOL    HW215801   3.200   4.476   6.074
 4968SOL     OW15802   0.215   0.629   3.993
 4968SOL    HW115803   0.183   0.645   3.900
 4968SOL    HW215804   0.141   0.590   4.048
 4969SOL     OW15805   0.288   6.351   2.662
 4969SOL    HW115806   0.265   6.258   2.690
 4969SOL    HW215807   0.220   6.384   2.597
 4970SOL     OW15808   2.174   1.050   1.738
 4970SOL    HW115809   2.258   1.046   1.683
 4970SOL    HW215810   2.150   1.146   1.756
 4971SOL     OW15811   6.071   5.547   2.707
 4971SOL    HW115812   6.038   5.636   2.737
 4971SOL    HW215813   6.145   5.517   2.768
 4972SOL     OW15814   1.342   4.366   0.242
 4972SOL    HW115815   1.430   4.373   0.289
 4972SOL    HW215816   1.356   4.331   0.149
 4973SOL     OW15817   0.457   0.829   1.992
 4973SOL    HW115818   0.536   0.890   1.983
 4973SOL    HW215819   0.425   0.802   1.901
 4974SOL     OW15820   4.940   4.659   0.226
 4974SOL    HW115821   4.949   4.633   0.129
 4974SOL    HW215822   4.998   4.738   0.245
 4975SOL     OW15823   5.005   3.833   0.801
 4975SOL    HW115824   4.983   3.891   0.879
 4975SOL    HW215825   4.994   3.885   0.716
 4976SOL     OW15826   1.179   0.673   4.581
 4976SOL    HW115827   1.116   0.635   4.648
 4976SOL    HW215828   1.222   0.755   4.619
 4977SOL     OW15829   3.408   3.553   6.733
 4977SOL    HW115830   3.362   3.636   6.702
 4977SOL    HW215831   3.495   3.577   6.775
 4978SOL     OW15832   4.784   4.503   5.082
 4978SOL    HW115833   4.875   4.481   5.117
 4978SOL    HW215834   4.777   4.602   5.068
 4979SOL     OW15835   0.409   6.523   0.040
 4979SOL    HW115836   0.386   6.604   0.094
 4979SOL    HW215837   0.466   6.550   6.980
 4980SOL     OW15838   6.175   4.484   2.490
 4980SOL    HW115839   6.121   4.419   2.543
 4980SOL    HW215840   6.270   4.454   2.488
 4981SOL     OW15841   3.294   5.887   1.605
 4981SOL    HW115842   3.388   5.857   1.591
 4981SOL    HW215843   3.291   5.987   1.602
 4982SOL     OW15844   3.924   1.603   6.709
 4982SOL    HW115845   3.824   1.601   6.709
 4982SOL    HW215846   3.956   1.678   6.768
 4983SOL     OW15847   6.025   4.929   4.212
 4983SOL    HW115848   6.087   4.850   4.204
 4983SOL    HW215849   6.043   4.977   4.297
 4984SOL     OW15850   4.588   4.349   3.122
 4984SOL    HW115851   4.659   4.418   3.135
 4984SOL    HW215852   4.631   4.260   3.106
 4985SOL     OW15853   4.796   6.631   2.894
 4985SOL    HW115854   4.845   6.620   2.807
 4985SOL    HW215855   4.850   6.689   2.955
 4986SOL     OW15856   6.644   4.916   1.285
 4986SOL    HW115857   6.582   4.877   1.216
 4986SOL    HW215858   6.591   4.950   1.362
 4987SOL     OW15859   1.426   6.185   2.770
 4987SOL    HW115860   1.390   6.109   2.824
 4987SOL    HW215861   1.356   6.217   2.705
 4988SOL     OW15862   6.132   1.328   3.463
 4988SOL    HW115863   6.034   1.344   3.453
 4988SOL    HW215864   6.157   1.336   3.560
 4989SOL     OW15865   4.677   0.378   1.739
 4989SOL    HW115866   4.764   0.421   1.712
 4989SOL    HW215867   4.620   0.365   1.659
 4990SOL     OW15868   3.659   1.645   6.797
 4990SOL    HW115869   3.575   1.628   6.745
 4990SOL    HW215870   3.636   1.682   6.887
 4991SOL     OW15871   6.856   5.934   3.804
 4991SOL    HW115872   6.838   6.022   3.760
 4991SOL    HW215873   6.773   5.878   3.801
 4992SOL     OW15874   6.282   1.515   2.792
 4992SOL    HW115875   6.312   1.611   2.796
 4992SOL    HW215876   6.360   1.455   2.809
 4993SOL     OW15877   4.074   6.671   4.931
 4993SOL    HW115878   4.071   6.592   4.870
 4993SOL    HW215879   3.996   6.731   4.911
 4994SOL     OW15880   2.328   5.687   4.621
 4994SOL    HW115881   2.371   5.599   4.639
 4994SOL    HW215882   2.261   5.677   4.547
 4995SOL     OW15883   0.499   0.885   5.344
 4995SOL    HW115884   0.583   0.854   5.389
 4995SOL    HW215885   0.452   0.806   5.303
 4996SOL     OW15886   6.928   1.395   3.645
 4996SOL    HW115887   0.005   1.429   3.645
 4996SOL    HW215888   6.928   1.297   3.626
 4997SOL     OW15889   3.475   2.427   1.359
 4997SOL    HW115890   3.446   2.374   1.279
 4997SOL    HW215891   3.575   2.430   1.363
 4998SOL     OW15892   1.708   3.306   3.524
 4998SOL    HW115893   1.750   3.223   3.487
 4998SOL    HW215894   1.615   3.285   3.555
 4999SOL     OW15895   0.234   3.553   5.093
 4999SOL    HW115896   0.273   3.645   5.088
 4999SOL    HW215897   0.308   3.486   5.106
 5000SOL     OW15898   3.265   6.198   3.047
 5000SOL    HW115899   3.264   6.104   3.080
 5000SOL    HW215900   3.194   6.251   3.093
 5001SOL     OW15901   0.421   5.617   2.529
 5001SOL    HW115902   0.336   5.661   2.557
 5001SOL    HW215903   0.486   5.687   2.499
 5002SOL     OW15904   0.423   5.263   2.004
 5002SOL    HW115905   0.382   5.336   1.950
 5002SOL    HW215906   0.432   5.293   2.099
 5003SOL     OW15907   4.123   6.675   2.891
 5003SOL    HW115908   4.094   6.749   2.831
 5003SOL    HW215909   4.060   6.667   2.968
 5004SOL     OW15910   2.397   5.334   5.176
 5004SOL    HW115911   2.390   5.295   5.084
 5004SOL    HW215912   2.319   5.305   5.231
 5005SOL     OW15913   2.330   3.335   6.361
 5005SOL    HW115914   2.298   3.348   6.267
 5005SOL    HW215915   2.366   3.422   6.395
 5006SOL     OW15916   5.600   1.172   2.302
 5006SOL    HW115917   5.611   1.172   2.202
 5006SOL    HW215918   5.572   1.081   2.331
 5007SOL     OW15919   6.825   0.446   1.126
 5007SOL    HW115920   6.829   0.529   1.181
 5007SOL    HW215921   6.806   0.470   1.031
 5008SOL     OW15922   6.608   5.506   1.446
 5008SOL    HW115923   6.658   5.580   1.402
 5008SOL    HW215924   6.513   5.534   1.459
 5009SOL     OW15925   0.917   2.739   0.249
 5009SOL    HW115926   1.005   2.753   0.203
 5009SOL    HW215927   0.932   2.729   0.347
 5010SOL     OW15928   4.060   2.521   0.865
 5010SOL    HW115929   4.030   2.437   0.910
 5010SOL    HW215930   4.141   2.503   0.809
 5011SOL     OW15931   2.221   3.922   1.366
 5011SOL    HW115932   2.140   3.966   1.406
 5011SOL    HW215933   2.215   3.925   1.266
 5012SOL     OW15934   6.317   2.991   5.360
 5012SOL    HW115935   6.258   3.055   5.310
 5012SOL    HW215936   6.411   3.024   5.357
 5013SOL     OW15937   5.516   0.468   5.951
 5013SOL    HW115938   5.459   0.456   6.032
 5013SOL    HW215939   5.502   0.391   5.889
 5014SOL     OW15940   6.756   4.604   0.413
 5014SOL    HW115941   6.713   4.690   0.388
 5014SOL    HW215942   6.844   4.595   0.366
 5015SOL     OW15943   5.020   0.684   4.761
 5015SOL    HW115944   5.064   0.635   4.836
 5015SOL    HW215945   5.049   0.780   4.761
 5016SOL     OW15946   0.581   3.323   4.673
 5016SOL    HW115947   0.485   3.303   4.652
 5016SOL    HW215948   0.610   3.267   4.750
 5017SOL     OW15949   1.412   2.133   1.240
 5017SOL    HW115950   1.494   2.091   1.279
 5017SOL    HW215951   1.336   2.125   1.305
 5018SOL     OW15952   1.251   5.320   2.397
 5018SOL    HW115953   1.231   5.225   2.422
 5018SOL    HW215954   1.195   5.345   2.318
 5019SOL     OW15955   2.475   6.198   5.739
 5019SOL    HW115956   2.417   6.135   5.686
 5019SOL    HW215957   2.501   6.154   5.825
 5020SOL     OW15958   0.233   0.007   5.344
 5020SOL    HW115959   0.244   0.017   5.443
 5020SOL    HW215960   0.276   6.939   5.315
 5021SOL     OW15961   1.203   0.594   1.197
 5021SOL    HW115962   1.123   0.635   1.241
 5021SOL    HW215963   1.175   0.544   1.116
 5022SOL     OW15964   0.962   2.437   1.961
 5022SOL    HW115965   1.017   2.461   1.881
 5022SOL    HW215966   0.977   2.341   1.984
 5023SOL     OW15967   0.310   4.384   1.646
 5023SOL    HW115968   0.322   4.285   1.635
 5023SOL    HW215969   0.344   4.431   1.565
 5024SOL     OW15970   6.149   5.074   1.032
 5024SOL    HW115971   6.195   5.108   1.114
 5024SOL    HW215972   6.106   5.150   0.984
 5025SOL     OW15973   4.280   2.068   3.799
 5025SOL    HW115974   4.182   2.079   3.818
 5025SOL    HW215975   4.307   1.974   3.819
 5026SOL     OW15976   6.695   5.085   4.761
 5026SOL    HW115977   6.701   5.001   4.707
 5026SOL    HW215978   6.603   5.094   4.799
 5027SOL     OW15979   6.008   0.156   1.928
 5027SOL    HW115980   5.959   0.077   1.892
 5027SOL    HW215981   6.101   0.157   1.892
 5028SOL     OW15982   6.463   1.812   3.638
 5028SOL    HW115983   6.448   1.910   3.646
 5028SOL    HW215984   6.462   1.771   3.729
 5029SOL     OW15985   6.120   2.322   2.224
 5029SOL    HW115986   6.136   2.364   2.313
 5029SOL    HW215987   6.205   2.318   2.173
 5030SOL     OW15988   6.864   6.075   5.899
 5030SOL    HW115989   6.877   6.044   5.993
 5030SOL    HW215990   6.940   6.135   5.873
 5031SOL     OW15991   6.887   1.386   5.529
 5031SOL    HW115992   6.889   1.328   5.448
 5031SOL    HW215993   6.907   1.331   5.610
 5032SOL     OW15994   3.015   1.286   5.637
 5032SOL    HW115995   3.103   1.262   5.678
 5032SOL    HW215996   2.953   1.208   5.643
 5033SOL     OW15997   1.789   0.406   0.181
 5033SOL    HW115998   1.769   0.500   0.156
 5033SOL    HW215999   1.872   0.375   0.135
 5034SOL     OW16000   5.798   6.476   3.915
 5034SOL    HW116001   5.729   6.460   3.844
 5034SOL    HW216002   5.791   6.404   3.984
 5035SOL     OW16003   0.721   4.046   5.612
 5035SOL    HW116004   0.781   3.967   5.615
 5035SOL    HW216005   0.699   4.068   5.516
 5036SOL     OW16006   6.475   5.056   6.713
 5036SOL    HW116007   6.443   5.151   6.715
 5036SOL    HW216008   6.561   5.049   6.763
 5037SOL     OW16009   4.712   4.663   1.381
 5037SOL    HW116010   4.772   4.657   1.301
 5037SOL    HW216011   4.744   4.735   1.442
 5038SOL     OW16012   3.755   3.048   4.066
 5038SOL    HW116013   3.699   3.127   4.039
 5038SOL    HW216014   3.696   2.975   4.100
 5039SOL     OW16015   2.115   3.453   5.512
 5039SOL    HW116016   2.051   3.425   5.583
 5039SOL    HW216017   2.126   3.379   5.445
 5040SOL     OW16018   0.992   6.275   5.154
 5040SOL    HW116019   0.981   6.319   5.065
 5040SOL    HW216020   1.037   6.186   5.142
 5041SOL     OW16021   0.952   2.023   1.709
 5041SOL    HW116022   1.041   1.977   1.711
 5041SOL    HW216023   0.881   1.958   1.685
 5042SOL     OW16024   0.072   2.805   0.427
 5042SOL    HW116025   0.063   2.904   0.415
 5042SOL    HW216026   0.042   2.779   0.518
 5043SOL     OW16027   4.232   0.751   6.729
 5043SOL    HW116028   4.183   0.836   6.749
 5043SOL    HW216029   4.256   0.706   6.815
 5044SOL     OW16030   0.738   5.440   1.117
 5044SOL    HW116031   0.737   5.374   1.191
 5044SOL    HW216032   0.833   5.461   1.092
 5045SOL     OW16033   6.191   5.992   6.094
 5045SOL    HW116034   6.155   6.035   6.011
 5045SOL    HW216035   6.266   6.048   6.130
 5046SOL     OW16036   3.682   3.852   3.559
 5046SOL    HW116037   3.769   3.879   3.517
 5046SOL    HW216038   3.614   3.924   3.544
 5047SOL     OW16039   2.085   4.418   2.894
 5047SOL    HW116040   2.084   4.505   2.944
 5047SOL    HW216041   2.179   4.398   2.865
 5048SOL     OW16042   1.415   1.242   3.928
 5048SOL    HW116043   1.403   1.307   3.853
 5048SOL    HW216044   1.334   1.246   3.988
 5049SOL     OW16045   4.692   0.944   0.166
 5049SOL    HW116046   4.716   1.002   0.244
 5049SOL    HW216047   4.683   1.001   0.084
 5050SOL     OW16048   1.759   1.087   6.777
 5050SOL    HW116049   1.797   1.162   6.722
 5050SOL    HW216050   1.660   1.086   6.768
 5051SOL     OW16051   4.610   4.261   1.621
 5051SOL    HW116052   4.657   4.173   1.626
 5051SOL    HW216053   4.556   4.274   1.704
 5052SOL     OW16054   2.977   1.745   5.768
 5052SOL    HW116055   2.914   1.802   5.821
 5052SOL    HW216056   3.048   1.802   5.727
 5053SOL     OW16057   0.639   4.922   3.083
 5053SOL    HW116058   0.703   4.854   3.045
 5053SOL    HW216059   0.605   4.889   3.171
 5054SOL     OW16060   2.809   4.971   4.837
 5054SOL    HW116061   2.741   4.960   4.764
 5054SOL    HW216062   2.876   4.898   4.831
 5055SOL     OW16063   0.889   2.110   5.872
 5055SOL    HW116064   0.870   2.035   5.935
 5055SOL    HW216065   0.910   2.074   5.781
 5056SOL     OW16066   5.227   3.640   6.056
 5056SOL    HW116067   5.286   3.706   6.103
 5056SOL    HW216068   5.132   3.659   6.079
 5057SOL     OW16069   6.801   0.137   3.419
 5057SOL    HW116070   6.743   0.114   3.341
 5057SOL    HW216071   6.890   0.093   3.410
 5058SOL     OW16072   3.332   3.425   6.018
 5058SOL    HW116073   3.358   3.359   6.088
 5058SOL    HW216074   3.252   3.476   6.050
 5059SOL     OW16075   0.387   0.744   3.374
 5059SOL    HW116076   0.360   0.719   3.281
 5059SOL    HW216077   0.415   0.840   3.376
 5060SOL     OW16078   0.388   2.710   6.138
 5060SOL    HW116079   0.458   2.781   6.144
 5060SOL    HW216080   0.386   2.658   6.224
 5061SOL     OW16081   4.963   2.749   0.378
 5061SOL    HW116082   5.030   2.822   0.368
 5061SOL    HW216083   4.962   2.693   0.295
 5062SOL     OW16084   5.828   0.178   2.757
 5062SOL    HW116085   5.889   0.123   2.701
 5062SOL    HW216086   5.745   0.199   2.705
 5063SOL     OW16087   0.398   6.809   2.597
 5063SOL    HW116088   0.412   6.902   2.562
 5063SOL    HW216089   0.320   6.809   2.660
 5064SOL     OW16090   5.208   3.508   0.930
 5064SOL    HW116091   5.221   3.533   1.026
 5064SOL    HW216092   5.233   3.412   0.917
 5065SOL     OW16093   3.152   0.642   5.831
 5065SOL    HW116094   3.246   0.632   5.796
 5065SOL    HW216095   3.104   0.555   5.822
 5066SOL     OW16096   4.950   4.627   1.745
 5066SOL    HW116097   4.873   4.611   1.807
 5066SOL    HW216098   4.957   4.550   1.682
 5067SOL     OW16099   4.794   1.685   1.027
 5067SOL    HW116100   4.738   1.713   0.950
 5067SOL    HW216101   4.740   1.630   1.091
 5068SOL     OW16102   2.470   4.887   0.909
 5068SOL    HW116103   2.478   4.960   0.841
 5068SOL    HW216104   2.560   4.864   0.945
 5069SOL     OW16105   1.665   4.652   3.129
 5069SOL    HW116106   1.570   4.656   3.160
 5069SOL    HW216107   1.717   4.724   3.175
 5070SOL     OW16108   4.891   3.484   3.687
 5070SOL    HW116109   4.908   3.528   3.775
 5070SOL    HW216110   4.837   3.401   3.702
 5071SOL     OW16111   4.574   2.490   4.629
 5071SOL    HW116112   4.654   2.451   4.674
 5071SOL    HW216113   4.497   2.490   4.692
 5072SOL     OW16114   0.772   6.252   0.632
 5072SOL    HW116115   0.752   6.293   0.721
 5072SOL    HW216116   0.802   6.324   0.569
 5073SOL     OW16117   6.264   6.950   3.273
 5073SOL    HW116118   6.303   6.887   3.206
 5073SOL    HW216119   6.205   7.016   3.227
 5074SOL     OW16120   3.453   3.189   6.672
 5074SOL    HW116121   3.441   3.094   6.642
 5074SOL    HW216122   3.383   3.246   6.630
 5075SOL     OW16123   0.402   1.338   5.784
 5075SOL    HW116124   0.310   1.299   5.789
 5075SOL    HW216125   0.399   1.425   5.735
 5076SOL     OW16126   3.443   0.963   1.291
 5076SOL    HW116127   3.378   0.983   1.218
 5076SOL    HW216128   3.494   1.046   1.314
 5077SOL     OW16129   0.164   2.805   4.284
 5077SOL    HW116130   0.080   2.844   4.244
 5077SOL    HW216131   0.154   2.706   4.291
 5078SOL     OW16132   0.841   2.107   3.454
 5078SOL    HW116133   0.894   2.085   3.537
 5078SOL    HW216134   0.863   2.200   3.425
 5079SOL     OW16135   2.686   4.593   6.237
 5079SOL    HW116136   2.726   4.597   6.329
 5079SOL    HW216137   2.638   4.679   6.218
 5080SOL     OW16138   5.802   6.672   5.585
 5080SOL    HW116139   5.710   6.635   5.571
 5080SOL    HW216140   5.870   6.607   5.551
 5081SOL     OW16141   4.113   3.399   3.165
 5081SOL    HW116142   4.073   3.334   3.101
 5081SOL    HW216143   4.042   3.432   3.228
 5082SOL     OW16144   6.164   5.270   5.489
 5082SOL    HW116145   6.214   5.308   5.567
 5082SOL    HW216146   6.066   5.286   5.501
 5083SOL     OW16147   2.126   6.528   2.831
 5083SOL    HW116148   2.027   6.531   2.813
 5083SOL    HW216149   2.157   6.433   2.830
 5084SOL     OW16150   1.029   4.984   4.908
 5084SOL    HW116151   1.011   5.051   4.836
 5084SOL    HW216152   1.059   4.898   4.866
 5085SOL     OW16153   5.763   2.416   6.936
 5085SOL    HW116154   5.743   2.319   6.918
 5085SOL    HW216155   5.828   2.450   6.869
 5086SOL     OW16156   6.413   5.232   4.227
 5086SOL    HW116157   6.486   5.244   4.294
 5086SOL    HW216158   6.328   5.271   4.263
 5087SOL     OW16159   6.528   6.070   3.284
 5087SOL    HW116160   6.557   6.163   3.263
 5087SOL    HW216161   6.565   6.042   3.373
 5088SOL     OW16162   5.745   1.468   5.165
 5088SOL    HW116163   5.829   1.517   5.188
 5088SOL    HW216164   5.733   1.391   5.227
 5089SOL     OW16165   6.249   3.507   2.989
 5089SOL    HW116166   6.302   3.442   2.934
 5089SOL    HW216167   6.296   3.595   2.989
 5090SOL     OW16168   2.067   3.789   1.630
 5090SOL    HW116169   2.044   3.733   1.551
 5090SOL    HW216170   2.028   3.748   1.712
 5091SOL     OW16171   0.649   5.803   2.944
 5091SOL    HW116172   0.555   5.775   2.963
 5091SOL    HW216173   0.707   5.780   3.023
 5092SOL     OW16174   3.371   2.674   1.159
 5092SOL    HW116175   3.377   2.688   1.258
 5092SOL    HW216176   3.348   2.579   1.139
 5093SOL     OW16177   1.360   1.910   1.551
 5093SOL    HW116178   1.352   1.866   1.461
 5093SOL    HW216179   1.275   1.899   1.601
 5094SOL     OW16180   1.079   0.199   5.296
 5094SOL    HW116181   1.147   0.250   5.349
 5094SOL    HW216182   0.987   0.222   5.330
 5095SOL     OW16183   0.848   1.338   4.469
 5095SOL    HW116184   0.761   1.341   4.419
 5095SOL    HW216185   0.885   1.430   4.477
 5096SOL     OW16186   4.245   4.001   0.828
 5096SOL    HW116187   4.304   3.927   0.859
 5096SOL    HW216188   4.255   4.013   0.729
 5097SOL     OW16189   1.938   0.238   6.330
 5097SOL    HW116190   1.932   0.160   6.268
 5097SOL    HW216191   1.889   0.217   6.414
 5098SOL     OW16192   0.301   0.680   1.694
 5098SOL    HW116193   0.226   0.745   1.705
 5098SOL    HW216194   0.373   0.722   1.639
 5099SOL     OW16195   1.052   0.599   6.173
 5099SOL    HW116196   1.112   0.542   6.117
 5099SOL    HW216197   0.978   0.543   6.211
 5100SOL     OW16198   4.568   6.360   5.817
 5100SOL    HW116199   4.553   6.347   5.719
 5100SOL    HW216200   4.661   6.392   5.833
 5101SOL     OW16201   5.147   6.447   6.512
 5101SOL    HW116202   5.229   6.491   6.549
 5101SOL    HW216203   5.079   6.517   6.492
 5102SOL     OW16204   5.876   0.749   5.709
 5102SOL    HW116205   5.958   0.713   5.665
 5102SOL    HW216206   5.863   0.705   5.797
 5103SOL     OW16207   6.965   0.969   4.618
 5103SOL    HW116208   6.889   0.922   4.662
 5103SOL    HW216209   7.003   0.910   4.547
 5104SOL     OW16210   1.627   6.727   1.708
 5104SOL    HW116211   1.714   6.753   1.750
 5104SOL    HW216212   1.633   6.634   1.672
 5105SOL     OW16213   4.059   3.621   0.106
 5105SOL    HW116214   4.021   3.531   0.084
 5105SOL    HW216215   4.013   3.690   0.051
 5106SOL     OW16216   3.371   0.291   2.513
 5106SOL    HW116217   3.323   0.364   2.464
 5106SOL    HW216218   3.309   0.215   2.529
 5107SOL     OW16219   2.985   0.867   0.195
 5107SOL    HW116220   3.035   0.784   0.167
 5107SOL    HW216221   3.023   0.946   0.147
 5108SOL     OW16222   2.898   3.571   3.859
 5108SOL    HW116223   2.963   3.577   3.935
 5108SOL    HW216224   2.905   3.653   3.803
 5109SOL     OW16225   0.748   1.672   0.843
 5109SOL    HW116226   0.712   1.740   0.779
 5109SOL    HW216227   0.672   1.624   0.886
 5110SOL     OW16228   1.242   6.627   6.509
 5110SOL    HW116229   1.291   6.578   6.436
 5110SOL    HW216230   1.211   6.561   6.577
 5111SOL     OW16231   0.760   1.019   5.712
 5111SOL    HW116232   0.786   1.102   5.760
 5111SOL    HW216233   0.799   1.019   5.620
 5112SOL     OW16234   0.645   6.786   3.318
 5112SOL    HW116235   0.702   6.763   3.396
 5112SOL    HW216236   0.593   6.869   3.339
 5113SOL     OW16237   1.266   0.140   0.997
 5113SOL    HW116238   1.331   0.216   0.992
 5113SOL    HW216239   1.264   0.092   0.909
 5114SOL     OW16240   3.348   3.030   0.212
 5114SOL    HW116241   3.365   3.129   0.212
 5114SOL    HW216242   3.366   2.994   0.303
 5115SOL     OW16243   1.880   4.358   5.205
 5115SOL    HW116244   1.917   4.423   5.138
 5115SOL    HW216245   1.946   4.345   5.278
 5116SOL     OW16246   5.551   5.636   5.835
 5116SOL    HW116247   5.624   5.568   5.838
 5116SOL    HW216248   5.585   5.723   5.869
 5117SOL     OW16249   2.209   4.632   3.935
 5117SOL    HW116250   2.268   4.552   3.945
 5117SOL    HW216251   2.228   4.697   4.009
 5118SOL     OW16252   4.856   6.178   0.305
 5118SOL    HW116253   4.868   6.079   0.315
 5118SOL    HW216254   4.776   6.196   0.248
 5119SOL     OW16255   4.993   0.369   1.769
 5119SOL    HW116256   4.985   0.383   1.867
 5119SOL    HW216257   4.975   0.456   1.721
 5120SOL     OW16258   5.973   1.453   3.163
 5120SOL    HW116259   5.960   1.455   3.262
 5120SOL    HW216260   5.909   1.516   3.119
 5121SOL     OW16261   1.390   2.794   6.492
 5121SOL    HW116262   1.404   2.695   6.486
 5121SOL    HW216263   1.441   2.830   6.570
 5122SOL     OW16264   2.994   0.735   4.011
 5122SOL    HW116265   2.950   0.695   4.091
 5122SOL    HW216266   3.093   0.719   4.016
 5123SOL     OW16267   5.309   3.552   4.662
 5123SOL    HW116268   5.402   3.516   4.668
 5123SOL    HW216269   5.276   3.576   4.754
 5124SOL     OW16270   2.512   5.217   6.471
 5124SOL    HW116271   2.420   5.254   6.484
 5124SOL    HW216272   2.578   5.292   6.466
 5125SOL     OW16273   0.216   3.793   4.474
 5125SOL    HW116274   0.203   3.695   4.485
 5125SOL    HW216275   0.140   3.842   4.518
 5126SOL     OW16276   6.225   4.745   5.703
 5126SOL    HW116277   6.183   4.725   5.614
 5126SOL    HW216278   6.291   4.673   5.725
 5127SOL     OW16279   5.778   4.179   1.195
 5127SOL    HW116280   5.797   4.137   1.106
 5127SOL    HW216281   5.680   4.177   1.213
 5128SOL     OW16282   0.979   0.566   0.286
 5128SOL    HW116283   1.005   0.524   0.199
 5128SOL    HW216284   1.044   0.537   0.357
 5129SOL     OW16285   5.154   1.047   3.035
 5129SOL    HW116286   5.069   1.008   3.000
 5129SOL    HW216287   5.176   1.006   3.124
 5130SOL     OW16288   1.014   5.881   4.885
 5130SOL    HW116289   1.082   5.859   4.954
 5130SOL    HW216290   1.045   5.848   4.795
 5131SOL     OW16291   3.335   4.993   3.351
 5131SOL    HW116292   3.356   5.084   3.316
 5131SOL    HW216293   3.273   4.947   3.288
 5132SOL     OW16294   3.432   1.426   6.283
 5132SOL    HW116295   3.528   1.435   6.256
 5132SOL    HW216296   3.374   1.476   6.219
 5133SOL     OW16297   3.214   5.299   5.966
 5133SOL    HW116298   3.126   5.344   5.951
 5133SOL    HW216299   3.252   5.327   6.055
 5134SOL     OW16300   6.262   6.952   2.142
 5134SOL    HW116301   6.286   6.855   2.129
 5134SOL    HW216302   6.336   7.009   2.105
 5135SOL     OW16303   6.393   3.550   2.720
 5135SOL    HW116304   6.459   3.548   2.645
 5135SOL    HW216305   6.428   3.607   2.794
 5136SOL     OW16306   6.650   1.465   5.629
 5136SOL    HW116307   6.708   1.427   5.557
 5136SOL    HW216308   6.700   1.467   5.715
 5137SOL     OW16309   4.924   3.036   4.965
 5137SOL    HW116310   4.853   3.049   5.035
 5137SOL    HW216311   4.895   3.078   4.880
 5138SOL     OW16312   3.495   3.892   3.841
 5138SOL    HW116313   3.589   3.859   3.833
 5138SOL    HW216314   3.450   3.846   3.917
 5139SOL     OW16315   0.908   0.604   4.713
 5139SOL    HW116316   0.909   0.524   4.772
 5139SOL    HW216317   0.830   0.598   4.651
 5140SOL     OW16318   3.780   1.557   6.393
 5140SOL    HW116319   3.757   1.494   6.320
 5140SOL    HW216320   3.876   1.585   6.384
 5141SOL     OW16321   5.955   2.694   0.689
 5141SOL    HW116322   5.969   2.640   0.771
 5141SOL    HW216323   5.994   2.785   0.702
 5142SOL     OW16324   6.000   6.751   4.251
 5142SOL    HW116325   6.095   6.776   4.269
 5142SOL    HW216326   5.995   6.696   4.167
 5143SOL     OW16327   0.990   4.043   4.211
 5143SOL    HW116328   1.085   4.061   4.184
 5143SOL    HW216329   0.975   3.944   4.213
 5144SOL     OW16330   2.205   3.608   6.760
 5144SOL    HW116331   2.277   3.586   6.825
 5144SOL    HW216332   2.164   3.523   6.726
 5145SOL     OW16333   3.490   5.986   6.323
 5145SOL    HW116334   3.515   5.898   6.364
 5145SOL    HW216335   3.410   5.974   6.265
 5146SOL     OW16336   4.073   4.324   5.888
 5146SOL    HW116337   3.978   4.332   5.916
 5146SOL    HW216338   4.084   4.362   5.796
 5147SOL     OW16339   5.357   4.018   3.186
 5147SOL    HW116340   5.329   3.922   3.187
 5147SOL    HW216341   5.284   4.075   3.148
 5148SOL     OW16342   0.959   0.657   2.272
 5148SOL    HW116343   1.014   0.637   2.353
 5148SOL    HW216344   0.921   0.749   2.279
 5149SOL     OW16345   5.759   4.660   4.223
 5149SOL    HW116346   5.807   4.635   4.139
 5149SOL    HW216347   5.739   4.758   4.222
 5150SOL     OW16348   1.128   5.056   3.479
 5150SOL    HW116349   1.214   5.104   3.463
 5150SOL    HW216350   1.144   4.957   3.483
 5151SOL     OW16351   5.389   4.562   1.637
 5151SOL    HW116352   5.458   4.634   1.643
 5151SOL    HW216353   5.383   4.515   1.725
 5152SOL     OW16354   1.329   6.315   6.929
 5152SOL    HW116355   1.369   6.238   6.879
 5152SOL    HW216356   1.231   6.320   6.910
 5153SOL     OW16357   1.799   1.386   0.311
 5153SOL    HW116358   1.794   1.324   0.390
 5153SOL    HW216359   1.724   1.453   0.316
 5154SOL     OW16360   1.137   2.848   6.646
 5154SOL    HW116361   1.230   2.841   6.610
 5154SOL    HW216362   1.100   2.938   6.623
 5155SOL     OW16363   2.666   1.763   0.609
 5155SOL    HW116364   2.659   1.677   0.659
 5155SOL    HW216365   2.575   1.794   0.583
 5156SOL     OW16366   5.517   5.138   5.217
 5156SOL    HW116367   5.524   5.204   5.143
 5156SOL    HW216368   5.550   5.049   5.185
 5157SOL     OW16369   3.521   1.798   1.884
 5157SOL    HW116370   3.579   1.879   1.899
 5157SOL    HW216371   3.529   1.738   1.963
 5158SOL     OW16372   3.469   2.032   1.078
 5158SOL    HW116373   3.522   1.948   1.074
 5158SOL    HW216374   3.423   2.038   1.167
 5159SOL     OW16375   6.223   3.744   6.547
 5159SOL    HW116376   6.175   3.672   6.597
 5159SOL    HW216377   6.275   3.704   6.472
 5160SOL     OW16378   6.042   6.269   3.200
 5160SOL    HW116379   6.047   6.355   3.252
 5160SOL    HW216380   5.961   6.271   3.142
 5161SOL     OW16381   1.260   3.465   6.587
 5161SOL    HW116382   1.358   3.468   6.608
 5161SOL    HW216383   1.227   3.371   6.596
 5162SOL     OW16384   0.521   5.407   2.689
 5162SOL    HW116385   0.456   5.406   2.766
 5162SOL    HW216386   0.489   5.471   2.619
 5163SOL     OW16387   3.245   6.265   1.801
 5163SOL    HW116388   3.281   6.203   1.732
 5163SOL    HW216389   3.159   6.305   1.769
 5164SOL     OW16390   2.855   2.964   0.389
 5164SOL    HW116391   2.828   2.870   0.409
 5164SOL    HW216392   2.943   2.964   0.340
 5165SOL     OW16393   1.135   4.733   6.932
 5165SOL    HW116394   1.073   4.806   6.903
 5165SOL    HW216395   1.164   4.749   0.008
 5166SOL     OW16396   1.568   5.519   2.080
 5166SOL    HW116397   1.470   5.539   2.070
 5166SOL    HW216398   1.608   5.503   1.989
 5167SOL     OW16399   6.134   4.140   5.272
 5167SOL    HW116400   6.063   4.085   5.315
 5167SOL    HW216401   6.093   4.199   5.203
 5168SOL     OW16402   4.650   1.888   2.374
 5168SOL    HW116403   4.633   1.983   2.346
 5168SOL    HW216404   4.663   1.832   2.292
 5169SOL     OW16405   4.135   1.814   3.968
 5169SOL    HW116406   4.089   1.858   3.891
 5169SOL    HW216407   4.159   1.720   3.943
 5170SOL     OW16408   1.569   3.572   6.165
 5170SOL    HW116409   1.638   3.569   6.093
 5170SOL    HW216410   1.479   3.589   6.125
 5171SOL     OW16411   1.406   5.002   5.547
 5171SOL    HW116412   1.441   4.947   5.622
 5171SOL    HW216413   1.322   5.049   5.576
 5172SOL     OW16414   1.292   5.156   4.261
 5172SOL    HW116415   1.335   5.243   4.286
 5172SOL    HW216416   1.220   5.134   4.327
 5173SOL     OW16417   4.414   3.924   6.191
 5173SOL    HW116418   4.505   3.937   6.229
 5173SOL    HW216419   4.363   4.010   6.196
 5174SOL     OW16420   1.696   0.196   3.779
 5174SOL    HW116421   1.698   0.136   3.699
 5174SOL    HW216422   1.769   0.170   3.842
 5175SOL     OW16423   2.969   4.410   6.348
 5175SOL    HW116424   3.042   4.407   6.280
 5175SOL    HW216425   2.915   4.325   6.343
 5176SOL     OW16426   5.671   5.362   5.886
 5176SOL    HW116427   5.706   5.297   5.819
 5176SOL    HW216428   5.667   5.318   5.976
 5177SOL     OW16429   5.146   6.720   0.802
 5177SOL    HW116430   5.188   6.764   0.723
 5177SOL    HW216431   5.108   6.632   0.775
 5178SOL     OW16432   0.546   4.498   1.917
 5178SOL    HW116433   0.483   4.505   1.839
 5178SOL    HW216434   0.515   4.558   1.991
 5179SOL     OW16435   5.140   4.109   2.987
 5179SOL    HW116436   5.193   4.049   2.928
 5179SOL    HW216437   5.125   4.197   2.941
 5180SOL     OW16438   3.167   6.928   1.145
 5180SOL    HW116439   3.236   6.984   1.192
 5180SOL    HW216440   3.210   6.845   1.110
 5181SOL     OW16441   0.198   0.588   0.010
 5181SOL    HW116442   0.152   0.658   0.065
 5181SOL    HW216443   0.142   0.565   6.949
 5182SOL     OW16444   4.395   4.588   2.167
 5182SOL    HW116445   4.402   4.510   2.105
 5182SOL    HW216446   4.318   4.646   2.139
 5183SOL     OW16447   4.003   2.149   2.953
 5183SOL    HW116448   4.065   2.078   2.985
 5183SOL    HW216449   4.052   2.214   2.896
 5184SOL     OW16450   2.077   2.414   3.503
 5184SOL    HW116451   1.987   2.376   3.524
 5184SOL    HW216452   2.138   2.341   3.474
 5185SOL     OW16453   4.595   0.231   2.660
 5185SOL    HW116454   4.688   0.249   2.627
 5185SOL    HW216455   4.532   0.228   2.583
 5186SOL     OW16456   6.261   2.910   5.989
 5186SOL    HW116457   6.212   2.906   5.902
 5186SOL    HW216458   6.356   2.936   5.973
 5187SOL     OW16459   2.466   5.413   4.658
 5187SOL    HW116460   2.436   5.358   4.736
 5187SOL    HW216461   2.564   5.431   4.666
 5188SOL     OW16462   0.002   6.541   1.631
 5188SOL    HW116463   6.980   6.614   1.686
 5188SOL    HW216464   0.085   6.573   1.587
 5189SOL     OW16465   5.679   6.442   6.443
 5189SOL    HW116466   5.618   6.429   6.364
 5189SOL    HW216467   5.757   6.499   6.416
 5190SOL     OW16468   1.932   3.043   2.466
 5190SOL    HW116469   2.007   3.063   2.528
 5190SOL    HW216470   1.938   3.103   2.386
 5191SOL     OW16471   2.913   6.124   2.988
 5191SOL    HW116472   2.829   6.072   2.978
 5191SOL    HW216473   2.977   6.074   3.047
 5192SOL     OW16474   1.848   5.931   1.663
 5192SOL    HW116475   1.782   5.955   1.735
 5192SOL    HW216476   1.801   5.921   1.576
 5193SOL     OW16477   5.433   6.958   6.708
 5193SOL    HW116478   5.376   6.990   6.631
 5193SOL    HW216479   5.389   6.879   6.750
 5194SOL     OW16480   3.225   1.813   6.324
 5194SOL    HW116481   3.189   1.819   6.231
 5194SOL    HW216482   3.245   1.718   6.347
 5195SOL     OW16483   0.742   0.771   3.552
 5195SOL    HW116484   0.654   0.791   3.508
 5195SOL    HW216485   0.795   0.856   3.560
 5196SOL     OW16486   4.512   6.692   2.764
 5196SOL    HW116487   4.605   6.656   2.775
 5196SOL    HW216488   4.470   6.707   2.853
 5197SOL     OW16489   1.809   3.296   6.351
 5197SOL    HW116490   1.726   3.320   6.302
 5197SOL    HW216491   1.883   3.278   6.285
 5198SOL     OW16492   4.347   5.436   2.838
 5198SOL    HW116493   4.316   5.468   2.928
 5198SOL    HW216494   4.336   5.509   2.771
 5199SOL     OW16495   0.266   5.169   1.238
 5199SOL    HW116496   0.287   5.206   1.147
 5199SOL    HW216497   0.249   5.244   1.302
 5200SOL     OW16498   0.355   4.107   5.115
 5200SOL    HW116499   0.443   4.093   5.161
 5200SOL    HW216500   0.367   4.094   5.017
 5201SOL     OW16501   0.423   6.749   3.927
 5201SOL    HW116502   0.339   6.709   3.891
 5201SOL    HW216503   0.400   6.833   3.977
 5202SOL     OW16504   6.943   2.920   6.228
 5202SOL    HW116505   0.021   2.923   6.198
 5202SOL    HW216506   6.912   3.013   6.248
 5203SOL     OW16507   0.908   2.229   0.183
 5203SOL    HW116508   0.879   2.276   0.100
 5203SOL    HW216509   0.991   2.271   0.219
 5204SOL     OW16510   3.953   5.104   0.214
 5204SOL    HW116511   3.979   5.071   0.305
 5204SOL    HW216512   3.918   5.198   0.222
 5205SOL     OW16513   1.715   0.016   1.519
 5205SOL    HW116514   1.631   0.043   1.566
 5205SOL    HW216515   1.790   0.009   1.586
 5206SOL     OW16516   0.711   4.780   6.616
 5206SOL    HW116517   0.636   4.750   6.557
 5206SOL    HW216518   0.793   4.728   6.593
 5207SOL     OW16519   1.126   5.509   4.000
 5207SOL    HW116520   1.062   5.526   3.925
 5207SOL    HW216521   1.076   5.474   4.079
 5208SOL     OW16522   3.424   1.024   0.450
 5208SOL    HW116523   3.472   1.098   0.403
 5208SOL    HW216524   3.468   1.007   0.538
 5209SOL     OW16525   5.972   5.675   4.089
 5209SOL    HW116526   5.935   5.736   4.159
 5209SOL    HW216527   5.968   5.720   3.999
 5210SOL     OW16528   5.507   3.791   5.094
 5210SOL    HW116529   5.591   3.737   5.107
 5210SOL    HW216530   5.438   3.760   5.159
 5211SOL     OW16531   3.384   3.097   3.859
 5211SOL    HW116532   3.433   3.142   3.784
 5211SOL    HW216533   3.447   3.035   3.907
 5212SOL     OW16534   6.697   2.097   0.990
 5212SOL    HW116535   6.763   2.159   0.949
 5212SOL    HW216536   6.744   2.031   1.049
 5213SOL     OW16537   5.167   1.643   6.817
 5213SOL    HW116538   5.087   1.612   6.766
 5213SOL    HW216539   5.248   1.638   6.758
 5214SOL     OW16540   5.448   1.369   6.529
 5214SOL    HW116541   5.513   1.395   6.458
 5214SOL    HW216542   5.467   1.422   6.612
 5215SOL     OW16543   5.567   5.467   3.185
 5215SOL    HW116544   5.528   5.556   3.207
 5215SOL    HW216545   5.578   5.460   3.086
 5216SOL     OW16546   5.101   5.909   1.540
 5216SOL    HW116547   5.016   5.960   1.525
 5216SOL    HW216548   5.163   5.964   1.596
 5217SOL     OW16549   3.095   5.144   3.982
 5217SOL    HW116550   3.124   5.146   4.077
 5217SOL    HW216551   3.030   5.069   3.969
 5218SOL     OW16552   1.815   0.404   3.528
 5218SOL    HW116553   1.791   0.493   3.489
 5218SOL    HW216554   1.752   0.383   3.603
 5219SOL     OW16555   3.665   6.995   6.791
 5219SOL    HW116556   3.707   6.961   6.707
 5219SOL    HW216557   3.624   0.067   6.775
 5220SOL     OW16558   1.241   5.497   2.690
 5220SOL    HW116559   1.159   5.540   2.728
 5220SOL    HW216560   1.227   5.477   2.593
 5221SOL     OW16561   5.904   2.448   4.513
 5221SOL    HW116562   5.896   2.370   4.574
 5221SOL    HW216563   5.875   2.421   4.421
 5222SOL     OW16564   2.614   6.821   4.423
 5222SOL    HW116565   2.615   6.784   4.516
 5222SOL    HW216566   2.538   6.885   4.413
 5223SOL     OW16567   4.314   0.678   1.210
 5223SOL    HW116568   4.413   0.672   1.222
 5223SOL    HW216569   4.288   0.630   1.126
 5224SOL     OW16570   0.061   1.433   3.349
 5224SOL    HW116571   0.000   1.508   3.321
 5224SOL    HW216572   0.130   1.468   3.412
 5225SOL     OW16573   6.361   0.972   3.113
 5225SOL    HW116574   6.315   0.920   3.185
 5225SOL    HW216575   6.425   1.037   3.155
 5226SOL     OW16576   0.238   6.319   5.239
 5226SOL    HW116577   0.287   6.235   5.261
 5226SOL    HW216578   0.145   6.314   5.276
 5227SOL     OW16579   0.987   5.131   4.311
 5227SOL    HW116580   0.918   5.066   4.343
 5227SOL    HW216581   1.025   5.181   4.390
 5228SOL     OW16582   6.387   2.693   0.303
 5228SOL    HW116583   6.413   2.634   0.379
 5228SOL    HW216584   6.290   2.680   0.282
 5229SOL     OW16585   2.124   4.076   6.716
 5229SOL    HW116586   2.220   4.104   6.726
 5229SOL    HW216587   2.090   4.042   6.803
 5230SOL     OW16588   0.533   0.506   0.741
 5230SOL    HW116589   0.534   0.478   0.645
 5230SOL    HW216590   0.590   0.443   0.794
 5231SOL     OW16591   2.988   3.136   4.921
 5231SOL    HW116592   2.943   3.225   4.925
 5231SOL    HW216593   3.024   3.112   5.011
 5232SOL     OW16594   3.529   2.004   6.294
 5232SOL    HW116595   3.515   1.915   6.336
 5232SOL    HW216596   3.543   2.073   6.365
 5233SOL     OW16597   6.678   6.872   1.620
 5233SOL    HW116598   6.709   6.780   1.595
 5233SOL    HW216599   6.591   6.865   1.668
 5234SOL     OW16600   3.437   0.029   0.192
 5234SOL    HW116601   3.520   0.067   0.234
 5234SOL    HW216602   3.377   0.104   0.165
 5235SOL     OW16603   1.899   2.904   1.192
 5235SOL    HW116604   1.865   2.977   1.250
 5235SOL    HW216605   1.988   2.872   1.226
 5236SOL     OW16606   5.190   3.123   1.472
 5236SOL    HW116607   5.128   3.178   1.528
 5236SOL    HW216608   5.205   3.169   1.385
 5237SOL     OW16609   2.501   1.827   5.369
 5237SOL    HW116610   2.504   1.798   5.273
 5237SOL    HW216611   2.423   1.784   5.414
 5238SOL     OW16612   1.944   5.446   0.266
 5238SOL    HW116613   1.847   5.470   0.273
 5238SOL    HW216614   1.956   5.377   0.195
 5239SOL     OW16615   3.610   3.549   3.994
 5239SOL    HW116616   3.511   3.549   4.006
 5239SOL    HW216617   3.637   3.629   3.940
 5240SOL     OW16618   3.086   2.222   5.599
 5240SOL    HW116619   3.148   2.185   5.668
 5240SOL    HW216620   2.992   2.212   5.631
 5241SOL     OW16621   1.698   6.041   6.654
 5241SOL    HW116622   1.732   5.947   6.647
 5241SOL    HW216623   1.767   6.104   6.620
 5242SOL     OW16624   5.989   0.117   4.825
 5242SOL    HW116625   5.964   0.163   4.910
 5242SOL    HW216626   6.068   0.057   4.841
 5243SOL     OW16627   1.532   6.376   1.270
 5243SOL    HW116628   1.529   6.276   1.275
 5243SOL    HW216629   1.624   6.408   1.291
 5244SOL     OW16630   4.269   3.726   6.019
 5244SOL    HW116631   4.338   3.798   6.029
 5244SOL    HW216632   4.310   3.647   5.973
 5245SOL     OW16633   4.297   3.993   6.577
 5245SOL    HW116634   4.208   4.036   6.566
 5245SOL    HW216635   4.361   4.031   6.509
 5246SOL     OW16636   6.516   4.356   2.746
 5246SOL    HW116637   6.545   4.449   2.767
 5246SOL    HW216638   6.424   4.340   2.784
 5247SOL     OW16639   1.144   6.590   0.549
 5247SOL    HW116640   1.119   6.552   0.460
 5247SOL    HW216641   1.150   6.517   0.617
 5248SOL     OW16642   5.496   6.894   5.791
 5248SOL    HW116643   5.550   6.957   5.735
 5248SOL    HW216644   5.399   6.911   5.776
 5249SOL     OW16645   0.402   5.550   4.927
 5249SOL    HW116646   0.436   5.562   5.020
 5249SOL    HW216647   0.478   5.559   4.863
 5250SOL     OW16648   0.116   1.277   5.963
 5250SOL    HW116649   0.139   1.223   5.882
 5250SOL    HW216650   0.178   1.255   6.038
 5251SOL     OW16651   6.882   2.569   1.090
 5251SOL    HW116652   6.836   2.647   1.048
 5251SOL    HW216653   6.953   2.603   1.152
 5252SOL     OW16654   2.030   5.496   1.113
 5252SOL    HW116655   2.125   5.470   1.128
 5252SOL    HW216656   2.009   5.578   1.167
 5253SOL     OW16657   5.849   3.729   4.564
 5253SOL    HW116658   5.795   3.781   4.630
 5253SOL    HW216659   5.795   3.653   4.528
 5254SOL     OW16660   5.119   1.506   3.578
 5254SOL    HW116661   5.109   1.510   3.678
 5254SOL    HW216662   5.048   1.446   3.541
 5255SOL     OW16663   3.920   0.449   4.792
 5255SOL    HW116664   3.947   0.543   4.769
 5255SOL    HW216665   3.912   0.396   4.708
 5256SOL     OW16666   5.159   0.917   3.265
 5256SOL    HW116667   5.092   0.903   3.337
 5256SOL    HW216668   5.245   0.872   3.290
 5257SOL     OW16669   4.600   0.195   2.189
 5257SOL    HW116670   4.647   0.110   2.213
 5257SOL    HW216671   4.612   0.214   2.092
 5258SOL     OW16672   5.164   4.548   1.437
 5258SOL    HW116673   5.096   4.497   1.490
 5258SOL    HW216674   5.246   4.561   1.493
 5259SOL     OW16675   4.704   6.295   1.354
 5259SOL    HW116676   4.696   6.361   1.279
 5259SOL    HW216677   4.759   6.217   1.324
 5260SOL     OW16678   5.240   3.174   0.978
 5260SOL    HW116679   5.220   3.078   0.995
 5260SOL    HW216680   5.324   3.182   0.924
 5261SOL     OW16681   1.259   2.639   5.598
 5261SOL    HW116682   1.326   2.591   5.655
 5261SOL    HW216683   1.169   2.595   5.608
 5262SOL     OW16684   2.421   6.954   3.056
 5262SOL    HW116685   2.344   7.007   3.021
 5262SOL    HW216686   2.498   7.016   3.073
 5263SOL     OW16687   0.991   0.175   6.300
 5263SOL    HW116688   0.963   0.252   6.356
 5263SOL    HW216689   1.089   0.157   6.314
 5264SOL     OW16690   6.193   1.103   1.763
 5264SOL    HW116691   6.119   1.168   1.780
 5264SOL    HW216692   6.222   1.063   1.850
 5265SOL     OW16693   5.137   4.316   2.451
 5265SOL    HW116694   5.174   4.319   2.544
 5265SOL    HW216695   5.183   4.244   2.399
 5266SOL     OW16696   2.675   6.491   1.392
 5266SOL    HW116697   2.597   6.553   1.400
 5266SOL    HW216698   2.663   6.433   1.311
 5267SOL     OW16699   4.329   4.469   5.803
 5267SOL    HW116700   4.332   4.533   5.880
 5267SOL    HW216701   4.367   4.380   5.832
 5268SOL     OW16702   6.628   5.464   5.374
 5268SOL    HW116703   6.622   5.525   5.453
 5268SOL    HW216704   6.645   5.518   5.292
 5269SOL     OW16705   2.021   6.396   4.131
 5269SOL    HW116706   1.945   6.407   4.195
 5269SOL    HW216707   2.108   6.400   4.181
 5270SOL     OW16708   4.523   1.925   1.666
 5270SOL    HW116709   4.542   1.941   1.569
 5270SOL    HW216710   4.529   2.012   1.716
 5271SOL     OW16711   4.532   5.159   4.187
 5271SOL    HW116712   4.511   5.063   4.203
 5271SOL    HW216713   4.624   5.168   4.148
 5272SOL     OW16714   0.802   6.013   3.864
 5272SOL    HW116715   0.721   5.962   3.835
 5272SOL    HW216716   0.884   5.961   3.842
 5273SOL     OW16717   1.141   2.741   3.408
 5273SOL    HW116718   1.094   2.771   3.325
 5273SOL    HW216719   1.089   2.668   3.451
 5274SOL     OW16720   5.928   5.072   2.590
 5274SOL    HW116721   5.991   5.140   2.627
 5274SOL    HW216722   5.848   5.119   2.552
 5275SOL     OW16723   3.114   1.141   6.125
 5275SOL    HW116724   3.058   1.109   6.203
 5275SOL    HW216725   3.149   1.062   6.076
 5276SOL     OW16726   0.395   5.895   0.598
 5276SOL    HW116727   0.317   5.956   0.589
 5276SOL    HW216728   0.479   5.945   0.576
 5277SOL     OW16729   1.866   2.265   2.873
 5277SOL    HW116730   1.896   2.266   2.968
 5277SOL    HW216731   1.893   2.351   2.829
 5278SOL     OW16732   5.501   0.023   5.571
 5278SOL    HW116733   5.587   0.000   5.525
 5278SOL    HW216734   5.424   0.006   5.510
 5279SOL     OW16735   1.516   6.392   6.238
 5279SOL    HW116736   1.501   6.322   6.169
 5279SOL    HW216737   1.499   6.354   6.329
 5280SOL     OW16738   3.467   5.986   5.321
 5280SOL    HW116739   3.551   5.933   5.312
 5280SOL    HW216740   3.389   5.927   5.301
 5281SOL     OW16741   1.256   1.710   3.764
 5281SOL    HW116742   1.315   1.785   3.795
 5281SOL    HW216743   1.236   1.721   3.666
 5282SOL     OW16744   1.740   0.122   2.432
 5282SOL    HW116745   1.686   0.192   2.385
 5282SOL    HW216746   1.813   0.166   2.484
 5283SOL     OW16747   1.484   0.996   3.116
 5283SOL    HW116748   1.434   0.994   3.030
 5283SOL    HW216749   1.518   0.904   3.137
 5284SOL     OW16750   4.640   2.580   3.269
 5284SOL    HW116751   4.564   2.535   3.315
 5284SOL    HW216752   4.665   2.663   3.319
 5285SOL     OW16753   1.011   3.698   4.041
 5285SOL    HW116754   0.954   3.632   3.991
 5285SOL    HW216755   1.090   3.651   4.081
 5286SOL     OW16756   6.275   3.141   0.969
 5286SOL    HW116757   6.299   3.190   0.885
 5286SOL    HW216758   6.330   3.177   1.044
 5287SOL     OW16759   2.946   5.436   1.365
 5287SOL    HW116760   3.036   5.451   1.406
 5287SOL    HW216761   2.875   5.453   1.434
 5288SOL     OW16762   4.005   0.193   2.988
 5288SOL    HW116763   4.010   0.099   3.019
 5288SOL    HW216764   4.086   0.243   3.018
 5289SOL     OW16765   2.458   5.417   5.915
 5289SOL    HW116766   2.441   5.389   5.820
 5289SOL    HW216767   2.431   5.343   5.977
 5290SOL     OW16768   1.498   3.780   5.403
 5290SOL    HW116769   1.398   3.785   5.412
 5290SOL    HW216770   1.526   3.685   5.391
 5291SOL     OW16771   3.188   4.317   6.156
 5291SOL    HW116772   3.276   4.270   6.158
 5291SOL    HW216773   3.125   4.267   6.095
 5292SOL     OW16774   5.884   4.660   6.093
 5292SOL    HW116775   5.793   4.679   6.057
 5292SOL    HW216776   5.898   4.561   6.098
 5293SOL     OW16777   1.789   6.865   5.135
 5293SOL    HW116778   1.757   6.939   5.194
 5293SOL    HW216779   1.834   6.904   5.055
 5294SOL     OW16780   4.711   1.909   5.189
 5294SOL    HW116781   4.731   1.938   5.282
 5294SOL    HW216782   4.667   1.983   5.139
 5295SOL     OW16783   3.732   0.793   2.793
 5295SOL    HW116784   3.681   0.866   2.746
 5295SOL    HW216785   3.740   0.816   2.890
 5296SOL     OW16786   3.235   3.990   6.919
 5296SOL    HW116787   3.186   4.054   6.861
 5296SOL    HW216788   3.175   3.957   6.992
 5297SOL     OW16789   1.628   3.636   0.195
 5297SOL    HW116790   1.529   3.630   0.183
 5297SOL    HW216791   1.668   3.546   0.186
 5298SOL     OW16792   1.542   6.141   0.048
 5298SOL    HW116793   1.563   6.233   0.079
 5298SOL    HW216794   1.446   6.136   0.020
 5299SOL     OW16795   2.844   2.704   0.345
 5299SOL    HW116796   2.779   2.697   0.269
 5299SOL    HW216797   2.934   2.672   0.315
 5300SOL     OW16798   0.307   5.826   1.339
 5300SOL    HW116799   0.301   5.746   1.399
 5300SOL    HW216800   0.255   5.809   1.255
 5301SOL     OW16801   4.149   1.878   6.235
 5301SOL    HW116802   4.247   1.863   6.218
 5301SOL    HW216803   4.132   1.976   6.248
 5302SOL     OW16804   5.775   5.754   3.318
 5302SOL    HW116805   5.690   5.782   3.362
 5302SOL    HW216806   5.768   5.765   3.219
 5303SOL     OW16807   0.068   5.187   5.059
 5303SOL    HW116808   0.025   5.108   5.015
 5303SOL    HW216809   0.074   5.263   4.994
 5304SOL     OW16810   5.932   0.491   0.162
 5304SOL    HW116811   6.012   0.450   0.204
 5304SOL    HW216812   5.870   0.525   0.233
 5305SOL     OW16813   0.926   5.168   2.591
 5305SOL    HW116814   0.962   5.143   2.501
 5305SOL    HW216815   0.991   5.140   2.661
 5306SOL     OW16816   0.928   4.962   5.558
 5306SOL    HW116817   0.920   4.874   5.512
 5306SOL    HW216818   0.928   5.035   5.490
 5307SOL     OW16819   3.662   1.548   0.116
 5307SOL    HW116820   3.623   1.639   0.099
 5307SOL    HW216821   3.703   1.514   0.031
 5308SOL     OW16822   1.406   4.262   2.785
 5308SOL    HW116823   1.451   4.345   2.752
 5308SOL    HW216824   1.318   4.285   2.826
 5309SOL     OW16825   3.990   4.956   1.868
 5309SOL    HW116826   3.925   4.881   1.881
 5309SOL    HW216827   4.029   4.982   1.957
 5310SOL     OW16828   5.800   3.610   1.838
 5310SOL    HW116829   5.717   3.563   1.812
 5310SOL    HW216830   5.777   3.697   1.882
 5311SOL     OW16831   6.412   6.894   0.394
 5311SOL    HW116832   6.503   6.903   0.354
 5311SOL    HW216833   6.353   6.968   0.361
 5312SOL     OW16834   1.083   5.486   1.771
 5312SOL    HW116835   1.030   5.428   1.832
 5312SOL    HW216836   1.073   5.454   1.677
 5313SOL     OW16837   1.120   2.760   6.099
 5313SOL    HW116838   1.118   2.804   6.189
 5313SOL    HW216839   1.142   2.663   6.110
 5314SOL     OW16840   4.233   6.534   0.146
 5314SOL    HW116841   4.147   6.578   0.169
 5314SOL    HW216842   4.307   6.602   0.149
 5315SOL     OW16843   4.893   3.609   2.067
 5315SOL    HW116844   4.972   3.642   2.119
 5315SOL    HW216845   4.809   3.644   2.109
 5316SOL     OW16846   0.869   3.609   5.472
 5316SOL    HW116847   0.896   3.552   5.550
 5316SOL    HW216848   0.785   3.573   5.433
 5317SOL     OW16849   6.038   1.810   5.425
 5317SOL    HW116850   6.050   1.837   5.520
 5317SOL    HW216851   6.090   1.873   5.366
 5318SOL     OW16852   0.854   2.368   0.743
 5318SOL    HW116853   0.950   2.371   0.771
 5318SOL    HW216854   0.847   2.340   0.648
 5319SOL     OW16855   4.484   5.977   0.325
 5319SOL    HW116856   4.547   6.022   0.388
 5319SOL    HW216857   4.400   5.953   0.374
 5320SOL     OW16858   4.284   4.810   0.688
 5320SOL    HW116859   4.358   4.816   0.620
 5320SOL    HW216860   4.196   4.814   0.641
 5321SOL     OW16861   2.107   4.767   4.382
 5321SOL    HW116862   2.014   4.786   4.412
 5321SOL    HW216863   2.151   4.705   4.446
 5322SOL     OW16864   5.496   6.010   0.013
 5322SOL    HW116865   5.414   6.042   0.060
 5322SOL    HW216866   5.474   5.992   6.934
 5323SOL     OW16867   4.015   1.478   6.065
 5323SOL    HW116868   4.016   1.536   6.147
 5323SOL    HW216869   3.940   1.506   6.005
 5324SOL     OW16870   3.425   2.608   0.837
 5324SOL    HW116871   3.401   2.704   0.849
 5324SOL    HW216872   3.516   2.600   0.797
 5325SOL     OW16873   4.219   0.422   4.452
 5325SOL    HW116874   4.213   0.325   4.478
 5325SOL    HW216875   4.147   0.443   4.385
 5326SOL     OW16876   6.739   4.968   3.278
 5326SOL    HW116877   6.684   4.897   3.323
 5326SOL    HW216878   6.735   5.052   3.332
 5327SOL     OW16879   5.710   3.029   5.613
 5327SOL    HW116880   5.648   2.992   5.544
 5327SOL    HW216881   5.797   2.980   5.609
 5328SOL     OW16882   3.562   3.572   5.957
 5328SOL    HW116883   3.487   3.510   5.982
 5328SOL    HW216884   3.650   3.528   5.976
 5329SOL     OW16885   0.558   4.547   6.480
 5329SOL    HW116886   0.624   4.511   6.545
 5329SOL    HW216887   0.534   4.476   6.413
 5330SOL     OW16888   4.621   3.869   0.255
 5330SOL    HW116889   4.693   3.910   0.310
 5330SOL    HW216890   4.652   3.781   0.218
 5331SOL     OW16891   5.917   1.508   6.764
 5331SOL    HW116892   5.957   1.514   6.673
 5331SOL    HW216893   5.963   1.437   6.817
 5332SOL     OW16894   0.703   2.988   1.266
 5332SOL    HW116895   0.638   2.918   1.237
 5332SOL    HW216896   0.757   3.018   1.187
 5333SOL     OW16897   0.860   0.619   3.039
 5333SOL    HW116898   0.829   0.693   2.979
 5333SOL    HW216899   0.809   0.623   3.125
 5334SOL     OW16900   3.247   6.944   4.308
 5334SOL    HW116901   3.276   6.951   4.403
 5334SOL    HW216902   3.314   6.990   4.249
 5335SOL     OW16903   0.049   6.156   0.848
 5335SOL    HW116904   0.134   6.178   0.801
 5335SOL    HW216905   0.034   6.057   0.846
 5336SOL     OW16906   1.888   3.481   3.138
 5336SOL    HW116907   1.824   3.479   3.062
 5336SOL    HW216908   1.839   3.506   3.222
 5337SOL     OW16909   4.843   4.217   1.256
 5337SOL    HW116910   4.816   4.294   1.314
 5337SOL    HW216911   4.837   4.132   1.308
 5338SOL     OW16912   5.609   1.600   0.287
 5338SOL    HW116913   5.706   1.582   0.279
 5338SOL    HW216914   5.588   1.629   0.381
 5339SOL     OW16915   6.961   1.873   4.120
 5339SOL    HW116916   6.908   1.907   4.198
 5339SOL    HW216917   6.903   1.814   4.064
 5340SOL     OW16918   4.347   4.122   1.107
 5340SOL    HW116919   4.366   4.219   1.098
 5340SOL    HW216920   4.293   4.091   1.029
 5341SOL     OW16921   3.491   2.623   6.358
 5341SOL    HW116922   3.435   2.676   6.294
 5341SOL    HW216923   3.588   2.644   6.343
 5342SOL     OW16924   3.708   6.758   4.163
 5342SOL    HW116925   3.714   6.855   4.184
 5342SOL    HW216926   3.643   6.714   4.225
 5343SOL     OW16927   3.726   4.095   4.510
 5343SOL    HW116928   3.678   4.182   4.514
 5343SOL    HW216929   3.660   4.020   4.511
 5344SOL     OW16930   2.190   2.922   2.613
 5344SOL    HW116931   2.239   2.856   2.669
 5344SOL    HW216932   2.193   2.893   2.517
 5345SOL     OW16933   3.977   6.247   1.129
 5345SOL    HW116934   3.919   6.263   1.209
 5345SOL    HW216935   3.921   6.210   1.055
 5346SOL     OW16936   3.400   6.161   3.981
 5346SOL    HW116937   3.300   6.162   3.975
 5346SOL    HW216938   3.429   6.208   4.065
 5347SOL     OW16939   0.799   2.855   2.281
 5347SOL    HW116940   0.721   2.918   2.281
 5347SOL    HW216941   0.804   2.808   2.194
 5348SOL     OW16942   0.241   1.756   0.633
 5348SOL    HW116943   0.244   1.698   0.552
 5348SOL    HW216944   0.201   1.704   0.709
 5349SOL     OW16945   1.176   2.790   6.928
 5349SOL    HW116946   1.179   2.690   6.919
 5349SOL    HW216947   1.117   2.828   6.856
 5350SOL     OW16948   2.088   0.205   5.430
 5350SOL    HW116949   2.068   0.301   5.408
 5350SOL    HW216950   2.091   0.152   5.345
 5351SOL     OW16951   6.123   5.771   1.972
 5351SOL    HW116952   6.091   5.695   2.028
 5351SOL    HW216953   6.173   5.736   1.893
 5352SOL     OW16954   2.135   5.457   3.532
 5352SOL    HW116955   2.200   5.481   3.604
 5352SOL    HW216956   2.126   5.534   3.469
 5353SOL     OW16957   3.832   5.190   3.656
 5353SOL    HW116958   3.896   5.230   3.721
 5353SOL    HW216959   3.842   5.236   3.567
 5354SOL     OW16960   2.286   5.491   1.955
 5354SOL    HW116961   2.373   5.523   1.992
 5354SOL    HW216962   2.249   5.420   2.015
 5355SOL     OW16963   5.261   3.215   3.509
 5355SOL    HW116964   5.188   3.200   3.441
 5355SOL    HW216965   5.288   3.127   3.548
 5356SOL     OW16966   5.753   4.507   1.741
 5356SOL    HW116967   5.696   4.447   1.797
 5356SOL    HW216968   5.726   4.602   1.756
 5357SOL     OW16969   4.233   6.259   0.165
 5357SOL    HW116970   4.232   6.231   0.069
 5357SOL    HW216971   4.238   6.359   0.171
 5358SOL     OW16972   4.244   1.262   0.218
 5358SOL    HW116973   4.191   1.344   0.240
 5358SOL    HW216974   4.335   1.269   0.259
 5359SOL     OW16975   1.557   1.887   6.777
 5359SOL    HW116976   1.610   1.939   6.709
 5359SOL    HW216977   1.464   1.874   6.743
 5360SOL     OW16978   4.582   6.464   5.462
 5360SOL    HW116979   4.559   6.367   5.450
 5360SOL    HW216980   4.507   6.510   5.510
 5361SOL     OW16981   2.111   0.351   4.986
 5361SOL    HW116982   2.190   0.397   5.025
 5361SOL    HW216983   2.079   0.401   4.905
 5362SOL     OW16984   5.531   4.985   3.547
 5362SOL    HW116985   5.455   5.043   3.517
 5362SOL    HW216986   5.614   5.040   3.554
 5363SOL     OW16987   0.282   0.007   6.401
 5363SOL    HW116988   0.230   6.995   6.321
 5363SOL    HW216989   0.334   6.948   6.438
 5364SOL     OW16990   6.929   5.797   1.860
 5364SOL    HW116991   6.859   5.847   1.809
 5364SOL    HW216992   6.999   5.765   1.796
 5365SOL     OW16993   3.661   3.254   6.841
 5365SOL    HW116994   3.578   3.239   6.788
 5365SOL    HW216995   3.637   3.293   6.931
 5366SOL     OW16996   5.077   5.730   1.738
 5366SOL    HW116997   5.069   5.783   1.653
 5366SOL    HW216998   5.109   5.790   1.811
 5367SOL     OW16999   0.709   5.831   0.793
 5367SOL    HW117000   0.663   5.742   0.789
 5367SOL    HW217001   0.746   5.854   0.703
 5368SOL     OW17002   5.321   0.443   2.796
 5368SOL    HW117003   5.327   0.542   2.782
 5368SOL    HW217004   5.376   0.397   2.727
 5369SOL     OW17005   3.195   0.116   2.165
 5369SOL    HW117006   3.284   0.073   2.160
 5369SOL    HW217007   3.137   0.083   2.091
 5370SOL     OW17008   4.335   2.868   1.378
 5370SOL    HW117009   4.321   2.810   1.458
 5370SOL    HW217010   4.433   2.885   1.366
 5371SOL     OW17011   1.556   3.971   4.424
 5371SOL    HW117012   1.474   3.913   4.423
 5371SOL    HW217013   1.578   3.999   4.331
 5372SOL     OW17014   2.425   5.701   3.452
 5372SOL    HW117015   2.343   5.745   3.414
 5372SOL    HW217016   2.404   5.663   3.542
 5373SOL     OW17017   3.766   6.184   3.792
 5373SOL    HW117018   3.855   6.140   3.784
 5373SOL    HW217019   3.737   6.216   3.702
 5374SOL     OW17020   0.940   4.083   6.889
 5374SOL    HW117021   0.894   4.011   6.837
 5374SOL    HW217022   0.878   4.160   6.903
 5375SOL     OW17023   1.968   5.054   4.872
 5375SOL    HW117024   1.896   4.992   4.841
 5375SOL    HW217025   2.026   5.006   4.938
 5376SOL     OW17026   1.905   3.385   0.554
 5376SOL    HW117027   1.816   3.427   0.539
 5376SOL    HW217028   1.924   3.319   0.482
 5377SOL     OW17029   0.485   0.542   2.065
 5377SOL    HW117030   0.477   0.641   2.051
 5377SOL    HW217031   0.518   0.523   2.157
 5378SOL     OW17032   0.165   0.545   2.382
 5378SOL    HW117033   0.195   0.456   2.417
 5378SOL    HW217034   0.241   0.610   2.386
 5379SOL     OW17035   2.131   5.746   5.138
 5379SOL    HW117036   2.034   5.766   5.153
 5379SOL    HW217037   2.152   5.756   5.041
 5380SOL     OW17038   1.999   1.748   3.567
 5380SOL    HW117039   2.065   1.676   3.546
 5380SOL    HW217040   2.046   1.826   3.607
 5381SOL     OW17041   6.349   4.019   1.185
 5381SOL    HW117042   6.412   4.082   1.138
 5381SOL    HW217043   6.257   4.060   1.186
 5382SOL     OW17044   3.311   0.521   2.366
 5382SOL    HW117045   3.317   0.621   2.362
 5382SOL    HW217046   3.243   0.489   2.300
 5383SOL     OW17047   2.155   2.613   5.379
 5383SOL    HW117048   2.141   2.674   5.301
 5383SOL    HW217049   2.111   2.525   5.362
 5384SOL     OW17050   5.658   0.232   4.520
 5384SOL    HW117051   5.754   0.213   4.497
 5384SOL    HW217052   5.648   0.236   4.619
 5385SOL     OW17053   3.045   3.195   4.354
 5385SOL    HW117054   3.026   3.188   4.452
 5385SOL    HW217055   3.119   3.260   4.339
 5386SOL     OW17056   4.773   0.193   4.487
 5386SOL    HW117057   4.777   0.104   4.533
 5386SOL    HW217058   4.706   0.252   4.533
 5387SOL     OW17059   3.102   6.375   3.773
 5387SOL    HW117060   3.181   6.432   3.797
 5387SOL    HW217061   3.019   6.415   3.814
 5388SOL     OW17062   6.484   0.265   3.882
 5388SOL    HW117063   6.430   0.333   3.931
 5388SOL    HW217064   6.424   0.212   3.822
 5389SOL     OW17065   4.462   0.769   1.531
 5389SOL    HW117066   4.368   0.765   1.566
 5389SOL    HW217067   4.499   0.861   1.545
 5390SOL     OW17068   4.756   4.101   3.334
 5390SOL    HW117069   4.672   4.077   3.287
 5390SOL    HW217070   4.734   4.143   3.422
 5391SOL     OW17071   1.687   2.387   1.366
 5391SOL    HW117072   1.737   2.405   1.282
 5391SOL    HW217073   1.595   2.427   1.359
 5392SOL     OW17074   5.603   3.264   1.325
 5392SOL    HW117075   5.701   3.285   1.325
 5392SOL    HW217076   5.564   3.288   1.414
 5393SOL     OW17077   5.162   6.765   6.234
 5393SOL    HW117078   5.151   6.861   6.258
 5393SOL    HW217079   5.232   6.757   6.163
 5394SOL     OW17080   6.935   4.509   6.605
 5394SOL    HW117081   6.930   4.472   6.697
 5394SOL    HW217082   6.951   4.607   6.609
 5395SOL     OW17083   4.648   1.047   1.861
 5395SOL    HW117084   4.603   1.060   1.950
 5395SOL    HW217085   4.703   0.964   1.864
 5396SOL     OW17086   4.960   4.487   2.686
 5396SOL    HW117087   4.955   4.546   2.766
 5396SOL    HW217088   4.905   4.527   2.612
 5397SOL     OW17089   6.815   2.870   1.904
 5397SOL    HW117090   6.776   2.904   1.990
 5397SOL    HW217091   6.915   2.870   1.910
 5398SOL     OW17092   3.429   1.875   2.709
 5398SOL    HW117093   3.454   1.894   2.615
 5398SOL    HW217094   3.451   1.954   2.767
 5399SOL     OW17095   2.540   5.456   6.887
 5399SOL    HW117096   2.488   5.381   6.846
 5399SOL    HW217097   2.545   5.443   6.986
 5400SOL     OW17098   2.202   4.385   0.876
 5400SOL    HW117099   2.151   4.306   0.842
 5400SOL    HW217100   2.163   4.416   0.963
 5401SOL     OW17101   5.525   3.672   2.017
 5401SOL    HW117102   5.447   3.731   2.040
 5401SOL    HW217103   5.516   3.585   2.065
 5402SOL     OW17104   2.128   4.814   1.679
 5402SOL    HW117105   2.212   4.868   1.670
 5402SOL    HW217106   2.129   4.765   1.766
 5403SOL     OW17107   6.428   2.342   6.336
 5403SOL    HW117108   6.364   2.389   6.397
 5403SOL    HW217109   6.507   2.400   6.320
 5404SOL     OW17110   0.871   1.280   2.929
 5404SOL    HW117111   0.834   1.361   2.883
 5404SOL    HW217112   0.809   1.254   3.004
 5405SOL     OW17113   6.053   5.956   6.983
 5405SOL    HW117114   6.148   5.960   7.015
 5405SOL    HW217115   6.041   5.876   6.925
 5406SOL     OW17116   2.717   0.497   6.838
 5406SOL    HW117117   2.680   0.419   6.889
 5406SOL    HW217118   2.659   0.577   6.854
 5407SOL     OW17119   4.124   3.057   1.313
 5407SOL    HW117120   4.053   3.005   1.265
 5407SOL    HW217121   4.195   2.995   1.346
 5408SOL     OW17122   3.373   1.150   6.264
 5408SOL    HW117123   3.414   1.232   6.303
 5408SOL    HW217124   3.280   1.171   6.233
 5409SOL     OW17125   6.135   1.154   4.012
 5409SOL    HW117126   6.058   1.217   4.010
 5409SOL    HW217127   6.107   1.066   3.973
 5410SOL     OW17128   2.123   2.863   1.488
 5410SOL    HW117129   2.115   2.954   1.448
 5410SOL    HW217130   2.100   2.795   1.419
 5411SOL     OW17131   6.398   5.286   5.795
 5411SOL    HW117132   6.461   5.364   5.785
 5411SOL    HW217133   6.307   5.320   5.820
 5412SOL     OW17134   4.065   0.990   6.449
 5412SOL    HW117135   3.968   0.976   6.428
 5412SOL    HW217136   4.121   0.941   6.383
 5413SOL     OW17137   2.029   1.151   1.300
 5413SOL    HW117138   1.979   1.144   1.387
 5413SOL    HW217139   2.124   1.123   1.314
 5414SOL     OW17140   5.763   2.855   5.043
 5414SOL    HW117141   5.770   2.911   5.125
 5414SOL    HW217142   5.675   2.807   5.042
 5415SOL     OW17143   1.533   6.103   1.331
 5415SOL    HW117144   1.619   6.061   1.360
 5415SOL    HW217145   1.511   6.072   1.238
 5416SOL     OW17146   4.557   4.456   6.441
 5416SOL    HW117147   4.491   4.488   6.508
 5416SOL    HW217148   4.516   4.459   6.349
 5417SOL     OW17149   3.996   6.905   5.738
 5417SOL    HW117150   3.971   6.819   5.695
 5417SOL    HW217151   3.916   6.943   5.786
 5418SOL     OW17152   4.159   6.473   4.065
 5418SOL    HW117153   4.182   6.428   4.151
 5418SOL    HW217154   4.084   6.538   4.080
 5419SOL     OW17155   3.003   5.019   0.324
 5419SOL    HW117156   3.058   5.032   0.406
 5419SOL    HW217157   3.063   4.995   0.247
 5420SOL     OW17158   1.197   1.997   2.240
 5420SOL    HW117159   1.114   2.047   2.265
 5420SOL    HW217160   1.251   2.052   2.176
 5421SOL     OW17161   2.063   3.185   2.887
 5421SOL    HW117162   2.110   3.194   2.975
 5421SOL    HW217163   1.964   3.190   2.901
 5422SOL     OW17164   0.980   5.576   6.930
 5422SOL    HW117165   1.026   5.548   6.845
 5422SOL    HW217166   0.955   5.672   6.923
 5423SOL     OW17167   5.711   2.575   0.160
 5423SOL    HW117168   5.805   2.571   0.125
 5423SOL    HW217169   5.664   2.490   0.138
 5424SOL     OW17170   5.025   3.050   4.197
 5424SOL    HW117171   5.122   3.033   4.211
 5424SOL    HW217172   4.984   2.971   4.152
 5425SOL     OW17173   4.370   1.385   4.293
 5425SOL    HW117174   4.309   1.328   4.237
 5425SOL    HW217175   4.379   1.344   4.384
 5426SOL     OW17176   6.022   5.052   3.922
 5426SOL    HW117177   5.995   5.018   3.832
 5426SOL    HW217178   6.016   4.977   3.989
 5427SOL     OW17179   4.900   4.880   0.579
 5427SOL    HW117180   4.844   4.904   0.499
 5427SOL    HW217181   4.918   4.962   0.633
 5428SOL     OW17182   0.218   0.366   2.035
 5428SOL    HW117183   0.235   0.418   1.952
 5428SOL    HW217184   0.292   0.381   2.100
 5429SOL     OW17185   1.183   1.812   5.792
 5429SOL    HW117186   1.221   1.834   5.882
 5429SOL    HW217187   1.258   1.792   5.728
 5430SOL     OW17188   0.978   3.082   5.691
 5430SOL    HW117189   1.038   3.125   5.624
 5430SOL    HW217190   0.996   3.120   5.782
 5431SOL     OW17191   3.424   5.713   0.123
 5431SOL    HW117192   3.420   5.740   0.027
 5431SOL    HW217193   3.339   5.667   0.149
 5432SOL     OW17194   4.708   6.350   6.541
 5432SOL    HW117195   4.666   6.330   6.629
 5432SOL    HW217196   4.742   6.444   6.540
 5433SOL     OW17197   0.691   1.789   3.741
 5433SOL    HW117198   0.628   1.711   3.738
 5433SOL    HW217199   0.785   1.756   3.750
 5434SOL     OW17200   4.098   1.167   4.800
 5434SOL    HW117201   4.132   1.249   4.754
 5434SOL    HW217202   4.065   1.191   4.892
 5435SOL     OW17203   5.099   0.929   1.766
 5435SOL    HW117204   5.104   1.024   1.798
 5435SOL    HW217205   5.163   0.916   1.690
 5436SOL     OW17206   5.166   3.652   3.927
 5436SOL    HW117207   5.233   3.587   3.892
 5436SOL    HW217208   5.183   3.742   3.885
 5437SOL     OW17209   2.963   4.752   6.291
 5437SOL    HW117210   2.925   4.697   6.366
 5437SOL    HW217211   2.926   4.720   6.204
 5438SOL     OW17212   6.308   4.070   2.594
 5438SOL    HW117213   6.284   3.997   2.658
 5438SOL    HW217214   6.313   4.157   2.644
 5439SOL     OW17215   1.171   2.640   1.309
 5439SOL    HW117216   1.146   2.716   1.369
 5439SOL    HW217217   1.132   2.655   1.218
 5440SOL     OW17218   0.540   1.148   1.958
 5440SOL    HW117219   0.550   1.213   2.033
 5440SOL    HW217220   0.604   1.073   1.969
 5441SOL     OW17221   5.010   2.228   2.576
 5441SOL    HW117222   4.999   2.323   2.548
 5441SOL    HW217223   5.040   2.225   2.672
 5442SOL     OW17224   3.586   5.901   3.329
 5442SOL    HW117225   3.617   5.816   3.373
 5442SOL    HW217226   3.589   5.890   3.230
 5443SOL     OW17227   2.821   0.600   3.826
 5443SOL    HW117228   2.881   0.676   3.850
 5443SOL    HW217229   2.776   0.620   3.739
 5444SOL     OW17230   1.674   0.818   4.170
 5444SOL    HW117231   1.667   0.736   4.113
 5444SOL    HW217232   1.592   0.828   4.225
 5445SOL     OW17233   5.737   3.824   4.111
 5445SOL    HW117234   5.647   3.866   4.119
 5445SOL    HW217235   5.737   3.758   4.037
 5446SOL     OW17236   6.436   4.991   4.869
 5446SOL    HW117237   6.344   5.022   4.844
 5446SOL    HW217238   6.437   4.966   4.966
 5447SOL     OW17239   2.268   1.860   6.388
 5447SOL    HW117240   2.253   1.789   6.457
 5447SOL    HW217241   2.366   1.878   6.379
 5448SOL     OW17242   4.846   3.162   4.720
 5448SOL    HW117243   4.781   3.110   4.665
 5448SOL    HW217244   4.929   3.178   4.667
 5449SOL     OW17245   1.676   2.531   6.703
 5449SOL    HW117246   1.744   2.528   6.629
 5449SOL    HW217247   1.705   2.470   6.777
 5450SOL     OW17248   1.547   0.605   2.131
 5450SOL    HW117249   1.641   0.605   2.163
 5450SOL    HW217250   1.541   0.558   2.043
 5451SOL     OW17251   1.083   5.846   3.292
 5451SOL    HW117252   1.131   5.876   3.374
 5451SOL    HW217253   1.056   5.926   3.238
 5452SOL     OW17254   2.345   4.015   0.028
 5452SOL    HW117255   2.251   4.044   0.012
 5452SOL    HW217256   2.347   3.950   0.104
 5453SOL     OW17257   5.137   4.372   1.956
 5453SOL    HW117258   5.148   4.469   1.932
 5453SOL    HW217259   5.224   4.325   1.944
 5454SOL     OW17260   0.112   3.683   6.341
 5454SOL    HW117261   0.149   3.771   6.371
 5454SOL    HW217262   0.134   3.613   6.409
 5455SOL     OW17263   6.267   2.752   0.671
 5455SOL    HW117264   6.192   2.817   0.671
 5455SOL    HW217265   6.332   2.775   0.744
 5456SOL     OW17266   3.044   0.285   6.964
 5456SOL    HW117267   3.125   0.261   7.017
 5456SOL    HW217268   2.982   0.206   6.960
 5457SOL     OW17269   6.419   2.214   6.759
 5457SOL    HW117270   6.453   2.305   6.734
 5457SOL    HW217271   6.396   2.163   6.675
 5458SOL     OW17272   1.065   4.500   0.339
 5458SOL    HW117273   1.072   4.457   0.249
 5458SOL    HW217274   1.097   4.437   0.409
 5459SOL     OW17275   2.068   4.050   7.002
 5459SOL    HW117276   1.998   3.982   6.979
 5459SOL    HW217277   2.024   4.138   0.002
 5460SOL     OW17278   3.505   0.674   3.064
 5460SOL    HW117279   3.541   0.713   2.979
 5460SOL    HW217280   3.581   0.636   3.117
 5461SOL     OW17281   5.954   0.086   5.256
 5461SOL    HW117282   6.054   0.080   5.266
 5461SOL    HW217283   5.914   0.115   5.343
 5462SOL     OW17284   0.747   6.858   6.580
 5462SOL    HW117285   0.824   6.797   6.597
 5462SOL    HW217286   0.764   6.910   6.496
 5463SOL     OW17287   6.773   2.426   0.508
 5463SOL    HW117288   6.795   2.439   0.411
 5463SOL    HW217289   6.697   2.362   0.517
 5464SOL     OW17290   1.167   1.230   4.106
 5464SOL    HW117291   1.125   1.320   4.122
 5464SOL    HW217292   1.146   1.169   4.182
 5465SOL     OW17293   3.628   6.170   3.312
 5465SOL    HW117294   3.594   6.077   3.325
 5465SOL    HW217295   3.600   6.204   3.223
 5466SOL     OW17296   5.468   3.568   5.651
 5466SOL    HW117297   5.485   3.508   5.572
 5466SOL    HW217298   5.480   3.663   5.623
 5467SOL     OW17299   5.096   2.707   2.993
 5467SOL    HW117300   5.008   2.677   2.956
 5467SOL    HW217301   5.115   2.656   3.077
 5468SOL     OW17302   5.772   2.646   4.639
 5468SOL    HW117303   5.825   2.582   4.583
 5468SOL    HW217304   5.816   2.656   4.729
 5469SOL     OW17305   4.163   5.764   6.316
 5469SOL    HW117306   4.096   5.784   6.387
 5469SOL    HW217307   4.190   5.668   6.321
 5470SOL     OW17308   3.301   6.303   2.433
 5470SOL    HW117309   3.245   6.221   2.436
 5470SOL    HW217310   3.395   6.281   2.460
 5471SOL     OW17311   5.084   6.967   2.600
 5471SOL    HW117312   5.080   0.013   2.677
 5471SOL    HW217313   5.058   7.015   2.516
 5472SOL     OW17314   4.324   3.443   6.088
 5472SOL    HW117315   4.384   3.417   6.164
 5472SOL    HW217316   4.248   3.498   6.124
 5473SOL     OW17317   0.126   3.372   2.746
 5473SOL    HW117318   0.045   3.430   2.756
 5473SOL    HW217319   0.177   3.399   2.664
 5474SOL     OW17320   1.864   4.794   4.518
 5474SOL    HW117321   1.908   4.800   4.607
 5474SOL    HW217322   1.796   4.868   4.509
 5475SOL     OW17323   2.536   3.079   1.555
 5475SOL    HW117324   2.456   3.104   1.608
 5475SOL    HW217325   2.605   3.151   1.562
 5476SOL     OW17326   1.877   4.282   5.577
 5476SOL    HW117327   1.875   4.366   5.630
 5476SOL    HW217328   1.960   4.278   5.522
 5477SOL     OW17329   2.431   4.835   3.416
 5477SOL    HW117330   2.510   4.820   3.475
 5477SOL    HW217331   2.382   4.917   3.446
 5478SOL     OW17332   4.013   5.349   4.982
 5478SOL    HW117333   3.942   5.280   4.994
 5478SOL    HW217334   3.978   5.424   4.926
 5479SOL     OW17335   4.988   1.442   5.971
 5479SOL    HW117336   4.998   1.365   6.034
 5479SOL    HW217337   5.077   1.483   5.953
 5480SOL     OW17338   6.567   4.320   3.287
 5480SOL    HW117339   6.504   4.283   3.219
 5480SOL    HW217340   6.659   4.322   3.249
 5481SOL     OW17341   4.416   1.663   4.336
 5481SOL    HW117342   4.385   1.570   4.318
 5481SOL    HW217343   4.448   1.669   4.430
 5482SOL     OW17344   3.410   5.118   1.171
 5482SOL    HW117345   3.344   5.065   1.118
 5482SOL    HW217346   3.461   5.179   1.111
 5483SOL     OW17347   0.227   1.958   5.528
 5483SOL    HW117348   0.284   2.028   5.485
 5483SOL    HW217349   0.236   1.872   5.478
 5484SOL     OW17350   4.160   1.550   4.910
 5484SOL    HW117351   4.171   1.648   4.929
 5484SOL    HW217352   4.190   1.497   4.989
 5485SOL     OW17353   4.480   0.331   5.644
 5485SOL    HW117354   4.424   0.388   5.586
 5485SOL    HW217355   4.572   0.323   5.605
 5486SOL     OW17356   2.696   5.688   5.437
 5486SOL    HW117357   2.792   5.662   5.419
 5486SOL    HW217358   2.641   5.669   5.356
 5487SOL     OW17359   4.136   3.165   6.853
 5487SOL    HW117360   4.042   3.166   6.821
 5487SOL    HW217361   4.158   3.252   6.895
 5488SOL     OW17362   5.719   0.344   1.282
 5488SOL    HW117363   5.769   0.420   1.240
 5488SOL    HW217364   5.747   0.258   1.239
 5489SOL     OW17365   0.145   3.699   1.344
 5489SOL    HW117366   0.170   3.788   1.381
 5489SOL    HW217367   0.055   3.672   1.379
 5490SOL     OW17368   2.574   0.441   2.476
 5490SOL    HW117369   2.604   0.375   2.545
 5490SOL    HW217370   2.527   0.517   2.521
 5491SOL     OW17371   0.913   2.855   6.985
 5491SOL    HW117372   0.827   2.810   6.963
 5491SOL    HW217373   0.933   2.842   0.065
 5492SOL     OW17374   0.684   3.107   6.551
 5492SOL    HW117375   0.747   3.148   6.616
 5492SOL    HW217376   0.618   3.176   6.520
 5493SOL     OW17377   3.913   3.535   3.308
 5493SOL    HW117378   3.939   3.621   3.264
 5493SOL    HW217379   3.816   3.517   3.290
 5494SOL     OW17380   6.618   3.483   5.447
 5494SOL    HW117381   6.699   3.529   5.412
 5494SOL    HW217382   6.644   3.398   5.492
 5495SOL     OW17383   5.764   0.747   1.530
 5495SOL    HW117384   5.686   0.706   1.482
 5495SOL    HW217385   5.849   0.719   1.486
 5496SOL     OW17386   4.556   0.760   3.843
 5496SOL    HW117387   4.544   0.666   3.874
 5496SOL    HW217388   4.610   0.811   3.910
 5497SOL     OW17389   0.513   1.140   5.211
 5497SOL    HW117390   0.604   1.164   5.176
 5497SOL    HW217391   0.515   1.047   5.248
 5498SOL     OW17392   0.076   4.968   2.145
 5498SOL    HW117393   0.164   4.983   2.101
 5498SOL    HW217394   0.031   4.889   2.104
 5499SOL     OW17395   0.704   0.699   4.025
 5499SOL    HW117396   0.692   0.599   4.021
 5499SOL    HW217397   0.656   0.742   3.949
 5500SOL     OW17398   0.828   0.926   6.486
 5500SOL    HW117399   0.817   0.845   6.429
 5500SOL    HW217400   0.925   0.937   6.509
 5501SOL     OW17401   3.611   1.770   0.761
 5501SOL    HW117402   3.571   1.861   0.760
 5501SOL    HW217403   3.671   1.761   0.840
 5502SOL     OW17404   5.760   3.274   6.222
 5502SOL    HW117405   5.683   3.225   6.263
 5502SOL    HW217406   5.820   3.308   6.294
 5503SOL     OW17407   0.202   4.140   0.967
 5503SOL    HW117408   0.219   4.053   1.014
 5503SOL    HW217409   0.138   4.125   0.892
 5504SOL     OW17410   4.770   1.355   5.171
 5504SOL    HW117411   4.713   1.310   5.241
 5504SOL    HW217412   4.744   1.320   5.081
 5505SOL     OW17413   2.199   5.058   3.324
 5505SOL    HW117414   2.289   5.090   3.351
 5505SOL    HW217415   2.140   5.053   3.405
 5506SOL     OW17416   0.055   3.349   0.500
 5506SOL    HW117417   0.042   3.416   0.427
 5506SOL    HW217418   0.146   3.308   0.492
 5507SOL     OW17419   3.591   0.686   5.239
 5507SOL    HW117420   3.506   0.730   5.208
 5507SOL    HW217421   3.670   0.735   5.202
 5508SOL     OW17422   1.158   0.435   0.464
 5508SOL    HW117423   1.159   0.354   0.521
 5508SOL    HW217424   1.244   0.441   0.412
 5509SOL     OW17425   0.828   5.791   0.534
 5509SOL    HW117426   0.784   5.768   0.448
 5509SOL    HW217427   0.871   5.709   0.572
 5510SOL     OW17428   4.334   5.222   6.587
 5510SOL    HW117429   4.304   5.308   6.629
 5510SOL    HW217430   4.418   5.238   6.535
 5511SOL     OW17431   1.272   0.911   5.352
 5511SOL    HW117432   1.199   0.879   5.293
 5511SOL    HW217433   1.277   0.854   5.434
 5512SOL     OW17434   3.494   1.302   0.736
 5512SOL    HW117435   3.585   1.302   0.695
 5512SOL    HW217436   3.485   1.381   0.797
 5513SOL     OW17437   3.533   5.339   5.848
 5513SOL    HW117438   3.459   5.279   5.881
 5513SOL    HW217439   3.493   5.422   5.809
 5514SOL     OW17440   3.379   0.311   4.855
 5514SOL    HW117441   3.376   0.395   4.802
 5514SOL    HW217442   3.448   0.319   4.927
 5515SOL     OW17443   1.687   5.562   1.814
 5515SOL    HW117444   1.725   5.647   1.852
 5515SOL    HW217445   1.749   5.526   1.744
 5516SOL     OW17446   2.246   2.848   4.830
 5516SOL    HW117447   2.282   2.864   4.922
 5516SOL    HW217448   2.322   2.844   4.765
 5517SOL     OW17449   2.046   3.651   1.884
 5517SOL    HW117450   2.084   3.739   1.914
 5517SOL    HW217451   2.112   3.578   1.905
 5518SOL     OW17452   6.168   4.899   5.916
 5518SOL    HW117453   6.177   4.832   5.843
 5518SOL    HW217454   6.131   4.984   5.878
 5519SOL     OW17455   5.650   3.187   3.431
 5519SOL    HW117456   5.749   3.179   3.440
 5519SOL    HW217457   5.617   3.261   3.489
 5520SOL     OW17458   5.173   6.665   2.510
 5520SOL    HW117459   5.246   6.731   2.521
 5520SOL    HW217460   5.136   6.640   2.600
 5521SOL     OW17461   6.055   6.064   1.865
 5521SOL    HW117462   6.145   6.033   1.895
 5521SOL    HW217463   6.038   6.031   1.772
 5522SOL     OW17464   6.456   5.354   1.227
 5522SOL    HW117465   6.438   5.375   1.131
 5522SOL    HW217466   6.515   5.425   1.266
 5523SOL     OW17467   4.594   1.134   2.105
 5523SOL    HW117468   4.686   1.127   2.143
 5523SOL    HW217469   4.578   1.227   2.073
 5524SOL     OW17470   3.246   0.063   4.779
 5524SOL    HW117471   3.300   0.143   4.808
 5524SOL    HW217472   3.160   0.094   4.737
 5525SOL     OW17473   0.878   2.325   0.473
 5525SOL    HW117474   0.862   2.329   0.374
 5525SOL    HW217475   0.962   2.375   0.495
 5526SOL     OW17476   4.888   4.694   2.937
 5526SOL    HW117477   4.790   4.711   2.927
 5526SOL    HW217478   4.939   4.754   2.875
 5527SOL     OW17479   4.905   4.022   3.083
 5527SOL    HW117480   4.886   4.096   3.147
 5527SOL    HW217481   4.988   4.042   3.031
 5528SOL     OW17482   1.932   0.643   1.043
 5528SOL    HW117483   1.918   0.676   1.136
 5528SOL    HW217484   1.941   0.544   1.043
 5529SOL     OW17485   3.006   7.017   3.981
 5529SOL    HW117486   2.989   6.947   4.051
 5529SOL    HW217487   3.098   0.037   3.994
 5530SOL     OW17488   6.137   2.248   1.131
 5530SOL    HW117489   6.225   2.276   1.170
 5530SOL    HW217490   6.118   2.304   1.051
 5531SOL     OW17491   3.855   3.634   1.541
 5531SOL    HW117492   3.757   3.651   1.530
 5531SOL    HW217493   3.868   3.548   1.590
 5532SOL     OW17494   1.780   3.071   0.614
 5532SOL    HW117495   1.726   3.015   0.677
 5532SOL    HW217496   1.730   3.154   0.590
 5533SOL     OW17497   4.926   1.366   4.079
 5533SOL    HW117498   4.986   1.445   4.073
 5533SOL    HW217499   4.868   1.361   3.997
 5534SOL     OW17500   1.111   0.867   6.408
 5534SOL    HW117501   1.134   0.961   6.434
 5534SOL    HW217502   1.167   0.839   6.330
 5535SOL     OW17503   0.975   1.239   2.682
 5535SOL    HW117504   0.914   1.213   2.757
 5535SOL    HW217505   1.064   1.194   2.694
 5536SOL     OW17506   4.234   0.633   4.612
 5536SOL    HW117507   4.137   0.658   4.619
 5536SOL    HW217508   4.243   0.551   4.555
 5537SOL     OW17509   3.780   1.597   2.444
 5537SOL    HW117510   3.869   1.576   2.484
 5537SOL    HW217511   3.710   1.540   2.487
 5538SOL     OW17512   3.778   6.246   4.772
 5538SOL    HW117513   3.688   6.248   4.814
 5538SOL    HW217514   3.771   6.206   4.680
 5539SOL     OW17515   1.736   3.598   1.596
 5539SOL    HW117516   1.806   3.621   1.528
 5539SOL    HW217517   1.646   3.607   1.555
 5540SOL     OW17518   4.724   4.690   3.663
 5540SOL    HW117519   4.724   4.731   3.754
 5540SOL    HW217520   4.636   4.646   3.646
 5541SOL     OW17521   5.045   0.500   6.450
 5541SOL    HW117522   5.028   0.494   6.352
 5541SOL    HW217523   5.127   0.554   6.467
 5542SOL     OW17524   4.021   3.342   6.289
 5542SOL    HW117525   4.048   3.438   6.279
 5542SOL    HW217526   3.942   3.337   6.351
 5543SOL     OW17527   5.880   3.900   6.330
 5543SOL    HW117528   5.815   3.953   6.276
 5543SOL    HW217529   5.845   3.807   6.342
 5544SOL     OW17530   5.207   0.026   6.344
 5544SOL    HW117531   5.210   0.046   6.442
 5544SOL    HW217532   5.145   0.089   6.298
 5545SOL     OW17533   4.146   1.895   3.029
 5545SOL    HW117534   4.115   1.856   3.116
 5545SOL    HW217535   4.182   1.821   2.972
 5546SOL     OW17536   1.325   5.475   5.716
 5546SOL    HW117537   1.395   5.406   5.703
 5546SOL    HW217538   1.256   5.467   5.644
 5547SOL     OW17539   2.835   6.242   4.501
 5547SOL    HW117540   2.794   6.225   4.591
 5547SOL    HW217541   2.866   6.155   4.463
 5548SOL     OW17542   6.531   3.424   5.915
 5548SOL    HW117543   6.559   3.508   5.962
 5548SOL    HW217544   6.437   3.434   5.883
 5549SOL     OW17545   3.579   4.485   0.052
 5549SOL    HW117546   3.509   4.452   0.116
 5549SOL    HW217547   3.666   4.495   0.101
 5550SOL     OW17548   2.530   5.592   2.008
 5550SOL    HW117549   2.552   5.607   1.912
 5550SOL    HW217550   2.615   5.580   2.060
 5551SOL     OW17551   1.570   0.661   3.155
 5551SOL    HW117552   1.608   0.577   3.194
 5551SOL    HW217553   1.483   0.641   3.111
 5552SOL     OW17554   6.833   1.599   0.428
 5552SOL    HW117555   6.770   1.669   0.393
 5552SOL    HW217556   6.927   1.624   0.402
 5553SOL     OW17557   4.311   6.892   6.977
 5553SOL    HW117558   4.281   6.813   6.923
 5553SOL    HW217559   4.308   6.869   0.057
 5554SOL     OW17560   2.850   2.465   5.705
 5554SOL    HW117561   2.909   2.487   5.628
 5554SOL    HW217562   2.785   2.395   5.677
 5555SOL     OW17563   0.523   5.607   3.402
 5555SOL    HW117564   0.545   5.523   3.353
 5555SOL    HW217565   0.491   5.583   3.494
 5556SOL     OW17566   1.009   2.378   4.749
 5556SOL    HW117567   1.106   2.380   4.723
 5556SOL    HW217568   0.954   2.353   4.670
 5557SOL     OW17569   2.534   5.996   3.704
 5557SOL    HW117570   2.552   5.902   3.675
 5557SOL    HW217571   2.610   6.055   3.676
 5558SOL     OW17572   5.284   2.798   4.897
 5558SOL    HW117573   5.232   2.715   4.881
 5558SOL    HW217574   5.235   2.876   4.858
 5559SOL     OW17575   2.200   0.407   1.080
 5559SOL    HW117576   2.256   0.334   1.041
 5559SOL    HW217577   2.104   0.392   1.058
 5560SOL     OW17578   0.356   0.729   3.103
 5560SOL    HW117579   0.395   0.648   3.058
 5560SOL    HW217580   0.265   0.746   3.066
 5561SOL     OW17581   1.314   3.118   3.907
 5561SOL    HW117582   1.277   3.078   3.823
 5561SOL    HW217583   1.392   3.063   3.938
 5562SOL     OW17584   1.824   2.494   6.180
 5562SOL    HW117585   1.821   2.394   6.170
 5562SOL    HW217586   1.880   2.534   6.108
 5563SOL     OW17587   4.476   6.363   2.291
 5563SOL    HW117588   4.446   6.387   2.384
 5563SOL    HW217589   4.400   6.321   2.242
 5564SOL     OW17590   5.035   4.006   1.829
 5564SOL    HW117591   5.011   3.911   1.846
 5564SOL    HW217592   4.957   4.054   1.788
 5565SOL     OW17593   4.278   2.246   5.577
 5565SOL    HW117594   4.268   2.322   5.642
 5565SOL    HW217595   4.235   2.270   5.490
 5566SOL     OW17596   1.629   5.613   0.889
 5566SOL    HW117597   1.557   5.544   0.894
 5566SOL    HW217598   1.603   5.693   0.943
 5567SOL     OW17599   1.759   5.672   1.255
 5567SOL    HW117600   1.728   5.599   1.315
 5567SOL    HW217601   1.684   5.702   1.196
 5568SOL     OW17602   4.655   1.913   0.732
 5568SOL    HW117603   4.591   1.989   0.720
 5568SOL    HW217604   4.608   1.835   0.774
 5569SOL     OW17605   4.100   1.669   1.583
 5569SOL    HW117606   4.183   1.712   1.619
 5569SOL    HW217607   4.121   1.577   1.553
 5570SOL     OW17608   6.013   4.810   5.502
 5570SOL    HW117609   6.088   4.852   5.452
 5570SOL    HW217610   6.011   4.846   5.595
 5571SOL     OW17611   0.502   5.657   0.711
 5571SOL    HW117612   0.471   5.748   0.681
 5571SOL    HW217613   0.510   5.597   0.631
 5572SOL     OW17614   4.435   2.167   6.630
 5572SOL    HW117615   4.424   2.109   6.550
 5572SOL    HW217616   4.363   2.237   6.631
 5573SOL     OW17617   1.379   3.906   0.427
 5573SOL    HW117618   1.408   3.877   0.518
 5573SOL    HW217619   1.394   4.004   0.417
 5574SOL     OW17620   0.530   6.784   4.804
 5574SOL    HW117621   0.626   6.757   4.794
 5574SOL    HW217622   0.516   6.874   4.764
 5575SOL     OW17623   1.699   1.040   0.826
 5575SOL    HW117624   1.601   1.054   0.832
 5575SOL    HW217625   1.732   0.994   0.909
 5576SOL     OW17626   5.976   5.441   0.483
 5576SOL    HW117627   5.900   5.458   0.420
 5576SOL    HW217628   5.942   5.441   0.577
 5577SOL     OW17629   2.375   3.336   5.591
 5577SOL    HW117630   2.297   3.398   5.584
 5577SOL    HW217631   2.404   3.309   5.500
 5578SOL     OW17632   4.177   2.153   0.229
 5578SOL    HW117633   4.135   2.075   0.183
 5578SOL    HW217634   4.257   2.184   0.177
 5579SOL     OW17635   5.058   3.651   6.999
 5579SOL    HW117636   4.987   3.722   6.998
 5579SOL    HW217637   5.124   3.669   6.925
 5580SOL     OW17638   5.293   1.196   0.543
 5580SOL    HW117639   5.263   1.266   0.607
 5580SOL    HW217640   5.281   1.106   0.584
 5581SOL     OW17641   2.140   0.420   6.589
 5581SOL    HW117642   2.142   0.511   6.631
 5581SOL    HW217643   2.181   0.424   6.498
 5582SOL     OW17644   3.608   3.268   4.024
 5582SOL    HW117645   3.600   3.367   4.011
 5582SOL    HW217646   3.538   3.237   4.087
 5583SOL     OW17647   3.331   0.181   1.831
 5583SOL    HW117648   3.361   0.238   1.755
 5583SOL    HW217649   3.409   0.158   1.889
 5584SOL     OW17650   6.055   4.157   3.200
 5584SOL    HW117651   6.036   4.252   3.177
 5584SOL    HW217652   6.148   4.134   3.174
 5585SOL     OW17653   6.722   0.741   3.681
 5585SOL    HW117654   6.746   0.703   3.770
 5585SOL    HW217655   6.765   0.831   3.670
 5586SOL     OW17656   2.577   1.413   5.925
 5586SOL    HW117657   2.515   1.489   5.948
 5586SOL    HW217658   2.663   1.426   5.973
 5587SOL     OW17659   4.038   0.538   3.702
 5587SOL    HW117660   4.053   0.631   3.668
 5587SOL    HW217661   3.941   0.526   3.724
 5588SOL     OW17662   2.191   6.991   5.301
 5588SOL    HW117663   2.257   6.985   5.227
 5588SOL    HW217664   2.237   0.007   5.383
 5589SOL     OW17665   5.136   2.322   6.536
 5589SOL    HW117666   5.098   2.397   6.482
 5589SOL    HW217667   5.211   2.356   6.593
 5590SOL     OW17668   6.637   6.001   4.303
 5590SOL    HW117669   6.599   6.049   4.382
 5590SOL    HW217670   6.712   6.055   4.265
 5591SOL     OW17671   5.868   0.873   0.020
 5591SOL    HW117672   5.782   0.833   0.053
 5591SOL    HW217673   5.913   0.808   6.975
 5592SOL     OW17674   1.362   4.029   2.615
 5592SOL    HW117675   1.405   4.115   2.641
 5592SOL    HW217676   1.305   3.996   2.691
 5593SOL     OW17677   1.337   2.952   5.717
 5593SOL    HW117678   1.307   2.857   5.704
 5593SOL    HW217679   1.419   2.969   5.663
 5594SOL     OW17680   2.234   0.258   0.204
 5594SOL    HW117681   2.184   0.173   0.220
 5594SOL    HW217682   2.332   0.243   0.219
 5595SOL     OW17683   6.490   1.183   5.602
 5595SOL    HW117684   6.405   1.153   5.644
 5595SOL    HW217685   6.497   1.283   5.609
 5596SOL     OW17686   4.887   0.687   2.082
 5596SOL    HW117687   4.861   0.592   2.064
 5596SOL    HW217688   4.817   0.730   2.140
 5597SOL     OW17689   5.840   0.952   6.256
 5597SOL    HW117690   5.920   0.895   6.239
 5597SOL    HW217691   5.869   1.039   6.296
 5598SOL     OW17692   5.583   1.701   3.751
 5598SOL    HW117693   5.668   1.754   3.760
 5598SOL    HW217694   5.555   1.698   3.655
 5599SOL     OW17695   5.034   4.100   2.106
 5599SOL    HW117696   5.003   4.055   2.022
 5599SOL    HW217697   4.960   4.157   2.142
 5600SOL     OW17698   1.891   0.538   2.822
 5600SOL    HW117699   1.943   0.622   2.838
 5600SOL    HW217700   1.808   0.539   2.878
 5601SOL     OW17701   5.130   3.130   5.937
 5601SOL    HW117702   5.147   3.191   6.014
 5601SOL    HW217703   5.214   3.120   5.884
 5602SOL     OW17704   0.704   2.451   3.474
 5602SOL    HW117705   0.655   2.377   3.519
 5602SOL    HW217706   0.794   2.419   3.444
 5603SOL     OW17707   4.372   2.438   4.790
 5603SOL    HW117708   4.309   2.392   4.728
 5603SOL    HW217709   4.328   2.447   4.880
 5604SOL     OW17710   1.034   0.385   4.091
 5604SOL    HW117711   0.960   0.414   4.152
 5604SOL    HW217712   1.010   0.406   3.996
 5605SOL     OW17713   2.101   6.833   4.125
 5605SOL    HW117714   2.020   6.853   4.071
 5605SOL    HW217715   2.079   6.764   4.194
 5606SOL     OW17716   4.738   2.203   0.605
 5606SOL    HW117717   4.802   2.145   0.555
 5606SOL    HW217718   4.724   2.288   0.555
 5607SOL     OW17719   6.116   2.472   2.517
 5607SOL    HW117720   6.209   2.510   2.517
 5607SOL    HW217721   6.059   2.524   2.453
 5608SOL     OW17722   5.491   1.168   3.993
 5608SOL    HW117723   5.484   1.069   4.005
 5608SOL    HW217724   5.497   1.189   3.895
 5609SOL     OW17725   6.006   6.651   1.623
 5609SOL    HW117726   6.065   6.666   1.543
 5609SOL    HW217727   6.052   6.683   1.705
 5610SOL     OW17728   5.266   4.468   0.096
 5610SOL    HW117729   5.295   4.563   0.090
 5610SOL    HW217730   5.308   4.424   0.175
 5611SOL     OW17731   0.657   5.245   1.371
 5611SOL    HW117732   0.593   5.319   1.387
 5611SOL    HW217733   0.607   5.158   1.364
 5612SOL     OW17734   2.995   1.239   0.582
 5612SOL    HW117735   3.079   1.293   0.573
 5612SOL    HW217736   3.001   1.157   0.525
 5613SOL     OW17737   6.968   5.026   4.858
 5613SOL    HW117738   6.998   4.965   4.785
 5613SOL    HW217739   6.877   5.062   4.837
 5614SOL     OW17740   5.829   2.262   4.705
 5614SOL    HW117741   5.811   2.166   4.683
 5614SOL    HW217742   5.749   2.301   4.749
 5615SOL     OW17743   6.759   2.536   2.441
 5615SOL    HW117744   6.674   2.484   2.429
 5615SOL    HW217745   6.795   2.520   2.532
 5616SOL     OW17746   1.723   3.526   3.371
 5616SOL    HW117747   1.697   3.448   3.427
 5616SOL    HW217748   1.780   3.588   3.425
 5617SOL     OW17749   2.269   5.618   5.852
 5617SOL    HW117750   2.271   5.673   5.769
 5617SOL    HW217751   2.342   5.551   5.849
 5618SOL     OW17752   6.810   5.390   4.037
 5618SOL    HW117753   6.802   5.484   4.005
 5618SOL    HW217754   6.886   5.383   4.102
 5619SOL     OW17755   3.495   3.231   4.705
 5619SOL    HW117756   3.588   3.266   4.698
 5619SOL    HW217757   3.438   3.297   4.754
 5620SOL     OW17758   4.002   4.491   5.635
 5620SOL    HW117759   4.047   4.580   5.637
 5620SOL    HW217760   3.907   4.501   5.665
 5621SOL     OW17761   1.674   3.138   4.808
 5621SOL    HW117762   1.631   3.144   4.718
 5621SOL    HW217763   1.627   3.199   4.872
 5622SOL     OW17764   4.610   5.333   4.749
 5622SOL    HW117765   4.634   5.312   4.654
 5622SOL    HW217766   4.512   5.352   4.756
 5623SOL     OW17767   4.414   6.280   4.028
 5623SOL    HW117768   4.448   6.334   4.104
 5623SOL    HW217769   4.346   6.214   4.061
 5624SOL     OW17770   6.988   5.991   4.039
 5624SOL    HW117771   6.946   5.981   3.949
 5624SOL    HW217772   6.978   5.906   4.090
 5625SOL     OW17773   1.483   5.963   4.629
 5625SOL    HW117774   1.413   5.958   4.557
 5625SOL    HW217775   1.509   5.870   4.657
 5626SOL     OW17776   2.126   3.876   4.242
 5626SOL    HW117777   2.120   3.794   4.185
 5626SOL    HW217778   2.151   3.850   4.335
 5627SOL     OW17779   1.433   5.819   0.590
 5627SOL    HW117780   1.338   5.836   0.620
 5627SOL    HW217781   1.432   5.772   0.503
 5628SOL     OW17782   3.103   2.658   0.348
 5628SOL    HW117783   3.141   2.587   0.289
 5628SOL    HW217784   3.130   2.641   0.443
 5629SOL     OW17785   5.036   3.967   1.275
 5629SOL    HW117786   4.953   3.925   1.311
 5629SOL    HW217787   5.078   4.024   1.346
 5630SOL     OW17788   1.818   3.873   6.433
 5630SOL    HW117789   1.814   3.860   6.532
 5630SOL    HW217790   1.791   3.788   6.387
 5631SOL     OW17791   4.162   0.639   1.980
 5631SOL    HW117792   4.149   0.594   1.891
 5631SOL    HW217793   4.259   0.636   2.004
 5632SOL     OW17794   5.898   0.143   5.795
 5632SOL    HW117795   5.962   0.066   5.795
 5632SOL    HW217796   5.813   0.115   5.839
 5633SOL     OW17797   0.497   4.535   5.864
 5633SOL    HW117798   0.518   4.546   5.767
 5633SOL    HW217799   0.405   4.499   5.875
 5634SOL     OW17800   3.000   6.292   6.612
 5634SOL    HW117801   2.947   6.344   6.545
 5634SOL    HW217802   2.939   6.257   6.683
 5635SOL     OW17803   2.651   6.668   6.502
 5635SOL    HW117804   2.580   6.705   6.562
 5635SOL    HW217805   2.624   6.682   6.406
 5636SOL     OW17806   6.280   0.811   5.441
 5636SOL    HW117807   6.195   0.864   5.447
 5636SOL    HW217808   6.334   0.843   5.363
 5637SOL     OW17809   5.166   6.009   4.638
 5637SOL    HW117810   5.237   5.948   4.603
 5637SOL    HW217811   5.155   5.995   4.736
 5638SOL     OW17812   5.352   5.886   1.178
 5638SOL    HW117813   5.315   5.907   1.088
 5638SOL    HW217814   5.282   5.841   1.234
 5639SOL     OW17815   1.238   0.159   1.644
 5639SOL    HW117816   1.167   0.159   1.714
 5639SOL    HW217817   1.202   0.202   1.561
 5640SOL     OW17818   2.655   6.033   3.028
 5640SOL    HW117819   2.585   6.010   3.095
 5640SOL    HW217820   2.651   6.130   3.007
 5641SOL     OW17821   1.452   5.156   4.581
 5641SOL    HW117822   1.449   5.064   4.540
 5641SOL    HW217823   1.455   5.147   4.681
 5642SOL     OW17824   1.060   4.972   6.767
 5642SOL    HW117825   1.118   4.935   6.694
 5642SOL    HW217826   1.022   5.059   6.738
 5643SOL     OW17827   3.736   2.147   4.295
 5643SOL    HW117828   3.708   2.184   4.384
 5643SOL    HW217829   3.836   2.143   4.292
 5644SOL     OW17830   5.431   1.370   5.073
 5644SOL    HW117831   5.335   1.360   5.099
 5644SOL    HW217832   5.445   1.458   5.028
 5645SOL     OW17833   5.031   5.344   2.271
 5645SOL    HW117834   5.011   5.396   2.188
 5645SOL    HW217835   5.022   5.405   2.350
 5646SOL     OW17836   0.211   5.770   3.554
 5646SOL    HW117837   0.202   5.869   3.543
 5646SOL    HW217838   0.213   5.727   3.464
 5647SOL     OW17839   6.411   5.926   0.146
 5647SOL    HW117840   6.393   5.895   0.239
 5647SOL    HW217841   6.358   6.008   0.126
 5648SOL     OW17842   1.887   1.726   3.174
 5648SOL    HW117843   1.974   1.747   3.129
 5648SOL    HW217844   1.828   1.806   3.173
 5649SOL     OW17845   1.647   0.485   4.499
 5649SOL    HW117846   1.551   0.494   4.471
 5649SOL    HW217847   1.675   0.567   4.548
 5650SOL     OW17848   6.820   4.772   0.658
 5650SOL    HW117849   6.721   4.764   0.663
 5650SOL    HW217850   6.863   4.695   0.705
 5651SOL     OW17851   0.198   1.255   1.743
 5651SOL    HW117852   0.295   1.256   1.719
 5651SOL    HW217853   0.153   1.336   1.705
 5652SOL     OW17854   5.539   5.645   1.725
 5652SOL    HW117855   5.555   5.738   1.692
 5652SOL    HW217856   5.617   5.615   1.779
 5653SOL     OW17857   6.842   6.044   5.646
 5653SOL    HW117858   6.900   6.119   5.614
 5653SOL    HW217859   6.851   6.035   5.745
 5654SOL     OW17860   0.314   0.495   6.009
 5654SOL    HW117861   0.282   0.401   6.019
 5654SOL    HW217862   0.254   0.544   5.945
 5655SOL     OW17863   1.133   3.408   3.723
 5655SOL    HW117864   1.070   3.483   3.701
 5655SOL    HW217865   1.083   3.322   3.728
 5656SOL     OW17866   2.801   4.132   0.641
 5656SOL    HW117867   2.864   4.128   0.718
 5656SOL    HW217868   2.847   4.174   0.563
 5657SOL     OW17869   4.560   0.163   1.304
 5657SOL    HW117870   4.469   0.173   1.343
 5657SOL    HW217871   4.626   0.146   1.378
 5658SOL     OW17872   3.181   6.838   5.462
 5658SOL    HW117873   3.230   6.840   5.375
 5658SOL    HW217874   3.214   6.761   5.517
 5659SOL     OW17875   3.060   3.509   3.098
 5659SOL    HW117876   3.159   3.514   3.084
 5659SOL    HW217877   3.038   3.426   3.150
 5660SOL     OW17878   5.269   0.130   0.342
 5660SOL    HW117879   5.325   0.117   0.424
 5660SOL    HW217880   5.298   0.065   0.272
 5661SOL     OW17881   0.340   6.122   5.428
 5661SOL    HW117882   0.267   6.053   5.430
 5661SOL    HW217883   0.429   6.078   5.433
 5662SOL     OW17884   2.527   4.446   3.924
 5662SOL    HW117885   2.553   4.444   3.827
 5662SOL    HW217886   2.457   4.376   3.941
 5663SOL     OW17887   1.151   4.273   0.474
 5663SOL    HW117888   1.076   4.208   0.468
 5663SOL    HW217889   1.208   4.266   0.392
 5664SOL     OW17890   0.172   4.839   2.969
 5664SOL    HW117891   0.169   4.926   2.920
 5664SOL    HW217892   0.175   4.857   3.068
 5665SOL     OW17893   1.897   2.513   6.508
 5665SOL    HW117894   1.897   2.422   6.466
 5665SOL    HW217895   1.858   2.579   6.444
 5666SOL     OW17896   4.631   5.751   0.988
 5666SOL    HW117897   4.727   5.744   0.963
 5666SOL    HW217898   4.575   5.703   0.920
 5667SOL     OW17899   0.013   5.116   3.079
 5667SOL    HW117900   0.055   5.147   2.994
 5667SOL    HW217901   0.079   5.128   3.154
 5668SOL     OW17902   4.634   1.590   6.108
 5668SOL    HW117903   4.716   1.647   6.117
 5668SOL    HW217904   4.616   1.543   6.194
 5669SOL     OW17905   0.141   5.185   5.679
 5669SOL    HW117906   0.096   5.184   5.768
 5669SOL    HW217907   0.125   5.272   5.634
 5670SOL     OW17908   0.487   3.430   3.328
 5670SOL    HW117909   0.436   3.509   3.363
 5670SOL    HW217910   0.448   3.346   3.365
 5671SOL     OW17911   2.532   6.678   6.269
 5671SOL    HW117912   2.572   6.665   6.179
 5671SOL    HW217913   2.477   6.761   6.269
 5672SOL     OW17914   5.049   3.637   6.356
 5672SOL    HW117915   4.999   3.599   6.434
 5672SOL    HW217916   4.990   3.636   6.275
 5673SOL     OW17917   0.599   0.655   2.722
 5673SOL    HW117918   0.648   0.735   2.756
 5673SOL    HW217919   0.501   0.674   2.720
 5674SOL     OW17920   0.306   3.820   1.658
 5674SOL    HW117921   0.247   3.876   1.600
 5674SOL    HW217922   0.259   3.734   1.679
 5675SOL     OW17923   4.527   2.729   5.278
 5675SOL    HW117924   4.609   2.762   5.230
 5675SOL    HW217925   4.500   2.796   5.346
 5676SOL     OW17926   1.795   0.952   1.076
 5676SOL    HW117927   1.860   0.884   1.111
 5676SOL    HW217928   1.745   0.993   1.152
 5677SOL     OW17929   6.637   2.087   3.425
 5677SOL    HW117930   6.560   2.089   3.489
 5677SOL    HW217931   6.617   2.146   3.347
 5678SOL     OW17932   3.769   6.208   2.529
 5678SOL    HW117933   3.819   6.239   2.448
 5678SOL    HW217934   3.680   6.172   2.501
 5679SOL     OW17935   1.369   6.907   4.717
 5679SOL    HW117936   1.444   6.894   4.783
 5679SOL    HW217937   1.311   6.826   4.715
 5680SOL     OW17938   1.684   5.119   6.778
 5680SOL    HW117939   1.768   5.073   6.805
 5680SOL    HW217940   1.704   5.184   6.704
 5681SOL     OW17941   0.818   3.007   6.326
 5681SOL    HW117942   0.746   3.017   6.395
 5681SOL    HW217943   0.885   3.081   6.338
 5682SOL     OW17944   1.388   2.975   5.427
 5682SOL    HW117945   1.419   3.000   5.336
 5682SOL    HW217946   1.288   2.980   5.431
 5683SOL     OW17947   3.649   2.467   6.547
 5683SOL    HW117948   3.725   2.443   6.486
 5683SOL    HW217949   3.595   2.539   6.504
 5684SOL     OW17950   3.731   3.327   4.352
 5684SOL    HW117951   3.752   3.231   4.338
 5684SOL    HW217952   3.637   3.337   4.383
 5685SOL     OW17953   0.685   4.858   2.086
 5685SOL    HW117954   0.655   4.933   2.145
 5685SOL    HW217955   0.680   4.772   2.136
 5686SOL     OW17956   3.704   0.045   0.329
 5686SOL    HW117957   3.660   0.091   0.406
 5686SOL    HW217958   3.734   0.113   0.262
 5687SOL     OW17959   6.397   4.245   4.624
 5687SOL    HW117960   6.393   4.186   4.543
 5687SOL    HW217961   6.344   4.327   4.608
 5688SOL     OW17962   6.133   2.056   0.923
 5688SOL    HW117963   6.072   1.990   0.880
 5688SOL    HW217964   6.096   2.083   1.011
 5689SOL     OW17965   4.509   1.270   0.358
 5689SOL    HW117966   4.585   1.205   0.355
 5689SOL    HW217967   4.489   1.294   0.452
 5690SOL     OW17968   3.824   5.884   0.535
 5690SOL    HW117969   3.751   5.846   0.478
 5690SOL    HW217970   3.790   5.965   0.584
 5691SOL     OW17971   3.033   6.289   2.228
 5691SOL    HW117972   2.945   6.320   2.191
 5691SOL    HW217973   3.070   6.359   2.290
 5692SOL     OW17974   6.539   2.080   6.008
 5692SOL    HW117975   6.454   2.044   6.044
 5692SOL    HW217976   6.524   2.116   5.916
 5693SOL     OW17977   5.057   2.761   2.098
 5693SOL    HW117978   4.988   2.796   2.162
 5693SOL    HW217979   5.029   2.780   2.004
 5694SOL     OW17980   0.449   1.241   3.440
 5694SOL    HW117981   0.432   1.335   3.409
 5694SOL    HW217982   0.372   1.209   3.495
 5695SOL     OW17983   1.424   2.526   3.691
 5695SOL    HW117984   1.346   2.484   3.736
 5695SOL    HW217985   1.409   2.529   3.592
 5696SOL     OW17986   3.365   1.183   4.926
 5696SOL    HW117987   3.315   1.250   4.870
 5696SOL    HW217988   3.433   1.137   4.870
 5697SOL     OW17989   0.055   2.147   0.773
 5697SOL    HW117990   0.058   2.242   0.804
 5697SOL    HW217991   0.113   2.091   0.832
 5698SOL     OW17992   0.255   2.131   2.382
 5698SOL    HW117993   0.354   2.141   2.374
 5698SOL    HW217994   0.214   2.219   2.409
 5699SOL     OW17995   6.386   1.353   3.990
 5699SOL    HW117996   6.318   1.292   4.029
 5699SOL    HW217997   6.366   1.447   4.016
 5700SOL     OW17998   0.947   6.456   4.461
 5700SOL    HW117999   0.862   6.492   4.421
 5700SOL    HW218000   1.025   6.484   4.405
 5701SOL     OW18001   0.385   5.780   3.061
 5701SOL    HW118002   0.341   5.738   3.140
 5701SOL    HW218003   0.345   5.871   3.045
 5702SOL     OW18004   1.665   0.037   5.801
 5702SOL    HW118005   1.713   0.120   5.831
 5702SOL    HW218006   1.732   6.984   5.780
 5703SOL     OW18007   4.693   5.145   6.841
 5703SOL    HW118008   4.693   5.186   6.932
 5703SOL    HW218009   4.699   5.046   6.848
 5704SOL     OW18010   4.561   5.561   3.058
 5704SOL    HW118011   4.585   5.470   3.022
 5704SOL    HW218012   4.507   5.610   2.990
 5705SOL     OW18013   5.947   1.110   1.169
 5705SOL    HW118014   6.037   1.074   1.195
 5705SOL    HW218015   5.952   1.210   1.160
 5706SOL     OW18016   1.554   1.740   0.015
 5706SOL    HW118017   1.525   1.785   0.099
 5706SOL    HW218018   1.540   1.802   6.955
 5707SOL     OW18019   1.296   6.890   6.590
 5707SOL    HW118020   1.294   6.799   6.548
 5707SOL    HW218021   1.203   6.920   6.610
 5708SOL     OW18022   5.471   0.046   2.453
 5708SOL    HW118023   5.571   0.041   2.456
 5708SOL    HW218024   5.433   6.978   2.488
 5709SOL     OW18025   0.496   6.340   3.183
 5709SOL    HW118026   0.428   6.329   3.111
 5709SOL    HW218027   0.493   6.434   3.219
 5710SOL     OW18028   2.697   3.648   5.928
 5710SOL    HW118029   2.790   3.665   5.897
 5710SOL    HW218030   2.635   3.648   5.849
 5711SOL     OW18031   4.802   0.894   3.929
 5711SOL    HW118032   4.780   0.866   3.835
 5711SOL    HW218033   4.855   0.979   3.926
 5712SOL     OW18034   0.222   0.047   5.627
 5712SOL    HW118035   0.229   0.146   5.631
 5712SOL    HW218036   0.241   0.008   5.718
 5713SOL     OW18037   0.242   2.376   1.621
 5713SOL    HW118038   0.338   2.401   1.610
 5713SOL    HW218039   0.234   2.276   1.629
 5714SOL     OW18040   1.266   6.951   0.006
 5714SOL    HW118041   1.309   6.994   0.086
 5714SOL    HW218042   1.305   6.990   6.940
 5715SOL     OW18043   1.140   6.110   3.149
 5715SOL    HW118044   1.076   6.127   3.074
 5715SOL    HW218045   1.222   6.064   3.113
 5716SOL     OW18046   1.498   4.164   5.786
 5716SOL    HW118047   1.510   4.263   5.791
 5716SOL    HW218048   1.572   4.119   5.837
 5717SOL     OW18049   1.612   4.919   0.932
 5717SOL    HW118050   1.621   4.936   1.030
 5717SOL    HW218051   1.543   4.848   0.917
 5718SOL     OW18052   1.875   4.527   7.011
 5718SOL    HW118053   1.878   4.621   0.025
 5718SOL    HW218054   1.780   4.501   6.994
 5719SOL     OW18055   2.577   0.842   5.747
 5719SOL    HW118056   2.669   0.809   5.727
 5719SOL    HW218057   2.552   0.817   5.840
 5720SOL     OW18058   0.328   5.090   4.997
 5720SOL    HW118059   0.346   5.071   4.900
 5720SOL    HW218060   0.242   5.140   5.006
 5721SOL     OW18061   0.985   3.798   6.973
 5721SOL    HW118062   1.019   3.793   6.879
 5721SOL    HW218063   0.906   3.738   6.983
 5722SOL     OW18064   5.491   1.037   5.001
 5722SOL    HW118065   5.507   1.130   4.968
 5722SOL    HW218066   5.444   0.985   4.931
 5723SOL     OW18067   3.979   4.751   0.892
 5723SOL    HW118068   4.070   4.710   0.895
 5723SOL    HW218069   3.948   4.755   0.797
 5724SOL     OW18070   4.062   2.119   5.917
 5724SOL    HW118071   4.038   2.179   5.841
 5724SOL    HW218072   3.979   2.073   5.951
 5725SOL     OW18073   5.266   5.719   3.561
 5725SOL    HW118074   5.330   5.683   3.629
 5725SOL    HW218075   5.231   5.643   3.506
 5726SOL     OW18076   6.341   3.788   4.764
 5726SOL    HW118077   6.333   3.854   4.839
 5726SOL    HW218078   6.276   3.813   4.692
 5727SOL     OW18079   5.505   2.880   3.217
 5727SOL    HW118080   5.469   2.965   3.178
 5727SOL    HW218081   5.443   2.805   3.196
 5728SOL     OW18082   5.604   1.038   6.181
 5728SOL    HW118083   5.611   1.066   6.085
 5728SOL    HW218084   5.688   0.993   6.209
 5729SOL     OW18085   0.361   1.625   0.423
 5729SOL    HW118086   0.350   1.530   0.452
 5729SOL    HW218087   0.345   1.632   0.324
 5730SOL     OW18088   3.675   5.779   5.343
 5730SOL    HW118089   3.769   5.812   5.338
 5730SOL    HW218090   3.674   5.679   5.335
 5731SOL     OW18091   1.342   6.649   3.853
 5731SOL    HW118092   1.268   6.693   3.802
 5731SOL    HW218093   1.424   6.707   3.849
 5732SOL     OW18094   6.130   4.992   4.473
 5732SOL    HW118095   6.084   5.039   4.549
 5732SOL    HW218096   6.227   5.015   4.473
 5733SOL     OW18097   3.550   0.810   6.531
 5733SOL    HW118098   3.546   0.846   6.624
 5733SOL    HW218099   3.593   0.720   6.531
 5734SOL     OW18100   1.248   7.009   5.295
 5734SOL    HW118101   1.191   0.073   5.287
 5734SOL    HW218102   1.244   6.974   5.389
 5735SOL     OW18103   3.877   1.189   2.075
 5735SOL    HW118104   3.890   1.256   2.002
 5735SOL    HW218105   3.861   1.237   2.162
 5736SOL     OW18106   5.191   4.365   6.284
 5736SOL    HW118107   5.146   4.452   6.264
 5736SOL    HW218108   5.155   4.294   6.223
 5737SOL     OW18109   5.231   6.341   1.251
 5737SOL    HW118110   5.194   6.406   1.317
 5737SOL    HW218111   5.266   6.261   1.300
 5738SOL     OW18112   3.620   1.110   6.427
 5738SOL    HW118113   3.660   1.177   6.364
 5738SOL    HW218114   3.638   1.139   6.521
 5739SOL     OW18115   1.753   6.600   5.691
 5739SOL    HW118116   1.824   6.551   5.641
 5739SOL    HW218117   1.716   6.543   5.764
 5740SOL     OW18118   4.589   3.438   1.081
 5740SOL    HW118119   4.688   3.454   1.075
 5740SOL    HW218120   4.567   3.350   1.039
 5741SOL     OW18121   0.786   3.785   3.551
 5741SOL    HW118122   0.692   3.784   3.582
 5741SOL    HW218123   0.789   3.781   3.451
 5742SOL     OW18124   3.701   6.780   3.791
 5742SOL    HW118125   3.787   6.735   3.767
 5742SOL    HW218126   3.660   6.735   3.871
 5743SOL     OW18127   3.593   4.735   6.225
 5743SOL    HW118128   3.523   4.794   6.186
 5743SOL    HW218129   3.567   4.639   6.212
 5744SOL     OW18130   6.111   0.601   3.267
 5744SOL    HW118131   6.194   0.649   3.295
 5744SOL    HW218132   6.123   0.503   3.277
 5745SOL     OW18133   2.566   2.267   3.390
 5745SOL    HW118134   2.536   2.324   3.466
 5745SOL    HW218135   2.662   2.286   3.369
 5746SOL     OW18136   4.066   0.128   3.888
 5746SOL    HW118137   4.049   0.056   3.821
 5746SOL    HW218138   4.152   0.174   3.865
 5747SOL     OW18139   0.913   6.207   1.930
 5747SOL    HW118140   1.007   6.205   1.895
 5747SOL    HW218141   0.900   6.288   1.986
 5748SOL     OW18142   0.438   6.461   0.602
 5748SOL    HW118143   0.408   6.506   0.518
 5748SOL    HW218144   0.521   6.504   0.635
 5749SOL     OW18145   2.122   6.794   4.773
 5749SOL    HW118146   2.069   6.878   4.790
 5749SOL    HW218147   2.087   6.721   4.831
 5750SOL     OW18148   6.888   4.462   4.944
 5750SOL    HW118149   6.819   4.420   4.884
 5750SOL    HW218150   6.864   4.558   4.960
 5751SOL     OW18151   1.494   3.317   4.721
 5751SOL    HW118152   1.571   3.367   4.761
 5751SOL    HW218153   1.413   3.332   4.776
 5752SOL     OW18154   5.632   0.310   1.537
 5752SOL    HW118155   5.699   0.274   1.602
 5752SOL    HW218156   5.680   0.339   1.454
 5753SOL     OW18157   2.938   3.980   5.089
 5753SOL    HW118158   2.946   4.068   5.043
 5753SOL    HW218159   2.958   3.906   5.025
 5754SOL     OW18160   1.512   5.855   2.097
 5754SOL    HW118161   1.513   5.954   2.113
 5754SOL    HW218162   1.421   5.819   2.115
 5755SOL     OW18163   1.819   1.908   6.056
 5755SOL    HW118164   1.917   1.895   6.040
 5755SOL    HW218165   1.801   2.004   6.080
 5756SOL     OW18166   6.601   0.163   2.283
 5756SOL    HW118167   6.594   0.071   2.319
 5756SOL    HW218168   6.537   0.223   2.332
 5757SOL     OW18169   0.253   5.552   3.965
 5757SOL    HW118170   0.174   5.606   3.938
 5757SOL    HW218171   0.240   5.517   4.057
 5758SOL     OW18172   2.429   0.095   3.457
 5758SOL    HW118173   2.508   0.079   3.399
 5758SOL    HW218174   2.401   0.191   3.451
 5759SOL     OW18175   4.871   6.784   1.864
 5759SOL    HW118176   4.774   6.798   1.885
 5759SOL    HW218177   4.918   6.872   1.861
 5760SOL     OW18178   6.632   3.269   2.305
 5760SOL    HW118179   6.676   3.294   2.219
 5760SOL    HW218180   6.563   3.199   2.288
 5761SOL     OW18181   5.044   5.845   5.090
 5761SOL    HW118182   5.111   5.818   5.160
 5761SOL    HW218183   4.954   5.856   5.132
 5762SOL     OW18184   4.250   4.473   0.562
 5762SOL    HW118185   4.315   4.415   0.612
 5762SOL    HW218186   4.299   4.544   0.513
 5763SOL     OW18187   5.487   6.416   0.405
 5763SOL    HW118188   5.497   6.321   0.436
 5763SOL    HW218189   5.554   6.435   0.334
 5764SOL     OW18190   4.292   5.195   3.440
 5764SOL    HW118191   4.195   5.196   3.414
 5764SOL    HW218192   4.324   5.289   3.454
 5765SOL     OW18193   6.618   3.893   0.518
 5765SOL    HW118194   6.691   3.872   0.583
 5765SOL    HW218195   6.579   3.808   0.483
 5766SOL     OW18196   2.343   2.112   4.574
 5766SOL    HW118197   2.412   2.182   4.559
 5766SOL    HW218198   2.262   2.153   4.616
 5767SOL     OW18199   2.357   0.133   6.951
 5767SOL    HW118200   2.361   0.035   6.969
 5767SOL    HW218201   2.305   0.150   6.867
 5768SOL     OW18202   6.896   6.853   3.642
 5768SOL    HW118203   6.931   6.944   3.668
 5768SOL    HW218204   6.854   6.859   3.551
 5769SOL     OW18205   2.583   5.270   5.407
 5769SOL    HW118206   2.682   5.277   5.406
 5769SOL    HW218207   2.546   5.301   5.319
 5770SOL     OW18208   0.232   6.193   6.850
 5770SOL    HW118209   0.191   6.190   6.941
 5770SOL    HW218210   0.241   6.289   6.821
 5771SOL     OW18211   1.510   0.360   4.148
 5771SOL    HW118212   1.551   0.448   4.172
 5771SOL    HW218213   1.425   0.376   4.097
 5772SOL     OW18214   4.650   1.348   1.514
 5772SOL    HW118215   4.587   1.420   1.543
 5772SOL    HW218216   4.735   1.389   1.481
 5773SOL     OW18217   4.186   0.857   2.298
 5773SOL    HW118218   4.118   0.806   2.245
 5773SOL    HW218219   4.269   0.801   2.308
 5774SOL     OW18220   1.749   0.760   4.513
 5774SOL    HW118221   1.675   0.816   4.476
 5774SOL    HW218222   1.810   0.733   4.439
 5775SOL     OW18223   1.311   6.007   2.922
 5775SOL    HW118224   1.214   6.018   2.900
 5775SOL    HW218225   1.333   5.910   2.929
 5776SOL     OW18226   1.238   0.493   3.436
 5776SOL    HW118227   1.202   0.466   3.347
 5776SOL    HW218228   1.321   0.547   3.423
 5777SOL     OW18229   0.823   0.536   3.650
 5777SOL    HW118230   0.806   0.507   3.556
 5777SOL    HW218231   0.798   0.632   3.661
 5778SOL     OW18232   1.798   0.658   0.117
 5778SOL    HW118233   1.745   0.737   0.146
 5778SOL    HW218234   1.800   0.653   0.017
 5779SOL     OW18235   4.780   2.562   0.173
 5779SOL    HW118236   4.777   2.525   0.080
 5779SOL    HW218237   4.814   2.491   0.235
 5780SOL     OW18238   5.207   5.954   4.912
 5780SOL    HW118239   5.247   6.037   4.950
 5780SOL    HW218240   5.124   5.931   4.962
 5781SOL     OW18241   6.669   4.350   4.757
 5781SOL    HW118242   6.687   4.402   4.673
 5781SOL    HW218243   6.598   4.281   4.739
 5782SOL     OW18244   1.335   1.591   0.349
 5782SOL    HW118245   1.313   1.498   0.321
 5782SOL    HW218246   1.253   1.637   0.382
 5783SOL     OW18247   0.994   0.795   2.568
 5783SOL    HW118248   1.056   0.724   2.534
 5783SOL    HW218249   1.020   0.883   2.529
 5784SOL     OW18250   0.774   6.508   6.471
 5784SOL    HW118251   0.742   6.422   6.513
 5784SOL    HW218252   0.748   6.509   6.375
 5785SOL     OW18253   1.732   2.020   6.926
 5785SOL    HW118254   1.666   1.955   6.889
 5785SOL    HW218255   1.763   1.988   7.016
 5786SOL     OW18256   6.992   4.348   0.598
 5786SOL    HW118257   6.894   4.325   0.599
 5786SOL    HW218258   0.026   4.272   0.638
 5787SOL     OW18259   2.227   2.081   5.333
 5787SOL    HW118260   2.242   2.035   5.245
 5787SOL    HW218261   2.312   2.082   5.385
 5788SOL     OW18262   2.809   1.417   2.571
 5788SOL    HW118263   2.817   1.482   2.496
 5788SOL    HW218264   2.899   1.405   2.614
 5789SOL     OW18265   3.543   4.342   6.793
 5789SOL    HW118266   3.491   4.409   6.739
 5789SOL    HW218267   3.551   4.374   6.887
 5790SOL     OW18268   1.810   3.822   3.992
 5790SOL    HW118269   1.822   3.724   4.009
 5790SOL    HW218270   1.890   3.856   3.941
 5791SOL     OW18271   4.108   0.510   1.750
 5791SOL    HW118272   4.161   0.531   1.668
 5791SOL    HW218273   4.011   0.528   1.733
 5792SOL     OW18274   6.539   2.559   2.707
 5792SOL    HW118275   6.631   2.537   2.675
 5792SOL    HW218276   6.544   2.633   2.775
 5793SOL     OW18277   5.178   0.734   3.654
 5793SOL    HW118278   5.183   0.830   3.682
 5793SOL    HW218279   5.202   0.726   3.558
 5794SOL     OW18280   3.876   1.996   0.707
 5794SOL    HW118281   3.787   2.016   0.665
 5794SOL    HW218282   3.949   2.034   0.650
 5795SOL     OW18283   6.515   5.061   6.437
 5795SOL    HW118284   6.559   4.971   6.432
 5795SOL    HW218285   6.505   5.088   6.533
 5796SOL     OW18286   3.756   0.686   6.752
 5796SOL    HW118287   3.824   0.722   6.689
 5796SOL    HW218288   3.802   0.647   6.832
 5797SOL     OW18289   4.219   1.864   5.427
 5797SOL    HW118290   4.283   1.793   5.457
 5797SOL    HW218291   4.164   1.894   5.505
 5798SOL     OW18292   0.705   4.607   5.227
 5798SOL    HW118293   0.713   4.621   5.129
 5798SOL    HW218294   0.794   4.621   5.270
 5799SOL     OW18295   5.397   1.463   3.530
 5799SOL    HW118296   5.311   1.420   3.503
 5799SOL    HW218297   5.413   1.543   3.472
 5800SOL     OW18298   5.769   6.034   0.895
 5800SOL    HW118299   5.766   6.098   0.971
 5800SOL    HW218300   5.757   5.941   0.929
 5801SOL     OW18301   1.334   2.396   4.367
 5801SOL    HW118302   1.274   2.459   4.319
 5801SOL    HW218303   1.428   2.408   4.336
 5802SOL     OW18304   0.971   4.310   0.919
 5802SOL    HW118305   0.928   4.250   0.986
 5802SOL    HW218306   1.041   4.260   0.869
 5803SOL     OW18307   1.078   4.211   2.148
 5803SOL    HW118308   1.117   4.206   2.056
 5803SOL    HW218309   1.024   4.129   2.166
 5804SOL     OW18310   6.714   4.896   4.045
 5804SOL    HW118311   6.704   4.890   3.946
 5804SOL    HW218312   6.745   4.989   4.070
 5805SOL     OW18313   2.854   3.317   6.170
 5805SOL    HW118314   2.774   3.376   6.165
 5805SOL    HW218315   2.831   3.226   6.135
 5806SOL     OW18316   6.973   6.281   5.611
 5806SOL    HW118317   7.011   6.256   5.700
 5806SOL    HW218318   0.030   6.306   5.549
 5807SOL     OW18319   1.387   3.639   1.809
 5807SOL    HW118320   1.293   3.620   1.781
 5807SOL    HW218321   1.428   3.705   1.746
 5808SOL     OW18322   6.238   4.211   3.876
 5808SOL    HW118323   6.315   4.152   3.898
 5808SOL    HW218324   6.174   4.212   3.952
 5809SOL     OW18325   0.076   2.257   4.844
 5809SOL    HW118326   7.016   2.267   4.907
 5809SOL    HW218327   0.141   2.192   4.882
 5810SOL     OW18328   3.512   1.279   4.139
 5810SOL    HW118329   3.551   1.234   4.059
 5810SOL    HW218330   3.466   1.212   4.197
 5811SOL     OW18331   2.694   0.099   5.504
 5811SOL    HW118332   2.648   0.012   5.518
 5811SOL    HW218333   2.778   0.102   5.558
 5812SOL     OW18334   5.929   0.929   4.099
 5812SOL    HW118335   5.948   0.942   4.002
 5812SOL    HW218336   6.006   0.881   4.142
 5813SOL     OW18337   1.263   1.286   0.593
 5813SOL    HW118338   1.209   1.218   0.642
 5813SOL    HW218339   1.342   1.243   0.551
 5814SOL     OW18340   6.461   4.828   1.117
 5814SOL    HW118341   6.430   4.870   1.031
 5814SOL    HW218342   6.381   4.811   1.175
 5815SOL     OW18343   4.658   2.774   3.861
 5815SOL    HW118344   4.729   2.704   3.851
 5815SOL    HW218345   4.697   2.857   3.901
 5816SOL     OW18346   4.701   5.501   7.010
 5816SOL    HW118347   4.677   5.523   0.087
 5816SOL    HW218348   4.677   5.577   6.951
 5817SOL     OW18349   5.270   3.494   5.821
 5817SOL    HW118350   5.253   3.546   5.904
 5817SOL    HW218351   5.345   3.537   5.770
 5818SOL     OW18352   6.360   6.367   4.935
 5818SOL    HW118353   6.279   6.324   4.976
 5818SOL    HW218354   6.339   6.391   4.839
 5819SOL     OW18355   4.454   0.323   6.322
 5819SOL    HW118356   4.493   0.415   6.317
 5819SOL    HW218357   4.404   0.314   6.409
 5820SOL     OW18358   4.324   6.087   3.748
 5820SOL    HW118359   4.261   6.153   3.789
 5820SOL    HW218360   4.313   5.998   3.792
 5821SOL     OW18361   0.427   0.051   2.538
 5821SOL    HW118362   0.478   0.025   2.621
 5821SOL    HW218363   0.444   0.147   2.517
 5822SOL     OW18364   0.065   2.713   2.603
 5822SOL    HW118365   0.153   2.685   2.566
 5822SOL    HW218366   0.043   2.657   2.683
 5823SOL     OW18367   0.656   0.999   6.092
 5823SOL    HW118368   0.755   1.015   6.098
 5823SOL    HW218369   0.639   0.900   6.091
 5824SOL     OW18370   6.838   5.610   2.550
 5824SOL    HW118371   6.929   5.586   2.516
 5824SOL    HW218372   6.827   5.709   2.547
 5825SOL     OW18373   2.485   2.094   5.438
 5825SOL    HW118374   2.543   2.161   5.392
 5825SOL    HW218375   2.508   2.002   5.406
 5826SOL     OW18376   6.910   4.992   5.210
 5826SOL    HW118377   7.009   5.004   5.212
 5826SOL    HW218378   6.888   4.907   5.162
 5827SOL     OW18379   2.348   4.982   4.833
 5827SOL    HW118380   2.364   4.896   4.881
 5827SOL    HW218381   2.282   4.967   4.759
 5828SOL     OW18382   6.718   3.052   1.627
 5828SOL    HW118383   6.794   3.078   1.567
 5828SOL    HW218384   6.705   2.953   1.624
 5829SOL     OW18385   2.553   1.539   3.077
 5829SOL    HW118386   2.516   1.595   3.003
 5829SOL    HW218387   2.652   1.544   3.077
 5830SOL     OW18388   4.656   0.044   5.728
 5830SOL    HW118389   4.679   0.117   5.664
 5830SOL    HW218390   4.571   7.017   5.699
 5831SOL     OW18391   7.004   0.308   4.074
 5831SOL    HW118392   6.922   0.251   4.067
 5831SOL    HW218393   0.025   0.324   3.983
 5832SOL     OW18394   3.731   4.591   5.686
 5832SOL    HW118395   3.663   4.663   5.676
 5832SOL    HW218396   3.699   4.508   5.640
 5833SOL     OW18397   4.061   3.139   5.186
 5833SOL    HW118398   3.986   3.090   5.143
 5833SOL    HW218399   4.097   3.208   5.123
 5834SOL     OW18400   5.972   2.626   0.429
 5834SOL    HW118401   5.969   2.719   0.393
 5834SOL    HW218402   5.954   2.629   0.528
 5835SOL     OW18403   4.911   3.790   3.333
 5835SOL    HW118404   4.846   3.863   3.355
 5835SOL    HW218405   4.903   3.766   3.237
 5836SOL     OW18406   2.788   6.642   2.809
 5836SOL    HW118407   2.716   6.619   2.875
 5836SOL    HW218408   2.772   6.593   2.724
 5837SOL     OW18409   4.346   5.143   5.819
 5837SOL    HW118410   4.429   5.187   5.853
 5837SOL    HW218411   4.364   5.102   5.730
 5838SOL     OW18412   2.842   1.057   5.674
 5838SOL    HW118413   2.751   1.088   5.644
 5838SOL    HW218414   2.834   1.013   5.763
 5839SOL     OW18415   0.130   2.044   2.610
 5839SOL    HW118416   0.042   2.090   2.619
 5839SOL    HW218417   0.172   2.068   2.522
 5840SOL     OW18418   1.310   5.280   6.985
 5840SOL    HW118419   1.262   5.193   7.000
 5840SOL    HW218420   1.282   5.318   6.896
 5841SOL     OW18421   5.300   1.749   2.793
 5841SOL    HW118422   5.242   1.818   2.748
 5841SOL    HW218423   5.385   1.740   2.741
 5842SOL     OW18424   4.602   2.938   1.388
 5842SOL    HW118425   4.573   3.007   1.322
 5842SOL    HW218426   4.688   2.897   1.356
 5843SOL     OW18427   2.196   3.900   2.236
 5843SOL    HW118428   2.266   3.889   2.307
 5843SOL    HW218429   2.131   3.825   2.241
 5844SOL     OW18430   0.912   6.485   5.828
 5844SOL    HW118431   0.815   6.510   5.829
 5844SOL    HW218432   0.937   6.452   5.737
 5845SOL     OW18433   0.592   0.306   2.811
 5845SOL    HW118434   0.661   0.298   2.883
 5845SOL    HW218435   0.630   0.360   2.735
 5846SOL     OW18436   6.180   3.252   3.941
 5846SOL    HW118437   6.172   3.309   4.023
 5846SOL    HW218438   6.183   3.156   3.967
 5847SOL     OW18439   1.949   2.058   2.335
 5847SOL    HW118440   2.023   2.044   2.268
 5847SOL    HW218441   1.920   2.153   2.333
 5848SOL     OW18442   2.444   5.127   3.044
 5848SOL    HW118443   2.447   5.038   3.090
 5848SOL    HW218444   2.356   5.139   2.999
 5849SOL     OW18445   0.000   0.482   6.822
 5849SOL    HW118446   6.938   0.500   6.764
 5849SOL    HW218447   0.015   0.383   6.829
 5850SOL     OW18448   0.757   3.841   1.813
 5850SOL    HW118449   0.845   3.868   1.774
 5850SOL    HW218450   0.695   3.816   1.739
 5851SOL     OW18451   4.883   3.054   2.861
 5851SOL    HW118452   4.977   3.057   2.826
 5851SOL    HW218453   4.883   3.079   2.958
 5852SOL     OW18454   4.681   6.829   3.339
 5852SOL    HW118455   4.667   6.762   3.266
 5852SOL    HW218456   4.759   6.887   3.316
 5853SOL     OW18457   3.096   5.549   4.302
 5853SOL    HW118458   3.087   5.451   4.316
 5853SOL    HW218459   3.164   5.586   4.365
 5854SOL     OW18460   6.018   4.412   5.641
 5854SOL    HW118461   6.025   4.469   5.723
 5854SOL    HW218462   5.921   4.393   5.622
 5855SOL     OW18463   0.333   0.422   4.891
 5855SOL    HW118464   0.306   0.364   4.968
 5855SOL    HW218465   0.410   0.479   4.919
 5856SOL     OW18466   1.921   6.363   3.870
 5856SOL    HW118467   1.941   6.274   3.829
 5856SOL    HW218468   1.959   6.366   3.962
 5857SOL     OW18469   5.878   2.954   5.291
 5857SOL    HW118470   5.893   2.889   5.366
 5857SOL    HW218471   5.873   3.047   5.329
 5858SOL     OW18472   2.601   2.364   2.059
 5858SOL    HW118473   2.554   2.277   2.045
 5858SOL    HW218474   2.696   2.357   2.028
 5859SOL     OW18475   5.645   6.961   1.428
 5859SOL    HW118476   5.639   6.895   1.502
 5859SOL    HW218477   5.738   6.999   1.424
 5860SOL     OW18478   1.767   3.317   1.867
 5860SOL    HW118479   1.772   3.415   1.886
 5860SOL    HW218480   1.857   3.284   1.839
 5861SOL     OW18481   4.851   1.785   4.410
 5861SOL    HW118482   4.817   1.712   4.351
 5861SOL    HW218483   4.854   1.752   4.505
 5862SOL     OW18484   5.125   4.999   3.399
 5862SOL    HW118485   5.204   5.005   3.459
 5862SOL    HW218486   5.085   4.907   3.405
 5863SOL     OW18487   2.807   0.915   4.517
 5863SOL    HW118488   2.868   0.840   4.543
 5863SOL    HW218489   2.825   0.994   4.575
 5864SOL     OW18490   3.917   3.541   1.960
 5864SOL    HW118491   3.919   3.513   1.864
 5864SOL    HW218492   3.958   3.469   2.017
 5865SOL     OW18493   5.929   0.160   4.573
 5865SOL    HW118494   6.012   0.190   4.526
 5865SOL    HW218495   5.948   0.150   4.671
 5866SOL     OW18496   4.422   5.778   6.620
 5866SOL    HW118497   4.461   5.707   6.678
 5866SOL    HW218498   4.489   5.805   6.551
 5867SOL     OW18499   0.247   3.885   1.090
 5867SOL    HW118500   0.312   3.854   1.020
 5867SOL    HW218501   0.161   3.835   1.080
 5868SOL     OW18502   0.269   0.658   5.785
 5868SOL    HW118503   0.238   0.650   5.690
 5868SOL    HW218504   0.218   0.731   5.830
 5869SOL     OW18505   2.818   5.597   3.176
 5869SOL    HW118506   2.795   5.588   3.079
 5869SOL    HW218507   2.752   5.658   3.221
 5870SOL     OW18508   4.802   5.674   4.515
 5870SOL    HW118509   4.816   5.757   4.460
 5870SOL    HW218510   4.889   5.648   4.557
 5871SOL     OW18511   4.260   3.140   0.255
 5871SOL    HW118512   4.257   3.088   0.171
 5871SOL    HW218513   4.316   3.092   0.323
 5872SOL     OW18514   3.862   5.075   6.817
 5872SOL    HW118515   3.921   5.132   6.761
 5872SOL    HW218516   3.912   4.994   6.847
 5873SOL     OW18517   2.174   2.612   0.903
 5873SOL    HW118518   2.224   2.605   0.989
 5873SOL    HW218519   2.141   2.521   0.876
 5874SOL     OW18520   2.880   3.048   0.989
 5874SOL    HW118521   2.802   3.017   1.042
 5874SOL    HW218522   2.960   3.055   1.049
 5875SOL     OW18523   3.558   1.169   1.389
 5875SOL    HW118524   3.508   1.256   1.385
 5875SOL    HW218525   3.556   1.134   1.483
 5876SOL     OW18526   2.648   3.037   0.215
 5876SOL    HW118527   2.705   2.996   0.286
 5876SOL    HW218528   2.707   3.069   0.140
 5877SOL     OW18529   6.862   0.031   1.171
 5877SOL    HW118530   6.829   7.013   1.083
 5877SOL    HW218531   6.790   0.023   1.240
 5878SOL     OW18532   5.179   4.982   3.111
 5878SOL    HW118533   5.155   4.993   3.208
 5878SOL    HW218534   5.177   4.885   3.087
 5879SOL     OW18535   2.486   3.649   6.280
 5879SOL    HW118536   2.431   3.697   6.211
 5879SOL    HW218537   2.453   3.672   6.371
 5880SOL     OW18538   4.601   4.270   6.717
 5880SOL    HW118539   4.562   4.362   6.725
 5880SOL    HW218540   4.561   4.224   6.638
 5881SOL     OW18541   1.534   0.304   2.315
 5881SOL    HW118542   1.437   0.298   2.336
 5881SOL    HW218543   1.547   0.322   2.218
 5882SOL     OW18544   0.876   6.198   5.882
 5882SOL    HW118545   0.872   6.217   5.980
 5882SOL    HW218546   0.882   6.284   5.831
 5883SOL     OW18547   0.446   1.383   0.550
 5883SOL    HW118548   0.540   1.395   0.582
 5883SOL    HW218549   0.447   1.358   0.453
 5884SOL     OW18550   6.055   1.201   4.995
 5884SOL    HW118551   5.972   1.237   4.952
 5884SOL    HW218552   6.096   1.272   5.054
 5885SOL     OW18553   1.192   5.536   1.195
 5885SOL    HW118554   1.142   5.586   1.266
 5885SOL    HW218555   1.288   5.528   1.223
 5886SOL     OW18556   0.948   2.950   3.454
 5886SOL    HW118557   0.972   2.854   3.470
 5886SOL    HW218558   0.849   2.961   3.462
 5887SOL     OW18559   2.756   1.872   1.785
 5887SOL    HW118560   2.776   1.789   1.836
 5887SOL    HW218561   2.819   1.945   1.813
 5888SOL     OW18562   2.452   0.114   1.203
 5888SOL    HW118563   2.447   0.031   1.148
 5888SOL    HW218564   2.418   0.192   1.150
 5889SOL     OW18565   6.514   1.173   0.417
 5889SOL    HW118566   6.569   1.241   0.368
 5889SOL    HW218567   6.512   1.196   0.514
 5890SOL     OW18568   1.840   6.533   2.839
 5890SOL    HW118569   1.800   6.473   2.770
 5890SOL    HW218570   1.783   6.615   2.848
 5891SOL     OW18571   2.077   3.970   0.252
 5891SOL    HW118572   2.097   3.937   0.160
 5891SOL    HW218573   1.984   4.006   0.255
 5892SOL     OW18574   0.304   5.008   1.983
 5892SOL    HW118575   0.342   5.096   2.010
 5892SOL    HW218576   0.374   4.955   1.934
 5893SOL     OW18577   1.628   4.656   1.396
 5893SOL    HW118578   1.719   4.619   1.412
 5893SOL    HW218579   1.635   4.744   1.348
 5894SOL     OW18580   0.856   5.651   4.952
 5894SOL    HW118581   0.952   5.630   4.974
 5894SOL    HW218582   0.834   5.744   4.982
 5895SOL     OW18583   6.465   3.570   3.676
 5895SOL    HW118584   6.467   3.669   3.687
 5895SOL    HW218585   6.487   3.547   3.581
 5896SOL     OW18586   5.190   0.938   1.237
 5896SOL    HW118587   5.210   0.841   1.228
 5896SOL    HW218588   5.099   0.957   1.202
 5897SOL     OW18589   3.823   1.381   1.864
 5897SOL    HW118590   3.866   1.466   1.895
 5897SOL    HW218591   3.746   1.403   1.804
 5898SOL     OW18592   2.248   1.212   5.469
 5898SOL    HW118593   2.275   1.162   5.552
 5898SOL    HW218594   2.281   1.306   5.475
 5899SOL     OW18595   6.955   5.642   6.103
 5899SOL    HW118596   6.930   5.716   6.166
 5899SOL    HW218597   6.886   5.571   6.106
 5900SOL     OW18598   6.596   5.215   3.712
 5900SOL    HW118599   6.681   5.235   3.760
 5900SOL    HW218600   6.527   5.185   3.777
 5901SOL     OW18601   1.621   1.472   0.517
 5901SOL    HW118602   1.648   1.561   0.554
 5901SOL    HW218603   1.521   1.464   0.519
 5902SOL     OW18604   5.621   3.401   5.465
 5902SOL    HW118605   5.714   3.435   5.448
 5902SOL    HW218606   5.619   3.302   5.452
 5903SOL     OW18607   5.529   2.993   6.744
 5903SOL    HW118608   5.528   2.904   6.791
 5903SOL    HW218609   5.603   2.994   6.677
 5904SOL     OW18610   1.173   4.094   0.794
 5904SOL    HW118611   1.239   4.145   0.739
 5904SOL    HW218612   1.221   4.021   0.842
 5905SOL     OW18613   5.479   1.252   3.738
 5905SOL    HW118614   5.423   1.308   3.676
 5905SOL    HW218615   5.515   1.174   3.688
 5906SOL     OW18616   5.315   1.925   5.066
 5906SOL    HW118617   5.220   1.936   5.094
 5906SOL    HW218618   5.326   1.839   5.015
 5907SOL     OW18619   1.547   6.886   0.419
 5907SOL    HW118620   1.499   6.798   0.426
 5907SOL    HW218621   1.643   6.873   0.444
 5908SOL     OW18622   5.449   3.968   0.209
 5908SOL    HW118623   5.405   3.894   0.158
 5908SOL    HW218624   5.401   3.982   0.295
 5909SOL     OW18625   0.835   4.603   6.216
 5909SOL    HW118626   0.775   4.639   6.143
 5909SOL    HW218627   0.856   4.507   6.197
 5910SOL     OW18628   1.213   4.814   0.200
 5910SOL    HW118629   1.166   4.855   0.278
 5910SOL    HW218630   1.294   4.764   0.231
 5911SOL     OW18631   0.555   5.712   5.947
 5911SOL    HW118632   0.567   5.672   6.038
 5911SOL    HW218633   0.489   5.657   5.895
 5912SOL     OW18634   6.272   3.356   6.739
 5912SOL    HW118635   6.364   3.334   6.708
 5912SOL    HW218636   6.217   3.272   6.744
 5913SOL     OW18637   1.956   2.964   5.652
 5913SOL    HW118638   2.039   2.926   5.613
 5913SOL    HW218639   1.880   2.900   5.639
 5914SOL     OW18640   2.979   5.641   0.014
 5914SOL    HW118641   3.044   5.705   6.990
 5914SOL    HW218642   2.888   5.656   6.993
 5915SOL     OW18643   5.493   3.475   2.200
 5915SOL    HW118644   5.403   3.447   2.234
 5915SOL    HW218645   5.539   3.397   2.159
 5916SOL     OW18646   4.098   0.402   5.638
 5916SOL    HW118647   4.139   0.337   5.701
 5916SOL    HW218648   4.000   0.408   5.654
 5917SOL     OW18649   3.611   3.591   3.459
 5917SOL    HW118650   3.590   3.533   3.537
 5917SOL    HW218651   3.632   3.684   3.491
 5918SOL     OW18652   2.111   3.657   4.744
 5918SOL    HW118653   2.012   3.677   4.749
 5918SOL    HW218654   2.147   3.646   4.836
 5919SOL     OW18655   3.133   1.882   6.619
 5919SOL    HW118656   3.117   1.791   6.656
 5919SOL    HW218657   3.175   1.875   6.528
 5920SOL     OW18658   3.859   6.851   0.264
 5920SOL    HW118659   3.836   6.828   0.169
 5920SOL    HW218660   3.810   6.934   0.291
 5921SOL     OW18661   3.591   5.064   5.584
 5921SOL    HW118662   3.588   5.055   5.684
 5921SOL    HW218663   3.674   5.021   5.549
 5922SOL     OW18664   6.215   4.915   3.576
 5922SOL    HW118665   6.260   4.985   3.631
 5922SOL    HW218666   6.227   4.935   3.479
 5923SOL     OW18667   6.374   1.120   2.859
 5923SOL    HW118668   6.467   1.092   2.832
 5923SOL    HW218669   6.355   1.085   2.951
 5924SOL     OW18670   6.100   2.879   5.081
 5924SOL    HW118671   6.054   2.860   4.994
 5924SOL    HW218672   6.033   2.881   5.155
 5925SOL     OW18673   4.397   6.772   2.976
 5925SOL    HW118674   4.433   6.853   3.022
 5925SOL    HW218675   4.297   6.776   2.974
 5926SOL     OW18676   3.288   5.107   1.703
 5926SOL    HW118677   3.349   5.038   1.742
 5926SOL    HW218678   3.278   5.092   1.605
 5927SOL     OW18679   2.141   4.397   2.290
 5927SOL    HW118680   2.232   4.422   2.256
 5927SOL    HW218681   2.105   4.321   2.236
 5928SOL     OW18682   2.786   0.419   2.887
 5928SOL    HW118683   2.781   0.453   2.981
 5928SOL    HW218684   2.879   0.431   2.852
 5929SOL     OW18685   0.624   6.250   6.020
 5929SOL    HW118686   0.547   6.291   5.971
 5929SOL    HW218687   0.614   6.151   6.020
 5930SOL     OW18688   6.241   1.643   3.665
 5930SOL    HW118689   6.327   1.694   3.658
 5930SOL    HW218690   6.203   1.630   3.573
 5931SOL     OW18691   5.379   4.816   2.526
 5931SOL    HW118692   5.367   4.737   2.586
 5931SOL    HW218693   5.474   4.820   2.496
 5932SOL     OW18694   2.566   6.529   0.805
 5932SOL    HW118695   2.502   6.474   0.752
 5932SOL    HW218696   2.535   6.534   0.900
 5933SOL     OW18697   6.686   5.082   2.310
 5933SOL    HW118698   6.660   5.005   2.252
 5933SOL    HW218699   6.698   5.050   2.404
 5934SOL     OW18700   3.223   3.776   3.664
 5934SOL    HW118701   3.245   3.786   3.567
 5934SOL    HW218702   3.281   3.838   3.718
 5935SOL     OW18703   3.963   3.099   4.562
 5935SOL    HW118704   3.988   3.067   4.653
 5935SOL    HW218705   4.004   3.189   4.546
 5936SOL     OW18706   4.433   3.439   6.673
 5936SOL    HW118707   4.430   3.356   6.617
 5936SOL    HW218708   4.374   3.426   6.753
 5937SOL     OW18709   0.543   4.212   1.830
 5937SOL    HW118710   0.482   4.274   1.880
 5937SOL    HW218711   0.616   4.265   1.786
 5938SOL     OW18712   1.232   5.250   4.002
 5938SOL    HW118713   1.196   5.343   4.012
 5938SOL    HW218714   1.250   5.212   4.093
 5939SOL     OW18715   3.054   0.474   3.243
 5939SOL    HW118716   2.989   0.401   3.226
 5939SOL    HW218717   3.110   0.489   3.162
 5940SOL     OW18718   4.124   6.751   2.312
 5940SOL    HW118719   4.135   6.807   2.394
 5940SOL    HW218720   4.211   6.746   2.264
 5941SOL     OW18721   6.175   4.590   2.087
 5941SOL    HW118722   6.153   4.502   2.130
 5941SOL    HW218723   6.205   4.574   1.993
 5942SOL     OW18724   4.893   2.490   6.768
 5942SOL    HW118725   4.988   2.492   6.797
 5942SOL    HW218726   4.860   2.584   6.755
 5943SOL     OW18727   3.194   5.651   0.265
 5943SOL    HW118728   3.099   5.623   0.255
 5943SOL    HW218729   3.220   5.648   0.362
 5944SOL     OW18730   5.828   1.624   1.601
 5944SOL    HW118731   5.868   1.714   1.620
 5944SOL    HW218732   5.790   1.586   1.685
 5945SOL     OW18733   0.115   5.415   5.503
 5945SOL    HW118734   0.128   5.509   5.471
 5945SOL    HW218735   0.056   5.366   5.438
 5946SOL     OW18736   3.375   3.364   5.744
 5946SOL    HW118737   3.414   3.279   5.709
 5946SOL    HW218738   3.371   3.360   5.844
 5947SOL     OW18739   3.953   2.952   1.942
 5947SOL    HW118740   3.997   3.022   1.885
 5947SOL    HW218741   4.024   2.903   1.994
 5948SOL     OW18742   4.185   5.249   3.091
 5948SOL    HW118743   4.136   5.215   3.011
 5948SOL    HW218744   4.210   5.345   3.077
 5949SOL     OW18745   3.941   3.686   1.014
 5949SOL    HW118746   4.017   3.694   0.949
 5949SOL    HW218747   3.865   3.742   0.983
 5950SOL     OW18748   5.091   3.331   5.210
 5950SOL    HW118749   5.172   3.378   5.174
 5950SOL    HW218750   5.120   3.261   5.276
 5951SOL     OW18751   0.636   6.377   4.911
 5951SOL    HW118752   0.557   6.437   4.923
 5951SOL    HW218753   0.632   6.303   4.979
 5952SOL     OW18754   6.026   6.587   3.989
 5952SOL    HW118755   6.086   6.523   4.036
 5952SOL    HW218756   5.947   6.537   3.952
 5953SOL     OW18757   6.906   2.911   5.795
 5953SOL    HW118758   6.871   3.002   5.770
 5953SOL    HW218759   7.001   2.903   5.764
 5954SOL     OW18760   0.151   4.552   5.660
 5954SOL    HW118761   0.073   4.615   5.650
 5954SOL    HW218762   0.125   4.461   5.628
 5955SOL     OW18763   6.349   5.937   2.325
 5955SOL    HW118764   6.313   6.028   2.346
 5955SOL    HW218765   6.442   5.928   2.360
 5956SOL     OW18766   3.270   1.818   0.683
 5956SOL    HW118767   3.234   1.768   0.604
 5956SOL    HW218768   3.238   1.913   0.679
 5957SOL     OW18769   4.798   7.014   5.984
 5957SOL    HW118770   4.755   7.015   5.894
 5957SOL    HW218771   4.788   0.087   6.026
 5958SOL     OW18772   5.655   6.734   3.055
 5958SOL    HW118773   5.670   6.730   2.956
 5958SOL    HW218774   5.715   6.803   3.096
 5959SOL     OW18775   3.323   1.718   5.782
 5959SOL    HW118776   3.304   1.714   5.880
 5959SOL    HW218777   3.291   1.805   5.745
 5960SOL     OW18778   3.438   6.729   4.287
 5960SOL    HW118779   3.366   6.796   4.267
 5960SOL    HW218780   3.434   6.705   4.385
 5961SOL     OW18781   4.530   1.197   3.891
 5961SOL    HW118782   4.536   1.168   3.987
 5961SOL    HW218783   4.472   1.132   3.841
 5962SOL     OW18784   5.268   6.034   2.183
 5962SOL    HW118785   5.209   6.104   2.142
 5962SOL    HW218786   5.218   5.986   2.255
 5963SOL     OW18787   3.793   3.044   4.353
 5963SOL    HW118788   3.840   3.052   4.266
 5963SOL    HW218789   3.858   3.063   4.427
 5964SOL     OW18790   0.432   5.245   6.018
 5964SOL    HW118791   0.501   5.299   5.970
 5964SOL    HW218792   0.429   5.273   6.114
 5965SOL     OW18793   1.959   1.859   5.780
 5965SOL    HW118794   1.880   1.918   5.794
 5965SOL    HW218795   2.021   1.867   5.858
 5966SOL     OW18796   2.689   5.179   5.996
 5966SOL    HW118797   2.596   5.170   6.029
 5966SOL    HW218798   2.711   5.276   5.984
 5967SOL     OW18799   4.306   6.187   2.183
 5967SOL    HW118800   4.276   6.173   2.088
 5967SOL    HW218801   4.240   6.145   2.245
 5968SOL     OW18802   6.060   1.785   3.188
 5968SOL    HW118803   6.036   1.881   3.204
 5968SOL    HW218804   6.108   1.776   3.101
 5969SOL     OW18805   6.381   1.773   5.399
 5969SOL    HW118806   6.443   1.788   5.322
 5969SOL    HW218807   6.351   1.861   5.436
 5970SOL     OW18808   0.270   4.921   2.543
 5970SOL    HW118809   0.238   4.835   2.582
 5970SOL    HW218810   0.363   4.909   2.508
 5971SOL     OW18811   2.345   0.199   3.151
 5971SOL    HW118812   2.353   0.256   3.233
 5971SOL    HW218813   2.426   0.213   3.094
 5972SOL     OW18814   4.421   6.232   0.659
 5972SOL    HW118815   4.432   6.241   0.560
 5972SOL    HW218816   4.384   6.317   0.696
 5973SOL     OW18817   2.016   5.195   2.846
 5973SOL    HW118818   2.031   5.196   2.944
 5973SOL    HW218819   1.961   5.115   2.821
 5974SOL     OW18820   5.570   4.007   6.165
 5974SOL    HW118821   5.652   4.057   6.139
 5974SOL    HW218822   5.521   4.058   6.237
 5975SOL     OW18823   3.625   2.067   0.623
 5975SOL    HW118824   3.589   2.111   0.541
 5975SOL    HW218825   3.574   2.100   0.703
 5976SOL     OW18826   2.871   3.564   5.284
 5976SOL    HW118827   2.798   3.511   5.326
 5976SOL    HW218828   2.849   3.661   5.288
 5977SOL     OW18829   1.741   4.794   1.771
 5977SOL    HW118830   1.757   4.889   1.796
 5977SOL    HW218831   1.820   4.760   1.719
 5978SOL     OW18832   5.450   5.071   3.075
 5978SOL    HW118833   5.435   5.168   3.057
 5978SOL    HW218834   5.363   5.027   3.097
 5979SOL     OW18835   6.814   0.701   3.033
 5979SOL    HW118836   6.907   0.702   2.998
 5979SOL    HW218837   6.753   0.658   2.966
 5980SOL     OW18838   3.579   3.750   6.567
 5980SOL    HW118839   3.606   3.673   6.509
 5980SOL    HW218840   3.492   3.787   6.534
 5981SOL     OW18841   6.578   1.852   2.045
 5981SOL    HW118842   6.659   1.812   2.000
 5981SOL    HW218843   6.549   1.792   2.120
 5982SOL     OW18844   6.195   1.800   6.551
 5982SOL    HW118845   6.220   1.783   6.646
 5982SOL    HW218846   6.112   1.857   6.548
 5983SOL     OW18847   2.657   1.699   4.490
 5983SOL    HW118848   2.755   1.714   4.492
 5983SOL    HW218849   2.613   1.748   4.565
 5984SOL     OW18850   0.192   0.046   4.515
 5984SOL    HW118851   0.276   0.075   4.470
 5984SOL    HW218852   0.115   0.101   4.481
 5985SOL     OW18853   5.442   3.060   4.628
 5985SOL    HW118854   5.376   3.020   4.564
 5985SOL    HW218855   5.509   2.990   4.653
 5986SOL     OW18856   3.055   3.208   4.638
 5986SOL    HW118857   3.115   3.133   4.611
 5986SOL    HW218858   3.017   3.189   4.729
 5987SOL     OW18859   4.301   1.564   5.211
 5987SOL    HW118860   4.381   1.624   5.211
 5987SOL    HW218861   4.251   1.576   5.297
 5988SOL     OW18862   4.663   5.768   4.992
 5988SOL    HW118863   4.654   5.718   4.906
 5988SOL    HW218864   4.586   5.831   5.002
 5989SOL     OW18865   2.499   6.293   6.573
 5989SOL    HW118866   2.460   6.342   6.651
 5989SOL    HW218867   2.461   6.329   6.488
 5990SOL     OW18868   3.647   4.071   0.653
 5990SOL    HW118869   3.720   4.130   0.687
 5990SOL    HW218870   3.687   3.985   0.620
 5991SOL     OW18871   4.485   4.616   5.224
 5991SOL    HW118872   4.417   4.674   5.270
 5991SOL    HW218873   4.459   4.604   5.128
 5992SOL     OW18874   3.788   0.651   3.866
 5992SOL    HW118875   3.829   0.602   3.943
 5992SOL    HW218876   3.751   0.585   3.801
 5993SOL     OW18877   3.772   6.815   5.926
 5993SOL    HW118878   3.801   6.721   5.945
 5993SOL    HW218879   3.752   6.862   6.011
 5994SOL     OW18880   6.331   2.306   1.657
 5994SOL    HW118881   6.412   2.296   1.713
 5994SOL    HW218882   6.265   2.366   1.703
 5995SOL     OW18883   6.621   5.459   1.813
 5995SOL    HW118884   6.562   5.381   1.797
 5995SOL    HW218885   6.634   5.510   1.728
 5996SOL     OW18886   0.714   5.609   6.967
 5996SOL    HW118887   0.797   5.568   6.928
 5996SOL    HW218888   0.738   5.690   0.003
 5997SOL     OW18889   0.862   6.337   2.762
 5997SOL    HW118890   0.886   6.429   2.731
 5997SOL    HW218891   0.787   6.342   2.827
 5998SOL     OW18892   5.569   2.886   2.320
 5998SOL    HW118893   5.631   2.821   2.363
 5998SOL    HW218894   5.566   2.870   2.222
 5999SOL     OW18895   0.945   2.202   2.723
 5999SOL    HW118896   0.956   2.292   2.766
 5999SOL    HW218897   0.944   2.131   2.793
 6000SOL     OW18898   4.306   5.758   1.737
 6000SOL    HW118899   4.244   5.752   1.660
 6000SOL    HW218900   4.257   5.738   1.822
 6001SOL     OW18901   0.650   4.170   6.331
 6001SOL    HW118902   0.670   4.225   6.249
 6001SOL    HW218903   0.572   4.110   6.312
 6002SOL     OW18904   0.408   6.429   1.608
 6002SOL    HW118905   0.390   6.511   1.553
 6002SOL    HW218906   0.390   6.449   1.704
 6003SOL     OW18907   6.064   2.566   4.682
 6003SOL    HW118908   6.034   2.638   4.745
 6003SOL    HW218909   5.987   2.537   4.625
 6004SOL     OW18910   0.093   4.401   3.363
 6004SOL    HW118911   0.163   4.337   3.332
 6004SOL    HW218912   0.024   4.351   3.416
 6005SOL     OW18913   4.080   5.150   4.734
 6005SOL    HW118914   4.048   5.221   4.796
 6005SOL    HW218915   4.033   5.157   4.646
 6006SOL     OW18916   3.761   6.632   6.894
 6006SOL    HW118917   3.676   6.585   6.871
 6006SOL    HW218918   3.742   6.709   6.955
 6007SOL     OW18919   4.948   3.166   3.732
 6007SOL    HW118920   4.951   3.206   3.824
 6007SOL    HW218921   4.994   3.078   3.732
 6008SOL     OW18922   2.503   5.484   6.323
 6008SOL    HW118923   2.534   5.578   6.311
 6008SOL    HW218924   2.435   5.480   6.396
 6009SOL     OW18925   3.196   1.299   4.520
 6009SOL    HW118926   3.164   1.328   4.430
 6009SOL    HW218927   3.295   1.303   4.523
 6010SOL     OW18928   2.440   4.588   1.887
 6010SOL    HW118929   2.478   4.561   1.976
 6010SOL    HW218930   2.446   4.511   1.823
 6011SOL     OW18931   5.065   2.478   2.136
 6011SOL    HW118932   5.014   2.423   2.070
 6011SOL    HW218933   5.059   2.575   2.110
 6012SOL     OW18934   6.829   2.073   0.377
 6012SOL    HW118935   6.814   2.154   0.434
 6012SOL    HW218936   6.915   2.029   0.404
 6013SOL     OW18937   5.035   1.647   3.177
 6013SOL    HW118938   4.955   1.639   3.236
 6013SOL    HW218939   5.037   1.569   3.113
 6014SOL     OW18940   4.798   1.298   0.543
 6014SOL    HW118941   4.842   1.386   0.522
 6014SOL    HW218942   4.842   1.257   0.623
 6015SOL     OW18943   5.904   2.431   5.714
 6015SOL    HW118944   5.808   2.439   5.744
 6015SOL    HW218945   5.948   2.521   5.721
 6016SOL     OW18946   0.582   1.600   6.642
 6016SOL    HW118947   0.661   1.658   6.623
 6016SOL    HW218948   0.540   1.628   6.728
 6017SOL     OW18949   6.328   4.988   2.621
 6017SOL    HW118950   6.342   5.069   2.679
 6017SOL    HW218951   6.246   5.001   2.565
 6018SOL     OW18952   3.746   2.824   0.293
 6018SOL    HW118953   3.724   2.765   0.215
 6018SOL    HW218954   3.825   2.881   0.269
 6019SOL     OW18955   4.864   1.880   4.010
 6019SOL    HW118956   4.871   1.964   4.063
 6019SOL    HW218957   4.814   1.811   4.063
 6020SOL     OW18958   1.706   6.351   2.279
 6020SOL    HW118959   1.704   6.350   2.179
 6020SOL    HW218960   1.708   6.445   2.312
 6021SOL     OW18961   4.156   6.922   2.511
 6021SOL    HW118962   4.234   6.888   2.564
 6021SOL    HW218963   4.079   6.939   2.572
 6022SOL     OW18964   4.311   0.703   4.862
 6022SOL    HW118965   4.290   0.682   4.767
 6022SOL    HW218966   4.253   0.778   4.894
 6023SOL     OW18967   5.666   1.319   2.956
 6023SOL    HW118968   5.681   1.417   2.968
 6023SOL    HW218969   5.740   1.268   2.999
 6024SOL     OW18970   0.306   4.582   2.913
 6024SOL    HW118971   0.400   4.568   2.943
 6024SOL    HW218972   0.266   4.658   2.964
 6025SOL     OW18973   4.139   0.533   2.261
 6025SOL    HW118974   4.078   0.521   2.339
 6025SOL    HW218975   4.141   0.449   2.207
 6026SOL     OW18976   0.453   4.209   4.124
 6026SOL    HW118977   0.468   4.230   4.220
 6026SOL    HW218978   0.504   4.273   4.067
 6027SOL     OW18979   1.910   3.975   5.347
 6027SOL    HW118980   1.942   3.891   5.391
 6027SOL    HW218981   1.983   4.015   5.293
 6028SOL     OW18982   1.141   3.932   0.246
 6028SOL    HW118983   1.127   3.835   0.225
 6028SOL    HW218984   1.218   3.941   0.310
 6029SOL     OW18985   2.028   6.590   6.737
 6029SOL    HW118986   2.081   6.620   6.657
 6029SOL    HW218987   2.058   6.498   6.763
 6030SOL     OW18988   2.661   0.048   3.319
 6030SOL    HW118989   2.714   0.125   3.354
 6030SOL    HW218990   2.706   0.009   3.239
 6031SOL     OW18991   4.412   5.220   4.419
 6031SOL    HW118992   4.381   5.143   4.476
 6031SOL    HW218993   4.484   5.188   4.357
 6032SOL     OW18994   1.753   3.468   2.241
 6032SOL    HW118995   1.839   3.490   2.195
 6032SOL    HW218996   1.720   3.380   2.209
 6033SOL     OW18997   2.320   2.750   2.773
 6033SOL    HW118998   2.406   2.702   2.791
 6033SOL    HW218999   2.249   2.716   2.835
 6034SOL     OW19000   2.009   5.373   4.478
 6034SOL    HW119001   2.090   5.315   4.464
 6034SOL    HW219002   2.001   5.437   4.402
 6035SOL     OW19003   6.338   1.641   4.078
 6035SOL    HW119004   6.406   1.663   4.148
 6035SOL    HW219005   6.248   1.671   4.109
 6036SOL     OW19006   0.118   6.651   4.533
 6036SOL    HW119007   0.111   6.719   4.460
 6036SOL    HW219008   0.126   6.697   4.621
 6037SOL     OW19009   4.871   5.102   6.384
 6037SOL    HW119010   4.815   5.094   6.467
 6037SOL    HW219011   4.900   5.197   6.373
 6038SOL     OW19012   1.232   3.262   6.084
 6038SOL    HW119013   1.282   3.333   6.035
 6038SOL    HW219014   1.233   3.178   6.030
 6039SOL     OW19015   3.078   3.069   3.395
 6039SOL    HW119016   3.047   3.078   3.490
 6039SOL    HW219017   3.173   3.039   3.395
 6040SOL     OW19018   0.586   2.017   5.961
 6040SOL    HW119019   0.563   2.102   6.008
 6040SOL    HW219020   0.669   1.978   6.002
 6041SOL     OW19021   1.730   1.640   6.246
 6041SOL    HW119022   1.747   1.545   6.220
 6041SOL    HW219023   1.798   1.698   6.202
 6042SOL     OW19024   5.722   5.146   2.012
 6042SOL    HW119025   5.633   5.169   2.051
 6042SOL    HW219026   5.790   5.139   2.085
 6043SOL     OW19027   1.100   5.208   5.071
 6043SOL    HW119028   1.001   5.217   5.082
 6043SOL    HW219029   1.119   5.131   5.011
 6044SOL     OW19030   0.561   1.954   0.955
 6044SOL    HW119031   0.600   1.948   1.047
 6044SOL    HW219032   0.519   1.866   0.930
 6045SOL     OW19033   5.798   5.442   1.130
 6045SOL    HW119034   5.815   5.529   1.178
 6045SOL    HW219035   5.802   5.458   1.031
 6046SOL     OW19036   2.717   2.027   0.782
 6046SOL    HW119037   2.679   2.089   0.714
 6046SOL    HW219038   2.644   1.997   0.844
 6047SOL     OW19039   6.317   1.863   3.411
 6047SOL    HW119040   6.293   1.770   3.382
 6047SOL    HW219041   6.386   1.860   3.482
 6048SOL     OW19042   4.588   6.619   3.175
 6048SOL    HW119043   4.491   6.597   3.188
 6048SOL    HW219044   4.598   6.678   3.094
 6049SOL     OW19045   5.282   3.731   6.438
 6049SOL    HW119046   5.254   3.806   6.497
 6049SOL    HW219047   5.201   3.689   6.397
 6050SOL     OW19048   3.726   3.803   5.997
 6050SOL    HW119049   3.641   3.750   5.988
 6050SOL    HW219050   3.793   3.771   5.930
 6051SOL     OW19051   2.527   1.883   3.477
 6051SOL    HW119052   2.481   1.958   3.430
 6051SOL    HW219053   2.518   1.799   3.424
 6052SOL     OW19054   6.657   6.755   0.555
 6052SOL    HW119055   6.720   6.682   0.528
 6052SOL    HW219056   6.611   6.729   0.640
 6053SOL     OW19057   3.763   0.421   6.615
 6053SOL    HW119058   3.721   0.506   6.648
 6053SOL    HW219059   3.813   0.378   6.690
 6054SOL     OW19060   2.288   4.125   0.759
 6054SOL    HW119061   2.281   4.053   0.828
 6054SOL    HW219062   2.384   4.149   0.745
 6055SOL     OW19063   5.790   0.468   6.307
 6055SOL    HW119064   5.748   0.548   6.263
 6055SOL    HW219065   5.748   0.385   6.272
 6056SOL     OW19066   5.087   2.301   4.746
 6056SOL    HW119067   5.131   2.323   4.659
 6056SOL    HW219068   5.105   2.205   4.770
 6057SOL     OW19069   4.892   2.258   4.445
 6057SOL    HW119070   4.794   2.275   4.457
 6057SOL    HW219071   4.909   2.160   4.441
 6058SOL     OW19072   5.337   2.441   3.017
 6058SOL    HW119073   5.428   2.482   3.029
 6058SOL    HW219074   5.272   2.484   3.078
 6059SOL     OW19075   4.684   5.074   5.943
 6059SOL    HW119076   4.744   5.048   6.018
 6059SOL    HW219077   4.731   5.059   5.856
 6060SOL     OW19078   3.192   3.828   5.480
 6060SOL    HW119079   3.246   3.833   5.564
 6060SOL    HW219080   3.107   3.778   5.498
 6061SOL     OW19081   3.962   2.494   0.555
 6061SOL    HW119082   3.990   2.581   0.514
 6061SOL    HW219083   4.018   2.477   0.636
 6062SOL     OW19084   2.383   1.414   4.669
 6062SOL    HW119085   2.309   1.402   4.735
 6062SOL    HW219086   2.463   1.362   4.699
 6063SOL     OW19087   4.351   1.831   6.573
 6063SOL    HW119088   4.434   1.795   6.614
 6063SOL    HW219089   4.276   1.765   6.584
 6064SOL     OW19090   2.441   5.612   2.975
 6064SOL    HW119091   2.496   5.533   3.003
 6064SOL    HW219092   2.413   5.601   2.880
 6065SOL     OW19093   5.688   6.875   1.720
 6065SOL    HW119094   5.602   6.879   1.771
 6065SOL    HW219095   5.700   6.783   1.682
 6066SOL     OW19096   4.216   1.386   0.670
 6066SOL    HW119097   4.262   1.302   0.642
 6066SOL    HW219098   4.284   1.458   0.686
 6067SOL     OW19099   6.031   1.547   6.491
 6067SOL    HW119100   6.099   1.621   6.498
 6067SOL    HW219101   5.940   1.587   6.482
 6068SOL     OW19102   6.125   3.804   4.570
 6068SOL    HW119103   6.168   3.721   4.537
 6068SOL    HW219104   6.025   3.792   4.572
 6069SOL     OW19105   0.213   3.591   5.875
 6069SOL    HW119106   0.252   3.506   5.910
 6069SOL    HW219107   0.148   3.570   5.801
 6070SOL     OW19108   3.009   1.527   5.925
 6070SOL    HW119109   3.037   1.599   5.861
 6070SOL    HW219110   3.085   1.463   5.938
 6071SOL     OW19111   4.858   5.974   5.641
 6071SOL    HW119112   4.920   5.933   5.574
 6071SOL    HW219113   4.857   5.918   5.724
 6072SOL     OW19114   1.000   1.039   2.463
 6072SOL    HW119115   0.958   1.126   2.488
 6072SOL    HW219116   1.099   1.046   2.473
 6073SOL     OW19117   6.535   3.610   0.473
 6073SOL    HW119118   6.491   3.526   0.443
 6073SOL    HW219119   6.527   3.620   0.572
 6074SOL     OW19120   1.162   6.829   4.548
 6074SOL    HW119121   1.092   6.861   4.613
 6074SOL    HW219122   1.164   6.889   4.469
 6075SOL     OW19123   7.014   2.200   6.068
 6075SOL    HW119124   0.060   2.266   6.029
 6075SOL    HW219125   6.920   2.232   6.056
 6076SOL     OW19126   2.337   6.967   5.069
 6076SOL    HW119127   2.320   0.006   4.989
 6076SOL    HW219128   2.428   6.925   5.062
 6077SOL     OW19129   5.246   5.651   2.391
 6077SOL    HW119130   5.332   5.601   2.390
 6077SOL    HW219131   5.175   5.594   2.433
 6078SOL     OW19132   3.631   4.876   2.481
 6078SOL    HW119133   3.726   4.847   2.483
 6078SOL    HW219134   3.572   4.800   2.509
 6079SOL     OW19135   3.017   3.301   6.395
 6079SOL    HW119136   3.071   3.385   6.407
 6079SOL    HW219137   2.961   3.309   6.313
 6080SOL     OW19138   6.857   1.472   1.273
 6080SOL    HW119139   6.845   1.391   1.330
 6080SOL    HW219140   6.860   1.445   1.177
 6081SOL     OW19141   6.704   3.450   4.567
 6081SOL    HW119142   6.721   3.416   4.474
 6081SOL    HW219143   6.655   3.537   4.562
 6082SOL     OW19144   3.756   0.901   3.049
 6082SOL    HW119145   3.775   0.844   3.129
 6082SOL    HW219146   3.743   0.995   3.078
 6083SOL     OW19147   1.251   5.566   6.189
 6083SOL    HW119148   1.200   5.651   6.171
 6083SOL    HW219149   1.303   5.541   6.107
 6084SOL     OW19150   0.009   5.649   3.907
 6084SOL    HW119151   6.960   5.646   3.982
 6084SOL    HW219152   6.993   5.710   3.835
 6085SOL     OW19153   0.026   4.018   0.448
 6085SOL    HW119154   6.975   3.998   0.378
 6085SOL    HW219155   0.102   3.953   0.440
 6086SOL     OW19156   3.334   1.476   5.201
 6086SOL    HW119157   3.404   1.415   5.163
 6086SOL    HW219158   3.328   1.558   5.145
 6087SOL     OW19159   5.036   7.014   0.102
 6087SOL    HW119160   5.066   0.092   0.103
 6087SOL    HW219161   4.995   6.991   0.191
 6088SOL     OW19162   0.041   6.336   4.339
 6088SOL    HW119163   0.137   6.340   4.309
 6088SOL    HW219164   7.008   6.411   4.297
 6089SOL     OW19165   0.153   3.952   1.483
 6089SOL    HW119166   0.066   3.993   1.514
 6089SOL    HW219167   0.210   4.023   1.442
 6090SOL     OW19168   1.196   6.066   6.311
 6090SOL    HW119169   1.253   6.036   6.234
 6090SOL    HW219170   1.100   6.064   6.283
 6091SOL     OW19171   0.904   1.531   2.289
 6091SOL    HW119172   0.980   1.581   2.331
 6091SOL    HW219173   0.930   1.501   2.197
 6092SOL     OW19174   2.834   0.264   3.412
 6092SOL    HW119175   2.856   0.238   3.318
 6092SOL    HW219176   2.918   0.265   3.467
 6093SOL     OW19177   1.498   2.630   2.189
 6093SOL    HW119178   1.505   2.729   2.202
 6093SOL    HW219179   1.406   2.607   2.157
 6094SOL     OW19180   2.573   1.081   1.108
 6094SOL    HW119181   2.539   1.169   1.073
 6094SOL    HW219182   2.503   1.040   1.167
 6095SOL     OW19183   4.649   2.538   6.898
 6095SOL    HW119184   4.669   2.636   6.904
 6095SOL    HW219185   4.689   2.500   6.815
 6096SOL     OW19186   5.687   0.771   4.123
 6096SOL    HW119187   5.618   0.823   4.072
 6096SOL    HW219188   5.768   0.828   4.137
 6097SOL     OW19189   1.964   0.097   2.922
 6097SOL    HW119190   1.924   0.007   2.937
 6097SOL    HW219191   1.903   0.168   2.957
 6098SOL     OW19192   1.677   1.946   5.668
 6098SOL    HW119193   1.738   2.025   5.678
 6098SOL    HW219194   1.629   1.930   5.754
 6099SOL     OW19195   5.758   5.821   5.893
 6099SOL    HW119196   5.812   5.784   5.818
 6099SOL    HW219197   5.816   5.832   5.974
 6100SOL     OW19198   6.185   3.233   6.399
 6100SOL    HW119199   6.103   3.190   6.437
 6100SOL    HW219200   6.266   3.190   6.438
 6101SOL     OW19201   6.529   1.697   5.727
 6101SOL    HW119202   6.463   1.706   5.653
 6101SOL    HW219203   6.583   1.614   5.714
 6102SOL     OW19204   3.696   1.010   4.625
 6102SOL    HW119205   3.703   1.045   4.531
 6102SOL    HW219206   3.787   0.981   4.656
 6103SOL     OW19207   6.969   0.887   4.006
 6103SOL    HW119208   6.919   0.854   3.926
 6103SOL    HW219209   0.010   0.814   4.042
 6104SOL     OW19210   6.671   1.846   6.335
 6104SOL    HW119211   6.712   1.839   6.244
 6104SOL    HW219212   6.573   1.862   6.326
 6105SOL     OW19213   3.336   6.394   5.683
 6105SOL    HW119214   3.401   6.406   5.758
 6105SOL    HW219215   3.358   6.309   5.634
 6106SOL     OW19216   2.266   4.570   6.420
 6106SOL    HW119217   2.167   4.558   6.413
 6106SOL    HW219218   2.312   4.493   6.377
 6107SOL     OW19219   2.677   5.530   4.295
 6107SOL    HW119220   2.722   5.480   4.220
 6107SOL    HW219221   2.695   5.484   4.382
 6108SOL     OW19222   0.474   2.050   3.000
 6108SOL    HW119223   0.453   2.142   3.034
 6108SOL    HW219224   0.393   2.011   2.956
 6109SOL     OW19225   5.287   2.716   6.945
 6109SOL    HW119226   5.232   2.797   6.924
 6109SOL    HW219227   5.320   2.721   0.021
 6110SOL     OW19228   2.633   2.700   6.678
 6110SOL    HW119229   2.547   2.749   6.662
 6110SOL    HW219230   2.613   2.603   6.695
 6111SOL     OW19231   1.188   5.062   2.420
 6111SOL    HW119232   1.260   4.993   2.429
 6111SOL    HW219233   1.113   5.024   2.366
 6112SOL     OW19234   2.314   2.204   3.096
 6112SOL    HW119235   2.354   2.254   3.172
 6112SOL    HW219236   2.298   2.265   3.019
 6113SOL     OW19237   0.321   0.963   6.381
 6113SOL    HW119238   0.411   0.977   6.422
 6113SOL    HW219239   0.255   1.023   6.425
 6114SOL     OW19240   5.080   5.630   1.114
 6114SOL    HW119241   5.026   5.549   1.135
 6114SOL    HW219242   5.154   5.639   1.181
 6115SOL     OW19243   5.175   5.650   3.180
 6115SOL    HW119244   5.102   5.639   3.113
 6115SOL    HW219245   5.152   5.599   3.263
 6116SOL     OW19246   2.572   1.285   1.519
 6116SOL    HW119247   2.658   1.335   1.533
 6116SOL    HW219248   2.517   1.333   1.450
 6117SOL     OW19249   0.036   0.230   5.284
 6117SOL    HW119250   0.106   0.286   5.239
 6117SOL    HW219251   0.075   0.141   5.307
 6118SOL     OW19252   0.069   1.843   1.355
 6118SOL    HW119253   0.052   1.905   1.278
 6118SOL    HW219254   0.090   1.896   1.437
 6119SOL     OW19255   0.311   4.565   4.497
 6119SOL    HW119256   0.384   4.502   4.471
 6119SOL    HW219257   0.281   4.546   4.591
 6120SOL     OW19258   3.232   6.728   3.904
 6120SOL    HW119259   3.271   6.807   3.950
 6120SOL    HW219260   3.144   6.752   3.864
 6121SOL     OW19261   6.758   2.715   4.903
 6121SOL    HW119262   6.694   2.791   4.908
 6121SOL    HW219263   6.852   2.750   4.906
 6122SOL     OW19264   3.515   6.782   2.079
 6122SOL    HW119265   3.478   6.700   2.124
 6122SOL    HW219266   3.457   6.807   2.003
 6123SOL     OW19267   6.956   0.855   1.192
 6123SOL    HW119268   6.960   0.844   1.093
 6123SOL    HW219269   0.028   0.885   1.226
 6124SOL     OW19270   3.330   6.550   5.202
 6124SOL    HW119271   3.296   6.550   5.109
 6124SOL    HW219272   3.324   6.642   5.240
 6125SOL     OW19273   2.398   5.584   1.399
 6125SOL    HW119274   2.376   5.558   1.493
 6125SOL    HW219275   2.368   5.678   1.383
 6126SOL     OW19276   5.154   5.943   3.857
 6126SOL    HW119277   5.231   5.982   3.808
 6126SOL    HW219278   5.087   6.015   3.877
 6127SOL     OW19279   2.296   0.070   1.410
 6127SOL    HW119280   2.206   0.038   1.380
 6127SOL    HW219281   2.345   0.110   1.333
 6128SOL     OW19282   6.564   2.906   0.345
 6128SOL    HW119283   6.648   2.900   0.399
 6128SOL    HW219284   6.528   2.814   0.328
 6129SOL     OW19285   6.293   4.065   3.029
 6129SOL    HW119286   6.298   4.164   3.025
 6129SOL    HW219287   6.341   4.032   3.110
 6130SOL     OW19288   6.752   3.062   4.686
 6130SOL    HW119289   6.770   3.156   4.715
 6130SOL    HW219290   6.800   2.999   4.746
 6131SOL     OW19291   6.973   1.624   5.399
 6131SOL    HW119292   6.936   1.591   5.312
 6131SOL    HW219293   6.948   1.560   5.472
 6132SOL     OW19294   3.371   0.650   0.623
 6132SOL    HW119295   3.395   0.684   0.531
 6132SOL    HW219296   3.416   0.708   0.691
 6133SOL     OW19297   0.291   2.701   2.875
 6133SOL    HW119298   0.329   2.723   2.965
 6133SOL    HW219299   0.329   2.763   2.807
 6134SOL     OW19300   4.289   3.164   6.309
 6134SOL    HW119301   4.196   3.193   6.285
 6134SOL    HW219302   4.307   3.074   6.271
 6135SOL     OW19303   5.879   7.011   2.207
 6135SOL    HW119304   5.917   6.971   2.124
 6135SOL    HW219305   5.931   0.074   2.233
 6136SOL     OW19306   0.834   1.301   2.457
 6136SOL    HW119307   0.839   1.392   2.416
 6136SOL    HW219308   0.872   1.304   2.549
 6137SOL     OW19309   3.860   1.192   5.664
 6137SOL    HW119310   3.777   1.225   5.709
 6137SOL    HW219311   3.913   1.136   5.729
 6138SOL     OW19312   3.512   6.793   2.491
 6138SOL    HW119313   3.588   6.854   2.468
 6138SOL    HW219314   3.532   6.701   2.457
 6139SOL     OW19315   2.067   3.389   4.734
 6139SOL    HW119316   2.101   3.483   4.741
 6139SOL    HW219317   2.105   3.334   4.808
 6140SOL     OW19318   0.575   6.712   1.870
 6140SOL    HW119319   0.520   6.757   1.941
 6140SOL    HW219320   0.592   6.617   1.897
 6141SOL     OW19321   6.272   6.253   4.491
 6141SOL    HW119322   6.194   6.194   4.513
 6141SOL    HW219323   6.280   6.324   4.560
 6142SOL     OW19324   0.310   5.276   0.496
 6142SOL    HW119325   0.252   5.195   0.498
 6142SOL    HW219326   0.302   5.325   0.583
 6143SOL     OW19327   5.669   4.332   6.861
 6143SOL    HW119328   5.633   4.285   6.941
 6143SOL    HW219329   5.688   4.428   6.883
 6144SOL     OW19330   6.531   4.651   2.555
 6144SOL    HW119331   6.533   4.615   2.462
 6144SOL    HW219332   6.624   4.657   2.591
 6145SOL     OW19333   4.575   5.947   3.644
 6145SOL    HW119334   4.531   5.977   3.559
 6145SOL    HW219335   4.505   5.924   3.711
 6146SOL     OW19336   4.296   0.932   3.539
 6146SOL    HW119337   4.236   0.940   3.460
 6146SOL    HW219338   4.370   0.869   3.519
 6147SOL     OW19339   1.537   4.873   3.362
 6147SOL    HW119340   1.515   4.798   3.423
 6147SOL    HW219341   1.636   4.887   3.359
 6148SOL     OW19342   0.182   6.820   4.094
 6148SOL    HW119343   0.105   6.884   4.100
 6148SOL    HW219344   0.161   6.749   4.027
 6149SOL     OW19345   3.549   5.383   2.870
 6149SOL    HW119346   3.632   5.432   2.845
 6149SOL    HW219347   3.546   5.295   2.823
 6150SOL     OW19348   4.240   4.985   6.709
 6150SOL    HW119349   4.310   4.942   6.766
 6150SOL    HW219350   4.271   5.076   6.682
 6151SOL     OW19351   6.545   3.681   4.574
 6151SOL    HW119352   6.476   3.729   4.629
 6151SOL    HW219353   6.515   3.677   4.479
 6152SOL     OW19354   4.888   4.492   5.881
 6152SOL    HW119355   4.827   4.546   5.822
 6152SOL    HW219356   4.981   4.528   5.873
 6153SOL     OW19357   4.657   3.966   1.676
 6153SOL    HW119358   4.712   3.912   1.612
 6153SOL    HW219359   4.564   3.932   1.678
 6154SOL     OW19360   5.121   1.181   1.834
 6154SOL    HW119361   5.072   1.217   1.913
 6154SOL    HW219362   5.218   1.205   1.842
 6155SOL     OW19363   1.550   2.988   4.020
 6155SOL    HW119364   1.527   2.897   3.985
 6155SOL    HW219365   1.631   2.983   4.078
 6156SOL     OW19366   4.588   5.200   2.254
 6156SOL    HW119367   4.628   5.253   2.179
 6156SOL    HW219368   4.599   5.251   2.339
 6157SOL     OW19369   1.128   2.089   3.551
 6157SOL    HW119370   1.111   2.186   3.536
 6157SOL    HW219371   1.176   2.051   3.472
 6158SOL     OW19372   4.812   0.576   6.685
 6158SOL    HW119373   4.877   0.531   6.624
 6158SOL    HW219374   4.719   0.552   6.657
 6159SOL     OW19375   4.768   1.244   0.009
 6159SOL    HW119376   4.678   1.277   6.997
 6159SOL    HW219377   4.793   1.289   0.095
 6160SOL     OW19378   5.867   5.896   0.587
 6160SOL    HW119379   5.833   5.812   0.629
 6160SOL    HW219380   5.798   5.934   0.526
 6161SOL     OW19381   5.955   2.323   6.247
 6161SOL    HW119382   5.908   2.387   6.186
 6161SOL    HW219383   6.045   2.300   6.208
 6162SOL     OW19384   0.978   5.152   4.714
 6162SOL    HW119385   0.966   5.244   4.751
 6162SOL    HW219386   1.048   5.153   4.643
 6163SOL     OW19387   5.781   5.379   0.840
 6163SOL    HW119388   5.695   5.347   0.878
 6163SOL    HW219389   5.774   5.384   0.740
 6164SOL     OW19390   2.007   2.860   1.745
 6164SOL    HW119391   1.953   2.777   1.735
 6164SOL    HW219392   2.063   2.873   1.662
 6165SOL     OW19393   3.991   5.990   7.001
 6165SOL    HW119394   4.037   5.918   6.949
 6165SOL    HW219395   3.951   6.056   6.937
 6166SOL     OW19396   3.481   1.131   5.439
 6166SOL    HW119397   3.488   1.091   5.530
 6166SOL    HW219398   3.410   1.201   5.439
 6167SOL     OW19399   0.563   4.927   2.377
 6167SOL    HW119400   0.627   5.001   2.357
 6167SOL    HW219401   0.516   4.900   2.293
 6168SOL     OW19402   0.428   3.752   0.926
 6168SOL    HW119403   0.527   3.767   0.924
 6168SOL    HW219404   0.410   3.654   0.939
 6169SOL     OW19405   1.438   2.903   1.681
 6169SOL    HW119406   1.404   2.992   1.712
 6169SOL    HW219407   1.519   2.916   1.625
 6170SOL     OW19408   0.463   3.065   5.107
 6170SOL    HW119409   0.461   2.965   5.107
 6170SOL    HW219410   0.444   3.099   5.199
 6171SOL     OW19411   0.151   1.452   0.549
 6171SOL    HW119412   0.079   1.403   0.599
 6171SOL    HW219413   0.240   1.416   0.575
 6172SOL     OW19414   0.591   2.452   2.777
 6172SOL    HW119415   0.567   2.548   2.787
 6172SOL    HW219416   0.685   2.444   2.744
 6173SOL     OW19417   6.527   5.675   2.950
 6173SOL    HW119418   6.597   5.649   2.883
 6173SOL    HW219419   6.570   5.703   3.035
 6174SOL     OW19420   5.020   5.283   3.274
 6174SOL    HW119421   5.074   5.353   3.320
 6174SOL    HW219422   5.071   5.197   3.271
 6175SOL     OW19423   3.413   0.762   4.909
 6175SOL    HW119424   3.471   0.843   4.912
 6175SOL    HW219425   3.470   0.680   4.899
 6176SOL     OW19426   4.458   3.552   5.313
 6176SOL    HW119427   4.548   3.535   5.273
 6176SOL    HW219428   4.400   3.600   5.247
 6177SOL     OW19429   5.238   2.188   1.637
 6177SOL    HW119430   5.190   2.108   1.673
 6177SOL    HW219431   5.330   2.161   1.608
 6178SOL     OW19432   4.948   3.739   1.817
 6178SOL    HW119433   4.854   3.754   1.789
 6178SOL    HW219434   4.950   3.680   1.897
 6179SOL     OW19435   6.896   4.584   1.582
 6179SOL    HW119436   6.825   4.598   1.513
 6179SOL    HW219437   6.974   4.538   1.540
 6180SOL     OW19438   3.035   4.802   0.885
 6180SOL    HW119439   2.998   4.851   0.965
 6180SOL    HW219440   3.026   4.703   0.900
 6181SOL     OW19441   5.160   5.797   6.084
 6181SOL    HW119442   5.185   5.749   6.000
 6181SOL    HW219443   5.087   5.863   6.064
 6182SOL     OW19444   4.359   2.447   0.243
 6182SOL    HW119445   4.368   2.542   0.272
 6182SOL    HW219446   4.375   2.440   0.145
 6183SOL     OW19447   1.744   2.167   1.508
 6183SOL    HW119448   1.708   2.238   1.448
 6183SOL    HW219449   1.824   2.125   1.466
 6184SOL     OW19450   2.309   0.551   6.111
 6184SOL    HW119451   2.236   0.483   6.117
 6184SOL    HW219452   2.279   0.636   6.154
 6185SOL     OW19453   2.656   4.035   5.765
 6185SOL    HW119454   2.720   4.105   5.798
 6185SOL    HW219455   2.624   3.980   5.842
 6186SOL     OW19456   6.965   1.804   1.865
 6186SOL    HW119457   6.907   1.847   1.796
 6186SOL    HW219458   6.907   1.773   1.941
 6187SOL     OW19459   4.815   2.690   4.891
 6187SOL    HW119460   4.785   2.602   4.855
 6187SOL    HW219461   4.890   2.725   4.836
 6188SOL     OW19462   1.442   1.491   5.143
 6188SOL    HW119463   1.405   1.560   5.080
 6188SOL    HW219464   1.506   1.432   5.094
 6189SOL     OW19465   3.984   5.576   2.411
 6189SOL    HW119466   3.988   5.542   2.504
 6189SOL    HW219467   4.065   5.545   2.361
 6190SOL     OW19468   6.514   3.777   5.783
 6190SOL    HW119469   6.581   3.839   5.825
 6190SOL    HW219470   6.424   3.822   5.781
 6191SOL     OW19471   2.157   2.865   5.517
 6191SOL    HW119472   2.158   2.776   5.472
 6191SOL    HW219473   2.246   2.909   5.507
 6192SOL     OW19474   2.065   1.738   6.235
 6192SOL    HW119475   2.119   1.801   6.289
 6192SOL    HW219476   2.122   1.661   6.206
 6193SOL     OW19477   5.139   5.498   0.568
 6193SOL    HW119478   5.131   5.435   0.492
 6193SOL    HW219479   5.203   5.571   0.544
 6194SOL     OW19480   6.794   0.976   6.801
 6194SOL    HW119481   6.730   1.051   6.788
 6194SOL    HW219482   6.744   0.894   6.830
 6195SOL     OW19483   5.507   6.921   4.814
 6195SOL    HW119484   5.499   6.834   4.765
 6195SOL    HW219485   5.505   6.903   4.912
 6196SOL     OW19486   5.745   4.617   3.070
 6196SOL    HW119487   5.703   4.592   3.158
 6196SOL    HW219488   5.680   4.673   3.018
 6197SOL     OW19489   2.302   5.241   2.814
 6197SOL    HW119490   2.205   5.230   2.837
 6197SOL    HW219491   2.322   5.338   2.801
 6198SOL     OW19492   5.828   6.053   6.609
 6198SOL    HW119493   5.927   6.052   6.628
 6198SOL    HW219494   5.786   6.132   6.655
 6199SOL     OW19495   0.748   0.862   0.620
 6199SOL    HW119496   0.706   0.909   0.542
 6199SOL    HW219497   0.779   0.771   0.591
 6200SOL     OW19498   1.257   1.065   2.498
 6200SOL    HW119499   1.262   1.057   2.597
 6200SOL    HW219500   1.295   1.153   2.469
 6201SOL     OW19501   0.430   4.671   4.129
 6201SOL    HW119502   0.487   4.693   4.050
 6201SOL    HW219503   0.483   4.617   4.194
 6202SOL     OW19504   6.212   1.837   2.969
 6202SOL    HW119505   6.306   1.864   2.991
 6202SOL    HW219506   6.163   1.916   2.932
 6203SOL     OW19507   6.516   5.709   1.885
 6203SOL    HW119508   6.580   5.635   1.865
 6203SOL    HW219509   6.470   5.690   1.972
 6204SOL     OW19510   1.077   6.169   4.897
 6204SOL    HW119511   1.064   6.267   4.887
 6204SOL    HW219512   1.057   6.123   4.811
 6205SOL     OW19513   4.612   4.889   1.880
 6205SOL    HW119514   4.678   4.909   1.952
 6205SOL    HW219515   4.609   4.790   1.865
 6206SOL     OW19516   4.711   2.038   3.743
 6206SOL    HW119517   4.632   2.043   3.804
 6206SOL    HW219518   4.689   2.084   3.657
 6207SOL     OW19519   1.635   6.225   4.149
 6207SOL    HW119520   1.646   6.127   4.134
 6207SOL    HW219521   1.627   6.272   4.061
 6208SOL     OW19522   3.734   2.347   6.213
 6208SOL    HW119523   3.790   2.382   6.288
 6208SOL    HW219524   3.770   2.260   6.182
 6209SOL     OW19525   3.477   4.050   1.054
 6209SOL    HW119526   3.500   4.077   0.961
 6209SOL    HW219527   3.558   4.013   1.099
 6210SOL     OW19528   5.306   3.750   3.146
 6210SOL    HW119529   5.241   3.711   3.082
 6210SOL    HW219530   5.392   3.699   3.141
 6211SOL     OW19531   4.714   5.341   5.719
 6211SOL    HW119532   4.617   5.363   5.733
 6211SOL    HW219533   4.737   5.258   5.769
 6212SOL     OW19534   2.598   4.887   4.645
 6212SOL    HW119535   2.539   4.943   4.703
 6212SOL    HW219536   2.602   4.794   4.683
 6213SOL     OW19537   4.855   6.459   0.537
 6213SOL    HW119538   4.947   6.469   0.575
 6213SOL    HW219539   4.838   6.532   0.472
 6214SOL     OW19540   5.498   5.473   5.493
 6214SOL    HW119541   5.458   5.399   5.548
 6214SOL    HW219542   5.472   5.461   5.397
 6215SOL     OW19543   5.079   3.144   6.618
 6215SOL    HW119544   5.150   3.077   6.593
 6215SOL    HW219545   5.026   3.108   6.695
 6216SOL     OW19546   5.938   3.136   3.223
 6216SOL    HW119547   6.001   3.060   3.236
 6216SOL    HW219548   5.932   3.159   3.125
 6217SOL     OW19549   0.411   4.575   2.145
 6217SOL    HW119550   0.423   4.659   2.198
 6217SOL    HW219551   0.440   4.497   2.200
 6218SOL     OW19552   4.927   5.792   0.125
 6218SOL    HW119553   4.910   5.720   0.191
 6218SOL    HW219554   4.846   5.851   0.119
 6219SOL     OW19555   1.703   0.528   5.330
 6219SOL    HW119556   1.718   0.454   5.264
 6219SOL    HW219557   1.720   0.616   5.286
 6220SOL     OW19558   3.413   0.585   0.153
 6220SOL    HW119559   3.460   0.549   0.073
 6220SOL    HW219560   3.334   0.640   0.124
 6221SOL     OW19561   6.693   6.197   6.488
 6221SOL    HW119562   6.705   6.098   6.502
 6221SOL    HW219563   6.743   6.224   6.406
 6222SOL     OW19564   5.708   1.438   2.287
 6222SOL    HW119565   5.804   1.411   2.291
 6222SOL    HW219566   5.652   1.358   2.268
 6223SOL     OW19567   0.514   5.490   3.911
 6223SOL    HW119568   0.570   5.524   3.988
 6223SOL    HW219569   0.417   5.506   3.931
 6224SOL     OW19570   4.364   0.950   6.075
 6224SOL    HW119571   4.366   1.050   6.087
 6224SOL    HW219572   4.300   0.928   6.001
 6225SOL     OW19573   4.084   1.249   6.434
 6225SOL    HW119574   3.996   1.272   6.392
 6225SOL    HW219575   4.086   1.151   6.455
 6226SOL     OW19576   1.447   1.490   3.821
 6226SOL    HW119577   1.495   1.523   3.902
 6226SOL    HW219578   1.375   1.554   3.796
 6227SOL     OW19579   3.156   4.481   5.325
 6227SOL    HW119580   3.066   4.485   5.280
 6227SOL    HW219581   3.196   4.573   5.326
 6228SOL     OW19582   1.731   2.210   3.779
 6228SOL    HW119583   1.675   2.290   3.761
 6228SOL    HW219584   1.731   2.189   3.877
 6229SOL     OW19585   7.013   3.280   4.668
 6229SOL    HW119586   7.000   3.264   4.570
 6229SOL    HW219587   6.923   3.294   4.711
 6230SOL     OW19588   0.278   1.595   2.912
 6230SOL    HW119589   0.268   1.680   2.860
 6230SOL    HW219590   0.229   1.522   2.866
 6231SOL     OW19591   5.650   4.265   0.346
 6231SOL    HW119592   5.716   4.320   0.295
 6231SOL    HW219593   5.683   4.252   0.440
 6232SOL     OW19594   5.921   0.558   0.566
 6232SOL    HW119595   5.983   0.486   0.535
 6232SOL    HW219596   5.843   0.564   0.504
 6233SOL     OW19597   0.487   3.478   1.931
 6233SOL    HW119598   0.483   3.489   1.832
 6233SOL    HW219599   0.499   3.381   1.954
 6234SOL     OW19600   0.001   6.869   4.362
 6234SOL    HW119601   6.935   6.879   4.308
 6234SOL    HW219602   0.045   6.958   4.373
 6235SOL     OW19603   0.082   0.635   2.141
 6235SOL    HW119604   0.101   0.589   2.228
 6235SOL    HW219605   0.054   0.567   2.073
 6236SOL     OW19606   0.753   3.805   0.318
 6236SOL    HW119607   0.721   3.710   0.307
 6236SOL    HW219608   0.772   3.844   0.229
 6237SOL     OW19609   3.813   6.908   0.594
 6237SOL    HW119610   3.815   6.858   0.508
 6237SOL    HW219611   3.720   6.909   0.630
 6238SOL     OW19612   3.373   6.299   3.331
 6238SOL    HW119613   3.297   6.238   3.310
 6238SOL    HW219614   3.364   6.383   3.278
 6239SOL     OW19615   3.733   7.000   2.351
 6239SOL    HW119616   3.780   6.998   2.440
 6239SOL    HW219617   3.712   0.077   2.327
 6240SOL     OW19618   3.051   3.841   4.878
 6240SOL    HW119619   2.995   3.762   4.851
 6240SOL    HW219620   3.116   3.863   4.805
 6241SOL     OW19621   3.982   6.999   3.646
 6241SOL    HW119622   3.917   6.924   3.632
 6241SOL    HW219623   4.075   6.962   3.649
 6242SOL     OW19624   2.573   2.053   2.748
 6242SOL    HW119625   2.574   2.119   2.673
 6242SOL    HW219626   2.551   1.962   2.712
 6243SOL     OW19627   6.313   0.485   6.231
 6243SOL    HW119628   6.333   0.580   6.254
 6243SOL    HW219629   6.337   0.468   6.135
 6244SOL     OW19630   4.669   4.214   2.683
 6244SOL    HW119631   4.639   4.144   2.617
 6244SOL    HW219632   4.707   4.169   2.764
 6245SOL     OW19633   0.601   4.629   2.435
 6245SOL    HW119634   0.518   4.611   2.488
 6245SOL    HW219635   0.611   4.727   2.420
 6246SOL     OW19636   1.366   0.108   4.519
 6246SOL    HW119637   1.306   0.073   4.447
 6246SOL    HW219638   1.367   0.043   4.595
 6247SOL     OW19639   6.833   5.230   3.805
 6247SOL    HW119640   6.915   5.178   3.828
 6247SOL    HW219641   6.825   5.308   3.867
 6248SOL     OW19642   4.385   3.168   6.563
 6248SOL    HW119643   4.361   3.159   6.467
 6248SOL    HW219644   4.315   3.125   6.620
 6249SOL     OW19645   6.944   3.106   1.446
 6249SOL    HW119646   6.956   3.181   1.510
 6249SOL    HW219647   6.892   3.138   1.366
 6250SOL     OW19648   0.040   0.008   0.729
 6250SOL    HW119649   0.114   0.075   0.722
 6250SOL    HW219650   0.030   6.978   0.641
 6251SOL     OW19651   3.341   6.880   4.604
 6251SOL    HW119652   3.259   6.823   4.594
 6251SOL    HW219653   3.317   6.964   4.653
 6252SOL     OW19654   2.808   5.318   6.802
 6252SOL    HW119655   2.850   5.233   6.832
 6252SOL    HW219656   2.720   5.330   6.848
 6253SOL     OW19657   3.282   4.927   4.521
 6253SOL    HW119658   3.219   4.917   4.444
 6253SOL    HW219659   3.231   4.957   4.602
 6254SOL     OW19660   0.381   5.670   1.122
 6254SOL    HW119661   0.423   5.693   1.210
 6254SOL    HW219662   0.451   5.638   1.059
 6255SOL     OW19663   2.064   2.103   1.121
 6255SOL    HW119664   2.004   2.133   1.047
 6255SOL    HW219665   2.096   2.183   1.172
 6256SOL     OW19666   5.084   5.939   2.362
 6256SOL    HW119667   5.093   5.896   2.452
 6256SOL    HW219668   4.997   5.989   2.358
 6257SOL     OW19669   4.125   3.676   0.800
 6257SOL    HW119670   4.102   3.718   0.712
 6257SOL    HW219671   4.150   3.580   0.786
 6258SOL     OW19672   4.007   0.031   6.107
 6258SOL    HW119673   4.055   6.971   6.064
 6258SOL    HW219674   4.072   0.083   6.163
 6259SOL     OW19675   1.857   6.866   5.657
 6259SOL    HW119676   1.819   6.779   5.688
 6259SOL    HW219677   1.885   6.859   5.561
 6260SOL     OW19678   1.516   0.556   0.562
 6260SOL    HW119679   1.449   0.543   0.489
 6260SOL    HW219680   1.582   0.626   0.533
 6261SOL     OW19681   4.751   0.091   1.548
 6261SOL    HW119682   4.788   0.074   1.640
 6261SOL    HW219683   4.827   0.103   1.484
 6262SOL     OW19684   6.757   6.143   2.723
 6262SOL    HW119685   6.696   6.192   2.786
 6262SOL    HW219686   6.726   6.049   2.712
 6263SOL     OW19687   6.923   6.531   4.168
 6263SOL    HW119688   6.969   6.620   4.177
 6263SOL    HW219689   6.851   6.538   4.099
 6264SOL     OW19690   0.422   0.085   1.268
 6264SOL    HW119691   0.467   0.029   1.198
 6264SOL    HW219692   0.411   0.031   1.351
 6265SOL     OW19693   3.620   3.117   0.853
 6265SOL    HW119694   3.521   3.106   0.862
 6265SOL    HW219695   3.656   3.163   0.935
 6266SOL     OW19696   3.566   5.812   3.057
 6266SOL    HW119697   3.535   5.717   3.055
 6266SOL    HW219698   3.541   5.857   2.972
 6267SOL     OW19699   1.321   5.997   5.357
 6267SOL    HW119700   1.311   6.043   5.269
 6267SOL    HW219701   1.356   6.062   5.425
 6268SOL     OW19702   3.861   0.576   1.691
 6268SOL    HW119703   3.782   0.577   1.752
 6268SOL    HW219704   3.845   0.512   1.617
 6269SOL     OW19705   5.518   6.164   1.544
 6269SOL    HW119706   5.545   6.234   1.610
 6269SOL    HW219707   5.570   6.176   1.459
 6270SOL     OW19708   1.053   6.452   0.320
 6270SOL    HW119709   1.106   6.489   0.244
 6270SOL    HW219710   1.093   6.365   0.350
 6271SOL     OW19711   5.985   2.905   0.075
 6271SOL    HW119712   5.979   2.810   0.043
 6271SOL    HW219713   5.976   2.967   7.014
 6272SOL     OW19714   6.789   0.529   6.687
 6272SOL    HW119715   6.791   0.587   6.605
 6272SOL    HW219716   6.725   0.568   6.754
 6273SOL     OW19717   0.252   6.804   2.352
 6273SOL    HW119718   0.327   6.773   2.410
 6273SOL    HW219719   0.265   6.901   2.332
 6274SOL     OW19720   3.254   6.601   4.931
 6274SOL    HW119721   3.226   6.505   4.940
 6274SOL    HW219722   3.176   6.655   4.898
 6275SOL     OW19723   2.526   6.204   0.501
 6275SOL    HW119724   2.556   6.124   0.553
 6275SOL    HW219725   2.602   6.242   0.449
 6276SOL     OW19726   3.234   5.709   3.118
 6276SOL    HW119727   3.304   5.648   3.155
 6276SOL    HW219728   3.254   5.729   3.022
 6277SOL     OW19729   5.081   1.955   1.712
 6277SOL    HW119730   5.166   1.921   1.754
 6277SOL    HW219731   5.011   1.965   1.782
 6278SOL     OW19732   3.375   0.092   5.755
 6278SOL    HW119733   3.393   7.014   5.734
 6278SOL    HW219734   3.439   0.123   5.826
 6279SOL     OW19735   3.132   5.487   0.920
 6279SOL    HW119736   3.210   5.426   0.908
 6279SOL    HW219737   3.083   5.496   0.834
 6280SOL     OW19738   6.334   1.765   6.807
 6280SOL    HW119739   6.304   1.699   6.876
 6280SOL    HW219740   6.407   1.822   6.845
 6281SOL     OW19741   6.268   3.839   4.173
 6281SOL    HW119742   6.175   3.838   4.209
 6281SOL    HW219743   6.327   3.894   4.233
 6282SOL     OW19744   0.118   3.996   5.735
 6282SOL    HW119745   0.048   3.945   5.686
 6282SOL    HW219746   0.188   4.027   5.670
 6283SOL     OW19747   0.833   5.927   5.364
 6283SOL    HW119748   0.905   5.972   5.417
 6283SOL    HW219749   0.857   5.930   5.266
 6284SOL     OW19750   1.634   4.491   6.903
 6284SOL    HW119751   1.536   4.514   6.907
 6284SOL    HW219752   1.662   4.483   6.808
 6285SOL     OW19753   1.882   3.805   3.090
 6285SOL    HW119754   1.912   3.747   3.015
 6285SOL    HW219755   1.784   3.824   3.081
 6286SOL     OW19756   0.378   3.577   4.762
 6286SOL    HW119757   0.410   3.488   4.793
 6286SOL    HW219758   0.287   3.594   4.799
 6287SOL     OW19759   4.291   4.459   5.514
 6287SOL    HW119760   4.202   4.493   5.484
 6287SOL    HW219761   4.294   4.455   5.613
 6288SOL     OW19762   4.062   3.588   6.798
 6288SOL    HW119763   3.992   3.556   6.734
 6288SOL    HW219764   4.030   3.671   6.844
 6289SOL     OW19765   2.356   4.218   6.740
 6289SOL    HW119766   2.386   4.300   6.692
 6289SOL    HW219767   2.434   4.176   6.786
 6290SOL     OW19768   6.371   5.187   6.240
 6290SOL    HW119769   6.420   5.155   6.321
 6290SOL    HW219770   6.434   5.238   6.181
 6291SOL     OW19771   3.336   3.495   3.028
 6291SOL    HW119772   3.313   3.401   3.051
 6291SOL    HW219773   3.336   3.506   2.928
 6292SOL     OW19774   2.106   2.528   4.485
 6292SOL    HW119775   2.100   2.587   4.404
 6292SOL    HW219776   2.192   2.546   4.533
 6293SOL     OW19777   5.146   1.179   0.286
 6293SOL    HW119778   5.201   1.107   0.244
 6293SOL    HW219779   5.194   1.216   0.365
 6294SOL     OW19780   3.528   0.769   3.972
 6294SOL    HW119781   3.613   0.784   3.923
 6294SOL    HW219782   3.480   0.857   3.983
 6295SOL     OW19783   5.241   4.921   4.645
 6295SOL    HW119784   5.203   4.857   4.712
 6295SOL    HW219785   5.219   4.890   4.553
 6296SOL     OW19786   0.591   3.546   6.008
 6296SOL    HW119787   0.510   3.495   6.036
 6296SOL    HW219788   0.671   3.486   6.015
 6297SOL     OW19789   6.164   0.200   4.349
 6297SOL    HW119790   6.185   0.108   4.316
 6297SOL    HW219791   6.147   0.260   4.271
 6298SOL     OW19792   5.569   4.175   0.025
 6298SOL    HW119793   5.476   4.143   0.044
 6298SOL    HW219794   5.623   4.173   0.109
 6299SOL     OW19795   5.156   2.399   2.799
 6299SOL    HW119796   5.231   2.429   2.858
 6299SOL    HW219797   5.142   2.467   2.726
 6300SOL     OW19798   4.357   1.295   6.395
 6300SOL    HW119799   4.379   1.256   6.306
 6300SOL    HW219800   4.259   1.285   6.412
 6301SOL     OW19801   3.292   6.305   6.641
 6301SOL    HW119802   3.192   6.294   6.639
 6301SOL    HW219803   3.322   6.356   6.561
 6302SOL     OW19804   2.443   1.458   5.576
 6302SOL    HW119805   2.458   1.456   5.477
 6302SOL    HW219806   2.518   1.508   5.620
 6303SOL     OW19807   1.151   6.241   5.454
 6303SOL    HW119808   1.082   6.169   5.462
 6303SOL    HW219809   1.230   6.218   5.510
 6304SOL     OW19810   4.186   0.841   3.258
 6304SOL    HW119811   4.189   0.846   3.158
 6304SOL    HW219812   4.113   0.778   3.286
 6305SOL     OW19813   6.578   5.697   5.541
 6305SOL    HW119814   6.674   5.723   5.528
 6305SOL    HW219815   6.519   5.772   5.514
 6306SOL     OW19816   0.837   4.096   3.865
 6306SOL    HW119817   0.914   4.034   3.858
 6306SOL    HW219818   0.862   4.175   3.921
 6307SOL     OW19819   4.006   3.830   4.048
 6307SOL    HW119820   3.911   3.820   4.080
 6307SOL    HW219821   4.055   3.892   4.109
 6308SOL     OW19822   0.206   2.283   5.637
 6308SOL    HW119823   0.135   2.309   5.703
 6308SOL    HW219824   0.168   2.288   5.545
 6309SOL     OW19825   0.925   6.801   4.314
 6309SOL    HW119826   0.985   6.813   4.235
 6309SOL    HW219827   0.852   6.737   4.291
 6310SOL     OW19828   1.648   6.917   3.352
 6310SOL    HW119829   1.708   6.873   3.285
 6310SOL    HW219830   1.567   6.952   3.305
 6311SOL     OW19831   5.203   0.961   6.518
 6311SOL    HW119832   5.182   0.987   6.612
 6311SOL    HW219833   5.301   0.974   6.501
 6312SOL     OW19834   2.883   6.728   6.708
 6312SOL    HW119835   2.813   6.688   6.650
 6312SOL    HW219836   2.925   6.657   6.765
 6313SOL     OW19837   5.220   6.359   3.371
 6313SOL    HW119838   5.157   6.343   3.295
 6313SOL    HW219839   5.168   6.375   3.455
 6314SOL     OW19840   2.884   0.236   1.588
 6314SOL    HW119841   2.952   0.196   1.527
 6314SOL    HW219842   2.929   0.295   1.654
 6315SOL     OW19843   1.801   2.497   4.142
 6315SOL    HW119844   1.834   2.495   4.047
 6315SOL    HW219845   1.860   2.557   4.196
 6316SOL     OW19846   4.801   1.971   5.469
 6316SOL    HW119847   4.799   1.871   5.474
 6316SOL    HW219848   4.895   2.002   5.455
 6317SOL     OW19849   5.102   4.552   2.310
 6317SOL    HW119850   5.183   4.607   2.286
 6317SOL    HW219851   5.132   4.470   2.358
 6318SOL     OW19852   6.430   0.199   6.710
 6318SOL    HW119853   6.514   0.232   6.665
 6318SOL    HW219854   6.359   0.269   6.704
 6319SOL     OW19855   5.510   2.775   5.002
 6319SOL    HW119856   5.414   2.772   4.974
 6319SOL    HW219857   5.526   2.710   5.076
 6320SOL     OW19858   0.506   1.098   3.901
 6320SOL    HW119859   0.476   1.082   3.994
 6320SOL    HW219860   0.587   1.157   3.901
 6321SOL     OW19861   5.289   2.367   0.573
 6321SOL    HW119862   5.362   2.321   0.523
 6321SOL    HW219863   5.226   2.299   0.610
 6322SOL     OW19864   2.110   1.280   0.543
 6322SOL    HW119865   2.050   1.315   0.615
 6322SOL    HW219866   2.199   1.257   0.583
 6323SOL     OW19867   2.892   2.735   1.095
 6323SOL    HW119868   2.958   2.697   1.031
 6323SOL    HW219869   2.800   2.706   1.070
 6324SOL     OW19870   4.657   1.300   0.984
 6324SOL    HW119871   4.588   1.362   0.946
 6324SOL    HW219872   4.623   1.261   1.069
 6325SOL     OW19873   1.496   2.299   2.255
 6325SOL    HW119874   1.507   2.345   2.167
 6325SOL    HW219875   1.573   2.324   2.314
 6326SOL     OW19876   4.623   4.793   5.927
 6326SOL    HW119877   4.637   4.892   5.935
 6326SOL    HW219878   4.694   4.754   5.868
 6327SOL     OW19879   0.351   1.992   3.723
 6327SOL    HW119880   0.377   2.035   3.636
 6327SOL    HW219881   0.255   2.009   3.741
 6328SOL     OW19882   4.726   3.414   5.965
 6328SOL    HW119883   4.735   3.353   5.886
 6328SOL    HW219884   4.673   3.367   6.036
 6329SOL     OW19885   1.036   2.694   5.127
 6329SOL    HW119886   1.055   2.664   5.033
 6329SOL    HW219887   1.057   2.620   5.191
 6330SOL     OW19888   6.184   1.259   3.148
 6330SOL    HW119889   6.146   1.168   3.133
 6330SOL    HW219890   6.111   1.327   3.144
 6331SOL     OW19891   6.642   2.976   4.466
 6331SOL    HW119892   6.544   2.960   4.476
 6331SOL    HW219893   6.677   3.023   4.546
 6332SOL     OW19894   1.661   1.725   1.508
 6332SOL    HW119895   1.633   1.656   1.574
 6332SOL    HW219896   1.691   1.680   1.424
 6333SOL     OW19897   4.837   6.704   0.435
 6333SOL    HW119898   4.933   6.706   0.409
 6333SOL    HW219899   4.797   6.794   0.422
 6334SOL     OW19900   2.745   1.754   2.090
 6334SOL    HW119901   2.826   1.807   2.112
 6334SOL    HW219902   2.726   1.688   2.162
 6335SOL     OW19903   5.318   0.654   1.019
 6335SOL    HW119904   5.310   0.559   1.047
 6335SOL    HW219905   5.231   0.701   1.030
 6336SOL     OW19906   0.114   4.661   5.913
 6336SOL    HW119907   0.174   4.739   5.925
 6336SOL    HW219908   0.130   4.619   5.824
 6337SOL     OW19909   4.305   5.865   4.836
 6337SOL    HW119910   4.382   5.897   4.890
 6337SOL    HW219911   4.313   5.766   4.821
 6338SOL     OW19912   3.140   2.034   4.214
 6338SOL    HW119913   3.206   1.963   4.190
 6338SOL    HW219914   3.134   2.101   4.140
 6339SOL     OW19915   0.821   3.925   2.404
 6339SOL    HW119916   0.730   3.907   2.442
 6339SOL    HW219917   0.888   3.865   2.447
 6340SOL     OW19918   2.504   3.920   1.394
 6340SOL    HW119919   2.550   3.914   1.483
 6340SOL    HW219920   2.410   3.950   1.407
 6341SOL     OW19921   1.425   4.301   3.626
 6341SOL    HW119922   1.454   4.346   3.541
 6341SOL    HW219923   1.343   4.246   3.608
 6342SOL     OW19924   1.820   0.921   2.042
 6342SOL    HW119925   1.782   0.943   2.132
 6342SOL    HW219926   1.913   0.958   2.036
 6343SOL     OW19927   3.489   6.273   0.151
 6343SOL    HW119928   3.445   6.190   0.118
 6343SOL    HW219929   3.442   6.353   0.113
 6344SOL     OW19930   5.810   2.572   3.879
 6344SOL    HW119931   5.841   2.481   3.851
 6344SOL    HW219932   5.858   2.641   3.825
 6345SOL     OW19933   4.959   3.314   1.908
 6345SOL    HW119934   4.880   3.295   1.850
 6345SOL    HW219935   4.950   3.406   1.947
 6346SOL     OW19936   0.485   4.201   5.643
 6346SOL    HW119937   0.458   4.256   5.564
 6346SOL    HW219938   0.574   4.233   5.677
 6347SOL     OW19939   2.755   2.342   2.334
 6347SOL    HW119940   2.807   2.427   2.344
 6347SOL    HW219941   2.714   2.339   2.243
 6348SOL     OW19942   0.183   1.726   5.717
 6348SOL    HW119943   0.135   1.641   5.741
 6348SOL    HW219944   0.279   1.706   5.700
 6349SOL     OW19945   1.276   0.289   0.040
 6349SOL    HW119946   1.299   0.246   6.970
 6349SOL    HW219947   1.186   0.257   0.069
 6350SOL     OW19948   0.924   4.792   2.452
 6350SOL    HW119949   0.998   4.729   2.427
 6350SOL    HW219950   0.907   4.787   2.550
 6351SOL     OW19951   6.548   3.821   3.161
 6351SOL    HW119952   6.474   3.798   3.225
 6351SOL    HW219953   6.632   3.836   3.212
 6352SOL     OW19954   2.564   0.797   4.111
 6352SOL    HW119955   2.585   0.721   4.173
 6352SOL    HW219956   2.515   0.762   4.031
 6353SOL     OW19957   2.750   5.702   6.903
 6353SOL    HW119958   2.678   5.645   6.863
 6353SOL    HW219959   2.712   5.791   6.929
 6354SOL     OW19960   4.915   5.257   2.810
 6354SOL    HW119961   4.830   5.257   2.757
 6354SOL    HW219962   4.901   5.204   2.894
 6355SOL     OW19963   2.458   4.766   0.371
 6355SOL    HW119964   2.420   4.796   0.459
 6355SOL    HW219965   2.517   4.837   0.334
 6356SOL     OW19966   5.158   4.944   6.690
 6356SOL    HW119967   5.093   4.868   6.690
 6356SOL    HW219968   5.109   5.029   6.710
 6357SOL     OW19969   5.861   2.252   1.282
 6357SOL    HW119970   5.799   2.183   1.244
 6357SOL    HW219971   5.948   2.250   1.232
 6358SOL     OW19972   0.798   1.656   6.354
 6358SOL    HW119973   0.789   1.634   6.256
 6358SOL    HW219974   0.759   1.581   6.408
 6359SOL     OW19975   5.909   6.672   0.939
 6359SOL    HW119976   5.887   6.592   0.882
 6359SOL    HW219977   5.989   6.652   0.994
 6360SOL     OW19978   6.891   2.739   3.932
 6360SOL    HW119979   6.871   2.832   3.901
 6360SOL    HW219980   6.866   2.674   3.860
 6361SOL     OW19981   0.089   0.783   0.149
 6361SOL    HW119982   0.048   0.819   0.233
 6361SOL    HW219983   0.087   0.854   0.078
 6362SOL     OW19984   1.079   5.829   6.397
 6362SOL    HW119985   1.070   5.800   6.301
 6362SOL    HW219986   1.136   5.911   6.400
 6363SOL     OW19987   2.655   4.933   3.678
 6363SOL    HW119988   2.597   4.998   3.727
 6363SOL    HW219989   2.708   4.981   3.608
 6364SOL     OW19990   2.545   2.520   4.767
 6364SOL    HW119991   2.491   2.460   4.826
 6364SOL    HW219992   2.611   2.570   4.821
 6365SOL     OW19993   6.236   5.747   4.548
 6365SOL    HW119994   6.152   5.778   4.594
 6365SOL    HW219995   6.223   5.750   4.449
 6366SOL     OW19996   5.884   6.552   5.000
 6366SOL    HW119997   5.804   6.540   4.941
 6366SOL    HW219998   5.855   6.554   5.095
 6367SOL     OW19999   3.067   2.093   2.926
 6367SOL    HW120000   2.981   2.138   2.901
 6367SOL    HW220001   3.120   2.074   2.843
 6368SOL     OW20002   4.625   4.386   3.792
 6368SOL    HW120003   4.651   4.315   3.726
 6368SOL    HW220004   4.653   4.357   3.884
 6369SOL     OW20005   3.051   6.140   5.900
 6369SOL    HW120006   3.144   6.141   5.938
 6369SOL    HW220007   3.056   6.126   5.801
 6370SOL     OW20008   5.188   3.879   3.400
 6370SOL    HW120009   5.135   3.818   3.459
 6370SOL    HW220010   5.222   3.827   3.321
 6371SOL     OW20011   5.317   3.989   1.886
 6371SOL    HW120012   5.238   4.017   1.832
 6371SOL    HW220013   5.382   3.940   1.828
 6372SOL     OW20014   0.148   1.334   2.869
 6372SOL    HW120015   0.132   1.288   2.956
 6372SOL    HW220016   0.103   1.283   2.796
 6373SOL     OW20017   5.547   4.371   1.464
 6373SOL    HW120018   5.479   4.432   1.506
 6373SOL    HW220019   5.580   4.306   1.533
 6374SOL     OW20020   4.933   2.970   0.136
 6374SOL    HW120021   4.948   2.935   0.044
 6374SOL    HW220022   5.010   2.943   0.194
 6375SOL     OW20023   0.073   2.682   2.322
 6375SOL    HW120024   0.117   2.761   2.280
 6375SOL    HW220025   7.011   2.712   2.375
 6376SOL     OW20026   4.669   0.750   5.482
 6376SOL    HW120027   4.620   0.837   5.477
 6376SOL    HW220028   4.765   0.763   5.458
 6377SOL     OW20029   6.819   0.604   0.069
 6377SOL    HW120030   6.832   0.508   0.046
 6377SOL    HW220031   6.890   0.659   0.025
 6378SOL     OW20032   5.108   5.797   2.600
 6378SOL    HW120033   5.143   5.773   2.691
 6378SOL    HW220034   5.127   5.722   2.536
 6379SOL     OW20035   2.242   5.514   6.184
 6379SOL    HW120036   2.339   5.503   6.165
 6379SOL    HW220037   2.205   5.429   6.222
 6380SOL     OW20038   0.461   3.432   5.023
 6380SOL    HW120039   0.531   3.467   5.085
 6380SOL    HW220040   0.479   3.337   5.001
 6381SOL     OW20041   4.112   3.119   0.544
 6381SOL    HW120042   4.080   3.053   0.612
 6381SOL    HW220043   4.212   3.116   0.539
 6382SOL     OW20044   2.613   1.614   1.431
 6382SOL    HW120045   2.675   1.573   1.498
 6382SOL    HW220046   2.622   1.713   1.433
 6383SOL     OW20047   1.960   2.890   2.794
 6383SOL    HW120048   2.046   2.940   2.789
 6383SOL    HW220049   1.889   2.949   2.831
 6384SOL     OW20050   6.124   2.456   1.768
 6384SOL    HW120051   6.061   2.426   1.841
 6384SOL    HW220052   6.103   2.551   1.744
 6385SOL     OW20053   0.144   3.555   1.104
 6385SOL    HW120054   0.049   3.580   1.085
 6385SOL    HW220055   0.177   3.605   1.184
 6386SOL     OW20056   2.024   3.782   0.602
 6386SOL    HW120057   1.990   3.837   0.678
 6386SOL    HW220058   2.091   3.834   0.550
 6387SOL     OW20059   6.152   0.911   0.077
 6387SOL    HW120060   6.055   0.917   0.052
 6387SOL    HW220061   6.205   0.976   0.023
 6388SOL     OW20062   6.620   5.182   2.832
 6388SOL    HW120063   6.687   5.113   2.859
 6388SOL    HW220064   6.659   5.241   2.761
 6389SOL     OW20065   1.645   6.859   0.083
 6389SOL    HW120066   1.605   6.802   0.154
 6389SOL    HW220067   1.637   6.813   7.012
 6390SOL     OW20068   5.722   0.605   0.371
 6390SOL    HW120069   5.724   0.681   0.306
 6390SOL    HW220070   5.659   0.535   0.339
 6391SOL     OW20071   0.953   1.054   5.463
 6391SOL    HW120072   1.052   1.056   5.453
 6391SOL    HW220073   0.913   1.136   5.421
 6392SOL     OW20074   3.685   5.688   3.475
 6392SOL    HW120075   3.744   5.635   3.415
 6392SOL    HW220076   3.668   5.636   3.559
 6393SOL     OW20077   5.474   6.851   1.891
 6393SOL    HW120078   5.502   6.796   1.969
 6393SOL    HW220079   5.410   6.798   1.834
 6394SOL     OW20080   0.878   4.574   0.996
 6394SOL    HW120081   0.933   4.498   0.963
 6394SOL    HW220082   0.897   4.656   0.941
 6395SOL     OW20083   0.286   3.894   3.018
 6395SOL    HW120084   0.330   3.922   3.103
 6395SOL    HW220085   0.356   3.877   2.948
 6396SOL     OW20086   6.483   3.411   0.206
 6396SOL    HW120087   6.418   3.346   0.168
 6396SOL    HW220088   6.528   3.461   0.131
 6397SOL     OW20089   6.221   2.432   2.995
 6397SOL    HW120090   6.272   2.370   2.935
 6397SOL    HW220091   6.281   2.507   3.024
 6398SOL     OW20092   1.135   6.138   1.389
 6398SOL    HW120093   1.126   6.106   1.483
 6398SOL    HW220094   1.083   6.079   1.327
 6399SOL     OW20095   2.056   6.939   6.506
 6399SOL    HW120096   2.067   6.937   6.406
 6399SOL    HW220097   2.144   6.923   6.549
 6400SOL     OW20098   1.456   6.058   3.245
 6400SOL    HW120099   1.491   5.983   3.189
 6400SOL    HW220100   1.444   6.139   3.187
 6401SOL     OW20101   4.433   5.046   2.803
 6401SOL    HW120102   4.369   4.986   2.852
 6401SOL    HW220103   4.505   4.991   2.762
 6402SOL     OW20104   1.917   4.434   3.829
 6402SOL    HW120105   1.861   4.478   3.899
 6402SOL    HW220106   2.010   4.471   3.832
 6403SOL     OW20107   5.523   6.225   5.017
 6403SOL    HW120108   5.552   6.275   5.098
 6403SOL    HW220109   5.601   6.215   4.954
 6404SOL     OW20110   3.746   1.121   2.515
 6404SOL    HW120111   3.775   1.028   2.538
 6404SOL    HW220112   3.741   1.177   2.598
 6405SOL     OW20113   5.368   1.199   3.232
 6405SOL    HW120114   5.428   1.276   3.209
 6405SOL    HW220115   5.306   1.182   3.155
 6406SOL     OW20116   1.139   2.779   2.564
 6406SOL    HW120117   1.170   2.860   2.613
 6406SOL    HW220118   1.192   2.699   2.593
 6407SOL     OW20119   2.145   6.467   3.591
 6407SOL    HW120120   2.078   6.504   3.527
 6407SOL    HW220121   2.142   6.367   3.588
 6408SOL     OW20122   6.753   0.602   0.858
 6408SOL    HW120123   6.758   0.681   0.796
 6408SOL    HW220124   6.669   0.608   0.912
 6409SOL     OW20125   6.459   4.982   4.117
 6409SOL    HW120126   6.554   4.994   4.090
 6409SOL    HW220127   6.429   5.061   4.171
 6410SOL     OW20128   2.596   1.167   5.556
 6410SOL    HW120129   2.585   1.264   5.534
 6410SOL    HW220130   2.512   1.132   5.597
 6411SOL     OW20131   0.222   3.298   2.098
 6411SOL    HW120132   0.253   3.387   2.129
 6411SOL    HW220133   0.234   3.290   1.999
 6412SOL     OW20134   3.271   0.606   6.446
 6412SOL    HW120135   3.177   0.574   6.439
 6412SOL    HW220136   3.283   0.687   6.388
 6413SOL     OW20137   4.258   4.767   4.489
 6413SOL    HW120138   4.173   4.790   4.441
 6413SOL    HW220139   4.304   4.692   4.442
 6414SOL     OW20140   0.765   0.001   0.049
 6414SOL    HW120141   0.826   0.044   6.999
 6414SOL    HW220142   0.712   0.072   0.095
 6415SOL     OW20143   1.505   3.464   2.979
 6415SOL    HW120144   1.477   3.508   3.064
 6415SOL    HW220145   1.587   3.509   2.943
 6416SOL     OW20146   3.030   6.941   6.623
 6416SOL    HW120147   3.115   6.902   6.588
 6416SOL    HW220148   2.975   6.869   6.666
 6417SOL     OW20149   4.855   2.026   0.896
 6417SOL    HW120150   4.779   2.001   0.836
 6417SOL    HW220151   4.833   2.001   0.990
 6418SOL     OW20152   4.312   4.794   1.484
 6418SOL    HW120153   4.218   4.764   1.467
 6418SOL    HW220154   4.319   4.829   1.578
 6419SOL     OW20155   1.107   6.445   6.689
 6419SOL    HW120156   1.032   6.511   6.683
 6419SOL    HW220157   1.084   6.374   6.755
 6420SOL     OW20158   1.560   3.314   4.064
 6420SOL    HW120159   1.520   3.385   4.005
 6420SOL    HW220160   1.486   3.260   4.105
 6421SOL     OW20161   5.438   0.102   1.543
 6421SOL    HW120162   5.482   0.190   1.528
 6421SOL    HW220163   5.504   0.029   1.524
 6422SOL     OW20164   0.260   2.672   5.445
 6422SOL    HW120165   0.176   2.633   5.484
 6422SOL    HW220166   0.248   2.770   5.432
 6423SOL     OW20167   3.018   5.717   4.515
 6423SOL    HW120168   3.000   5.645   4.449
 6423SOL    HW220169   3.065   5.679   4.594
 6424SOL     OW20170   0.210   3.087   4.821
 6424SOL    HW120171   0.121   3.104   4.779
 6424SOL    HW220172   0.197   3.056   4.915
 6425SOL     OW20173   6.851   5.619   3.185
 6425SOL    HW120174   6.768   5.563   3.188
 6425SOL    HW220175   6.931   5.559   3.182
 6426SOL     OW20176   4.498   4.507   4.758
 6426SOL    HW120177   4.495   4.606   4.746
 6426SOL    HW220178   4.468   4.483   4.851
 6427SOL     OW20179   3.351   3.752   3.080
 6427SOL    HW120180   3.354   3.655   3.057
 6427SOL    HW220181   3.262   3.790   3.054
 6428SOL     OW20182   4.960   2.366   0.338
 6428SOL    HW120183   4.926   2.273   0.346
 6428SOL    HW220184   4.989   2.398   0.428
 6429SOL     OW20185   1.804   0.673   4.992
 6429SOL    HW120186   1.792   0.740   4.919
 6429SOL    HW220187   1.774   0.583   4.961
 6430SOL     OW20188   0.129   0.847   5.254
 6430SOL    HW120189   0.120   0.755   5.293
 6430SOL    HW220190   0.148   0.840   5.156
 6431SOL     OW20191   4.967   5.730   3.005
 6431SOL    HW120192   4.952   5.812   2.950
 6431SOL    HW220193   4.886   5.713   3.061
 6432SOL     OW20194   3.347   3.859   6.508
 6432SOL    HW120195   3.296   3.939   6.478
 6432SOL    HW220196   3.325   3.840   6.604
 6433SOL     OW20197   3.142   5.826   6.924
 6433SOL    HW120198   3.079   5.880   6.868
 6433SOL    HW220199   3.236   5.853   6.903
 6434SOL     OW20200   3.109   6.162   6.270
 6434SOL    HW120201   3.068   6.249   6.243
 6434SOL    HW220202   3.048   6.116   6.335
 6435SOL     OW20203   5.555   6.955   7.005
 6435SOL    HW120204   5.607   0.016   0.021
 6435SOL    HW220205   5.516   6.976   6.915
 6436SOL     OW20206   1.077   4.306   3.742
 6436SOL    HW120207   1.130   4.373   3.794
 6436SOL    HW220208   0.996   4.350   3.704
 6437SOL     OW20209   0.828   1.307   5.348
 6437SOL    HW120210   0.743   1.355   5.368
 6437SOL    HW220211   0.906   1.368   5.364
 6438SOL     OW20212   0.525   5.551   6.769
 6438SOL    HW120213   0.602   5.584   6.823
 6438SOL    HW220214   0.479   5.477   6.818
 6439SOL     OW20215   6.344   1.035   4.174
 6439SOL    HW120216   6.440   1.061   4.164
 6439SOL    HW220217   6.288   1.089   4.112
 6440SOL     OW20218   2.219   0.341   6.325
 6440SOL    HW120219   2.125   0.307   6.331
 6440SOL    HW220220   2.271   0.283   6.262
 6441SOL     OW20221   0.303   0.364   3.645
 6441SOL    HW120222   0.388   0.321   3.676
 6441SOL    HW220223   0.324   0.454   3.607
 6442SOL     OW20224   2.296   2.021   5.081
 6442SOL    HW120225   2.270   1.991   4.989
 6442SOL    HW220226   2.375   2.082   5.075
 6443SOL     OW20227   3.949   1.923   0.949
 6443SOL    HW120228   4.048   1.910   0.947
 6443SOL    HW220229   3.918   1.959   0.861
 6444SOL     OW20230   6.883   2.350   5.401
 6444SOL    HW120231   6.942   2.270   5.389
 6444SOL    HW220232   6.798   2.322   5.446
 6445SOL     OW20233   3.356   3.375   3.609
 6445SOL    HW120234   3.433   3.314   3.592
 6445SOL    HW220235   3.311   3.398   3.523
 6446SOL     OW20236   1.695   1.905   6.342
 6446SOL    HW120237   1.775   1.954   6.307
 6446SOL    HW220238   1.685   1.818   6.294
 6447SOL     OW20239   6.507   4.467   1.284
 6447SOL    HW120240   6.458   4.490   1.199
 6447SOL    HW220241   6.440   4.444   1.355
 6448SOL     OW20242   4.558   5.340   1.817
 6448SOL    HW120243   4.618   5.296   1.751
 6448SOL    HW220244   4.540   5.434   1.788
 6449SOL     OW20245   2.439   5.911   1.310
 6449SOL    HW120246   2.414   5.988   1.368
 6449SOL    HW220247   2.537   5.892   1.319
 6450SOL     OW20248   0.643   4.103   1.134
 6450SOL    HW120249   0.592   4.116   1.049
 6450SOL    HW220250   0.591   4.046   1.196
 6451SOL     OW20251   3.788   1.875   6.985
 6451SOL    HW120252   3.809   1.905   0.061
 6451SOL    HW220253   3.861   1.815   6.953
 6452SOL     OW20254   5.482   3.495   3.152
 6452SOL    HW120255   5.416   3.438   3.103
 6452SOL    HW220256   5.560   3.515   3.093
 6453SOL     OW20257   3.514   0.314   0.951
 6453SOL    HW120258   3.429   0.363   0.935
 6453SOL    HW220259   3.571   0.365   1.017
 6454SOL     OW20260   6.800   2.013   2.758
 6454SOL    HW120261   6.786   2.001   2.856
 6454SOL    HW220262   6.802   1.924   2.713
 6455SOL     OW20263   6.748   4.600   3.161
 6455SOL    HW120264   6.805   4.682   3.155
 6455SOL    HW220265   6.678   4.613   3.231
 6456SOL     OW20266   0.374   1.214   2.642
 6456SOL    HW120267   0.331   1.129   2.671
 6456SOL    HW220268   0.472   1.198   2.627
 6457SOL     OW20269   5.018   6.886   1.557
 6457SOL    HW120270   4.954   6.817   1.589
 6457SOL    HW220271   5.092   6.897   1.624
 6458SOL     OW20272   1.178   4.897   4.496
 6458SOL    HW120273   1.183   4.862   4.589
 6458SOL    HW220274   1.098   4.858   4.449
 6459SOL     OW20275   5.712   2.711   3.265
 6459SOL    HW120276   5.770   2.739   3.342
 6459SOL    HW220277   5.638   2.777   3.254
 6460SOL     OW20278   6.607   5.633   5.148
 6460SOL    HW120279   6.528   5.693   5.159
 6460SOL    HW220280   6.596   5.579   5.064
 6461SOL     OW20281   3.087   4.522   0.959
 6461SOL    HW120282   3.044   4.468   1.032
 6461SOL    HW220283   3.183   4.537   0.982
 6462SOL     OW20284   1.889   3.658   4.445
 6462SOL    HW120285   1.815   3.609   4.397
 6462SOL    HW220286   1.882   3.756   4.425
 6463SOL     OW20287   5.071   0.764   1.042
 6463SOL    HW120288   5.019   0.679   1.051
 6463SOL    HW220289   5.012   0.841   1.065
 6464SOL     OW20290   0.942   6.295   4.664
 6464SOL    HW120291   0.946   6.195   4.660
 6464SOL    HW220292   0.989   6.333   4.585
 6465SOL     OW20293   5.706   2.738   2.122
 6465SOL    HW120294   5.799   2.707   2.142
 6465SOL    HW220295   5.641   2.663   2.138
 6466SOL     OW20296   6.943   3.223   6.250
 6466SOL    HW120297   0.004   3.284   6.258
 6466SOL    HW220298   6.860   3.274   6.272
 6467SOL     OW20299   3.150   0.905   0.637
 6467SOL    HW120300   3.235   0.899   0.584
 6467SOL    HW220301   3.072   0.894   0.575
 6468SOL     OW20302   3.702   6.556   0.329
 6468SOL    HW120303   3.790   6.603   0.320
 6468SOL    HW220304   3.715   6.458   0.313
 6469SOL     OW20305   3.114   2.122   3.694
 6469SOL    HW120306   3.017   2.096   3.692
 6469SOL    HW220307   3.141   2.157   3.605
 6470SOL     OW20308   6.846   2.443   0.191
 6470SOL    HW120309   6.896   2.454   0.105
 6470SOL    HW220310   6.754   2.481   0.180
 6471SOL     OW20311   0.234   6.476   4.837
 6471SOL    HW120312   0.227   6.381   4.808
 6471SOL    HW220313   0.170   6.493   4.913
 6472SOL     OW20314   6.949   6.504   2.662
 6472SOL    HW120315   6.942   6.484   2.565
 6472SOL    HW220316   6.857   6.515   2.701
 6473SOL     OW20317   1.807   1.452   4.256
 6473SOL    HW120318   1.854   1.366   4.274
 6473SOL    HW220319   1.875   1.524   4.241
 6474SOL     OW20320   4.258   4.746   5.349
 6474SOL    HW120321   4.251   4.845   5.336
 6474SOL    HW220322   4.167   4.708   5.366
 6475SOL     OW20323   5.679   5.279   3.329
 6475SOL    HW120324   5.643   5.339   3.258
 6475SOL    HW220325   5.728   5.202   3.287
 6476SOL     OW20326   3.911   2.356   6.842
 6476SOL    HW120327   3.940   2.451   6.853
 6476SOL    HW220328   3.898   2.313   6.931
 6477SOL     OW20329   0.055   5.833   1.126
 6477SOL    HW120330   0.105   5.829   1.040
 6477SOL    HW220331   0.010   5.922   1.135
 6478SOL     OW20332   2.640   6.092   1.621
 6478SOL    HW120333   2.660   6.011   1.567
 6478SOL    HW220334   2.545   6.121   1.603
 6479SOL     OW20335   3.499   6.024   3.783
 6479SOL    HW120336   3.464   6.075   3.861
 6479SOL    HW220337   3.581   6.069   3.747
 6480SOL     OW20338   2.458   0.897   6.302
 6480SOL    HW120339   2.516   0.970   6.266
 6480SOL    HW220340   2.397   0.864   6.230
 6481SOL     OW20341   3.040   2.273   1.694
 6481SOL    HW120342   3.001   2.334   1.763
 6481SOL    HW220343   3.103   2.209   1.737
 6482SOL     OW20344   6.797   2.649   5.714
 6482SOL    HW120345   6.699   2.630   5.717
 6482SOL    HW220346   6.814   2.741   5.750
 6483SOL     OW20347   1.192   5.722   4.349
 6483SOL    HW120348   1.271   5.683   4.303
 6483SOL    HW220349   1.117   5.732   4.284
 6484SOL     OW20350   3.052   1.358   3.033
 6484SOL    HW120351   3.144   1.398   3.035
 6484SOL    HW220352   3.038   1.302   3.114
 6485SOL     OW20353   2.468   6.598   4.879
 6485SOL    HW120354   2.474   6.502   4.850
 6485SOL    HW220355   2.395   6.643   4.829
 6486SOL     OW20356   0.939   4.833   2.756
 6486SOL    HW120357   0.896   4.810   2.843
 6486SOL    HW220358   0.990   4.918   2.765
 6487SOL     OW20359   1.178   5.240   4.528
 6487SOL    HW120360   1.223   5.161   4.569
 6487SOL    HW220361   1.246   5.302   4.490
 6488SOL     OW20362   4.788   5.211   4.349
 6488SOL    HW120363   4.879   5.209   4.391
 6488SOL    HW220364   4.755   5.305   4.345
 6489SOL     OW20365   3.804   3.002   6.571
 6489SOL    HW120366   3.867   2.924   6.575
 6489SOL    HW220367   3.773   3.015   6.477
 6490SOL     OW20368   1.563   1.568   6.474
 6490SOL    HW120369   1.604   1.596   6.561
 6490SOL    HW220370   1.622   1.596   6.399
 6491SOL     OW20371   1.941   0.325   0.993
 6491SOL    HW120372   1.846   0.305   1.016
 6491SOL    HW220373   1.949   0.342   0.895
 6492SOL     OW20374   3.348   4.094   4.318
 6492SOL    HW120375   3.372   4.136   4.406
 6492SOL    HW220376   3.427   4.095   4.258
 6493SOL     OW20377   1.798   4.539   6.276
 6493SOL    HW120378   1.769   4.634   6.279
 6493SOL    HW220379   1.732   4.485   6.223
 6494SOL     OW20380   5.903   6.500   2.386
 6494SOL    HW120381   5.834   6.478   2.456
 6494SOL    HW220382   5.951   6.416   2.360
 6495SOL     OW20383   6.555   0.101   4.543
 6495SOL    HW120384   6.524   0.040   4.470
 6495SOL    HW220385   6.625   0.054   4.598
 6496SOL     OW20386   4.841   6.403   1.822
 6496SOL    HW120387   4.900   6.447   1.890
 6496SOL    HW220388   4.808   6.316   1.859
 6497SOL     OW20389   0.314   1.424   1.201
 6497SOL    HW120390   0.314   1.513   1.247
 6497SOL    HW220391   0.258   1.360   1.253
 6498SOL     OW20392   0.930   4.616   4.493
 6498SOL    HW120393   1.016   4.617   4.442
 6498SOL    HW220394   0.948   4.587   4.588
 6499SOL     OW20395   5.525   4.063   4.105
 6499SOL    HW120396   5.535   4.143   4.165
 6499SOL    HW220397   5.589   4.071   4.028
 6500SOL     OW20398   0.667   3.694   2.018
 6500SOL    HW120399   0.706   3.752   1.946
 6500SOL    HW220400   0.618   3.618   1.975
 6501SOL     OW20401   6.877   1.567   0.725
 6501SOL    HW120402   6.894   1.662   0.701
 6501SOL    HW220403   6.826   1.522   0.653
 6502SOL     OW20404   6.216   3.568   1.407
 6502SOL    HW120405   6.243   3.530   1.319
 6502SOL    HW220406   6.298   3.597   1.457
 6503SOL     OW20407   6.469   2.535   6.019
 6503SOL    HW120408   6.553   2.498   5.979
 6503SOL    HW220409   6.393   2.523   5.955
 6504SOL     OW20410   4.906   6.526   6.281
 6504SOL    HW120411   4.962   6.592   6.331
 6504SOL    HW220412   4.809   6.549   6.293
 6505SOL     OW20413   5.974   6.113   0.269
 6505SOL    HW120414   5.939   6.161   0.189
 6505SOL    HW220415   5.913   6.130   0.347
 6506SOL     OW20416   0.007   3.353   3.602
 6506SOL    HW120417   0.089   3.351   3.546
 6506SOL    HW220418   6.954   3.297   3.560
 6507SOL     OW20419   3.550   5.722   6.458
 6507SOL    HW120420   3.575   5.625   6.462
 6507SOL    HW220421   3.530   5.755   6.550
 6508SOL     OW20422   1.258   6.897   2.074
 6508SOL    HW120423   1.159   6.907   2.068
 6508SOL    HW220424   1.287   6.820   2.017
 6509SOL     OW20425   3.905   1.527   5.306
 6509SOL    HW120426   3.919   1.585   5.387
 6509SOL    HW220427   3.939   1.435   5.325
 6510SOL     OW20428   4.436   5.845   5.724
 6510SOL    HW120429   4.454   5.817   5.819
 6510SOL    HW220430   4.482   5.782   5.662
 6511SOL     OW20431   4.347   1.337   5.688
 6511SOL    HW120432   4.407   1.359   5.765
 6511SOL    HW220433   4.252   1.351   5.715
 6512SOL     OW20434   2.976   0.164   2.359
 6512SOL    HW120435   3.047   0.169   2.289
 6512SOL    HW220436   2.913   0.241   2.349
 6513SOL     OW20437   2.865   5.862   4.736
 6513SOL    HW120438   2.946   5.888   4.684
 6513SOL    HW220439   2.831   5.774   4.704
 6514SOL     OW20440   6.034   0.533   5.578
 6514SOL    HW120441   5.936   0.512   5.583
 6514SOL    HW220442   6.059   0.556   5.484
 6515SOL     OW20443   2.131   4.821   2.259
 6515SOL    HW120444   2.160   4.762   2.334
 6515SOL    HW220445   2.104   4.765   2.181
 6516SOL     OW20446   6.773   3.299   2.079
 6516SOL    HW120447   6.860   3.251   2.089
 6516SOL    HW220448   6.729   3.271   1.994
 6517SOL     OW20449   6.702   1.829   0.339
 6517SOL    HW120450   6.615   1.831   0.290
 6517SOL    HW220451   6.747   1.918   0.330
 6518SOL     OW20452   6.932   0.856   2.399
 6518SOL    HW120453   6.933   0.761   2.368
 6518SOL    HW220454   7.002   0.908   2.350
 6519SOL     OW20455   0.753   0.983   3.148
 6519SOL    HW120456   0.767   0.931   3.063
 6519SOL    HW220457   0.767   1.080   3.130
 6520SOL     OW20458   6.914   5.705   6.794
 6520SOL    HW120459   6.988   5.756   6.749
 6520SOL    HW220460   6.827   5.749   6.774
 6521SOL     OW20461   1.536   3.289   3.295
 6521SOL    HW120462   1.441   3.258   3.299
 6521SOL    HW220463   1.539   3.382   3.259
 6522SOL     OW20464   2.875   4.099   5.551
 6522SOL    HW120465   2.872   4.148   5.463
 6522SOL    HW220466   2.806   4.137   5.613
 6523SOL     OW20467   5.662   0.221   0.004
 6523SOL    HW120468   5.609   0.224   6.937
 6523SOL    HW220469   5.624   0.285   0.071
 6524SOL     OW20470   2.728   2.412   1.733
 6524SOL    HW120471   2.810   2.440   1.782
 6524SOL    HW220472   2.709   2.316   1.752
 6525SOL     OW20473   1.915   5.271   3.852
 6525SOL    HW120474   1.838   5.211   3.870
 6525SOL    HW220475   1.883   5.352   3.802
 6526SOL     OW20476   0.002   0.267   1.259
 6526SOL    HW120477   6.968   0.323   1.194
 6526SOL    HW220478   6.975   0.178   1.269
 6527SOL     OW20479   0.372   2.650   0.693
 6527SOL    HW120480   0.458   2.609   0.722
 6527SOL    HW220481   0.339   2.603   0.611
 6528SOL     OW20482   6.297   1.569   6.185
 6528SOL    HW120483   6.324   1.557   6.280
 6528SOL    HW220484   6.232   1.498   6.159
 6529SOL     OW20485   0.603   1.302   2.183
 6529SOL    HW120486   0.677   1.366   2.161
 6529SOL    HW220487   0.526   1.353   2.221
 6530SOL     OW20488   0.511   2.407   2.270
 6530SOL    HW120489   0.554   2.326   2.229
 6530SOL    HW220490   0.419   2.382   2.303
 6531SOL     OW20491   3.854   3.281   5.523
 6531SOL    HW120492   3.941   3.231   5.515
 6531SOL    HW220493   3.838   3.334   5.440
 6532SOL     OW20494   1.741   1.199   0.578
 6532SOL    HW120495   1.723   1.151   0.664
 6532SOL    HW220496   1.700   1.290   0.581
 6533SOL     OW20497   4.607   5.514   0.244
 6533SOL    HW120498   4.609   5.538   0.342
 6533SOL    HW220499   4.513   5.512   0.213
 6534SOL     OW20500   5.302   5.103   1.915
 6534SOL    HW120501   5.391   5.059   1.921
 6534SOL    HW220502   5.308   5.182   1.853
 6535SOL     OW20503   5.768   3.975   4.732
 6535SOL    HW120504   5.687   3.977   4.673
 6535SOL    HW220505   5.831   4.047   4.704
 6536SOL     OW20506   0.747   2.200   4.825
 6536SOL    HW120507   0.829   2.247   4.794
 6536SOL    HW220508   0.670   2.263   4.824
 6537SOL     OW20509   6.023   4.542   5.129
 6537SOL    HW120510   6.116   4.564   5.156
 6537SOL    HW220511   6.022   4.454   5.080
 6538SOL     OW20512   2.088   3.627   5.281
 6538SOL    HW120513   1.999   3.594   5.248
 6538SOL    HW220514   2.108   3.584   5.369
 6539SOL     OW20515   5.588   0.945   6.884
 6539SOL    HW120516   5.574   1.032   6.931
 6539SOL    HW220517   5.629   0.878   6.946
 6540SOL     OW20518   3.057   2.458   5.889
 6540SOL    HW120519   3.143   2.490   5.850
 6540SOL    HW220520   2.990   2.445   5.816
 6541SOL     OW20521   5.433   2.619   5.875
 6541SOL    HW120522   5.427   2.711   5.836
 6541SOL    HW220523   5.363   2.560   5.835
 6542SOL     OW20524   1.152   3.850   4.570
 6542SOL    HW120525   1.110   3.759   4.564
 6542SOL    HW220526   1.217   3.852   4.646
 6543SOL     OW20527   3.249   2.118   5.283
 6543SOL    HW120528   3.168   2.061   5.296
 6543SOL    HW220529   3.223   2.204   5.240
 6544SOL     OW20530   0.310   0.028   2.250
 6544SOL    HW120531   0.388   0.089   2.263
 6544SOL    HW220532   0.226   0.073   2.283
 6545SOL     OW20533   4.426   6.771   1.036
 6545SOL    HW120534   4.467   6.857   1.067
 6545SOL    HW220535   4.402   6.715   1.116
 6546SOL     OW20536   4.355   4.647   6.498
 6546SOL    HW120537   4.258   4.668   6.492
 6546SOL    HW220538   4.406   4.732   6.514
 6547SOL     OW20539   5.239   6.897   5.898
 6547SOL    HW120540   5.201   6.984   5.930
 6547SOL    HW220541   5.315   6.870   5.958
 6548SOL     OW20542   0.862   2.506   6.321
 6548SOL    HW120543   0.868   2.581   6.386
 6548SOL    HW220544   0.890   2.538   6.230
 6549SOL     OW20545   4.822   0.063   1.845
 6549SOL    HW120546   4.907   0.113   1.860
 6549SOL    HW220547   4.747   0.128   1.830
 6550SOL     OW20548   6.573   0.589   3.512
 6550SOL    HW120549   6.613   0.630   3.594
 6550SOL    HW220550   6.586   0.490   3.515
 6551SOL     OW20551   2.869   3.301   1.667
 6551SOL    HW120552   2.781   3.348   1.660
 6551SOL    HW220553   2.893   3.262   1.579
 6552SOL     OW20554   2.102   6.762   0.830
 6552SOL    HW120555   2.150   6.720   0.907
 6552SOL    HW220556   2.026   6.703   0.802
 6553SOL     OW20557   0.471   1.454   3.049
 6553SOL    HW120558   0.414   1.389   3.099
 6553SOL    HW220559   0.413   1.509   2.989
 6554SOL     OW20560   2.731   0.911   4.998
 6554SOL    HW120561   2.786   0.892   5.080
 6554SOL    HW220562   2.785   0.965   4.934
 6555SOL     OW20563   6.275   2.002   4.297
 6555SOL    HW120564   6.204   1.932   4.290
 6555SOL    HW220565   6.239   2.082   4.344
 6556SOL     OW20566   6.355   3.295   2.539
 6556SOL    HW120567   6.416   3.230   2.585
 6556SOL    HW220568   6.355   3.381   2.590
 6557SOL     OW20569   1.960   0.128   2.639
 6557SOL    HW120570   1.955   0.226   2.620
 6557SOL    HW220571   1.966   0.113   2.738
 6558SOL     OW20572   5.724   5.200   6.982
 6558SOL    HW120573   5.723   5.104   6.953
 6558SOL    HW220574   5.686   5.257   6.910
 6559SOL     OW20575   6.899   3.415   6.832
 6559SOL    HW120576   6.900   3.493   6.769
 6559SOL    HW220577   6.805   3.385   6.847
 6560SOL     OW20578   3.926   4.563   0.420
 6560SOL    HW120579   3.992   4.625   0.462
 6560SOL    HW220580   3.849   4.615   0.382
 6561SOL     OW20581   4.006   4.825   0.595
 6561SOL    HW120582   4.033   4.908   0.546
 6561SOL    HW220583   3.913   4.834   0.629
 6562SOL     OW20584   5.428   2.784   1.210
 6562SOL    HW120585   5.507   2.754   1.264
 6562SOL    HW220586   5.344   2.766   1.261
 6563SOL     OW20587   4.850   0.265   5.952
 6563SOL    HW120588   4.851   0.356   5.910
 6563SOL    HW220589   4.905   0.202   5.897
 6564SOL     OW20590   6.326   4.044   1.899
 6564SOL    HW120591   6.405   4.017   1.955
 6564SOL    HW220592   6.247   3.990   1.926
 6565SOL     OW20593   6.045   6.814   3.041
 6565SOL    HW120594   5.974   6.884   3.038
 6565SOL    HW220595   6.025   6.749   3.115
 6566SOL     OW20596   3.087   5.813   2.362
 6566SOL    HW120597   3.086   5.760   2.277
 6566SOL    HW220598   3.004   5.869   2.366
 6567SOL     OW20599   3.947   0.832   1.645
 6567SOL    HW120600   3.912   0.891   1.717
 6567SOL    HW220601   3.932   0.736   1.670
 6568SOL     OW20602   4.704   1.362   2.713
 6568SOL    HW120603   4.703   1.394   2.618
 6568SOL    HW220604   4.777   1.295   2.725
 6569SOL     OW20605   0.575   2.942   6.137
 6569SOL    HW120606   0.634   2.995   6.198
 6569SOL    HW220607   0.625   2.922   6.053
 6570SOL     OW20608   4.055   1.000   2.491
 6570SOL    HW120609   4.092   0.951   2.412
 6570SOL    HW220610   4.055   0.940   2.571
 6571SOL     OW20611   2.441   5.141   3.443
 6571SOL    HW120612   2.500   5.180   3.514
 6571SOL    HW220613   2.394   5.215   3.395
 6572SOL     OW20614   0.812   4.321   4.337
 6572SOL    HW120615   0.830   4.396   4.401
 6572SOL    HW220616   0.861   4.240   4.367
 6573SOL     OW20617   1.588   0.995   3.357
 6573SOL    HW120618   1.543   1.018   3.272
 6573SOL    HW220619   1.613   1.078   3.406
 6574SOL     OW20620   2.693   6.569   3.658
 6574SOL    HW120621   2.653   6.658   3.678
 6574SOL    HW220622   2.775   6.581   3.601
 6575SOL     OW20623   0.171   0.068   2.730
 6575SOL    HW120624   0.200   0.068   2.826
 6575SOL    HW220625   0.244   0.028   2.674
 6576SOL     OW20626   3.381   4.968   0.386
 6576SOL    HW120627   3.453   5.030   0.356
 6576SOL    HW220628   3.416   4.905   0.455
 6577SOL     OW20629   1.870   2.798   3.298
 6577SOL    HW120630   1.936   2.760   3.363
 6577SOL    HW220631   1.805   2.856   3.347
 6578SOL     OW20632   1.203   6.226   1.813
 6578SOL    HW120633   1.176   6.323   1.810
 6578SOL    HW220634   1.193   6.186   1.721
 6579SOL     OW20635   0.382   1.682   4.146
 6579SOL    HW120636   0.409   1.775   4.120
 6579SOL    HW220637   0.404   1.619   4.071
 6580SOL     OW20638   1.080   0.861   0.625
 6580SOL    HW120639   1.033   0.776   0.599
 6580SOL    HW220640   1.179   0.847   0.619
 6581SOL     OW20641   1.512   1.129   0.448
 6581SOL    HW120642   1.604   1.123   0.487
 6581SOL    HW220643   1.505   1.069   0.369
 6582SOL     OW20644   0.121   0.512   2.735
 6582SOL    HW120645   0.141   0.440   2.669
 6582SOL    HW220646   0.064   0.474   2.808
 6583SOL     OW20647   5.071   6.634   5.404
 6583SOL    HW120648   5.030   6.543   5.411
 6583SOL    HW220649   5.021   6.698   5.463
 6584SOL     OW20650   3.691   2.580   0.773
 6584SOL    HW120651   3.675   2.510   0.703
 6584SOL    HW220652   3.720   2.665   0.729
 6585SOL     OW20653   6.998   6.613   0.247
 6585SOL    HW120654   0.019   6.665   0.323
 6585SOL    HW220655   0.029   6.525   0.239
 6586SOL     OW20656   6.288   2.020   6.014
 6586SOL    HW120657   6.245   2.015   6.104
 6586SOL    HW220658   6.261   1.940   5.960
 6587SOL     OW20659   1.596   4.482   5.809
 6587SOL    HW120660   1.526   4.481   5.737
 6587SOL    HW220661   1.553   4.461   5.897
 6588SOL     OW20662   0.888   3.151   0.693
 6588SOL    HW120663   0.940   3.110   0.619
 6588SOL    HW220664   0.791   3.128   0.683
 6589SOL     OW20665   5.478   0.746   1.951
 6589SOL    HW120666   5.463   0.843   1.972
 6589SOL    HW220667   5.412   0.715   1.883
 6590SOL     OW20668   0.703   0.333   5.247
 6590SOL    HW120669   0.617   0.337   5.298
 6590SOL    HW220670   0.707   0.248   5.194
 6591SOL     OW20671   5.148   5.726   4.057
 6591SOL    HW120672   5.204   5.663   4.004
 6591SOL    HW220673   5.094   5.783   3.995
 6592SOL     OW20674   5.025   0.361   2.813
 6592SOL    HW120675   4.971   0.444   2.824
 6592SOL    HW220676   5.115   0.383   2.776
 6593SOL     OW20677   2.972   2.188   2.259
 6593SOL    HW120678   2.915   2.223   2.333
 6593SOL    HW220679   2.953   2.239   2.175
 6594SOL     OW20680   3.256   1.826   6.045
 6594SOL    HW120681   3.305   1.911   6.062
 6594SOL    HW220682   3.165   1.846   6.010
 6595SOL     OW20683   1.182   3.088   4.807
 6595SOL    HW120684   1.252   3.042   4.753
 6595SOL    HW220685   1.170   3.041   4.894
 6596SOL     OW20686   4.342   5.795   3.000
 6596SOL    HW120687   4.290   5.832   2.923
 6596SOL    HW220688   4.428   5.845   3.009
 6597SOL     OW20689   1.470   5.232   1.735
 6597SOL    HW120690   1.508   5.147   1.771
 6597SOL    HW220691   1.398   5.265   1.796
 6598SOL     OW20692   2.027   4.328   3.413
 6598SOL    HW120693   1.977   4.365   3.335
 6598SOL    HW220694   2.120   4.304   3.385
 6599SOL     OW20695   5.454   5.538   6.618
 6599SOL    HW120696   5.444   5.630   6.580
 6599SOL    HW220697   5.382   5.522   6.686
 6600SOL     OW20698   4.277   6.988   4.714
 6600SOL    HW120699   4.307   6.904   4.668
 6600SOL    HW220700   4.240   6.965   4.804
 6601SOL     OW20701   0.773   2.886   2.937
 6601SOL    HW120702   0.804   2.803   2.984
 6601SOL    HW220703   0.728   2.946   3.003
 6602SOL     OW20704   2.659   0.313   1.448
 6602SOL    HW120705   2.727   0.282   1.514
 6602SOL    HW220706   2.697   0.306   1.356
 6603SOL     OW20707   0.649   3.018   3.569
 6603SOL    HW120708   0.612   2.935   3.612
 6603SOL    HW220709   0.590   3.046   3.494
 6604SOL     OW20710   1.944   0.536   1.534
 6604SOL    HW120711   1.852   0.540   1.573
 6604SOL    HW220712   1.963   0.442   1.504
 6605SOL     OW20713   5.873   5.861   2.020
 6605SOL    HW120714   5.972   5.850   2.015
 6605SOL    HW220715   5.828   5.792   1.962
 6606SOL     OW20716   0.049   3.975   3.284
 6606SOL    HW120717   0.114   3.922   3.338
 6606SOL    HW220718   0.007   3.917   3.215
 6607SOL     OW20719   6.327   4.740   4.084
 6607SOL    HW120720   6.386   4.672   4.040
 6607SOL    HW220721   6.382   4.817   4.115
 6608SOL     OW20722   6.886   0.465   0.516
 6608SOL    HW120723   6.805   0.414   0.545
 6608SOL    HW220724   6.863   0.525   0.440
 6609SOL     OW20725   5.040   0.863   6.323
 6609SOL    HW120726   5.114   0.833   6.262
 6609SOL    HW220727   5.079   0.911   6.402
 6610SOL     OW20728   2.751   5.909   0.250
 6610SOL    HW120729   2.691   5.984   0.222
 6610SOL    HW220730   2.705   5.822   0.236
 6611SOL     OW20731   4.985   2.841   3.825
 6611SOL    HW120732   5.083   2.861   3.822
 6611SOL    HW220733   4.971   2.747   3.853
 6612SOL     OW20734   6.744   2.271   6.100
 6612SOL    HW120735   6.660   2.222   6.078
 6612SOL    HW220736   6.772   2.248   6.193
 6613SOL     OW20737   5.544   6.790   6.382
 6613SOL    HW120738   5.636   6.754   6.368
 6613SOL    HW220739   5.548   6.890   6.385
 6614SOL     OW20740   4.663   6.473   1.119
 6614SOL    HW120741   4.653   6.484   1.020
 6614SOL    HW220742   4.707   6.555   1.158
 6615SOL     OW20743   1.970   5.497   0.543
 6615SOL    HW120744   1.921   5.438   0.607
 6615SOL    HW220745   1.951   5.469   0.450
 6616SOL     OW20746   4.144   6.854   5.966
 6616SOL    HW120747   4.214   6.924   5.958
 6616SOL    HW220748   4.090   6.851   5.882
 6617SOL     OW20749   3.959   6.790   3.424
 6617SOL    HW120750   3.885   6.816   3.363
 6617SOL    HW220751   3.928   6.720   3.488
 6618SOL     OW20752   0.666   1.270   3.151
 6618SOL    HW120753   0.694   1.332   3.224
 6618SOL    HW220754   0.569   1.282   3.132
 6619SOL     OW20755   4.404   6.787   3.746
 6619SOL    HW120756   4.420   6.692   3.771
 6619SOL    HW220757   4.458   6.809   3.665
 6620SOL     OW20758   1.811   3.455   3.765
 6620SOL    HW120759   1.834   3.358   3.775
 6620SOL    HW220760   1.750   3.467   3.687
 6621SOL     OW20761   3.766   3.163   5.084
 6621SOL    HW120762   3.699   3.089   5.096
 6621SOL    HW220763   3.811   3.152   4.995
 6622SOL     OW20764   6.071   5.937   1.184
 6622SOL    HW120765   6.012   6.017   1.173
 6622SOL    HW220766   6.150   5.961   1.240
 6623SOL     OW20767   3.793   4.127   4.898
 6623SOL    HW120768   3.733   4.203   4.869
 6623SOL    HW220769   3.741   4.042   4.895
 6624SOL     OW20770   0.465   3.123   5.620
 6624SOL    HW120771   0.480   3.043   5.678
 6624SOL    HW220772   0.526   3.197   5.648
 6625SOL     OW20773   6.069   2.300   5.536
 6625SOL    HW120774   6.006   2.355   5.590
 6625SOL    HW220775   6.116   2.234   5.596
 6626SOL     OW20776   3.415   0.286   5.281
 6626SOL    HW120777   3.434   0.189   5.292
 6626SOL    HW220778   3.475   0.339   5.342
 6627SOL     OW20779   1.664   6.359   3.912
 6627SOL    HW120780   1.611   6.442   3.892
 6627SOL    HW220781   1.758   6.372   3.884
 6628SOL     OW20782   5.394   5.532   3.947
 6628SOL    HW120783   5.466   5.563   3.886
 6628SOL    HW220784   5.356   5.446   3.913
 6629SOL     OW20785   4.483   4.905   6.536
 6629SOL    HW120786   4.467   4.882   6.632
 6629SOL    HW220787   4.558   4.970   6.529
 6630SOL     OW20788   3.835   1.675   1.675
 6630SOL    HW120789   3.832   1.664   1.774
 6630SOL    HW220790   3.930   1.676   1.645
 6631SOL     OW20791   2.348   5.261   4.850
 6631SOL    HW120792   2.354   5.162   4.847
 6631SOL    HW220793   2.255   5.290   4.824
 6632SOL     OW20794   1.482   1.280   1.003
 6632SOL    HW120795   1.486   1.181   0.996
 6632SOL    HW220796   1.390   1.312   0.980
 6633SOL     OW20797   3.269   4.817   5.879
 6633SOL    HW120798   3.210   4.737   5.892
 6633SOL    HW220799   3.293   4.826   5.783
 6634SOL     OW20800   4.745   2.233   4.959
 6634SOL    HW120801   4.802   2.152   4.942
 6634SOL    HW220802   4.790   2.291   5.027
 6635SOL     OW20803   4.786   4.022   2.853
 6635SOL    HW120804   4.814   3.941   2.803
 6635SOL    HW220805   4.825   4.020   2.945
 6636SOL     OW20806   3.130   0.807   2.639
 6636SOL    HW120807   3.191   0.812   2.560
 6636SOL    HW220808   3.038   0.836   2.611
 6637SOL     OW20809   2.696   0.433   0.477
 6637SOL    HW120810   2.697   0.411   0.380
 6637SOL    HW220811   2.706   0.532   0.489
 6638SOL     OW20812   2.946   3.783   3.426
 6638SOL    HW120813   3.029   3.816   3.382
 6638SOL    HW220814   2.896   3.723   3.363
 6639SOL     OW20815   3.895   3.196   6.748
 6639SOL    HW120816   3.814   3.245   6.781
 6639SOL    HW220817   3.869   3.132   6.676
 6640SOL     OW20818   6.670   2.229   5.499
 6640SOL    HW120819   6.678   2.134   5.468
 6640SOL    HW220820   6.601   2.276   5.444
 6641SOL     OW20821   3.512   1.775   0.472
 6641SOL    HW120822   3.441   1.832   0.513
 6641SOL    HW220823   3.578   1.749   0.543
 6642SOL     OW20824   2.328   4.987   6.830
 6642SOL    HW120825   2.300   4.937   6.912
 6642SOL    HW220826   2.303   4.934   6.749
 6643SOL     OW20827   6.536   6.688   0.794
 6643SOL    HW120828   6.509   6.776   0.832
 6643SOL    HW220829   6.467   6.619   0.816
 6644SOL     OW20830   1.760   6.483   3.251
 6644SOL    HW120831   1.728   6.514   3.340
 6644SOL    HW220832   1.696   6.512   3.180
 6645SOL     OW20833   5.563   2.860   0.368
 6645SOL    HW120834   5.513   2.940   0.334
 6645SOL    HW220835   5.636   2.837   0.304
 6646SOL     OW20836   4.178   0.805   6.268
 6646SOL    HW120837   4.239   0.847   6.201
 6646SOL    HW220838   4.128   0.730   6.224
 6647SOL     OW20839   4.157   6.444   1.075
 6647SOL    HW120840   4.131   6.355   1.113
 6647SOL    HW220841   4.080   6.507   1.081
 6648SOL     OW20842   3.647   5.566   4.536
 6648SOL    HW120843   3.587   5.509   4.480
 6648SOL    HW220844   3.700   5.627   4.477
 6649SOL     OW20845   6.147   3.124   6.693
 6649SOL    HW120846   6.080   3.062   6.653
 6649SOL    HW220847   6.230   3.073   6.715
 6650SOL     OW20848   3.698   1.519   4.803
 6650SOL    HW120849   3.747   1.467   4.874
 6650SOL    HW220850   3.764   1.567   4.746
 6651SOL     OW20851   1.480   2.035   0.096
 6651SOL    HW120852   1.491   2.125   0.056
 6651SOL    HW220853   1.382   2.014   0.104
 6652SOL     OW20854   0.858   4.683   0.303
 6652SOL    HW120855   0.821   4.668   0.211
 6652SOL    HW220856   0.923   4.610   0.326
 6653SOL     OW20857   4.856   3.139   0.975
 6653SOL    HW120858   4.759   3.136   0.954
 6653SOL    HW220859   4.902   3.061   0.933
 6654SOL     OW20860   7.006   5.145   2.787
 6654SOL    HW120861   6.932   5.080   2.805
 6654SOL    HW220862   0.074   5.096   2.770
 6655SOL     OW20863   0.213   6.306   2.207
 6655SOL    HW120864   0.180   6.337   2.118
 6655SOL    HW220865   0.311   6.286   2.201
 6656SOL     OW20866   4.667   1.747   2.825
 6656SOL    HW120867   4.675   1.727   2.727
 6656SOL    HW220868   4.726   1.685   2.876
 6657SOL     OW20869   5.949   2.795   4.839
 6657SOL    HW120870   5.961   2.881   4.789
 6657SOL    HW220871   5.876   2.806   4.907
 6658SOL     OW20872   6.805   0.205   5.191
 6658SOL    HW120873   6.810   0.230   5.094
 6658SOL    HW220874   6.883   0.245   5.239
 6659SOL     OW20875   1.235   4.162   1.578
 6659SOL    HW120876   1.328   4.182   1.549
 6659SOL    HW220877   1.191   4.245   1.611
 6660SOL     OW20878   1.804   5.026   1.889
 6660SOL    HW120879   1.869   4.995   1.959
 6660SOL    HW220880   1.748   5.100   1.926
 6661SOL     OW20881   2.809   0.411   4.658
 6661SOL    HW120882   2.775   0.480   4.721
 6661SOL    HW220883   2.831   0.328   4.709
 6662SOL     OW20884   2.242   0.663   1.191
 6662SOL    HW120885   2.222   0.570   1.161
 6662SOL    HW220886   2.206   0.676   1.284
 6663SOL     OW20887   1.111   5.798   5.658
 6663SOL    HW120888   1.125   5.709   5.615
 6663SOL    HW220889   1.200   5.841   5.675
 6664SOL     OW20890   2.159   0.701   1.463
 6664SOL    HW120891   2.092   0.639   1.505
 6664SOL    HW220892   2.227   0.727   1.532
 6665SOL     OW20893   2.049   6.325   5.945
 6665SOL    HW120894   2.003   6.378   6.016
 6665SOL    HW220895   1.995   6.244   5.923
 6666SOL     OW20896   6.517   5.608   4.874
 6666SOL    HW120897   6.505   5.628   4.777
 6666SOL    HW220898   6.501   5.511   4.891
 6667SOL     OW20899   6.934   6.612   6.004
 6667SOL    HW120900   6.962   6.562   6.086
 6667SOL    HW220901   6.873   6.555   5.949
 6668SOL     OW20902   0.030   6.128   1.133
 6668SOL    HW120903   0.043   6.124   1.034
 6668SOL    HW220904   0.119   6.121   1.178
 6669SOL     OW20905   3.861   2.188   1.391
 6669SOL    HW120906   3.956   2.200   1.419
 6669SOL    HW220907   3.822   2.276   1.365
 6670SOL     OW20908   2.992   1.103   6.582
 6670SOL    HW120909   2.967   1.023   6.637
 6670SOL    HW220910   2.977   1.083   6.485
 6671SOL     OW20911   5.673   6.677   0.590
 6671SOL    HW120912   5.706   6.724   0.508
 6671SOL    HW220913   5.601   6.613   0.564
 6672SOL     OW20914   1.552   2.273   0.404
 6672SOL    HW120915   1.603   2.266   0.318
 6672SOL    HW220916   1.503   2.188   0.422
 6673SOL     OW20917   4.904   4.127   3.920
 6673SOL    HW120918   4.826   4.172   3.964
 6673SOL    HW220919   4.981   4.123   3.983
 6674SOL     OW20920   0.138   3.107   6.614
 6674SOL    HW120921   0.189   3.027   6.645
 6674SOL    HW220922   0.156   3.184   6.675
 6675SOL     OW20923   4.767   2.221   0.061
 6675SOL    HW120924   4.788   2.283   7.002
 6675SOL    HW220925   4.819   2.137   0.051
 6676SOL     OW20926   1.056   3.398   2.588
 6676SOL    HW120927   1.136   3.357   2.632
 6676SOL    HW220928   1.085   3.458   2.514
 6677SOL     OW20929   0.821   0.558   6.611
 6677SOL    HW120930   0.914   0.568   6.576
 6677SOL    HW220931   0.774   0.646   6.605
 6678SOL     OW20932   1.941   4.228   0.920
 6678SOL    HW120933   1.897   4.234   0.830
 6678SOL    HW220934   1.938   4.134   0.953
 6679SOL     OW20935   3.943   0.885   3.916
 6679SOL    HW120936   3.905   0.798   3.884
 6679SOL    HW220937   3.901   0.910   4.003
 6680SOL     OW20938   4.486   6.148   6.504
 6680SOL    HW120939   4.566   6.207   6.502
 6680SOL    HW220940   4.414   6.188   6.447
 6681SOL     OW20941   4.897   5.505   1.729
 6681SOL    HW120942   4.968   5.575   1.715
 6681SOL    HW220943   4.808   5.550   1.731
 6682SOL     OW20944   2.448   4.667   6.746
 6682SOL    HW120945   2.537   4.678   6.702
 6682SOL    HW220946   2.381   4.725   6.700
 6683SOL     OW20947   5.935   3.122   6.054
 6683SOL    HW120948   5.888   3.161   6.132
 6683SOL    HW220949   6.006   3.185   6.022
 6684SOL     OW20950   3.759   6.784   2.199
 6684SOL    HW120951   3.689   6.796   2.128
 6684SOL    HW220952   3.767   6.868   2.252
 6685SOL     OW20953   4.960   2.746   6.516
 6685SOL    HW120954   4.899   2.676   6.479
 6685SOL    HW220955   4.972   2.819   6.449
 6686SOL     OW20956   6.282   5.889   3.478
 6686SOL    HW120957   6.267   5.938   3.392
 6686SOL    HW220958   6.353   5.937   3.531
 6687SOL     OW20959   0.476   2.871   1.732
 6687SOL    HW120960   0.566   2.906   1.708
 6687SOL    HW220961   0.464   2.873   1.831
 6688SOL     OW20962   4.000   4.379   0.859
 6688SOL    HW120963   3.999   4.284   0.829
 6688SOL    HW220964   4.038   4.385   0.951
 6689SOL     OW20965   4.112   3.598   6.204
 6689SOL    HW120966   4.157   3.664   6.144
 6689SOL    HW220967   4.069   3.646   6.281
 6690SOL     OW20968   1.322   6.504   0.128
 6690SOL    HW120969   1.412   6.528   0.164
 6690SOL    HW220970   1.333   6.441   0.051
 6691SOL     OW20971   1.293   0.180   2.778
 6691SOL    HW120972   1.372   0.238   2.799
 6691SOL    HW220973   1.310   0.087   2.811
 6692SOL     OW20974   4.070   3.948   1.727
 6692SOL    HW120975   4.082   3.852   1.754
 6692SOL    HW220976   4.012   3.994   1.795
 6693SOL     OW20977   4.617   1.885   4.820
 6693SOL    HW120978   4.653   1.952   4.756
 6693SOL    HW220979   4.574   1.931   4.898
 6694SOL     OW20980   4.564   5.902   1.254
 6694SOL    HW120981   4.507   5.953   1.189
 6694SOL    HW220982   4.599   5.819   1.211
 6695SOL     OW20983   2.732   1.937   6.849
 6695SOL    HW120984   2.713   1.849   6.891
 6695SOL    HW220985   2.731   1.928   6.749
 6696SOL     OW20986   4.064   3.726   3.150
 6696SOL    HW120987   4.077   3.773   3.237
 6696SOL    HW220988   4.140   3.662   3.135
 6697SOL     OW20989   4.937   2.380   2.952
 6697SOL    HW120990   4.912   2.289   2.920
 6697SOL    HW220991   5.018   2.412   2.902
 6698SOL     OW20992   2.888   3.523   1.160
 6698SOL    HW120993   2.869   3.572   1.245
 6698SOL    HW220994   2.917   3.430   1.181
 6699SOL     OW20995   2.378   6.496   5.400
 6699SOL    HW120996   2.360   6.398   5.398
 6699SOL    HW220997   2.401   6.528   5.308
 6700SOL     OW20998   5.575   0.677   1.096
 6700SOL    HW120999   5.487   0.691   1.050
 6700SOL    HW221000   5.644   0.648   1.029
 6701SOL     OW21001   5.565   6.461   2.473
 6701SOL    HW121002   5.560   6.405   2.556
 6701SOL    HW221003   5.476   6.461   2.427
 6702SOL     OW21004   2.131   2.379   1.930
 6702SOL    HW121005   2.152   2.332   2.015
 6702SOL    HW221006   2.165   2.473   1.935
 6703SOL     OW21007   1.024   1.180   6.912
 6703SOL    HW121008   0.991   1.266   6.873
 6703SOL    HW221009   0.962   1.151   6.985
 6704SOL     OW21010   4.153   1.728   4.479
 6704SOL    HW121011   4.157   1.788   4.399
 6704SOL    HW221012   4.197   1.773   4.556
 6705SOL     OW21013   6.463   2.536   1.044
 6705SOL    HW121014   6.444   2.613   0.983
 6705SOL    HW221015   6.450   2.565   1.139
 6706SOL     OW21016   1.393   6.316   0.688
 6706SOL    HW121017   1.436   6.393   0.640
 6706SOL    HW221018   1.403   6.233   0.635
 6707SOL     OW21019   5.389   0.211   3.412
 6707SOL    HW121020   5.332   0.130   3.424
 6707SOL    HW221021   5.408   0.224   3.315
 6708SOL     OW21022   6.128   5.429   1.241
 6708SOL    HW121023   6.062   5.403   1.170
 6708SOL    HW221024   6.195   5.356   1.254
 6709SOL     OW21025   0.215   5.058   2.762
 6709SOL    HW121026   0.295   5.070   2.820
 6709SOL    HW221027   0.243   5.016   2.675
 6710SOL     OW21028   4.606   1.548   1.151
 6710SOL    HW121029   4.530   1.517   1.094
 6710SOL    HW221030   4.662   1.469   1.177
 6711SOL     OW21031   4.661   6.776   5.698
 6711SOL    HW121032   4.685   6.858   5.748
 6711SOL    HW221033   4.591   6.725   5.749
 6712SOL     OW21034   6.079   3.263   1.333
 6712SOL    HW121035   6.074   3.303   1.424
 6712SOL    HW221036   6.027   3.178   1.330
 6713SOL     OW21037   1.214   1.336   3.430
 6713SOL    HW121038   1.225   1.276   3.351
 6713SOL    HW221039   1.281   1.410   3.425
 6714SOL     OW21040   5.700   0.903   0.876
 6714SOL    HW121041   5.688   0.854   0.790
 6714SOL    HW221042   5.797   0.926   0.889
 6715SOL     OW21043   1.583   1.015   1.289
 6715SOL    HW121044   1.499   0.965   1.309
 6715SOL    HW221045   1.662   0.961   1.320
 6716SOL     OW21046   6.711   5.867   2.723
 6716SOL    HW121047   6.751   5.814   2.798
 6716SOL    HW221048   6.623   5.827   2.698
 6717SOL     OW21049   2.759   2.137   6.243
 6717SOL    HW121050   2.833   2.194   6.206
 6717SOL    HW221051   2.798   2.063   6.298
 6718SOL     OW21052   3.638   1.102   1.065
 6718SOL    HW121053   3.616   1.195   1.094
 6718SOL    HW221054   3.559   1.043   1.080
 6719SOL     OW21055   2.154   6.763   0.205
 6719SOL    HW121056   2.069   6.761   0.259
 6719SOL    HW221057   2.225   6.712   0.253
 6720SOL     OW21058   2.695   1.452   5.004
 6720SOL    HW121059   2.659   1.359   5.002
 6720SOL    HW221060   2.792   1.452   4.981
 6721SOL     OW21061   6.789   0.031   0.394
 6721SOL    HW121062   6.752   6.983   0.328
 6721SOL    HW221063   6.714   0.075   0.443
 6722SOL     OW21064   0.322   2.190   0.468
 6722SOL    HW121065   0.303   2.264   0.534
 6722SOL    HW221066   0.347   2.107   0.518
 6723SOL     OW21067   1.883   0.048   6.110
 6723SOL    HW121068   1.891   6.997   6.038
 6723SOL    HW221069   1.806   0.026   6.169
 6724SOL     OW21070   2.247   2.116   6.146
 6724SOL    HW121071   2.345   2.099   6.138
 6724SOL    HW221072   2.228   2.167   6.230
 6725SOL     OW21073   6.681   2.842   2.478
 6725SOL    HW121074   6.724   2.761   2.440
 6725SOL    HW221075   6.584   2.843   2.456
 6726SOL     OW21076   0.515   1.647   4.384
 6726SOL    HW121077   0.450   1.621   4.313
 6726SOL    HW221078   0.476   1.721   4.439
 6727SOL     OW21079   0.690   4.325   5.775
 6727SOL    HW121080   0.747   4.371   5.843
 6727SOL    HW221081   0.745   4.305   5.694
 6728SOL     OW21082   3.296   1.242   3.507
 6728SOL    HW121083   3.366   1.283   3.566
 6728SOL    HW221084   3.217   1.304   3.501
 6729SOL     OW21085   7.012   1.842   0.185
 6729SOL    HW121086   0.028   1.936   0.179
 6729SOL    HW221087   0.032   1.798   0.266
 6730SOL     OW21088   1.618   0.600   1.444
 6730SOL    HW121089   1.601   0.563   1.352
 6730SOL    HW221090   1.636   0.698   1.438
 6731SOL     OW21091   1.812   6.724   1.227
 6731SOL    HW121092   1.737   6.790   1.230
 6731SOL    HW221093   1.868   6.735   1.309
 6732SOL     OW21094   5.069   4.145   4.152
 6732SOL    HW121095   4.992   4.142   4.216
 6732SOL    HW221096   5.075   4.235   4.110
 6733SOL     OW21097   3.792   5.464   6.211
 6733SOL    HW121098   3.865   5.531   6.204
 6733SOL    HW221099   3.823   5.387   6.267
 6734SOL     OW21100   5.416   2.061   6.261
 6734SOL    HW121101   5.322   2.082   6.289
 6734SOL    HW221102   5.478   2.077   6.337
 6735SOL     OW21103   5.147   3.596   4.239
 6735SOL    HW121104   5.186   3.506   4.220
 6735SOL    HW221105   5.084   3.621   4.166
 6736SOL     OW21106   3.139   3.549   6.408
 6736SOL    HW121107   3.183   3.626   6.362
 6736SOL    HW221108   3.072   3.583   6.473
 6737SOL     OW21109   1.301   3.157   1.154
 6737SOL    HW121110   1.296   3.224   1.229
 6737SOL    HW221111   1.285   3.066   1.190
 6738SOL     OW21112   1.341   5.710   4.000
 6738SOL    HW121113   1.389   5.731   3.915
 6738SOL    HW221114   1.263   5.651   3.981
 6739SOL     OW21115   6.442   6.073   3.606
 6739SOL    HW121116   6.531   6.040   3.574
 6739SOL    HW221117   6.455   6.155   3.662
 6740SOL     OW21118   6.583   0.014   4.903
 6740SOL    HW121119   6.589   7.015   5.002
 6740SOL    HW221120   6.511   0.080   4.884
 6741SOL     OW21121   3.779   2.075   6.225
 6741SOL    HW121122   3.819   2.099   6.314
 6741SOL    HW221123   3.681   2.056   6.237
 6742SOL     OW21124   5.676   5.378   3.861
 6742SOL    HW121125   5.624   5.295   3.840
 6742SOL    HW221126   5.680   5.391   3.960
 6743SOL     OW21127   3.427   3.806   6.221
 6743SOL    HW121128   3.382   3.823   6.308
 6743SOL    HW221129   3.509   3.862   6.215
 6744SOL     OW21130   0.364   6.359   5.944
 6744SOL    HW121131   0.333   6.414   6.021
 6744SOL    HW221132   0.379   6.418   5.864
 6745SOL     OW21133   6.751   6.489   3.371
 6745SOL    HW121134   6.844   6.459   3.392
 6745SOL    HW221135   6.696   6.490   3.455
 6746SOL     OW21136   1.768   0.650   3.409
 6746SOL    HW121137   1.805   0.735   3.447
 6746SOL    HW221138   1.708   0.672   3.332
 6747SOL     OW21139   6.341   0.270   0.060
 6747SOL    HW121140   6.403   0.348   0.057
 6747SOL    HW221141   6.250   0.298   0.031
 6748SOL     OW21142   2.988   1.979   3.425
 6748SOL    HW121143   3.034   1.890   3.420
 6748SOL    HW221144   3.055   2.052   3.412
 6749SOL     OW21145   3.491   4.365   1.054
 6749SOL    HW121146   3.443   4.283   1.023
 6749SOL    HW221147   3.588   4.358   1.029
 6750SOL     OW21148   3.250   1.665   4.234
 6750SOL    HW121149   3.286   1.603   4.164
 6750SOL    HW221150   3.150   1.663   4.232
 6751SOL     OW21151   4.814   0.686   3.019
 6751SOL    HW121152   4.833   0.602   3.070
 6751SOL    HW221153   4.721   0.716   3.039
 6752SOL     OW21154   1.995   0.264   3.402
 6752SOL    HW121155   1.925   0.311   3.456
 6752SOL    HW221156   2.053   0.209   3.462
 6753SOL     OW21157   3.245   2.113   5.792
 6753SOL    HW121158   3.225   2.147   5.884
 6753SOL    HW221159   3.341   2.086   5.787
 6754SOL     OW21160   6.348   1.200   0.683
 6754SOL    HW121161   6.269   1.233   0.633
 6754SOL    HW221162   6.334   1.213   0.781
 6755SOL     OW21163   3.886   3.965   1.242
 6755SOL    HW121164   3.898   3.931   1.335
 6755SOL    HW221165   3.868   3.889   1.181
 6756SOL     OW21166   3.737   0.366   5.442
 6756SOL    HW121167   3.792   0.354   5.525
 6756SOL    HW221168   3.797   0.367   5.362
 6757SOL     OW21169   3.525   2.180   0.852
 6757SOL    HW121170   3.487   2.145   0.938
 6757SOL    HW221171   3.589   2.254   0.871
 6758SOL     OW21172   5.914   3.143   1.684
 6758SOL    HW121173   5.972   3.137   1.765
 6758SOL    HW221174   5.839   3.206   1.701
 6759SOL     OW21175   0.212   3.099   2.747
 6759SOL    HW121176   0.135   3.052   2.704
 6759SOL    HW221177   0.192   3.197   2.755
 6760SOL     OW21178   6.293   3.978   2.335
 6760SOL    HW121179   6.306   3.879   2.328
 6760SOL    HW221180   6.289   4.004   2.431
 6761SOL     OW21181   6.079   3.030   4.731
 6761SOL    HW121182   6.094   3.025   4.632
 6761SOL    HW221183   6.052   3.122   4.757
 6762SOL     OW21184   0.878   4.876   4.390
 6762SOL    HW121185   0.858   4.787   4.433
 6762SOL    HW221186   0.885   4.864   4.291
 6763SOL     OW21187   5.138   5.502   4.508
 6763SOL    HW121188   5.237   5.510   4.519
 6763SOL    HW221189   5.104   5.578   4.453
 6764SOL     OW21190   2.031   5.241   2.068
 6764SOL    HW121191   2.020   5.247   1.969
 6764SOL    HW221192   1.978   5.164   2.103
 6765SOL     OW21193   5.860   4.509   2.633
 6765SOL    HW121194   5.765   4.514   2.603
 6765SOL    HW221195   5.910   4.589   2.597
 6766SOL     OW21196   4.915   6.666   5.692
 6766SOL    HW121197   4.924   6.649   5.790
 6766SOL    HW221198   4.818   6.677   5.669
 6767SOL     OW21199   3.361   0.127   1.138
 6767SOL    HW121200   3.397   0.171   1.221
 6767SOL    HW221201   3.287   0.182   1.100
 6768SOL     OW21202   2.119   0.245   5.711
 6768SOL    HW121203   2.188   0.173   5.709
 6768SOL    HW221204   2.103   0.278   5.618
 6769SOL     OW21205   3.185   1.629   0.489
 6769SOL    HW121206   3.165   1.583   0.575
 6769SOL    HW221207   3.195   1.560   0.416
 6770SOL     OW21208   6.983   1.364   2.011
 6770SOL    HW121209   7.010   1.277   2.052
 6770SOL    HW221210   0.045   1.408   1.971
 6771SOL     OW21211   4.887   2.405   3.225
 6771SOL    HW121212   4.807   2.459   3.249
 6771SOL    HW221213   4.894   2.398   3.126
 6772SOL     OW21214   3.448   1.091   3.319
 6772SOL    HW121215   3.406   1.009   3.281
 6772SOL    HW221216   3.390   1.130   3.390
 6773SOL     OW21217   0.336   5.437   1.801
 6773SOL    HW121218   0.291   5.522   1.829
 6773SOL    HW221219   0.267   5.371   1.773
 6774SOL     OW21220   0.390   2.153   5.376
 6774SOL    HW121221   0.452   2.076   5.392
 6774SOL    HW221222   0.425   2.209   5.301
 6775SOL     OW21223   2.614   2.846   1.646
 6775SOL    HW121224   2.713   2.833   1.649
 6775SOL    HW221225   2.592   2.919   1.581
 6776SOL     OW21226   4.132   4.721   0.015
 6776SOL    HW121227   4.092   4.653   0.076
 6776SOL    HW221228   4.185   4.675   6.961
 6777SOL     OW21229   4.261   3.980   0.034
 6777SOL    HW121230   4.309   3.893   0.037
 6777SOL    HW221231   4.322   4.050   7.013
 6778SOL     OW21232   5.915   4.869   2.224
 6778SOL    HW121233   5.977   4.884   2.147
 6778SOL    HW221234   5.913   4.771   2.247
 6779SOL     OW21235   6.936   5.027   6.161
 6779SOL    HW121236   6.924   4.930   6.185
 6779SOL    HW221237   6.909   5.084   6.239
 6780SOL     OW21238   1.437   2.468   1.922
 6780SOL    HW121239   1.527   2.492   1.958
 6780SOL    HW221240   1.401   2.545   1.869
 6781SOL     OW21241   6.343   0.173   4.911
 6781SOL    HW121242   6.310   0.248   4.853
 6781SOL    HW221243   6.359   0.208   5.004
 6782SOL     OW21244   6.877   0.112   3.794
 6782SOL    HW121245   6.850   0.198   3.751
 6782SOL    HW221246   6.802   0.078   3.851
 6783SOL     OW21247   6.156   1.082   6.012
 6783SOL    HW121248   6.194   1.070   5.920
 6783SOL    HW221249   6.063   1.117   6.006
 6784SOL     OW21250   2.510   3.793   0.634
 6784SOL    HW121251   2.608   3.806   0.647
 6784SOL    HW221252   2.493   3.751   0.545
 6785SOL     OW21253   5.322   4.783   3.426
 6785SOL    HW121254   5.367   4.762   3.513
 6785SOL    HW221255   5.280   4.699   3.390
 6786SOL     OW21256   1.194   2.154   0.380
 6786SOL    HW121257   1.281   2.154   0.429
 6786SOL    HW221258   1.199   2.091   0.302
 6787SOL     OW21259   1.457   2.531   1.323
 6787SOL    HW121260   1.378   2.589   1.342
 6787SOL    HW221261   1.538   2.588   1.307
 6788SOL     OW21262   2.530   3.461   1.236
 6788SOL    HW121263   2.582   3.384   1.271
 6788SOL    HW221264   2.507   3.445   1.139
 6789SOL     OW21265   6.603   6.282   2.927
 6789SOL    HW121266   6.512   6.243   2.914
 6789SOL    HW221267   6.606   6.327   3.016
 6790SOL     OW21268   0.992   3.934   1.043
 6790SOL    HW121269   0.989   4.032   1.063
 6790SOL    HW221270   1.083   3.910   1.011
 6791SOL     OW21271   4.231   2.770   1.623
 6791SOL    HW121272   4.265   2.695   1.681
 6791SOL    HW221273   4.242   2.857   1.671
 6792SOL     OW21274   6.642   6.110   5.425
 6792SOL    HW121275   6.573   6.043   5.453
 6792SOL    HW221276   6.681   6.154   5.505
 6793SOL     OW21277   0.917   1.691   0.312
 6793SOL    HW121278   0.904   1.790   0.311
 6793SOL    HW221279   0.828   1.646   0.325
 6794SOL     OW21280   5.125   1.619   6.384
 6794SOL    HW121281   5.200   1.555   6.399
 6794SOL    HW221282   5.067   1.585   6.310
 6795SOL     OW21283   2.493   6.528   1.059
 6795SOL    HW121284   2.545   6.444   1.073
 6795SOL    HW221285   2.502   6.587   1.140
 6796SOL     OW21286   6.591   1.109   2.026
 6796SOL    HW121287   6.530   1.123   2.104
 6796SOL    HW221288   6.557   1.161   1.948
 6797SOL     OW21289   5.332   3.161   1.791
 6797SOL    HW121290   5.299   3.077   1.750
 6797SOL    HW221291   5.370   3.142   1.881
 6798SOL     OW21292   5.116   6.722   2.783
 6798SOL    HW121293   5.100   6.806   2.731
 6798SOL    HW221294   5.194   6.735   2.845
 6799SOL     OW21295   6.571   6.338   1.014
 6799SOL    HW121296   6.631   6.416   1.029
 6799SOL    HW221297   6.581   6.273   1.089
 6800SOL     OW21298   2.213   3.887   1.097
 6800SOL    HW121299   2.215   3.897   0.997
 6800SOL    HW221300   2.292   3.833   1.127
 6801SOL     OW21301   0.853   0.354   2.974
 6801SOL    HW121302   0.864   0.446   3.011
 6801SOL    HW221303   0.938   0.326   2.930
 6802SOL     OW21304   3.550   5.789   0.841
 6802SOL    HW121305   3.637   5.772   0.888
 6802SOL    HW221306   3.567   5.845   0.759
 6803SOL     OW21307   5.111   2.507   6.312
 6803SOL    HW121308   5.205   2.496   6.281
 6803SOL    HW221309   5.080   2.600   6.291
 6804SOL     OW21310   3.300   5.099   3.797
 6804SOL    HW121311   3.324   5.189   3.760
 6804SOL    HW221312   3.217   5.106   3.852
 6805SOL     OW21313   6.111   5.237   6.185
 6805SOL    HW121314   6.206   5.207   6.202
 6805SOL    HW221315   6.063   5.167   6.133
 6806SOL     OW21316   6.027   0.582   3.552
 6806SOL    HW121317   6.008   0.487   3.530
 6806SOL    HW221318   6.126   0.595   3.560
 6807SOL     OW21319   3.566   2.750   0.496
 6807SOL    HW121320   3.626   2.749   0.416
 6807SOL    HW221321   3.483   2.801   0.475
 6808SOL     OW21322   0.164   1.650   5.018
 6808SOL    HW121323   0.217   1.568   4.999
 6808SOL    HW221324   0.210   1.729   4.976
 6809SOL     OW21325   1.153   3.119   1.538
 6809SOL    HW121326   1.219   3.131   1.464
 6809SOL    HW221327   1.194   3.146   1.625
 6810SOL     OW21328   2.095   6.899   1.651
 6810SOL    HW121329   2.079   6.997   1.660
 6810SOL    HW221330   2.190   6.879   1.675
 6811SOL     OW21331   4.815   4.116   0.758
 6811SOL    HW121332   4.856   4.053   0.692
 6811SOL    HW221333   4.875   4.196   0.769
 6812SOL     OW21334   3.003   3.298   3.253
 6812SOL    HW121335   3.001   3.358   3.333
 6812SOL    HW221336   3.004   3.203   3.282
 6813SOL     OW21337   4.790   1.947   2.615
 6813SOL    HW121338   4.705   1.951   2.668
 6813SOL    HW221339   4.768   1.940   2.518
 6814SOL     OW21340   3.528   1.766   0.004
 6814SOL    HW121341   3.454   1.761   0.071
 6814SOL    HW221342   3.594   1.835   0.032
 6815SOL     OW21343   2.791   0.195   1.892
 6815SOL    HW121344   2.832   0.201   1.801
 6815SOL    HW221345   2.849   0.139   1.951
 6816SOL     OW21346   0.458   6.870   6.583
 6816SOL    HW121347   0.556   6.867   6.599
 6816SOL    HW221348   0.410   6.882   6.670
 6817SOL     OW21349   1.317   2.307   3.956
 6817SOL    HW121350   1.408   2.266   3.963
 6817SOL    HW221351   1.255   2.260   4.018
 6818SOL     OW21352   2.973   4.871   1.557
 6818SOL    HW121353   2.966   4.943   1.626
 6818SOL    HW221354   3.014   4.789   1.598
 6819SOL     OW21355   5.292   0.863   4.441
 6819SOL    HW121356   5.253   0.955   4.446
 6819SOL    HW221357   5.219   0.797   4.421
 6820SOL     OW21358   1.819   5.476   3.236
 6820SOL    HW121359   1.807   5.434   3.326
 6820SOL    HW221360   1.729   5.502   3.200
 6821SOL     OW21361   3.142   0.977   4.890
 6821SOL    HW121362   3.152   0.878   4.881
 6821SOL    HW221363   3.229   1.018   4.917
 6822SOL     OW21364   5.770   2.547   6.447
 6822SOL    HW121365   5.851   2.500   6.483
 6822SOL    HW221366   5.794   2.595   6.363
 6823SOL     OW21367   3.404   3.238   4.196
 6823SOL    HW121368   3.323   3.206   4.148
 6823SOL    HW221369   3.399   3.209   4.292
 6824SOL     OW21370   1.140   2.508   6.217
 6824SOL    HW121371   1.168   2.517   6.313
 6824SOL    HW221372   1.089   2.423   6.204
 6825SOL     OW21373   4.836   6.734   2.535
 6825SOL    HW121374   4.786   6.816   2.563
 6825SOL    HW221375   4.934   6.749   2.548
 6826SOL     OW21376   2.058   4.143   2.172
 6826SOL    HW121377   2.109   4.066   2.211
 6826SOL    HW221378   1.974   4.110   2.129
 6827SOL     OW21379   4.746   5.444   6.577
 6827SOL    HW121380   4.835   5.411   6.609
 6827SOL    HW221381   4.730   5.536   6.612
 6828SOL     OW21382   2.537   2.072   1.797
 6828SOL    HW121383   2.505   2.078   1.892
 6828SOL    HW221384   2.615   2.010   1.792
 6829SOL     OW21385   4.732   6.521   4.236
 6829SOL    HW121386   4.714   6.557   4.144
 6829SOL    HW221387   4.764   6.596   4.295
 6830SOL     OW21388   5.179   1.325   4.217
 6830SOL    HW121389   5.189   1.424   4.208
 6830SOL    HW221390   5.084   1.299   4.198
 6831SOL     OW21391   1.117   0.356   6.754
 6831SOL    HW121392   1.056   0.425   6.790
 6831SOL    HW221393   1.171   0.395   6.679
 6832SOL     OW21394   2.282   3.829   0.850
 6832SOL    HW121395   2.367   3.829   0.797
 6832SOL    HW221396   2.241   3.739   0.848
 6833SOL     OW21397   4.099   3.936   6.161
 6833SOL    HW121398   4.121   4.031   6.139
 6833SOL    HW221399   4.182   3.880   6.159
 6834SOL     OW21400   5.313   6.729   1.194
 6834SOL    HW121401   5.349   6.790   1.124
 6834SOL    HW221402   5.225   6.692   1.164
 6835SOL     OW21403   3.608   0.600   4.867
 6835SOL    HW121404   3.609   0.531   4.795
 6835SOL    HW221405   3.674   0.577   4.938
 6836SOL     OW21406   3.024   5.451   0.654
 6836SOL    HW121407   3.016   5.442   0.555
 6836SOL    HW221408   2.932   5.463   0.694
 6837SOL     OW21409   1.922   1.829   2.492
 6837SOL    HW121410   1.839   1.804   2.443
 6837SOL    HW221411   1.959   1.914   2.453
 6838SOL     OW21412   2.771   6.478   0.621
 6838SOL    HW121413   2.728   6.510   0.705
 6838SOL    HW221414   2.752   6.381   0.608
 6839SOL     OW21415   5.215   0.379   6.785
 6839SOL    HW121416   5.305   0.423   6.792
 6839SOL    HW221417   5.144   0.449   6.789
 6840SOL     OW21418   2.886   1.070   4.790
 6840SOL    HW121419   2.891   1.146   4.725
 6840SOL    HW221420   2.978   1.041   4.815
 6841SOL     OW21421   4.824   4.045   6.398
 6841SOL    HW121422   4.807   4.144   6.393
 6841SOL    HW221423   4.920   4.030   6.423
 6842SOL     OW21424   3.052   4.248   1.392
 6842SOL    HW121425   3.035   4.155   1.425
 6842SOL    HW221426   3.003   4.314   1.449
 6843SOL     OW21427   5.772   6.479   0.748
 6843SOL    HW121428   5.818   6.425   0.677
 6843SOL    HW221429   5.723   6.554   0.706
 6844SOL     OW21430   5.880   1.104   4.593
 6844SOL    HW121431   5.832   1.017   4.582
 6844SOL    HW221432   5.972   1.087   4.628
 6845SOL     OW21433   6.319   3.772   3.306
 6845SOL    HW121434   6.312   3.742   3.401
 6845SOL    HW221435   6.231   3.760   3.261
 6846SOL     OW21436   3.707   3.593   0.246
 6846SOL    HW121437   3.746   3.682   0.271
 6846SOL    HW221438   3.727   3.527   0.319
 6847SOL     OW21439   6.838   3.625   5.376
 6847SOL    HW121440   6.917   3.573   5.343
 6847SOL    HW221441   6.866   3.719   5.395
 6848SOL     OW21442   5.161   4.587   3.320
 6848SOL    HW121443   5.179   4.491   3.345
 6848SOL    HW221444   5.081   4.620   3.371
 6849SOL     OW21445   4.422   4.006   5.732
 6849SOL    HW121446   4.374   4.021   5.646
 6849SOL    HW221447   4.443   3.909   5.742
 6850SOL     OW21448   5.157   3.056   2.727
 6850SOL    HW121449   5.180   3.148   2.697
 6850SOL    HW221450   5.214   3.032   2.806
 6851SOL     OW21451   0.408   2.249   2.739
 6851SOL    HW121452   0.495   2.298   2.741
 6851SOL    HW221453   0.372   2.248   2.646
 6852SOL     OW21454   2.654   4.684   1.056
 6852SOL    HW121455   2.615   4.744   1.126
 6852SOL    HW221456   2.636   4.589   1.079
 6853SOL     OW21457   5.420   4.169   6.352
 6853SOL    HW121458   5.475   4.188   6.433
 6853SOL    HW221459   5.371   4.252   6.325
 6854SOL     OW21460   5.459   0.223   5.769
 6854SOL    HW121461   5.368   0.264   5.768
 6854SOL    HW221462   5.473   0.167   5.688
 6855SOL     OW21463   4.303   5.482   3.431
 6855SOL    HW121464   4.242   5.532   3.493
 6855SOL    HW221465   4.380   5.540   3.405
 6856SOL     OW21466   0.516   2.354   4.720
 6856SOL    HW121467   0.526   2.402   4.633
 6856SOL    HW221468   0.468   2.267   4.705
 6857SOL     OW21469   1.177   2.884   6.333
 6857SOL    HW121470   1.197   2.981   6.325
 6857SOL    HW221471   1.248   2.840   6.389
 6858SOL     OW21472   3.847   4.061   1.860
 6858SOL    HW121473   3.793   4.061   1.776
 6858SOL    HW221474   3.794   4.102   1.934
 6859SOL     OW21475   0.912   0.967   1.143
 6859SOL    HW121476   0.955   1.051   1.175
 6859SOL    HW221477   0.920   0.960   1.044
 6860SOL     OW21478   6.920   4.537   1.201
 6860SOL    HW121479   6.864   4.568   1.277
 6860SOL    HW221480   6.967   4.615   1.159
 6861SOL     OW21481   5.219   3.943   6.639
 6861SOL    HW121482   5.284   3.995   6.696
 6861SOL    HW221483   5.229   3.973   6.544
 6862SOL     OW21484   0.129   5.777   5.912
 6862SOL    HW121485   0.085   5.755   5.825
 6862SOL    HW221486   0.064   5.760   5.987
 6863SOL     OW21487   6.805   6.466   5.789
 6863SOL    HW121488   6.783   6.392   5.724
 6863SOL    HW221489   6.721   6.506   5.823
 6864SOL     OW21490   1.895   4.789   5.208
 6864SOL    HW121491   1.886   4.719   5.278
 6864SOL    HW221492   1.892   4.880   5.251
 6865SOL     OW21493   0.738   0.124   5.040
 6865SOL    HW121494   0.684   0.131   4.955
 6865SOL    HW221495   0.724   0.035   5.081
 6866SOL     OW21496   5.383   4.648   3.007
 6866SOL    HW121497   5.302   4.698   3.038
 6866SOL    HW221498   5.454   4.713   2.979
 6867SOL     OW21499   2.306   3.197   1.711
 6867SOL    HW121500   2.351   3.247   1.785
 6867SOL    HW221501   2.215   3.168   1.741
 6868SOL     OW21502   2.147   6.725   5.123
 6868SOL    HW121503   2.177   6.819   5.108
 6868SOL    HW221504   2.136   6.678   5.035
 6869SOL     OW21505   5.109   0.940   5.888
 6869SOL    HW121506   5.180   1.002   5.920
 6869SOL    HW221507   5.111   0.936   5.788
 6870SOL     OW21508   0.586   4.357   1.184
 6870SOL    HW121509   0.620   4.406   1.103
 6870SOL    HW221510   0.604   4.259   1.174
 6871SOL     OW21511   6.270   4.280   2.769
 6871SOL    HW121512   6.191   4.292   2.709
 6871SOL    HW221513   6.239   4.265   2.863
 6872SOL     OW21514   0.144   2.997   1.618
 6872SOL    HW121515   0.083   3.044   1.554
 6872SOL    HW221516   0.198   2.929   1.570
 6873SOL     OW21517   1.296   3.855   3.710
 6873SOL    HW121518   1.286   3.777   3.649
 6873SOL    HW221519   1.283   3.940   3.659
 6874SOL     OW21520   6.402   5.092   3.880
 6874SOL    HW121521   6.402   5.035   3.963
 6874SOL    HW221522   6.326   5.157   3.885
 6875SOL     OW21523   2.284   1.748   2.125
 6875SOL    HW121524   2.211   1.813   2.103
 6875SOL    HW221525   2.363   1.767   2.068
 6876SOL     OW21526   3.658   0.030   3.823
 6876SOL    HW121527   3.686   6.952   3.828
 6876SOL    HW221528   3.662   0.072   3.914
 6877SOL     OW21529   3.318   4.183   1.890
 6877SOL    HW121530   3.269   4.133   1.962
 6877SOL    HW221531   3.254   4.241   1.840
 6878SOL     OW21532   2.767   1.793   3.563
 6878SOL    HW121533   2.691   1.825   3.506
 6878SOL    HW221534   2.852   1.836   3.532
 6879SOL     OW21535   2.268   2.315   0.094
 6879SOL    HW121536   2.237   2.298   0.000
 6879SOL    HW221537   2.368   2.317   0.096
 6880SOL     OW21538   1.131   6.133   5.917
 6880SOL    HW121539   1.032   6.134   5.906
 6880SOL    HW221540   1.169   6.049   5.880
 6881SOL     OW21541   1.586   3.123   1.143
 6881SOL    HW121542   1.494   3.158   1.131
 6881SOL    HW221543   1.587   3.056   1.217
 6882SOL     OW21544   2.985   0.609   0.610
 6882SOL    HW121545   2.990   0.699   0.568
 6882SOL    HW221546   2.894   0.595   0.649
 6883SOL     OW21547   5.398   1.453   6.795
 6883SOL    HW121548   5.313   1.448   6.847
 6883SOL    HW221549   5.453   1.372   6.815
 6884SOL     OW21550   0.670   4.279   3.077
 6884SOL    HW121551   0.651   4.187   3.043
 6884SOL    HW221552   0.698   4.274   3.173
 6885SOL     OW21553   4.747   5.248   3.524
 6885SOL    HW121554   4.775   5.152   3.519
 6885SOL    HW221555   4.700   5.274   3.439
 6886SOL     OW21556   6.896   1.469   4.708
 6886SOL    HW121557   6.946   1.385   4.730
 6886SOL    HW221558   6.961   1.541   4.682
 6887SOL     OW21559   4.732   5.724   6.666
 6887SOL    HW121560   4.831   5.722   6.674
 6887SOL    HW221561   4.692   5.756   6.752
 6888SOL     OW21562   5.578   4.742   6.662
 6888SOL    HW121563   5.645   4.713   6.594
 6888SOL    HW221564   5.490   4.760   6.617
 6889SOL     OW21565   1.708   2.817   5.650
 6889SOL    HW121566   1.651   2.810   5.732
 6889SOL    HW221567   1.711   2.729   5.603
 6890SOL     OW21568   3.951   5.830   2.326
 6890SOL    HW121569   3.859   5.823   2.289
 6890SOL    HW221570   3.988   5.739   2.342
 6891SOL     OW21571   2.316   3.300   1.465
 6891SOL    HW121572   2.334   3.396   1.485
 6891SOL    HW221573   2.309   3.249   1.551
 6892SOL     OW21574   3.602   1.404   4.418
 6892SOL    HW121575   3.573   1.408   4.513
 6892SOL    HW221576   3.522   1.404   4.358
 6893SOL     OW21577   5.329   3.860   7.011
 6893SOL    HW121578   5.319   3.802   6.931
 6893SOL    HW221579   5.243   3.907   0.013
 6894SOL     OW21580   6.276   5.139   1.255
 6894SOL    HW121581   6.345   5.211   1.248
 6894SOL    HW221582   6.284   5.094   1.344
 6895SOL     OW21583   1.944   5.119   1.384
 6895SOL    HW121584   1.938   5.041   1.322
 6895SOL    HW221585   1.909   5.201   1.338
 6896SOL     OW21586   2.837   2.216   3.586
 6896SOL    HW121587   2.882   2.243   3.501
 6896SOL    HW221588   2.799   2.124   3.576
 6897SOL     OW21589   4.827   3.327   5.247
 6897SOL    HW121590   4.795   3.412   5.205
 6897SOL    HW221591   4.913   3.300   5.203
 6898SOL     OW21592   3.621   1.453   1.701
 6898SOL    HW121593   3.560   1.415   1.631
 6898SOL    HW221594   3.638   1.550   1.682
 6899SOL     OW21595   4.762   5.902   2.380
 6899SOL    HW121596   4.711   5.965   2.322
 6899SOL    HW221597   4.708   5.818   2.394
 6900SOL     OW21598   0.062   4.354   5.115
 6900SOL    HW121599   7.003   4.372   5.054
 6900SOL    HW221600   0.042   4.273   5.171
 6901SOL     OW21601   5.573   5.648   6.245
 6901SOL    HW121602   5.558   5.720   6.177
 6901SOL    HW221603   5.671   5.625   6.247
 6902SOL     OW21604   6.773   5.535   5.873
 6902SOL    HW121605   6.829   5.501   5.797
 6902SOL    HW221606   6.800   5.629   5.895
 6903SOL     OW21607   3.159   4.982   5.010
 6903SOL    HW121608   3.255   4.956   5.022
 6903SOL    HW221609   3.103   4.933   5.077
 6904SOL     OW21610   6.219   0.003   5.958
 6904SOL    HW121611   6.204   0.024   6.054
 6904SOL    HW221612   6.263   6.930   5.950
 6905SOL     OW21613   5.216   5.414   6.808
 6905SOL    HW121614   5.238   5.320   6.782
 6905SOL    HW221615   5.117   5.425   6.814
 6906SOL     OW21616   3.715   0.989   3.800
 6906SOL    HW121617   3.780   0.969   3.873
 6906SOL    HW221618   3.763   0.991   3.712
 6907SOL     OW21619   6.382   2.573   1.579
 6907SOL    HW121620   6.416   2.610   1.665
 6907SOL    HW221621   6.363   2.476   1.589
 6908SOL     OW21622   2.289   4.843   6.595
 6908SOL    HW121623   2.268   4.757   6.549
 6908SOL    HW221624   2.309   4.913   6.526
 6909SOL     OW21625   4.695   4.280   1.049
 6909SOL    HW121626   4.697   4.230   0.962
 6909SOL    HW221627   4.770   4.249   1.107
 6910SOL     OW21628   1.273   2.921   2.779
 6910SOL    HW121629   1.200   2.935   2.846
 6910SOL    HW221630   1.358   2.900   2.826
 6911SOL     OW21631   4.281   0.097   4.215
 6911SOL    HW121632   4.359   0.046   4.179
 6911SOL    HW221633   4.304   0.195   4.218
 6912SOL     OW21634   2.770   3.046   6.380
 6912SOL    HW121635   2.693   3.086   6.330
 6912SOL    HW221636   2.813   2.975   6.325
 6913SOL     OW21637   5.210   6.235   5.261
 6913SOL    HW121638   5.176   6.323   5.230
 6913SOL    HW221639   5.140   6.189   5.314
 6914SOL     OW21640   5.669   4.612   3.806
 6914SOL    HW121641   5.660   4.681   3.878
 6914SOL    HW221642   5.703   4.526   3.845
 6915SOL     OW21643   0.232   2.432   2.376
 6915SOL    HW121644   0.165   2.498   2.340
 6915SOL    HW221645   0.270   2.466   2.462
 6916SOL     OW21646   5.482   0.493   6.777
 6916SOL    HW121647   5.489   0.589   6.752
 6916SOL    HW221648   5.573   0.452   6.779
 6917SOL     OW21649   4.288   6.239   1.853
 6917SOL    HW121650   4.348   6.284   1.787
 6917SOL    HW221651   4.206   6.206   1.806
 6918SOL     OW21652   6.952   2.894   4.176
 6918SOL    HW121653   6.904   2.892   4.264
 6918SOL    HW221654   6.899   2.844   4.108
 6919SOL     OW21655   6.692   6.019   3.518
 6919SOL    HW121656   6.780   6.065   3.527
 6919SOL    HW221657   6.703   5.936   3.464
 6920SOL     OW21658   4.287   6.992   5.360
 6920SOL    HW121659   4.337   0.057   5.336
 6920SOL    HW221660   4.261   6.996   5.457
 6921SOL     OW21661   4.224   6.688   3.442
 6921SOL    HW121662   4.297   6.750   3.412
 6921SOL    HW221663   4.135   6.726   3.417
 6922SOL     OW21664   1.731   6.087   5.350
 6922SOL    HW121665   1.762   6.003   5.396
 6922SOL    HW221666   1.762   6.085   5.255
 6923SOL     OW21667   5.458   6.037   2.669
 6923SOL    HW121668   5.367   6.027   2.710
 6923SOL    HW221669   5.499   5.947   2.656
 6924SOL     OW21670   2.932   4.486   0.153
 6924SOL    HW121671   2.920   4.412   0.086
 6924SOL    HW221672   3.004   4.548   0.122
 6925SOL     OW21673   4.790   5.426   4.920
 6925SOL    HW121674   4.721   5.381   4.863
 6925SOL    HW221675   4.836   5.496   4.867
 6926SOL     OW21676   2.101   1.791   0.523
 6926SOL    HW121677   2.083   1.694   0.503
 6926SOL    HW221678   2.194   1.801   0.558
 6927SOL     OW21679   3.615   1.754   6.506
 6927SOL    HW121680   3.677   1.818   6.552
 6927SOL    HW221681   3.668   1.683   6.461
 6928SOL     OW21682   5.662   6.166   0.675
 6928SOL    HW121683   5.627   6.236   0.738
 6928SOL    HW221684   5.721   6.102   0.725
 6929SOL     OW21685   5.436   5.918   2.395
 6929SOL    HW121686   5.454   5.984   2.468
 6929SOL    HW221687   5.364   5.855   2.424
 6930SOL     OW21688   1.273   0.936   1.037
 6930SOL    HW121689   1.183   0.935   0.993
 6930SOL    HW221690   1.271   0.875   1.116
 6931SOL     OW21691   1.587   1.950   2.162
 6931SOL    HW121692   1.501   1.975   2.119
 6931SOL    HW221693   1.609   2.017   2.234
 6932SOL     OW21694   4.545   6.081   0.875
 6932SOL    HW121695   4.640   6.049   0.868
 6932SOL    HW221696   4.523   6.137   0.795
 6933SOL     OW21697   3.504   6.849   5.647
 6933SOL    HW121698   3.584   6.788   5.647
 6933SOL    HW221699   3.423   6.797   5.619
 6934SOL     OW21700   4.394   3.650   6.340
 6934SOL    HW121701   4.349   3.639   6.428
 6934SOL    HW221702   4.375   3.741   6.303
 6935SOL     OW21703   4.215   5.917   2.603
 6935SOL    HW121704   4.247   6.012   2.611
 6935SOL    HW221705   4.115   5.917   2.596
 6936SOL     OW21706   6.781   2.601   4.549
 6936SOL    HW121707   6.833   2.663   4.489
 6936SOL    HW221708   6.720   2.655   4.608
 6937SOL     OW21709   6.193   6.301   0.841
 6937SOL    HW121710   6.172   6.312   0.744
 6937SOL    HW221711   6.132   6.232   0.881
 6938SOL     OW21712   0.282   2.547   4.472
 6938SOL    HW121713   0.306   2.631   4.520
 6938SOL    HW221714   0.205   2.564   4.410
 6939SOL     OW21715   6.983   5.327   2.409
 6939SOL    HW121716   7.007   5.230   2.408
 6939SOL    HW221717   0.022   5.375   2.475
 6940SOL     OW21718   4.488   6.636   0.206
 6940SOL    HW121719   4.528   6.728   0.208
 6940SOL    HW221720   4.551   6.573   0.161
 6941SOL     OW21721   3.098   3.645   1.938
 6941SOL    HW121722   3.114   3.572   1.871
 6941SOL    HW221723   3.074   3.604   2.026
 6942SOL     OW21724   5.678   6.771   2.797
 6942SOL    HW121725   5.623   6.851   2.774
 6942SOL    HW221726   5.775   6.795   2.791
 6943SOL     OW21727   3.568   5.263   0.611
 6943SOL    HW121728   3.614   5.328   0.672
 6943SOL    HW221729   3.504   5.312   0.552
 6944SOL     OW21730   1.482   5.044   6.226
 6944SOL    HW121731   1.384   5.053   6.209
 6944SOL    HW221732   1.497   4.973   6.295
 6945SOL     OW21733   6.682   2.176   1.348
 6945SOL    HW121734   6.601   2.150   1.400
 6945SOL    HW221735   6.708   2.101   1.287
 6946SOL     OW21736   4.143   6.372   1.550
 6946SOL    HW121737   4.236   6.391   1.583
 6946SOL    HW221738   4.125   6.428   1.469
 6947SOL     OW21739   4.136   5.199   6.138
 6947SOL    HW121740   4.217   5.141   6.146
 6947SOL    HW221741   4.057   5.154   6.180
 6948SOL     OW21742   1.044   5.906   1.211
 6948SOL    HW121743   0.982   5.899   1.289
 6948SOL    HW221744   1.003   5.965   1.141
 6949SOL     OW21745   2.525   1.433   3.474
 6949SOL    HW121746   2.533   1.375   3.393
 6949SOL    HW221747   2.450   1.400   3.531
 6950SOL     OW21748   1.337   0.679   4.958
 6950SOL    HW121749   1.241   0.692   4.934
 6950SOL    HW221750   1.345   0.659   5.056
 6951SOL     OW21751   0.436   5.761   6.458
 6951SOL    HW121752   0.427   5.826   6.382
 6951SOL    HW221753   0.357   5.769   6.518
 6952SOL     OW21754   1.389   5.096   3.418
 6952SOL    HW121755   1.399   5.173   3.355
 6952SOL    HW221756   1.451   5.023   3.392
 6953SOL     OW21757   5.372   6.950   0.180
 6953SOL    HW121758   5.385   6.865   0.232
 6953SOL    HW221759   5.432   6.949   0.100
 6954SOL     OW21760   0.967   4.352   1.344
 6954SOL    HW121761   0.943   4.294   1.422
 6954SOL    HW221762   0.897   4.423   1.333
 6955SOL     OW21763   4.678   1.015   3.034
 6955SOL    HW121764   4.768   1.006   2.989
 6955SOL    HW221765   4.690   1.010   3.133
 6956SOL     OW21766   4.858   5.929   3.217
 6956SOL    HW121767   4.800   5.847   3.214
 6956SOL    HW221768   4.917   5.925   3.297
 6957SOL     OW21769   5.994   5.466   6.952
 6957SOL    HW121770   5.965   5.492   6.860
 6957SOL    HW221771   5.929   5.502   0.001
 6958SOL     OW21772   4.078   3.342   4.948
 6958SOL    HW121773   4.122   3.407   4.886
 6958SOL    HW221774   4.030   3.272   4.896
 6959SOL     OW21775   1.686   4.016   3.248
 6959SOL    HW121776   1.688   4.086   3.319
 6959SOL    HW221777   1.743   4.044   3.171
 6960SOL     OW21778   1.896   3.960   0.778
 6960SOL    HW121779   1.938   4.029   0.720
 6960SOL    HW221780   1.942   3.958   0.867
 6961SOL     OW21781   5.861   1.295   4.814
 6961SOL    HW121782   5.878   1.242   4.730
 6961SOL    HW221783   5.892   1.389   4.801
 6962SOL     OW21784   4.366   5.834   0.862
 6962SOL    HW121785   4.347   5.781   0.945
 6962SOL    HW221786   4.384   5.929   0.888
 6963SOL     OW21787   5.421   5.178   0.886
 6963SOL    HW121788   5.425   5.260   0.944
 6963SOL    HW221789   5.446   5.098   0.941
 6964SOL     OW21790   3.120   0.594   6.165
 6964SOL    HW121791   3.052   0.526   6.192
 6964SOL    HW221792   3.203   0.548   6.134
 6965SOL     OW21793   1.873   1.561   6.821
 6965SOL    HW121794   1.902   1.469   6.795
 6965SOL    HW221795   1.774   1.570   6.805
 6966SOL     OW21796   0.330   0.691   2.690
 6966SOL    HW121797   0.252   0.629   2.698
 6966SOL    HW221798   0.348   0.709   2.593
 6967SOL     OW21799   3.283   1.302   5.463
 6967SOL    HW121800   3.274   1.394   5.501
 6967SOL    HW221801   3.265   1.305   5.364
 6968SOL     OW21802   2.795   0.882   3.893
 6968SOL    HW121803   2.831   0.972   3.867
 6968SOL    HW221804   2.856   0.839   3.959
 6969SOL     OW21805   2.948   1.735   1.408
 6969SOL    HW121806   2.868   1.783   1.446
 6969SOL    HW221807   2.992   1.793   1.340
 6970SOL     OW21808   4.257   3.695   5.174
 6970SOL    HW121809   4.174   3.658   5.132
 6970SOL    HW221810   4.233   3.764   5.242
 6971SOL     OW21811   5.929   4.958   1.126
 6971SOL    HW121812   6.007   4.983   1.067
 6971SOL    HW221813   5.881   4.880   1.085
 6972SOL     OW21814   5.205   3.917   2.559
 6972SOL    HW121815   5.266   3.996   2.554
 6972SOL    HW221816   5.112   3.948   2.577
 6973SOL     OW21817   0.377   2.611   3.800
 6973SOL    HW121818   0.379   2.598   3.701
 6973SOL    HW221819   0.438   2.544   3.843
 6974SOL     OW21820   3.124   3.874   3.034
 6974SOL    HW121821   3.113   3.920   2.946
 6974SOL    HW221822   3.038   3.830   3.059
 6975SOL     OW21823   1.548   6.865   4.488
 6975SOL    HW121824   1.546   6.931   4.413
 6975SOL    HW221825   1.529   6.912   4.574
 6976SOL     OW21826   6.360   4.244   5.873
 6976SOL    HW121827   6.449   4.232   5.829
 6976SOL    HW221828   6.370   4.239   5.973
 6977SOL     OW21829   3.239   3.284   1.048
 6977SOL    HW121830   3.313   3.349   1.067
 6977SOL    HW221831   3.225   3.278   0.949
 6978SOL     OW21832   5.451   2.624   1.717
 6978SOL    HW121833   5.457   2.684   1.638
 6978SOL    HW221834   5.543   2.604   1.751
 6979SOL     OW21835   1.026   3.311   1.070
 6979SOL    HW121836   0.953   3.344   1.130
 6979SOL    HW221837   1.113   3.313   1.120
 6980SOL     OW21838   1.580   1.451   3.392
 6980SOL    HW121839   1.614   1.366   3.432
 6980SOL    HW221840   1.655   1.516   3.384
 6981SOL     OW21841   3.718   2.962   6.316
 6981SOL    HW121842   3.636   2.955   6.259
 6981SOL    HW221843   3.790   3.011   6.267
 6982SOL     OW21844   0.734   1.135   4.076
 6982SOL    HW121845   0.760   1.038   4.072
 6982SOL    HW221846   0.787   1.186   4.008
 6983SOL     OW21847   5.169   1.306   5.115
 6983SOL    HW121848   5.130   1.256   5.192
 6983SOL    HW221849   5.103   1.373   5.082
 6984SOL     OW21850   2.026   1.603   2.597
 6984SOL    HW121851   1.978   1.582   2.682
 6984SOL    HW221852   2.009   1.699   2.572
 6985SOL     OW21853   6.716   5.290   0.829
 6985SOL    HW121854   6.752   5.333   0.912
 6985SOL    HW221855   6.711   5.191   0.842
 6986SOL     OW21856   3.347   6.523   6.436
 6986SOL    HW121857   3.415   6.595   6.447
 6986SOL    HW221858   3.364   6.473   6.351
 6987SOL     OW21859   6.660   1.557   6.347
 6987SOL    HW121860   6.673   1.656   6.355
 6987SOL    HW221861   6.649   1.534   6.250
 6988SOL     OW21862   1.800   6.789   6.003
 6988SOL    HW121863   1.719   6.737   5.975
 6988SOL    HW221864   1.882   6.746   5.964
 6989SOL     OW21865   0.019   4.655   2.877
 6989SOL    HW121866   0.084   4.723   2.913
 6989SOL    HW221867   7.012   4.591   2.950
 6990SOL     OW21868   3.824   2.641   1.273
 6990SOL    HW121869   3.776   2.722   1.306
 6990SOL    HW221870   3.784   2.611   1.186
 6991SOL     OW21871   5.443   4.439   3.191
 6991SOL    HW121872   5.429   4.521   3.136
 6991SOL    HW221873   5.512   4.456   3.261
 6992SOL     OW21874   6.540   6.440   6.665
 6992SOL    HW121875   6.582   6.377   6.599
 6992SOL    HW221876   6.603   6.453   6.742
 6993SOL     OW21877   6.195   0.698   1.652
 6993SOL    HW121878   6.290   0.715   1.623
 6993SOL    HW221879   6.140   0.780   1.634
 6994SOL     OW21880   1.094   1.162   4.366
 6994SOL    HW121881   1.016   1.222   4.349
 6994SOL    HW221882   1.063   1.079   4.413
 6995SOL     OW21883   0.133   3.831   6.813
 6995SOL    HW121884   0.164   3.926   6.812
 6995SOL    HW221885   0.199   3.774   6.861
 6996SOL     OW21886   1.418   0.383   0.346
 6996SOL    HW121887   1.443   0.413   0.254
 6996SOL    HW221888   1.477   0.308   0.374
 6997SOL     OW21889   0.231   4.682   5.075
 6997SOL    HW121890   0.139   4.645   5.086
 6997SOL    HW221891   0.287   4.655   5.153
 6998SOL     OW21892   1.352   1.727   1.319
 6998SOL    HW121893   1.397   1.759   1.236
 6998SOL    HW221894   1.362   1.628   1.327
 6999SOL     OW21895   1.933   2.055   6.286
 6999SOL    HW121896   1.964   2.113   6.362
 6999SOL    HW221897   1.994   1.977   6.277
 7000SOL     OW21898   6.151   0.582   2.458
 7000SOL    HW121899   6.175   0.537   2.372
 7000SOL    HW221900   6.052   0.576   2.472
 7001SOL     OW21901   1.075   2.614   4.864
 7001SOL    HW121902   1.087   2.679   4.789
 7001SOL    HW221903   1.031   2.531   4.828
 7002SOL     OW21904   2.028   5.008   4.049
 7002SOL    HW121905   2.124   5.019   4.071
 7002SOL    HW221906   1.972   5.055   4.118
 7003SOL     OW21907   4.606   5.734   1.513
 7003SOL    HW121908   4.640   5.812   1.460
 7003SOL    HW221909   4.576   5.765   1.603
 7004SOL     OW21910   0.604   6.040   0.554
 7004SOL    HW121911   0.647   6.125   0.586
 7004SOL    HW221912   0.670   5.966   0.559
 7005SOL     OW21913   0.885   0.644   0.523
 7005SOL    HW121914   0.903   0.641   0.424
 7005SOL    HW221915   0.855   0.554   0.554
 7006SOL     OW21916   5.557   5.873   3.455
 7006SOL    HW121917   5.579   5.867   3.552
 7006SOL    HW221918   5.526   5.966   3.434
 7007SOL     OW21919   3.983   0.741   4.746
 7007SOL    HW121920   3.944   0.804   4.679
 7007SOL    HW221921   4.038   0.792   4.812
 7008SOL     OW21922   0.627   4.540   4.336
 7008SOL    HW121923   0.657   4.610   4.271
 7008SOL    HW221924   0.670   4.453   4.314
 7009SOL     OW21925   4.011   0.027   2.080
 7009SOL    HW121926   4.091   0.039   2.137
 7009SOL    HW221927   3.973   6.953   2.093
 7010SOL     OW21928   5.801   4.609   3.563
 7010SOL    HW121929   5.893   4.574   3.580
 7010SOL    HW221930   5.751   4.616   3.650
 7011SOL     OW21931   3.919   7.007   0.836
 7011SOL    HW121932   3.996   0.053   0.832
 7011SOL    HW221933   3.905   6.966   0.746
 7012SOL     OW21934   0.762   2.006   1.184
 7012SOL    HW121935   0.784   1.929   1.244
 7012SOL    HW221936   0.707   2.073   1.235
 7013SOL     OW21937   1.649   6.840   6.686
 7013SOL    HW121938   1.620   6.905   6.615
 7013SOL    HW221939   1.573   6.824   6.749
 7014SOL     OW21940   5.392   3.462   0.670
 7014SOL    HW121941   5.374   3.516   0.588
 7014SOL    HW221942   5.373   3.366   0.651
 7015SOL     OW21943   5.531   4.942   1.942
 7015SOL    HW121944   5.584   4.868   1.901
 7015SOL    HW221945   5.592   5.016   1.967
 7016SOL     OW21946   3.947   5.090   1.414
 7016SOL    HW121947   3.869   5.140   1.378
 7016SOL    HW221948   3.955   5.002   1.368
 7017SOL     OW21949   2.973   5.199   3.279
 7017SOL    HW121950   2.924   5.141   3.214
 7017SOL    HW221951   2.982   5.291   3.241
 7018SOL     OW21952   5.262   4.142   4.352
 7018SOL    HW121953   5.217   4.178   4.434
 7018SOL    HW221954   5.196   4.134   4.278
 7019SOL     OW21955   4.078   4.922   1.579
 7019SOL    HW121956   4.022   4.942   1.659
 7019SOL    HW221957   4.039   4.969   1.499
 7020SOL     OW21958   0.362   4.200   6.235
 7020SOL    HW121959   0.368   4.295   6.206
 7020SOL    HW221960   0.434   4.146   6.190
 7021SOL     OW21961   1.786   3.003   4.187
 7021SOL    HW121962   1.874   3.049   4.175
 7021SOL    HW221963   1.795   2.930   4.255
 7022SOL     OW21964   4.774   6.893   0.017
 7022SOL    HW121965   4.693   6.934   0.060
 7022SOL    HW221966   4.846   6.962   0.008
 7023SOL     OW21967   0.384   2.634   1.127
 7023SOL    HW121968   0.314   2.630   1.055
 7023SOL    HW221969   0.358   2.571   1.200
 7024SOL     OW21970   3.486   3.475   4.318
 7024SOL    HW121971   3.496   3.564   4.273
 7024SOL    HW221972   3.480   3.403   4.250
 7025SOL     OW21973   3.475   0.842   0.798
 7025SOL    HW121974   3.403   0.892   0.846
 7025SOL    HW221975   3.537   0.906   0.754
 7026SOL     OW21976   3.948   2.183   2.193
 7026SOL    HW121977   3.883   2.208   2.121
 7026SOL    HW221978   3.947   2.253   2.265
 7027SOL     OW21979   2.339   6.167   4.125
 7027SOL    HW121980   2.302   6.260   4.130
 7027SOL    HW221981   2.371   6.139   4.215
 7028SOL     OW21982   3.618   0.358   3.954
 7028SOL    HW121983   3.535   0.337   3.902
 7028SOL    HW221984   3.593   0.407   4.038
 7029SOL     OW21985   4.250   3.488   5.515
 7029SOL    HW121986   4.181   3.555   5.486
 7029SOL    HW221987   4.333   3.501   5.460
 7030SOL     OW21988   0.628   1.055   4.463
 7030SOL    HW121989   0.638   1.137   4.406
 7030SOL    HW221990   0.561   0.993   4.420
 7031SOL     OW21991   4.101   6.023   0.240
 7031SOL    HW121992   4.157   6.102   0.212
 7031SOL    HW221993   4.045   5.993   0.163
 7032SOL     OW21994   3.934   1.161   3.370
 7032SOL    HW121995   3.880   1.245   3.369
 7032SOL    HW221996   4.027   1.180   3.337
 7033SOL     OW21997   1.355   2.929   3.400
 7033SOL    HW121998   1.277   2.867   3.416
 7033SOL    HW221999   1.324   3.009   3.348
 7034SOL     OW22000   6.807   2.296   2.996
 7034SOL    HW122001   6.796   2.197   2.987
 7034SOL    HW222002   6.724   2.341   2.962
 7035SOL     OW22003   1.722   0.198   1.095
 7035SOL    HW122004   1.627   0.227   1.094
 7035SOL    HW222005   1.732   0.115   1.150
 7036SOL     OW22006   6.691   2.012   2.233
 7036SOL    HW122007   6.647   1.976   2.150
 7036SOL    HW222008   6.692   1.941   2.303
 7037SOL     OW22009   0.614   1.299   5.990
 7037SOL    HW122010   0.621   1.199   5.999
 7037SOL    HW222011   0.529   1.322   5.943
 7038SOL     OW22012   2.296   4.481   5.018
 7038SOL    HW122013   2.357   4.474   5.097
 7038SOL    HW222014   2.327   4.419   4.946
 7039SOL     OW22015   0.328   6.293   3.556
 7039SOL    HW122016   0.422   6.260   3.563
 7039SOL    HW222017   0.327   6.384   3.513
 7040SOL     OW22018   4.715   2.709   5.798
 7040SOL    HW122019   4.714   2.807   5.779
 7040SOL    HW222020   4.733   2.659   5.714
 7041SOL     OW22021   0.515   1.845   3.185
 7041SOL    HW122022   0.426   1.803   3.196
 7041SOL    HW222023   0.506   1.929   3.131
 7042SOL     OW22024   4.646   6.121   4.105
 7042SOL    HW122025   4.646   6.158   4.012
 7042SOL    HW222026   4.741   6.114   4.138
 7043SOL     OW22027   3.102   4.904   3.571
 7043SOL    HW122028   3.186   4.920   3.519
 7043SOL    HW222029   3.058   4.992   3.591
 7044SOL     OW22030   4.710   6.681   5.225
 7044SOL    HW122031   4.647   6.657   5.298
 7044SOL    HW222032   4.785   6.736   5.262
 7045SOL     OW22033   5.427   5.743   2.106
 7045SOL    HW122034   5.344   5.714   2.152
 7045SOL    HW222035   5.460   5.670   2.047
 7046SOL     OW22036   3.103   1.691   3.884
 7046SOL    HW122037   3.067   1.620   3.825
 7046SOL    HW222038   3.142   1.650   3.967
 7047SOL     OW22039   0.080   1.066   1.322
 7047SOL    HW122040   7.009   1.111   1.308
 7047SOL    HW222041   0.148   1.135   1.349
 7048SOL     OW22042   5.754   6.129   4.906
 7048SOL    HW122043   5.722   6.035   4.915
 7048SOL    HW222044   5.733   6.163   4.815
 7049SOL     OW22045   3.176   1.718   2.365
 7049SOL    HW122046   3.177   1.798   2.425
 7049SOL    HW222047   3.204   1.745   2.272
 7050SOL     OW22048   3.762   4.423   1.053
 7050SOL    HW122049   3.779   4.419   0.954
 7050SOL    HW222050   3.794   4.338   1.095
 7051SOL     OW22051   6.796   6.494   1.075
 7051SOL    HW122052   6.870   6.551   1.110
 7051SOL    HW222053   6.827   6.443   0.996
 7052SOL     OW22054   5.577   0.703   3.477
 7052SOL    HW122055   5.486   0.712   3.436
 7052SOL    HW222056   5.590   0.610   3.510
 7053SOL     OW22057   1.942   4.087   4.283
 7053SOL    HW122058   1.951   4.152   4.208
 7053SOL    HW222059   2.013   4.017   4.275
 7054SOL     OW22060   0.232   0.114   1.726
 7054SOL    HW122061   0.176   0.195   1.706
 7054SOL    HW222062   0.196   0.068   1.807
 7055SOL     OW22063   2.934   6.971   0.371
 7055SOL    HW122064   2.928   0.015   0.450
 7055SOL    HW222065   2.937   6.876   0.402
 7056SOL     OW22066   0.009   5.570   1.186
 7056SOL    HW122067   0.039   5.666   1.191
 7056SOL    HW222068   0.084   5.513   1.153
 7057SOL     OW22069   3.151   5.940   4.134
 7057SOL    HW122070   3.078   5.919   4.069
 7057SOL    HW222071   3.113   5.991   4.211
 7058SOL     OW22072   5.425   1.841   6.614
 7058SOL    HW122073   5.426   1.931   6.656
 7058SOL    HW222074   5.335   1.822   6.576
 7059SOL     OW22075   1.327   0.895   4.170
 7059SOL    HW122076   1.375   0.918   4.254
 7059SOL    HW222077   1.364   0.950   4.094
 7060SOL     OW22078   3.810   6.570   1.519
 7060SOL    HW122079   3.905   6.599   1.509
 7060SOL    HW222080   3.789   6.555   1.616
 7061SOL     OW22081   0.399   2.967   3.110
 7061SOL    HW122082   0.322   3.020   3.073
 7061SOL    HW222083   0.483   3.021   3.100
 7062SOL     OW22084   4.071   2.127   4.866
 7062SOL    HW122085   4.038   2.036   4.890
 7062SOL    HW222086   4.026   2.158   4.782
 7063SOL     OW22087   0.863   0.482   1.940
 7063SOL    HW122088   0.798   0.483   1.864
 7063SOL    HW222089   0.934   0.551   1.925
 7064SOL     OW22090   4.766   1.819   6.408
 7064SOL    HW122091   4.672   1.848   6.390
 7064SOL    HW222092   4.793   1.848   6.500
 7065SOL     OW22093   3.838   4.173   5.302
 7065SOL    HW122094   3.882   4.138   5.219
 7065SOL    HW222095   3.790   4.098   5.348
 7066SOL     OW22096   4.546   0.297   5.922
 7066SOL    HW122097   4.522   0.277   5.827
 7066SOL    HW222098   4.646   0.298   5.932
 7067SOL     OW22099   1.271   3.143   6.323
 7067SOL    HW122100   1.270   3.213   6.251
 7067SOL    HW222101   1.346   3.162   6.386
 7068SOL     OW22102   5.767   4.291   4.227
 7068SOL    HW122103   5.850   4.258   4.271
 7068SOL    HW222104   5.691   4.289   4.293
 7069SOL     OW22105   5.790   2.138   5.400
 7069SOL    HW122106   5.788   2.141   5.500
 7069SOL    HW222107   5.862   2.199   5.366
 7070SOL     OW22108   1.191   6.566   4.073
 7070SOL    HW122109   1.154   6.659   4.076
 7070SOL    HW222110   1.263   6.561   4.005
 7071SOL     OW22111   4.655   6.044   6.708
 7071SOL    HW122112   4.743   6.019   6.669
 7071SOL    HW222113   4.585   6.041   6.637
 7072SOL     OW22114   1.887   4.791   0.023
 7072SOL    HW122115   1.857   4.776   0.117
 7072SOL    HW222116   1.855   4.880   7.009
 7073SOL     OW22117   3.801   0.102   3.200
 7073SOL    HW122118   3.839   0.143   3.283
 7073SOL    HW222119   3.833   0.008   3.191
 7074SOL     OW22120   6.534   3.534   3.341
 7074SOL    HW122121   6.559   3.530   3.244
 7074SOL    HW222122   6.459   3.471   3.359
 7075SOL     OW22123   3.115   5.048   4.699
 7075SOL    HW122124   3.085   4.981   4.768
 7075SOL    HW222125   3.136   5.135   4.744
 7076SOL     OW22126   5.709   2.696   1.040
 7076SOL    HW122127   5.795   2.667   1.083
 7076SOL    HW222128   5.720   2.787   1.001
 7077SOL     OW22129   2.345   4.403   2.709
 7077SOL    HW122130   2.277   4.336   2.679
 7077SOL    HW222131   2.422   4.403   2.645
 7078SOL     OW22132   6.028   6.081   0.799
 7078SOL    HW122133   5.935   6.056   0.824
 7078SOL    HW222134   6.062   6.018   0.729
 7079SOL     OW22135   1.075   0.110   4.103
 7079SOL    HW122136   1.121   0.087   4.017
 7079SOL    HW222137   1.082   0.208   4.119
 7080SOL     OW22138   3.844   2.038   4.041
 7080SOL    HW122139   3.797   1.950   4.038
 7080SOL    HW222140   3.817   2.088   4.123
 7081SOL     OW22141   1.170   6.201   0.445
 7081SOL    HW122142   1.091   6.140   0.443
 7081SOL    HW222143   1.253   6.149   0.466
 7082SOL     OW22144   6.838   3.772   1.285
 7082SOL    HW122145   6.739   3.790   1.288
 7082SOL    HW222146   6.887   3.859   1.278
 7083SOL     OW22147   0.058   1.730   2.619
 7083SOL    HW122148   0.071   1.827   2.639
 7083SOL    HW222149   0.076   1.713   2.522
 7084SOL     OW22150   0.744   5.721   5.514
 7084SOL    HW122151   0.659   5.707   5.463
 7084SOL    HW222152   0.795   5.797   5.473
 7085SOL     OW22153   6.365   2.566   2.496
 7085SOL    HW122154   6.413   2.556   2.583
 7085SOL    HW222155   6.389   2.653   2.454
 7086SOL     OW22156   5.738   0.377   6.776
 7086SOL    HW122157   5.786   0.431   6.707
 7086SOL    HW222158   5.745   0.280   6.752
 7087SOL     OW22159   5.155   3.435   2.439
 7087SOL    HW122160   5.219   3.367   2.474
 7087SOL    HW222161   5.183   3.465   2.348
 7088SOL     OW22162   5.259   2.382   5.797
 7088SOL    HW122163   5.183   2.350   5.854
 7088SOL    HW222164   5.345   2.368   5.847
 7089SOL     OW22165   2.699   4.830   2.371
 7089SOL    HW122166   2.635   4.779   2.313
 7089SOL    HW222167   2.696   4.927   2.347
 7090SOL     OW22168   2.325   1.683   0.817
 7090SOL    HW122169   2.263   1.747   0.862
 7090SOL    HW222170   2.349   1.718   0.727
 7091SOL     OW22171   0.861   1.018   1.633
 7091SOL    HW122172   0.883   0.921   1.634
 7091SOL    HW222173   0.930   1.067   1.580
 7092SOL     OW22174   3.754   2.691   6.335
 7092SOL    HW122175   3.755   2.790   6.345
 7092SOL    HW222176   3.777   2.667   6.241
 7093SOL     OW22177   3.561   3.422   1.622
 7093SOL    HW122178   3.479   3.436   1.678
 7093SOL    HW222179   3.632   3.378   1.678
 7094SOL     OW22180   1.379   6.694   5.390
 7094SOL    HW122181   1.323   6.615   5.416
 7094SOL    HW222182   1.468   6.689   5.435
 7095SOL     OW22183   3.553   4.996   5.847
 7095SOL    HW122184   3.517   4.904   5.865
 7095SOL    HW222185   3.590   5.034   5.931
 7096SOL     OW22186   6.929   0.523   2.372
 7096SOL    HW122187   0.007   0.545   2.391
 7096SOL    HW222188   6.924   0.436   2.323
 7097SOL     OW22189   4.461   0.688   2.051
 7097SOL    HW122190   4.418   0.776   2.069
 7097SOL    HW222191   4.480   0.680   1.953
 7098SOL     OW22192   1.544   6.118   5.828
 7098SOL    HW122193   1.608   6.193   5.841
 7098SOL    HW222194   1.591   6.031   5.843
 7099SOL     OW22195   3.392   1.901   4.188
 7099SOL    HW122196   3.347   1.822   4.229
 7099SOL    HW222197   3.471   1.927   4.244
 7100SOL     OW22198   6.860   3.224   0.783
 7100SOL    HW122199   6.842   3.171   0.701
 7100SOL    HW222200   6.929   3.294   0.763
 7101SOL     OW22201   2.553   0.229   5.312
 7101SOL    HW122202   2.552   0.178   5.226
 7101SOL    HW222203   2.602   0.177   5.381
 7102SOL     OW22204   5.467   0.456   1.683
 7102SOL    HW122205   5.532   0.479   1.755
 7102SOL    HW222206   5.501   0.378   1.631
 7103SOL     OW22207   5.049   5.218   1.921
 7103SOL    HW122208   4.983   5.152   1.956
 7103SOL    HW222209   5.140   5.198   1.957
 7104SOL     OW22210   5.434   3.684   2.649
 7104SOL    HW122211   5.350   3.647   2.608
 7104SOL    HW222212   5.457   3.632   2.731
 7105SOL     OW22213   4.000   3.844   4.380
 7105SOL    HW122214   4.018   3.890   4.467
 7105SOL    HW222215   4.029   3.748   4.387
 7106SOL     OW22216   3.026   2.680   0.782
 7106SOL    HW122217   3.015   2.582   0.801
 7106SOL    HW222218   3.093   2.718   0.846
 7107SOL     OW22219   3.799   0.331   0.245
 7107SOL    HW122220   3.709   0.357   0.280
 7107SOL    HW222221   3.788   0.273   0.164
 7108SOL     OW22222   2.787   6.393   2.178
 7108SOL    HW122223   2.724   6.318   2.157
 7108SOL    HW222224   2.819   6.436   2.093
 7109SOL     OW22225   1.674   0.697   6.568
 7109SOL    HW122226   1.701   0.785   6.529
 7109SOL    HW222227   1.591   0.665   6.522
 7110SOL     OW22228   3.438   6.328   4.218
 7110SOL    HW122229   3.506   6.368   4.280
 7110SOL    HW222230   3.398   6.400   4.161
 7111SOL     OW22231   1.614   1.885   3.920
 7111SOL    HW122232   1.522   1.920   3.899
 7111SOL    HW222233   1.642   1.821   3.849
 7112SOL     OW22234   2.319   4.301   4.798
 7112SOL    HW122235   2.323   4.210   4.839
 7112SOL    HW222236   2.266   4.297   4.714
 7113SOL     OW22237   3.205   4.746   5.297
 7113SOL    HW122238   3.144   4.767   5.220
 7113SOL    HW222239   3.299   4.767   5.271
 7114SOL     OW22240   4.161   5.553   1.330
 7114SOL    HW122241   4.259   5.574   1.332
 7114SOL    HW222242   4.148   5.455   1.344
 7115SOL     OW22243   5.720   3.809   6.846
 7115SOL    HW122244   5.628   3.788   6.813
 7115SOL    HW222245   5.717   3.826   6.944
 7116SOL     OW22246   5.620   3.940   3.551
 7116SOL    HW122247   5.661   3.868   3.494
 7116SOL    HW222248   5.644   3.924   3.646
 7117SOL     OW22249   6.640   6.994   3.899
 7117SOL    HW122250   6.662   6.897   3.906
 7117SOL    HW222251   6.618   7.017   3.804
 7118SOL     OW22252   4.037   4.465   5.332
 7118SOL    HW122253   4.115   4.439   5.276
 7118SOL    HW222254   3.973   4.388   5.337
 7119SOL     OW22255   5.246   0.796   4.980
 7119SOL    HW122256   5.282   0.837   4.897
 7119SOL    HW222257   5.239   0.697   4.968
 7120SOL     OW22258   5.076   1.524   1.214
 7120SOL    HW122259   5.100   1.530   1.311
 7120SOL    HW222260   5.043   1.613   1.183
 7121SOL     OW22261   0.578   6.098   3.292
 7121SOL    HW122262   0.544   6.173   3.236
 7121SOL    HW222263   0.669   6.071   3.259
 7122SOL     OW22264   2.022   6.994   5.851
 7122SOL    HW122265   2.005   0.075   5.858
 7122SOL    HW222266   1.970   6.958   5.773
 7123SOL     OW22267   6.690   4.727   4.248
 7123SOL    HW122268   6.691   4.801   4.180
 7123SOL    HW222269   6.764   4.742   4.313
 7124SOL     OW22270   0.641   2.199   1.344
 7124SOL    HW122271   0.638   2.271   1.274
 7124SOL    HW222272   0.693   2.232   1.423
 7125SOL     OW22273   1.238   0.914   1.542
 7125SOL    HW122274   1.267   0.886   1.633
 7125SOL    HW222275   1.174   0.991   1.549
 7126SOL     OW22276   4.063   6.017   0.495
 7126SOL    HW122277   3.978   5.965   0.507
 7126SOL    HW222278   4.093   6.011   0.400
 7127SOL     OW22279   2.964   6.224   5.589
 7127SOL    HW122280   2.879   6.176   5.613
 7127SOL    HW222281   3.038   6.158   5.580
 7128SOL     OW22282   3.886   4.012   6.875
 7128SOL    HW122283   3.968   4.067   6.886
 7128SOL    HW222284   3.859   4.012   6.778
 7129SOL     OW22285   0.596   1.345   1.299
 7129SOL    HW122286   0.607   1.251   1.331
 7129SOL    HW222287   0.507   1.355   1.255
 7130SOL     OW22288   3.847   0.302   4.551
 7130SOL    HW122289   3.750   0.315   4.571
 7130SOL    HW222290   3.861   0.209   4.516
 7131SOL     OW22291   3.260   1.307   2.232
 7131SOL    HW122292   3.205   1.287   2.150
 7131SOL    HW222293   3.271   1.406   2.241
 7132SOL     OW22294   5.087   4.216   0.215
 7132SOL    HW122295   5.018   4.221   0.287
 7132SOL    HW222296   5.173   4.255   0.247
 7133SOL     OW22297   4.353   4.939   4.228
 7133SOL    HW122298   4.315   4.973   4.314
 7133SOL    HW222299   4.279   4.926   4.162
 7134SOL     OW22300   5.382   6.256   1.903
 7134SOL    HW122301   5.434   6.333   1.867
 7134SOL    HW222302   5.444   6.187   1.939
 7135SOL     OW22303   2.196   2.822   2.342
 7135SOL    HW122304   2.174   2.894   2.277
 7135SOL    HW222305   2.138   2.742   2.325
 7136SOL     OW22306   2.212   1.621   1.273
 7136SOL    HW122307   2.267   1.628   1.189
 7136SOL    HW222308   2.153   1.540   1.266
 7137SOL     OW22309   2.921   1.543   0.512
 7137SOL    HW122310   2.976   1.626   0.522
 7137SOL    HW222311   2.842   1.547   0.572
 7138SOL     OW22312   2.339   1.127   1.338
 7138SOL    HW122313   2.383   1.216   1.348
 7138SOL    HW222314   2.375   1.064   1.406
 7139SOL     OW22315   4.962   4.953   1.701
 7139SOL    HW122316   5.056   4.933   1.731
 7139SOL    HW222317   4.965   5.008   1.617
 7140SOL     OW22318   6.113   4.719   0.970
 7140SOL    HW122319   6.150   4.759   1.054
 7140SOL    HW222320   6.015   4.702   0.980
 7141SOL     OW22321   4.426   6.754   1.348
 7141SOL    HW122322   4.420   6.660   1.313
 7141SOL    HW222323   4.425   6.753   1.448
 7142SOL     OW22324   3.558   0.353   4.354
 7142SOL    HW122325   3.579   0.349   4.256
 7142SOL    HW222326   3.534   0.446   4.379
 7143SOL     OW22327   1.764   4.041   6.897
 7143SOL    HW122328   1.742   3.954   6.940
 7143SOL    HW222329   1.681   4.093   6.881
 7144SOL     OW22330   0.078   1.119   4.340
 7144SOL    HW122331   0.108   1.196   4.396
 7144SOL    HW222332   0.002   1.148   4.281
 7145SOL     OW22333   4.531   0.887   6.893
 7145SOL    HW122334   4.528   0.809   6.956
 7145SOL    HW222335   4.486   0.966   6.936
 7146SOL     OW22336   2.204   1.616   5.760
 7146SOL    HW122337   2.238   1.522   5.751
 7146SOL    HW222338   2.115   1.616   5.805
 7147SOL     OW22339   5.948   5.556   3.320
 7147SOL    HW122340   5.880   5.629   3.312
 7147SOL    HW222341   5.907   5.478   3.367
 7148SOL     OW22342   6.360   5.570   1.477
 7148SOL    HW122343   6.288   5.580   1.408
 7148SOL    HW222344   6.335   5.624   1.558
 7149SOL     OW22345   6.723   4.915   3.764
 7149SOL    HW122346   6.746   4.842   3.700
 7149SOL    HW222347   6.711   5.001   3.714
 7150SOL     OW22348   4.511   3.043   0.339
 7150SOL    HW122349   4.518   2.943   0.334
 7150SOL    HW222350   4.601   3.083   0.319
 7151SOL     OW22351   3.175   6.899   0.614
 7151SOL    HW122352   3.229   6.830   0.663
 7151SOL    HW222353   3.105   6.935   0.675
 7152SOL     OW22354   6.501   0.599   6.545
 7152SOL    HW122355   6.594   0.630   6.525
 7152SOL    HW222356   6.483   0.612   6.643
 7153SOL     OW22357   3.644   5.414   1.678
 7153SOL    HW122358   3.729   5.410   1.626
 7153SOL    HW222359   3.638   5.336   1.740
 7154SOL     OW22360   4.007   0.839   2.708
 7154SOL    HW122361   4.024   0.900   2.786
 7154SOL    HW222362   3.923   0.788   2.723
 7155SOL     OW22363   2.843   2.451   0.959
 7155SOL    HW122364   2.835   2.406   1.048
 7155SOL    HW222365   2.756   2.443   0.910
 7156SOL     OW22366   5.103   3.629   2.627
 7156SOL    HW122367   5.084   3.701   2.561
 7156SOL    HW222368   5.119   3.543   2.579
 7157SOL     OW22369   6.340   4.438   1.052
 7157SOL    HW122370   6.284   4.367   1.094
 7157SOL    HW222371   6.282   4.516   1.028
 7158SOL     OW22372   6.295   0.607   3.553
 7158SOL    HW122373   6.391   0.629   3.534
 7158SOL    HW222374   6.282   0.508   3.547
 7159SOL     OW22375   0.759   4.724   4.155
 7159SOL    HW122376   0.733   4.820   4.145
 7159SOL    HW222377   0.859   4.717   4.155
 7160SOL     OW22378   5.861   6.350   2.680
 7160SOL    HW122379   5.807   6.271   2.652
 7160SOL    HW222380   5.807   6.407   2.742
 7161SOL     OW22381   3.679   3.583   2.799
 7161SOL    HW122382   3.583   3.593   2.774
 7161SOL    HW222383   3.699   3.640   2.878
 7162SOL     OW22384   0.151   4.543   0.582
 7162SOL    HW122385   0.086   4.468   0.583
 7162SOL    HW222386   0.244   4.507   0.574
 7163SOL     OW22387   1.831   1.208   2.851
 7163SOL    HW122388   1.914   1.157   2.873
 7163SOL    HW222389   1.813   1.201   2.753
 7164SOL     OW22390   1.911   1.114   5.023
 7164SOL    HW122391   1.932   1.078   5.113
 7164SOL    HW222392   1.993   1.113   4.966
 7165SOL     OW22393   6.184   6.274   1.187
 7165SOL    HW122394   6.220   6.205   1.124
 7165SOL    HW222395   6.261   6.322   1.230
 7166SOL     OW22396   5.462   0.203   6.189
 7166SOL    HW122397   5.441   0.300   6.198
 7166SOL    HW222398   5.395   0.160   6.128
 7167SOL     OW22399   5.513   2.311   5.579
 7167SOL    HW122400   5.555   2.320   5.489
 7167SOL    HW222401   5.449   2.234   5.579
 7168SOL     OW22402   3.400   1.260   2.475
 7168SOL    HW122403   3.378   1.276   2.379
 7168SOL    HW222404   3.322   1.287   2.531
 7169SOL     OW22405   1.179   4.199   5.262
 7169SOL    HW122406   1.136   4.130   5.205
 7169SOL    HW222407   1.278   4.187   5.262
 7170SOL     OW22408   4.436   6.932   2.569
 7170SOL    HW122409   4.483   7.013   2.535
 7170SOL    HW222410   4.502   6.871   2.612
 7171SOL     OW22411   5.849   4.688   1.017
 7171SOL    HW122412   5.863   4.612   1.081
 7171SOL    HW222413   5.755   4.686   0.983
 7172SOL     OW22414   1.809   1.686   5.132
 7172SOL    HW122415   1.895   1.738   5.136
 7172SOL    HW222416   1.807   1.619   5.206
 7173SOL     OW22417   6.123   5.372   6.594
 7173SOL    HW122418   6.162   5.280   6.596
 7173SOL    HW222419   6.195   5.439   6.615
 7174SOL     OW22420   6.720   4.655   1.317
 7174SOL    HW122421   6.644   4.590   1.311
 7174SOL    HW222422   6.684   4.747   1.335
 7175SOL     OW22423   6.542   3.910   5.375
 7175SOL    HW122424   6.464   3.960   5.412
 7175SOL    HW222425   6.509   3.827   5.329
 7176SOL     OW22426   0.655   1.286   4.289
 7176SOL    HW122427   0.692   1.250   4.203
 7176SOL    HW222428   0.579   1.349   4.268
 7177SOL     OW22429   2.051   5.763   5.709
 7177SOL    HW122430   2.125   5.715   5.660
 7177SOL    HW222431   1.986   5.696   5.744
 7178SOL     OW22432   0.540   0.639   5.746
 7178SOL    HW122433   0.599   0.685   5.812
 7178SOL    HW222434   0.444   0.651   5.773
 7179SOL     OW22435   2.458   4.388   5.216
 7179SOL    HW122436   2.467   4.299   5.261
 7179SOL    HW222437   2.471   4.461   5.283
 7180SOL     OW22438   2.472   4.323   0.876
 7180SOL    HW122439   2.378   4.351   0.853
 7180SOL    HW222440   2.513   4.279   0.796
 7181SOL     OW22441   2.195   1.126   6.136
 7181SOL    HW122442   2.211   1.138   6.038
 7181SOL    HW222443   2.258   1.183   6.188
 7182SOL     OW22444   1.206   4.107   3.637
 7182SOL    HW122445   1.183   4.112   3.539
 7182SOL    HW222446   1.144   4.167   3.688
 7183SOL     OW22447   1.966   5.946   2.063
 7183SOL    HW122448   1.985   6.007   1.986
 7183SOL    HW222449   2.052   5.908   2.097
 7184SOL     OW22450   5.622   1.384   3.371
 7184SOL    HW122451   5.562   1.340   3.437
 7184SOL    HW222452   5.578   1.467   3.336
 7185SOL     OW22453   5.403   1.019   5.271
 7185SOL    HW122454   5.415   1.011   5.172
 7185SOL    HW222455   5.312   1.058   5.290
 7186SOL     OW22456   0.233   0.879   0.860
 7186SOL    HW122457   0.279   0.795   0.832
 7186SOL    HW222458   0.137   0.859   0.879
 7187SOL     OW22459   3.194   3.762   5.120
 7187SOL    HW122460   3.122   3.785   5.055
 7187SOL    HW222461   3.211   3.839   5.180
 7188SOL     OW22462   5.090   3.963   0.064
 7188SOL    HW122463   5.095   4.058   0.096
 7188SOL    HW222464   5.001   3.948   0.021
 7189SOL     OW22465   6.032   3.488   5.601
 7189SOL    HW122466   6.118   3.461   5.643
 7189SOL    HW222467   6.013   3.584   5.623
 7190SOL     OW22468   6.188   5.846   0.965
 7190SOL    HW122469   6.129   5.877   1.039
 7190SOL    HW222470   6.240   5.923   0.929
 7191SOL     OW22471   0.223   3.954   3.519
 7191SOL    HW122472   0.213   3.864   3.562
 7191SOL    HW222473   0.268   4.017   3.582
 7192SOL     OW22474   1.944   4.220   6.056
 7192SOL    HW122475   2.006   4.176   5.990
 7192SOL    HW222476   1.981   4.310   6.081
 7193SOL     OW22477   2.825   1.383   2.898
 7193SOL    HW122478   2.850   1.324   2.975
 7193SOL    HW222479   2.908   1.422   2.858
 7194SOL     OW22480   1.994   2.059   6.864
 7194SOL    HW122481   2.037   1.978   6.903
 7194SOL    HW222482   1.900   2.066   6.896
 7195SOL     OW22483   6.588   4.310   6.817
 7195SOL    HW122484   6.585   4.325   6.718
 7195SOL    HW222485   6.559   4.392   6.865
 7196SOL     OW22486   3.269   3.795   2.425
 7196SOL    HW122487   3.171   3.814   2.415
 7196SOL    HW222488   3.322   3.870   2.386
 7197SOL     OW22489   0.871   4.039   5.364
 7197SOL    HW122490   0.937   4.030   5.290
 7197SOL    HW222491   0.894   3.974   5.437
 7198SOL     OW22492   0.266   0.516   0.354
 7198SOL    HW122493   0.357   0.476   0.366
 7198SOL    HW222494   0.235   0.500   0.260
 7199SOL     OW22495   1.054   7.013   2.327
 7199SOL    HW122496   0.966   0.012   2.372
 7199SOL    HW222497   1.068   0.063   2.255
 7200SOL     OW22498   2.068   3.171   0.987
 7200SOL    HW122499   1.969   3.177   0.994
 7200SOL    HW222500   2.095   3.165   0.890
 7201SOL     OW22501   0.130   5.628   4.458
 7201SOL    HW122502   0.189   5.567   4.510
 7201SOL    HW222503   0.034   5.608   4.480
 7202SOL     OW22504   5.064   0.494   5.557
 7202SOL    HW122505   5.152   0.496   5.605
 7202SOL    HW222506   5.075   0.448   5.469
 7203SOL     OW22507   0.960   0.770   1.672
 7203SOL    HW122508   1.045   0.798   1.717
 7203SOL    HW222509   0.955   0.671   1.668
 7204SOL     OW22510   5.819   1.234   0.320
 7204SOL    HW122511   5.859   1.325   0.311
 7204SOL    HW222512   5.891   1.167   0.335
 7205SOL     OW22513   1.203   3.262   4.532
 7205SOL    HW122514   1.123   3.264   4.473
 7205SOL    HW222515   1.190   3.191   4.602
 7206SOL     OW22516   1.072   1.503   1.103
 7206SOL    HW122517   1.071   1.422   1.044
 7206SOL    HW222518   1.054   1.584   1.048
 7207SOL     OW22519   2.701   1.561   3.712
 7207SOL    HW122520   2.620   1.524   3.667
 7207SOL    HW222521   2.729   1.646   3.668
 7208SOL     OW22522   4.605   0.224   4.000
 7208SOL    HW122523   4.644   0.136   4.026
 7208SOL    HW222524   4.604   0.285   4.079
 7209SOL     OW22525   2.104   2.535   2.245
 7209SOL    HW122526   2.027   2.477   2.273
 7209SOL    HW222527   2.077   2.589   2.165
 7210SOL     OW22528   3.704   1.816   3.228
 7210SOL    HW122529   3.658   1.793   3.142
 7210SOL    HW222530   3.666   1.901   3.264
 7211SOL     OW22531   3.180   6.218   5.139
 7211SOL    HW122532   3.157   6.268   5.222
 7211SOL    HW222533   3.121   6.138   5.131
 7212SOL     OW22534   6.856   6.508   6.493
 7212SOL    HW122535   6.812   6.552   6.571
 7212SOL    HW222536   6.831   6.558   6.409
 7213SOL     OW22537   3.679   6.405   6.587
 7213SOL    HW122538   3.631   6.466   6.523
 7213SOL    HW222539   3.646   6.312   6.574
 7214SOL     OW22540   0.182   0.885   5.926
 7214SOL    HW122541   0.110   0.901   5.994
 7214SOL    HW222542   0.153   0.920   5.837
 7215SOL     OW22543   6.416   2.688   4.249
 7215SOL    HW122544   6.404   2.589   4.248
 7215SOL    HW222545   6.359   2.728   4.321
 7216SOL     OW22546   3.254   6.170   2.084
 7216SOL    HW122547   3.190   6.220   2.142
 7216SOL    HW222548   3.245   6.202   1.989
 7217SOL     OW22549   1.758   4.246   3.451
 7217SOL    HW122550   1.749   4.214   3.545
 7217SOL    HW222551   1.849   4.286   3.437
 7218SOL     OW22552   0.312   3.301   3.714
 7218SOL    HW122553   0.251   3.366   3.761
 7218SOL    HW222554   0.314   3.215   3.764
 7219SOL     OW22555   3.249   6.936   1.451
 7219SOL    HW122556   3.244   6.958   1.548
 7219SOL    HW222557   3.344   6.942   1.420
 7220SOL     OW22558   6.539   4.200   4.339
 7220SOL    HW122559   6.589   4.266   4.395
 7220SOL    HW222560   6.584   4.190   4.251
 7221SOL     OW22561   3.294   5.915   4.780
 7221SOL    HW122562   3.302   5.863   4.864
 7221SOL    HW222563   3.359   5.991   4.780
 7222SOL     OW22564   5.524   0.286   2.918
 7222SOL    HW122565   5.494   0.226   2.993
 7222SOL    HW222566   5.458   0.360   2.906
 7223SOL     OW22567   2.699   0.989   0.616
 7223SOL    HW122568   2.697   1.089   0.614
 7223SOL    HW222569   2.708   0.957   0.710
 7224SOL     OW22570   4.610   2.335   4.428
 7224SOL    HW122571   4.597   2.402   4.501
 7224SOL    HW222572   4.529   2.277   4.421
 7225SOL     OW22573   1.807   6.426   1.326
 7225SOL    HW122574   1.810   6.333   1.363
 7225SOL    HW222575   1.841   6.490   1.395
 7226SOL     OW22576   6.140   0.187   1.303
 7226SOL    HW122577   6.092   0.268   1.337
 7226SOL    HW222578   6.200   0.214   1.227
 7227SOL     OW22579   2.646   1.495   1.910
 7227SOL    HW122580   2.736   1.538   1.917
 7227SOL    HW222581   2.575   1.565   1.918
 7228SOL     OW22582   0.813   1.490   3.362
 7228SOL    HW122583   0.825   1.457   3.268
 7228SOL    HW222584   0.902   1.519   3.399
 7229SOL     OW22585   6.851   6.786   4.579
 7229SOL    HW122586   6.928   6.813   4.520
 7229SOL    HW222587   6.806   6.868   4.615
 7230SOL     OW22588   2.618   5.452   3.581
 7230SOL    HW122589   2.713   5.423   3.575
 7230SOL    HW222590   2.576   5.446   3.490
 7231SOL     OW22591   3.781   0.665   0.795
 7231SOL    HW122592   3.734   0.680   0.882
 7231SOL    HW222593   3.761   0.572   0.763
 7232SOL     OW22594   4.413   6.396   2.553
 7232SOL    HW122595   4.502   6.376   2.593
 7232SOL    HW222596   4.377   6.481   2.592
 7233SOL     OW22597   0.766   1.189   5.119
 7233SOL    HW122598   0.811   1.227   5.200
 7233SOL    HW222599   0.834   1.141   5.063
 7234SOL     OW22600   5.453   3.167   2.847
 7234SOL    HW122601   5.495   3.150   2.936
 7234SOL    HW222602   5.391   3.092   2.825
 7235SOL     OW22603   6.590   5.048   1.534
 7235SOL    HW122604   6.647   5.005   1.604
 7235SOL    HW222605   6.631   5.135   1.507
 7236SOL     OW22606   2.097   2.660   2.941
 7236SOL    HW122607   2.054   2.738   2.897
 7236SOL    HW222608   2.027   2.603   2.984
 7237SOL     OW22609   4.034   6.878   6.637
 7237SOL    HW122610   4.048   6.812   6.712
 7237SOL    HW222611   4.115   6.878   6.578
 7238SOL     OW22612   4.854   2.413   6.454
 7238SOL    HW122613   4.855   2.419   6.554
 7238SOL    HW222614   4.826   2.321   6.426
 7239SOL     OW22615   0.919   2.752   2.036
 7239SOL    HW122616   1.005   2.789   2.071
 7239SOL    HW222617   0.930   2.654   2.018
 7240SOL     OW22618   0.026   1.415   0.049
 7240SOL    HW122619   0.087   1.494   0.050
 7240SOL    HW222620   0.052   1.352   0.122
 7241SOL     OW22621   2.324   0.072   0.506
 7241SOL    HW122622   2.299   0.129   0.584
 7241SOL    HW222623   2.374   0.127   0.439
 7242SOL     OW22624   6.992   5.324   5.292
 7242SOL    HW122625   6.897   5.304   5.317
 7242SOL    HW222626   0.000   5.268   5.213
 7243SOL     OW22627   0.113   4.577   6.403
 7243SOL    HW122628   0.102   4.484   6.439
 7243SOL    HW222629   0.065   4.585   6.316
 7244SOL     OW22630   0.167   0.547   1.031
 7244SOL    HW122631   0.216   0.603   0.964
 7244SOL    HW222632   0.079   0.519   0.992
 7245SOL     OW22633   1.522   2.350   5.192
 7245SOL    HW122634   1.544   2.255   5.213
 7245SOL    HW222635   1.511   2.401   5.277
 7246SOL     OW22636   1.857   0.841   3.772
 7246SOL    HW122637   1.777   0.787   3.749
 7246SOL    HW222638   1.917   0.789   3.833
 7247SOL     OW22639   2.828   2.028   5.625
 7247SOL    HW122640   2.816   1.958   5.555
 7247SOL    HW222641   2.833   1.983   5.715
 7248SOL     OW22642   3.195   0.663   3.402
 7248SOL    HW122643   3.104   0.688   3.432
 7248SOL    HW222644   3.188   0.605   3.321
 7249SOL     OW22645   4.274   4.902   1.767
 7249SOL    HW122646   4.249   4.813   1.804
 7249SOL    HW222647   4.198   4.939   1.714
 7250SOL     OW22648   5.106   5.111   5.876
 7250SOL    HW122649   5.199   5.097   5.842
 7250SOL    HW222650   5.086   5.209   5.880
 7251SOL     OW22651   1.076   0.522   5.106
 7251SOL    HW122652   1.173   0.530   5.128
 7251SOL    HW222653   1.061   0.440   5.050
 7252SOL     OW22654   3.080   3.461   1.736
 7252SOL    HW122655   3.156   3.441   1.675
 7252SOL    HW222656   2.997   3.419   1.699
 7253SOL     OW22657   2.165   6.061   6.674
 7253SOL    HW122658   2.228   6.065   6.596
 7253SOL    HW222659   2.092   5.995   6.655
 7254SOL     OW22660   5.399   5.548   4.630
 7254SOL    HW122661   5.453   5.481   4.578
 7254SOL    HW222662   5.370   5.507   4.717
 7255SOL     OW22663   4.322   3.514   0.119
 7255SOL    HW122664   4.226   3.544   0.122
 7255SOL    HW222665   4.380   3.592   0.095
 7256SOL     OW22666   3.825   6.330   5.369
 7256SOL    HW122667   3.727   6.344   5.356
 7256SOL    HW222668   3.841   6.290   5.460
 7257SOL     OW22669   0.829   2.058   3.917
 7257SOL    HW122670   0.734   2.053   3.889
 7257SOL    HW222671   0.886   2.006   3.852
 7258SOL     OW22672   5.582   2.120   2.977
 7258SOL    HW122673   5.544   2.204   2.937
 7258SOL    HW222674   5.585   2.048   2.907
 7259SOL     OW22675   1.576   3.250   2.258
 7259SOL    HW122676   1.581   3.181   2.331
 7259SOL    HW222677   1.495   3.307   2.272
 7260SOL     OW22678   5.429   1.605   1.813
 7260SOL    HW122679   5.404   1.602   1.716
 7260SOL    HW222680   5.527   1.590   1.822
 7261SOL     OW22681   0.776   4.533   1.268
 7261SOL    HW122682   0.683   4.498   1.281
 7261SOL    HW222683   0.793   4.545   1.170
 7262SOL     OW22684   5.341   1.819   6.979
 7262SOL    HW122685   5.431   1.788   6.948
 7262SOL    HW222686   5.270   1.767   6.932
 7263SOL     OW22687   0.595   6.324   0.109
 7263SOL    HW122688   0.530   6.392   0.077
 7263SOL    HW222689   0.548   6.258   0.168
 7264SOL     OW22690   5.397   0.487   0.771
 7264SOL    HW122691   5.377   0.538   0.855
 7264SOL    HW222692   5.314   0.479   0.716
 7265SOL     OW22693   5.765   4.397   5.518
 7265SOL    HW122694   5.748   4.305   5.482
 7265SOL    HW222695   5.774   4.461   5.442
 7266SOL     OW22696   6.357   1.282   3.363
 7266SOL    HW122697   6.346   1.279   3.263
 7266SOL    HW222698   6.267   1.287   3.406
 7267SOL     OW22699   6.424   6.791   4.699
 7267SOL    HW122700   6.341   6.846   4.694
 7267SOL    HW222701   6.455   6.784   4.794
 7268SOL     OW22702   6.854   6.130   4.237
 7268SOL    HW122703   6.886   6.061   4.171
 7268SOL    HW222704   6.932   6.184   4.269
 7269SOL     OW22705   2.167   6.251   6.217
 7269SOL    HW122706   2.171   6.236   6.118
 7269SOL    HW222707   2.073   6.241   6.248
 7270SOL     OW22708   0.132   2.710   4.872
 7270SOL    HW122709   0.213   2.696   4.815
 7270SOL    HW222710   0.122   2.634   4.936
 7271SOL     OW22711   1.446   4.912   4.460
 7271SOL    HW122712   1.489   4.821   4.456
 7271SOL    HW222713   1.346   4.901   4.459
 7272SOL     OW22714   5.944   6.015   2.341
 7272SOL    HW122715   5.975   6.093   2.396
 7272SOL    HW222716   6.011   5.941   2.350
 7273SOL     OW22717   5.913   3.799   0.830
 7273SOL    HW122718   5.912   3.796   0.730
 7273SOL    HW222719   5.835   3.852   0.863
 7274SOL     OW22720   0.365   4.796   6.828
 7274SOL    HW122721   0.279   4.765   6.869
 7274SOL    HW222722   0.367   4.770   6.731
 7275SOL     OW22723   0.095   5.950   2.615
 7275SOL    HW122724   0.037   6.027   2.588
 7275SOL    HW222725   0.169   5.984   2.674
 7276SOL     OW22726   5.314   0.673   3.381
 7276SOL    HW122727   5.374   0.682   3.301
 7276SOL    HW222728   5.276   0.580   3.383
 7277SOL     OW22729   5.510   0.352   4.312
 7277SOL    HW122730   5.559   0.306   4.386
 7277SOL    HW222731   5.485   0.284   4.242
 7278SOL     OW22732   3.506   2.986   1.516
 7278SOL    HW122733   3.593   3.014   1.557
 7278SOL    HW222734   3.481   3.051   1.445
 7279SOL     OW22735   4.404   4.835   6.279
 7279SOL    HW122736   4.387   4.739   6.302
 7279SOL    HW222737   4.453   4.879   6.354
 7280SOL     OW22738   0.120   0.983   3.659
 7280SOL    HW122739   0.128   1.076   3.624
 7280SOL    HW222740   0.091   0.921   3.586
 7281SOL     OW22741   3.048   1.776   0.070
 7281SOL    HW122742   3.082   1.862   0.031
 7281SOL    HW222743   3.107   1.747   0.145
 7282SOL     OW22744   5.949   4.759   2.549
 7282SOL    HW122745   6.006   4.771   2.468
 7282SOL    HW222746   6.002   4.785   2.631
 7283SOL     OW22747   3.958   1.694   3.198
 7283SOL    HW122748   3.878   1.753   3.202
 7283SOL    HW222749   4.017   1.713   3.276
 7284SOL     OW22750   0.996   3.203   6.293
 7284SOL    HW122751   1.075   3.160   6.250
 7284SOL    HW222752   1.001   3.302   6.280
 7285SOL     OW22753   5.204   3.377   2.810
 7285SOL    HW122754   5.262   3.323   2.749
 7285SOL    HW222755   5.110   3.373   2.778
 7286SOL     OW22756   2.713   0.849   0.047
 7286SOL    HW122757   2.771   0.839   0.127
 7286SOL    HW222758   2.713   0.945   0.017
 7287SOL     OW22759   0.165   2.591   5.784
 7287SOL    HW122760   0.146   2.527   5.858
 7287SOL    HW222761   0.116   2.562   5.701
 7288SOL     OW22762   3.053   0.464   0.357
 7288SOL    HW122763   3.040   0.500   0.449
 7288SOL    HW222764   2.979   0.400   0.335
 7289SOL     OW22765   5.301   2.269   4.323
 7289SOL    HW122766   5.262   2.343   4.377
 7289SOL    HW222767   5.266   2.181   4.355
 7290SOL     OW22768   3.590   0.470   5.756
 7290SOL    HW122769   3.506   0.415   5.746
 7290SOL    HW222770   3.605   0.523   5.672
 7291SOL     OW22771   1.644   6.576   0.810
 7291SOL    HW122772   1.741   6.566   0.833
 7291SOL    HW222773   1.628   6.543   0.717
 7292SOL     OW22774   3.074   1.422   3.503
 7292SOL    HW122775   2.984   1.414   3.460
 7292SOL    HW222776   3.115   1.510   3.477
 7293SOL     OW22777   1.606   2.119   5.256
 7293SOL    HW122778   1.682   2.081   5.308
 7293SOL    HW222779   1.559   2.045   5.208
 7294SOL     OW22780   2.139   4.813   6.968
 7294SOL    HW122781   2.182   4.723   6.962
 7294SOL    HW222782   2.047   4.803   7.005
 7295SOL     OW22783   0.819   2.058   0.529
 7295SOL    HW122784   0.831   2.156   0.514
 7295SOL    HW222785   0.903   2.020   0.569
 7296SOL     OW22786   2.532   5.330   1.304
 7296SOL    HW122787   2.561   5.268   1.377
 7296SOL    HW222788   2.554   5.424   1.330
 7297SOL     OW22789   3.534   6.388   1.305
 7297SOL    HW122790   3.561   6.449   1.231
 7297SOL    HW222791   3.434   6.381   1.307
 7298SOL     OW22792   4.786   4.214   5.440
 7298SOL    HW122793   4.698   4.168   5.437
 7298SOL    HW222794   4.773   4.312   5.427
 7299SOL     OW22795   0.223   1.642   0.162
 7299SOL    HW122796   0.234   1.739   0.140
 7299SOL    HW222797   0.300   1.590   0.125
 7300SOL     OW22798   6.449   5.763   2.638
 7300SOL    HW122799   6.391   5.780   2.718
 7300SOL    HW222800   6.416   5.683   2.589
 7301SOL     OW22801   5.975   1.534   4.809
 7301SOL    HW122802   5.910   1.609   4.799
 7301SOL    HW222803   6.021   1.541   4.898
 7302SOL     OW22804   0.441   2.023   5.721
 7302SOL    HW122805   0.342   2.035   5.716
 7302SOL    HW222806   0.470   2.022   5.817
 7303SOL     OW22807   4.532   0.209   0.100
 7303SOL    HW122808   4.518   0.155   0.017
 7303SOL    HW222809   4.494   0.160   0.178
 7304SOL     OW22810   3.762   4.826   0.679
 7304SOL    HW122811   3.689   4.778   0.726
 7304SOL    HW222812   3.731   4.917   0.650
 7305SOL     OW22813   4.937   0.544   0.187
 7305SOL    HW122814   4.935   0.638   0.223
 7305SOL    HW222815   5.022   0.500   0.213
 7306SOL     OW22816   5.075   2.478   1.795
 7306SOL    HW122817   5.056   2.445   1.702
 7306SOL    HW222818   4.996   2.532   1.827
 7307SOL     OW22819   2.138   7.006   2.493
 7307SOL    HW122820   2.067   0.054   2.515
 7307SOL    HW222821   2.220   0.037   2.463
 7308SOL     OW22822   0.047   3.790   5.953
 7308SOL    HW122823   0.102   3.707   5.952
 7308SOL    HW222824   0.006   3.804   5.863
 7309SOL     OW22825   4.862   5.744   1.246
 7309SOL    HW122826   4.911   5.820   1.288
 7309SOL    HW222827   4.927   5.680   1.204
 7310SOL     OW22828   2.308   3.680   1.510
 7310SOL    HW122829   2.271   3.742   1.441
 7310SOL    HW222830   2.233   3.635   1.558
 7311SOL     OW22831   3.671   2.053   1.766
 7311SOL    HW122832   3.647   2.134   1.819
 7311SOL    HW222833   3.771   2.049   1.756
 7312SOL     OW22834   0.263   3.748   5.429
 7312SOL    HW122835   0.331   3.675   5.421
 7312SOL    HW222836   0.305   3.829   5.470
 7313SOL     OW22837   2.954   1.380   6.350
 7313SOL    HW122838   2.918   1.374   6.443
 7313SOL    HW222839   3.030   1.315   6.340
 7314SOL     OW22840   6.846   5.389   5.655
 7314SOL    HW122841   6.768   5.369   5.596
 7314SOL    HW222842   6.921   5.327   5.633
 7315SOL     OW22843   6.657   0.515   2.498
 7315SOL    HW122844   6.656   0.611   2.524
 7315SOL    HW222845   6.751   0.486   2.480
 7316SOL     OW22846   3.234   4.721   6.636
 7316SOL    HW122847   3.270   4.628   6.643
 7316SOL    HW222848   3.148   4.727   6.688
 7317SOL     OW22849   4.861   1.144   2.725
 7317SOL    HW122850   4.870   1.052   2.765
 7317SOL    HW222851   4.926   1.154   2.651
 7318SOL     OW22852   1.427   1.031   0.835
 7318SOL    HW122853   1.386   0.982   0.758
 7318SOL    HW222854   1.375   1.012   0.918
 7319SOL     OW22855   6.815   4.409   6.394
 7319SOL    HW122856   6.819   4.312   6.371
 7319SOL    HW222857   6.854   4.424   6.485
 7320SOL     OW22858   6.382   3.738   2.114
 7320SOL    HW122859   6.378   3.733   2.214
 7320SOL    HW222860   6.465   3.785   2.086
 7321SOL     OW22861   2.429   6.860   5.585
 7321SOL    HW122862   2.492   6.816   5.649
 7321SOL    HW222863   2.386   6.791   5.527
 7322SOL     OW22864   6.376   2.556   3.568
 7322SOL    HW122865   6.300   2.621   3.575
 7322SOL    HW222866   6.341   2.463   3.584
 7323SOL     OW22867   2.064   1.886   2.065
 7323SOL    HW122868   2.077   1.918   1.971
 7323SOL    HW222869   1.972   1.848   2.074
 7324SOL     OW22870   4.924   6.153   2.335
 7324SOL    HW122871   4.917   6.251   2.357
 7324SOL    HW222872   4.952   6.142   2.240
 7325SOL     OW22873   3.565   6.389   0.515
 7325SOL    HW122874   3.541   6.481   0.484
 7325SOL    HW222875   3.664   6.384   0.527
 7326SOL     OW22876   3.141   6.031   5.581
 7326SOL    HW122877   3.241   6.032   5.574
 7326SOL    HW222878   3.108   5.937   5.574
 7327SOL     OW22879   5.946   2.003   6.404
 7327SOL    HW122880   5.884   2.026   6.329
 7327SOL    HW222881   6.038   2.038   6.382
 7328SOL     OW22882   3.354   0.257   6.336
 7328SOL    HW122883   3.280   0.273   6.270
 7328SOL    HW222884   3.341   0.317   6.415
 7329SOL     OW22885   5.717   4.604   1.423
 7329SOL    HW122886   5.651   4.678   1.411
 7329SOL    HW222887   5.675   4.530   1.476
 7330SOL     OW22888   2.496   2.130   6.825
 7330SOL    HW122889   2.577   2.088   6.865
 7330SOL    HW222890   2.473   2.083   6.739
 7331SOL     OW22891   5.739   6.918   2.459
 7331SOL    HW122892   5.810   6.874   2.514
 7331SOL    HW222893   5.781   6.987   2.400
 7332SOL     OW22894   2.124   6.063   0.712
 7332SOL    HW122895   2.165   6.027   0.629
 7332SOL    HW222896   2.060   5.997   0.750
 7333SOL     OW22897   0.297   2.503   2.696
 7333SOL    HW122898   0.305   2.570   2.770
 7333SOL    HW222899   0.306   2.411   2.733
 7334SOL     OW22900   3.289   5.591   6.666
 7334SOL    HW122901   3.196   5.564   6.689
 7334SOL    HW222902   3.288   5.663   6.597
 7335SOL     OW22903   1.572   2.687   2.608
 7335SOL    HW122904   1.672   2.685   2.610
 7335SOL    HW222905   1.541   2.765   2.554
 7336SOL     OW22906   1.453   6.520   3.309
 7336SOL    HW122907   1.505   6.567   3.380
 7336SOL    HW222908   1.382   6.464   3.351
 7337SOL     OW22909   0.322   3.514   1.446
 7337SOL    HW122910   0.376   3.482   1.368
 7337SOL    HW222911   0.272   3.597   1.420
 7338SOL     OW22912   6.458   2.615   1.313
 7338SOL    HW122913   6.420   2.607   1.406
 7338SOL    HW222914   6.534   2.551   1.303
 7339SOL     OW22915   5.545   6.676   3.561
 7339SOL    HW122916   5.530   6.739   3.636
 7339SOL    HW222917   5.475   6.689   3.491
 7340SOL     OW22918   2.483   0.713   1.046
 7340SOL    HW122919   2.478   0.805   1.007
 7340SOL    HW222920   2.413   0.704   1.117
 7341SOL     OW22921   6.675   2.968   6.619
 7341SOL    HW122922   6.615   2.989   6.696
 7341SOL    HW222923   6.760   3.021   6.627
 7342SOL     OW22924   6.779   1.301   1.452
 7342SOL    HW122925   6.832   1.280   1.534
 7342SOL    HW222926   6.689   1.337   1.478
 7343SOL     OW22927   5.578   3.485   0.388
 7343SOL    HW122928   5.486   3.513   0.416
 7343SOL    HW222929   5.609   3.541   0.311
 7344SOL     OW22930   0.263   0.975   6.795
 7344SOL    HW122931   0.329   0.900   6.797
 7344SOL    HW222932   0.261   1.015   6.704
 7345SOL     OW22933   4.504   3.765   5.517
 7345SOL    HW122934   4.476   3.769   5.613
 7345SOL    HW222935   4.488   3.674   5.481
 7346SOL     OW22936   4.215   5.603   2.231
 7346SOL    HW122937   4.308   5.595   2.196
 7346SOL    HW222938   4.209   5.682   2.292
 7347SOL     OW22939   0.952   1.584   0.690
 7347SOL    HW122940   0.884   1.627   0.749
 7347SOL    HW222941   1.006   1.519   0.744
 7348SOL     OW22942   1.452   4.656   3.487
 7348SOL    HW122943   1.487   4.644   3.580
 7348SOL    HW222944   1.472   4.574   3.432
 7349SOL     OW22945   4.291   0.337   1.874
 7349SOL    HW122946   4.301   0.412   1.809
 7349SOL    HW222947   4.229   0.364   1.947
 7350SOL     OW22948   2.653   2.278   5.667
 7350SOL    HW122949   2.581   2.233   5.720
 7350SOL    HW222950   2.711   2.209   5.625
 7351SOL     OW22951   5.791   5.578   3.697
 7351SOL    HW122952   5.771   5.676   3.697
 7351SOL    HW222953   5.749   5.535   3.777
 7352SOL     OW22954   1.605   1.904   2.709
 7352SOL    HW122955   1.645   1.819   2.742
 7352SOL    HW222956   1.651   1.933   2.626
 7353SOL     OW22957   0.080   0.216   6.866
 7353SOL    HW122958   0.128   0.259   6.942
 7353SOL    HW222959   7.013   0.175   6.900
 7354SOL     OW22960   1.318   1.898   5.403
 7354SOL    HW122961   1.371   1.941   5.329
 7354SOL    HW222962   1.382   1.861   5.470
 7355SOL     OW22963   1.477   0.948   0.189
 7355SOL    HW122964   1.427   0.891   0.123
 7355SOL    HW222965   1.575   0.939   0.173
 7356SOL     OW22966   3.869   3.466   6.642
 7356SOL    HW122967   3.818   3.460   6.556
 7356SOL    HW222968   3.919   3.381   6.657
 7357SOL     OW22969   3.438   5.987   2.178
 7357SOL    HW122970   3.467   5.917   2.113
 7357SOL    HW222971   3.391   6.060   2.130
 7358SOL     OW22972   6.278   3.345   2.257
 7358SOL    HW122973   6.321   3.346   2.347
 7358SOL    HW222974   6.179   3.340   2.267
 7359SOL     OW22975   4.430   2.332   5.242
 7359SOL    HW122976   4.350   2.281   5.212
 7359SOL    HW222977   4.493   2.271   5.291
 7360SOL     OW22978   2.822   3.068   5.555
 7360SOL    HW122979   2.749   3.040   5.617
 7360SOL    HW222980   2.806   3.030   5.464
 7361SOL     OW22981   5.376   0.613   2.416
 7361SOL    HW122982   5.415   0.618   2.324
 7361SOL    HW222983   5.438   0.562   2.476
 7362SOL     OW22984   1.786   5.818   6.356
 7362SOL    HW122985   1.813   5.726   6.327
 7362SOL    HW222986   1.711   5.850   6.299
 7363SOL     OW22987   4.483   1.713   1.370
 7363SOL    HW122988   4.482   1.672   1.461
 7363SOL    HW222989   4.536   1.656   1.308
 7364SOL     OW22990   4.009   0.857   2.075
 7364SOL    HW122991   4.050   0.784   2.020
 7364SOL    HW222992   4.066   0.939   2.067
 7365SOL     OW22993   0.676   6.213   1.789
 7365SOL    HW122994   0.621   6.146   1.839
 7365SOL    HW222995   0.761   6.230   1.838
 7366SOL     OW22996   2.118   6.673   5.697
 7366SOL    HW122997   2.080   6.710   5.612
 7366SOL    HW222998   2.182   6.600   5.674
 7367SOL     OW22999   4.722   2.663   0.533
 7367SOL    HW123000   4.747   2.642   0.627
 7367SOL    HW223001   4.804   2.689   0.481
 7368SOL     OW23002   3.678   2.932   2.261
 7368SOL    HW123003   3.585   2.928   2.299
 7368SOL    HW223004   3.710   2.839   2.243
 7369SOL     OW23005   3.219   2.215   0.948
 7369SOL    HW123006   3.277   2.172   1.018
 7369SOL    HW223007   3.158   2.146   0.909
 7370SOL     OW23008   2.676   1.153   6.265
 7370SOL    HW123009   2.660   1.205   6.349
 7370SOL    HW223010   2.613   1.185   6.194
 7371SOL     OW23011   2.812   6.522   3.224
 7371SOL    HW123012   2.798   6.620   3.212
 7371SOL    HW223013   2.871   6.505   3.303
 7372SOL     OW23014   4.694   6.755   4.728
 7372SOL    HW123015   4.674   6.833   4.787
 7372SOL    HW223016   4.619   6.689   4.734
 7373SOL     OW23017   6.149   1.798   5.060
 7373SOL    HW123018   6.064   1.817   5.010
 7373SOL    HW223019   6.161   1.867   5.131
 7374SOL     OW23020   2.429   2.364   4.955
 7374SOL    HW123021   2.491   2.322   5.022
 7374SOL    HW223022   2.366   2.425   5.002
 7375SOL     OW23023   2.447   2.578   2.063
 7375SOL    HW123024   2.509   2.503   2.042
 7375SOL    HW223025   2.420   2.573   2.160
 7376SOL     OW23026   1.165   2.073   1.363
 7376SOL    HW123027   1.171   2.111   1.455
 7376SOL    HW223028   1.140   1.977   1.368
 7377SOL     OW23029   5.070   5.205   0.455
 7377SOL    HW123030   5.156   5.157   0.469
 7377SOL    HW223031   5.010   5.190   0.533
 7378SOL     OW23032   1.566   0.935   4.420
 7378SOL    HW123033   1.476   0.928   4.463
 7378SOL    HW223034   1.576   1.025   4.379
 7379SOL     OW23035   3.203   1.013   2.201
 7379SOL    HW123036   3.219   1.005   2.103
 7379SOL    HW223037   3.268   1.078   2.240
 7380SOL     OW23038   0.069   4.556   4.368
 7380SOL    HW123039   0.083   4.576   4.271
 7380SOL    HW223040   0.157   4.556   4.415
 7381SOL     OW23041   3.743   3.453   0.490
 7381SOL    HW123042   3.735   3.370   0.546
 7381SOL    HW223043   3.836   3.489   0.497
 7382SOL     OW23044   6.752   1.224   5.246
 7382SOL    HW123045   6.728   1.179   5.160
 7382SOL    HW223046   6.797   1.312   5.225
 7383SOL     OW23047   2.821   6.104   1.239
 7383SOL    HW123048   2.853   6.016   1.204
 7383SOL    HW223049   2.872   6.128   1.321
 7384SOL     OW23050   6.366   6.959   2.542
 7384SOL    HW123051   6.317   0.028   2.554
 7384SOL    HW223052   6.401   6.953   2.449
 7385SOL     OW23053   2.889   5.350   2.584
 7385SOL    HW123054   2.894   5.450   2.584
 7385SOL    HW223055   2.952   5.313   2.652
 7386SOL     OW23056   6.876   3.150   6.600
 7386SOL    HW123057   6.972   3.132   6.581
 7386SOL    HW223058   6.861   3.249   6.602
 7387SOL     OW23059   6.660   5.149   5.117
 7387SOL    HW123060   6.756   5.121   5.104
 7387SOL    HW223061   6.634   5.136   5.213
 7388SOL     OW23062   1.330   4.827   2.443
 7388SOL    HW123063   1.356   4.833   2.346
 7388SOL    HW223064   1.267   4.751   2.456
 7389SOL     OW23065   6.887   3.609   6.634
 7389SOL    HW123066   6.981   3.587   6.610
 7389SOL    HW223067   6.878   3.707   6.652
 7390SOL     OW23068   2.549   1.850   2.502
 7390SOL    HW123069   2.636   1.849   2.452
 7390SOL    HW223070   2.533   1.759   2.542
 7391SOL     OW23071   3.586   2.883   3.303
 7391SOL    HW123072   3.643   2.844   3.376
 7391SOL    HW223073   3.637   2.956   3.258
 7392SOL     OW23074   3.860   5.975   6.558
 7392SOL    HW123075   3.934   6.035   6.586
 7392SOL    HW223076   3.898   5.891   6.519
 7393SOL     OW23077   6.404   4.574   2.973
 7393SOL    HW123078   6.328   4.615   2.921
 7393SOL    HW223079   6.484   4.565   2.913
 7394SOL     OW23080   1.553   2.755   5.896
 7394SOL    HW123081   1.529   2.765   5.992
 7394SOL    HW223082   1.576   2.659   5.877
 7395SOL     OW23083   2.148   3.491   1.164
 7395SOL    HW123084   2.224   3.427   1.150
 7395SOL    HW223085   2.156   3.567   1.100
 7396SOL     OW23086   2.189   6.756   1.332
 7396SOL    HW123087   2.177   6.789   1.238
 7396SOL    HW223088   2.108   6.779   1.386
 7397SOL     OW23089   5.402   4.810   4.392
 7397SOL    HW123090   5.412   4.761   4.479
 7397SOL    HW223091   5.424   4.749   4.316
 7398SOL     OW23092   0.823   5.571   3.110
 7398SOL    HW123093   0.754   5.565   3.038
 7398SOL    HW223094   0.864   5.481   3.126
 7399SOL     OW23095   0.028   3.258   4.401
 7399SOL    HW123096   0.123   3.285   4.385
 7399SOL    HW223097   6.985   3.310   4.341
 7400SOL     OW23098   4.219   2.672   6.157
 7400SOL    HW123099   4.286   2.608   6.197
 7400SOL    HW223100   4.154   2.621   6.101
 7401SOL     OW23101   1.493   2.908   2.916
 7401SOL    HW123102   1.563   2.837   2.913
 7401SOL    HW223103   1.536   2.997   2.925
 7402SOL     OW23104   2.987   4.168   6.007
 7402SOL    HW123105   2.963   4.074   6.031
 7402SOL    HW223106   2.912   4.209   5.955
 7403SOL     OW23107   1.288   3.468   2.805
 7403SOL    HW123108   1.241   3.380   2.811
 7403SOL    HW223109   1.375   3.463   2.853
 7404SOL     OW23110   2.739   4.747   1.746
 7404SOL    HW123111   2.776   4.692   1.671
 7404SOL    HW223112   2.762   4.703   1.833
 7405SOL     OW23113   3.231   5.155   4.227
 7405SOL    HW123114   3.218   5.064   4.267
 7405SOL    HW223115   3.324   5.163   4.191
 7406SOL     OW23116   0.890   1.590   4.558
 7406SOL    HW123117   0.979   1.587   4.602
 7406SOL    HW223118   0.825   1.640   4.616
 7407SOL     OW23119   1.419   6.185   5.546
 7407SOL    HW123120   1.456   6.155   5.634
 7407SOL    HW223121   1.483   6.250   5.504
 7408SOL     OW23122   3.789   4.313   5.883
 7408SOL    HW123123   3.791   4.222   5.842
 7408SOL    HW223124   3.701   4.356   5.865
 7409SOL     OW23125   5.540   4.133   0.804
 7409SOL    HW123126   5.592   4.049   0.820
 7409SOL    HW223127   5.461   4.135   0.866
 7410SOL     OW23128   0.405   0.975   0.444
 7410SOL    HW123129   0.505   0.985   0.447
 7410SOL    HW223130   0.364   1.024   0.521
 7411SOL     OW23131   1.915   0.557   6.379
 7411SOL    HW123132   1.933   0.461   6.398
 7411SOL    HW223133   1.832   0.586   6.426
 7412SOL     OW23134   4.008   6.656   0.897
 7412SOL    HW123135   4.100   6.678   0.864
 7412SOL    HW223136   3.959   6.740   0.920
 7413SOL     OW23137   4.509   4.848   3.869
 7413SOL    HW123138   4.440   4.784   3.837
 7413SOL    HW223139   4.483   4.941   3.843
 7414SOL     OW23140   2.573   1.267   3.240
 7414SOL    HW123141   2.526   1.180   3.251
 7414SOL    HW223142   2.515   1.331   3.190
 7415SOL     OW23143   2.095   4.905   5.083
 7415SOL    HW123144   2.170   4.853   5.041
 7415SOL    HW223145   2.037   4.843   5.136
 7416SOL     OW23146   1.976   0.819   2.536
 7416SOL    HW123147   2.002   0.726   2.509
 7416SOL    HW223148   2.022   0.884   2.475
 7417SOL     OW23149   1.871   2.358   1.820
 7417SOL    HW123150   1.890   2.339   1.724
 7417SOL    HW223151   1.958   2.360   1.871
 7418SOL     OW23152   1.736   4.533   6.643
 7418SOL    HW123153   1.737   4.633   6.637
 7418SOL    HW223154   1.829   4.501   6.662
 7419SOL     OW23155   6.435   4.031   3.971
 7419SOL    HW123156   6.516   4.023   3.913
 7419SOL    HW223157   6.453   4.096   4.045
 7420SOL     OW23158   0.098   6.608   0.943
 7420SOL    HW123159   0.045   6.667   1.004
 7420SOL    HW223160   0.081   6.634   0.848
 7421SOL     OW23161   4.151   3.526   1.329
 7421SOL    HW123162   4.189   3.587   1.260
 7421SOL    HW223163   4.151   3.572   1.418
 7422SOL     OW23164   6.754   4.007   2.059
 7422SOL    HW123165   6.705   3.922   2.040
 7422SOL    HW223166   6.720   4.046   2.144
 7423SOL     OW23167   6.126   2.969   5.607
 7423SOL    HW123168   6.184   2.984   5.527
 7423SOL    HW223169   6.095   3.057   5.643
 7424SOL     OW23170   6.913   1.863   5.487
 7424SOL    HW123171   6.824   1.901   5.465
 7424SOL    HW223172   6.918   1.768   5.457
 7425SOL     OW23173   4.994   0.018   0.441
 7425SOL    HW123174   5.083   0.062   0.441
 7425SOL    HW223175   4.963   0.006   0.535
 7426SOL     OW23176   3.465   1.857   5.532
 7426SOL    HW123177   3.522   1.940   5.531
 7426SOL    HW223178   3.372   1.881   5.559
 7427SOL     OW23179   5.021   0.973   4.247
 7427SOL    HW123180   5.073   1.006   4.326
 7427SOL    HW223181   5.077   0.978   4.165
 7428SOL     OW23182   4.050   0.153   5.457
 7428SOL    HW123183   4.111   0.100   5.517
 7428SOL    HW223184   4.062   0.250   5.476
 7429SOL     OW23185   0.935   6.424   3.510
 7429SOL    HW123186   0.930   6.348   3.575
 7429SOL    HW223187   0.876   6.404   3.432
 7430SOL     OW23188   6.721   3.547   0.940
 7430SOL    HW123189   6.772   3.518   1.021
 7430SOL    HW223190   6.776   3.530   0.858
 7431SOL     OW23191   0.474   2.348   3.043
 7431SOL    HW123192   0.504   2.390   2.957
 7431SOL    HW223193   0.506   2.404   3.119
 7432SOL     OW23194   2.041   0.834   3.398
 7432SOL    HW123195   1.963   0.882   3.438
 7432SOL    HW223196   2.061   0.752   3.452
 7433SOL     OW23197   4.276   6.288   6.391
 7433SOL    HW123198   4.247   6.237   6.310
 7433SOL    HW223199   4.198   6.298   6.453
 7434SOL     OW23200   5.485   5.095   5.509
 7434SOL    HW123201   5.558   5.045   5.462
 7434SOL    HW223202   5.455   5.171   5.452
 7435SOL     OW23203   4.865   6.453   1.569
 7435SOL    HW123204   4.822   6.390   1.505
 7435SOL    HW223205   4.838   6.429   1.663
 7436SOL     OW23206   4.528   4.229   6.106
 7436SOL    HW123207   4.613   4.229   6.054
 7436SOL    HW223208   4.450   4.233   6.043
 7437SOL     OW23209   3.161   5.351   0.411
 7437SOL    HW123210   3.176   5.252   0.410
 7437SOL    HW223211   3.151   5.384   0.316
 7438SOL     OW23212   1.335   0.093   6.810
 7438SOL    HW123213   1.274   0.092   6.731
 7438SOL    HW223214   1.421   0.139   6.786
 7439SOL     OW23215   1.665   6.323   5.454
 7439SOL    HW123216   1.754   6.348   5.491
 7439SOL    HW223217   1.674   6.240   5.398
 7440SOL     OW23218   6.647   3.060   3.999
 7440SOL    HW123219   6.619   2.968   4.027
 7440SOL    HW223220   6.595   3.128   4.051
 7441SOL     OW23221   5.752   0.034   4.171
 7441SOL    HW123222   5.682   0.048   4.101
 7441SOL    HW223223   5.709   0.034   4.262
 7442SOL     OW23224   5.557   1.151   0.413
 7442SOL    HW123225   5.493   1.211   0.460
 7442SOL    HW223226   5.648   1.194   0.410
 7443SOL     OW23227   6.641   5.603   2.251
 7443SOL    HW123228   6.643   5.512   2.293
 7443SOL    HW223229   6.730   5.622   2.207
 7444SOL     OW23230   5.646   0.735   6.269
 7444SOL    HW123231   5.640   0.753   6.367
 7444SOL    HW223232   5.686   0.813   6.222
 7445SOL     OW23233   3.345   0.620   1.564
 7445SOL    HW123234   3.302   0.648   1.478
 7445SOL    HW223235   3.432   0.575   1.545
 7446SOL     OW23236   4.882   1.976   0.505
 7446SOL    HW123237   4.877   1.929   0.594
 7446SOL    HW223238   4.917   1.913   0.436
 7447SOL     OW23239   6.487   4.590   6.112
 7447SOL    HW123240   6.480   4.686   6.084
 7447SOL    HW223241   6.397   4.546   6.104
 7448SOL     OW23242   5.805   6.830   4.990
 7448SOL    HW123243   5.888   6.878   4.960
 7448SOL    HW223244   5.827   6.734   5.008
 7449SOL     OW23245   0.909   5.544   0.673
 7449SOL    HW123246   0.905   5.445   0.687
 7449SOL    HW223247   0.951   5.587   0.753
 7450SOL     OW23248   5.116   2.599   5.187
 7450SOL    HW123249   5.081   2.692   5.182
 7450SOL    HW223250   5.110   2.556   5.097
 7451SOL     OW23251   5.933   5.636   2.319
 7451SOL    HW123252   5.839   5.633   2.352
 7451SOL    HW223253   5.937   5.603   2.225
 7452SOL     OW23254   6.199   5.726   4.277
 7452SOL    HW123255   6.145   5.723   4.193
 7452SOL    HW223256   6.282   5.779   4.261
 7453SOL     OW23257   4.195   5.266   5.364
 7453SOL    HW123258   4.217   5.352   5.410
 7453SOL    HW223259   4.232   5.268   5.271
 7454SOL     OW23260   2.655   1.508   0.744
 7454SOL    HW123261   2.683   1.413   0.730
 7454SOL    HW223262   2.676   1.536   0.838
 7455SOL     OW23263   6.600   3.793   1.955
 7455SOL    HW123264   6.618   3.788   1.857
 7455SOL    HW223265   6.631   3.709   1.999
 7456SOL     OW23266   2.206   1.093   4.960
 7456SOL    HW123267   2.254   1.017   4.917
 7456SOL    HW223268   2.205   1.172   4.898
 7457SOL     OW23269   3.179   0.352   4.476
 7457SOL    HW123270   3.111   0.425   4.483
 7457SOL    HW223271   3.255   0.383   4.419
 7458SOL     OW23272   1.425   6.913   5.816
 7458SOL    HW123273   1.358   6.910   5.742
 7458SOL    HW223274   1.498   6.977   5.793
 7459SOL     OW23275   6.005   1.333   2.435
 7459SOL    HW123276   6.076   1.401   2.418
 7459SOL    HW223277   5.946   1.364   2.510
 7460SOL     OW23278   1.597   5.868   0.027
 7460SOL    HW123279   1.618   5.957   0.069
 7460SOL    HW223280   1.498   5.857   0.019
 7461SOL     OW23281   5.845   6.109   5.794
 7461SOL    HW123282   5.791   6.034   5.832
 7461SOL    HW223283   5.794   6.195   5.804
 7462SOL     OW23284   2.189   4.689   1.941
 7462SOL    HW123285   2.123   4.621   1.971
 7462SOL    HW223286   2.278   4.645   1.925
 7463SOL     OW23287   3.309   3.728   0.342
 7463SOL    HW123288   3.210   3.721   0.334
 7463SOL    HW223289   3.331   3.805   0.402
 7464SOL     OW23290   6.072   6.814   5.352
 7464SOL    HW123291   6.124   6.893   5.318
 7464SOL    HW223292   6.067   6.818   5.452
 7465SOL     OW23293   2.683   5.174   0.138
 7465SOL    HW123294   2.634   5.156   0.053
 7465SOL    HW223295   2.781   5.180   0.120
 7466SOL     OW23296   0.009   0.781   6.147
 7466SOL    HW123297   6.996   0.840   6.222
 7466SOL    HW223298   0.085   0.725   6.177
 7467SOL     OW23299   0.592   2.458   5.901
 7467SOL    HW123300   0.580   2.401   5.983
 7467SOL    HW223301   0.507   2.507   5.882
 7468SOL     OW23302   4.860   3.137   4.418
 7468SOL    HW123303   4.825   3.050   4.456
 7468SOL    HW223304   4.926   3.118   4.346
 7469SOL     OW23305   6.269   1.298   0.345
 7469SOL    HW123306   6.350   1.240   0.356
 7469SOL    HW223307   6.206   1.282   0.421
 7470SOL     OW23308   5.251   4.332   3.353
 7470SOL    HW123309   5.200   4.253   3.320
 7470SOL    HW223310   5.318   4.359   3.284
 7471SOL     OW23311   5.382   6.071   6.095
 7471SOL    HW123312   5.383   6.156   6.044
 7471SOL    HW223313   5.303   6.070   6.157
 7472SOL     OW23314   6.656   0.938   5.609
 7472SOL    HW123315   6.614   0.848   5.624
 7472SOL    HW223316   6.593   1.010   5.638
 7473SOL     OW23317   5.329   5.931   4.162
 7473SOL    HW123318   5.270   5.909   4.084
 7473SOL    HW223319   5.371   5.847   4.196
 7474SOL     OW23320   6.799   2.122   6.349
 7474SOL    HW123321   6.716   2.110   6.404
 7474SOL    HW223322   6.824   2.034   6.308
 7475SOL     OW23323   4.516   2.417   2.006
 7475SOL    HW123324   4.553   2.340   1.955
 7475SOL    HW223325   4.417   2.408   2.014
 7476SOL     OW23326   2.124   1.744   3.057
 7476SOL    HW123327   2.183   1.663   3.047
 7476SOL    HW223328   2.181   1.825   3.072
 7477SOL     OW23329   6.992   3.070   5.367
 7477SOL    HW123330   6.907   3.113   5.337
 7477SOL    HW223331   6.984   2.971   5.361
 7478SOL     OW23332   5.869   3.467   5.372
 7478SOL    HW123333   5.903   3.382   5.331
 7478SOL    HW223334   5.933   3.497   5.444
 7479SOL     OW23335   5.095   2.388   1.523
 7479SOL    HW123336   5.121   2.392   1.427
 7479SOL    HW223337   5.145   2.314   1.569
 7480SOL     OW23338   1.912   4.534   2.304
 7480SOL    HW123339   1.888   4.573   2.393
 7480SOL    HW223340   2.004   4.494   2.309
 7481SOL     OW23341   6.592   4.875   0.231
 7481SOL    HW123342   6.517   4.903   0.171
 7481SOL    HW223343   6.555   4.829   0.311
 7482SOL     OW23344   4.375   2.011   2.348
 7482SOL    HW123345   4.409   2.044   2.436
 7482SOL    HW223346   4.283   1.973   2.360
 7483SOL     OW23347   4.757   2.913   4.524
 7483SOL    HW123348   4.692   2.846   4.488
 7483SOL    HW223349   4.810   2.871   4.598
 7484SOL     OW23350   1.737   5.274   4.584
 7484SOL    HW123351   1.826   5.299   4.547
 7484SOL    HW223352   1.720   5.177   4.566
 7485SOL     OW23353   2.286   0.441   4.519
 7485SOL    HW123354   2.252   0.351   4.544
 7485SOL    HW223355   2.382   0.434   4.490
 7486SOL     OW23356   0.764   6.398   0.352
 7486SOL    HW123357   0.734   6.367   0.262
 7486SOL    HW223358   0.858   6.433   0.345
 7487SOL     OW23359   3.255   0.357   3.386
 7487SOL    HW123360   3.345   0.392   3.360
 7487SOL    HW223361   3.184   0.410   3.340
 7488SOL     OW23362   2.099   6.178   4.590
 7488SOL    HW123363   2.125   6.114   4.518
 7488SOL    HW223364   2.053   6.257   4.550
 7489SOL     OW23365   5.914   3.056   6.885
 7489SOL    HW123366   5.926   3.155   6.894
 7489SOL    HW223367   5.821   3.031   6.913
 7490SOL     OW23368   1.646   0.715   2.892
 7490SOL    HW123369   1.684   0.684   2.979
 7490SOL    HW223370   1.567   0.773   2.909
 7491SOL     OW23371   5.105   2.924   6.920
 7491SOL    HW123372   5.104   3.024   6.923
 7491SOL    HW223373   5.046   2.893   6.845
 7492SOL     OW23374   1.972   1.254   4.339
 7492SOL    HW123375   1.936   1.221   4.427
 7492SOL    HW223376   2.036   1.187   4.302
 7493SOL     OW23377   6.504   3.130   5.821
 7493SOL    HW123378   6.518   3.228   5.830
 7493SOL    HW223379   6.532   3.084   5.906
 7494SOL     OW23380   5.954   1.384   3.981
 7494SOL    HW123381   5.903   1.414   4.062
 7494SOL    HW223382   5.988   1.464   3.932
 7495SOL     OW23383   0.953   2.817   5.351
 7495SOL    HW123384   0.949   2.739   5.414
 7495SOL    HW223385   0.951   2.785   5.257
 7496SOL     OW23386   5.256   3.767   4.482
 7496SOL    HW123387   5.194   3.733   4.412
 7496SOL    HW223388   5.292   3.689   4.535
 7497SOL     OW23389   1.683   5.467   1.451
 7497SOL    HW123390   1.647   5.375   1.461
 7497SOL    HW223391   1.754   5.484   1.520
 7498SOL     OW23392   3.315   1.129   3.969
 7498SOL    HW123393   3.290   1.171   4.056
 7498SOL    HW223394   3.233   1.095   3.924
 7499SOL     OW23395   4.571   2.121   3.530
 7499SOL    HW123396   4.473   2.103   3.523
 7499SOL    HW223397   4.622   2.045   3.491
 7500SOL     OW23398   3.458   5.711   2.546
 7500SOL    HW123399   3.405   5.792   2.522
 7500SOL    HW223400   3.397   5.633   2.557
 7501SOL     OW23401   5.557   4.246   3.674
 7501SOL    HW123402   5.623   4.232   3.600
 7501SOL    HW223403   5.593   4.210   3.759
 7502SOL     OW23404   3.040   6.507   4.302
 7502SOL    HW123405   3.035   6.450   4.220
 7502SOL    HW223406   2.979   6.586   4.293
 7503SOL     OW23407   2.323   6.199   1.211
 7503SOL    HW123408   2.263   6.119   1.214
 7503SOL    HW223409   2.282   6.270   1.155
 7504SOL     OW23410   0.351   6.287   2.964
 7504SOL    HW123411   0.359   6.209   2.903
 7504SOL    HW223412   0.307   6.363   2.915
 7505SOL     OW23413   1.579   2.123   6.586
 7505SOL    HW123414   1.572   2.151   6.490
 7505SOL    HW223415   1.675   2.114   6.611
 7506SOL     OW23416   4.416   2.401   3.285
 7506SOL    HW123417   4.409   2.301   3.285
 7506SOL    HW223418   4.413   2.435   3.191
 7507SOL     OW23419   6.221   2.791   3.629
 7507SOL    HW123420   6.247   2.863   3.565
 7507SOL    HW223421   6.255   2.814   3.720
 7508SOL     OW23422   2.288   5.099   0.289
 7508SOL    HW123423   2.383   5.089   0.317
 7508SOL    HW223424   2.234   5.136   0.365
 7509SOL     OW23425   6.065   2.942   0.707
 7509SOL    HW123426   6.040   3.008   0.779
 7509SOL    HW223427   6.074   2.990   0.620
 7510SOL     OW23428   4.168   3.600   4.309
 7510SOL    HW123429   4.240   3.605   4.378
 7510SOL    HW223430   4.117   3.514   4.320
 7511SOL     OW23431   2.879   5.979   3.331
 7511SOL    HW123432   2.815   6.054   3.314
 7511SOL    HW223433   2.830   5.892   3.331
 7512SOL     OW23434   2.374   1.041   0.155
 7512SOL    HW123435   2.293   1.029   0.098
 7512SOL    HW223436   2.404   0.953   0.191
 7513SOL     OW23437   2.041   2.072   3.113
 7513SOL    HW123438   2.130   2.115   3.097
 7513SOL    HW223439   2.016   2.083   3.209
 7514SOL     OW23440   2.250   5.334   3.294
 7514SOL    HW123441   2.194   5.273   3.238
 7514SOL    HW223442   2.192   5.379   3.362
 7515SOL     OW23443   0.227   4.549   4.751
 7515SOL    HW123444   0.135   4.575   4.781
 7515SOL    HW223445   0.261   4.476   4.811
 7516SOL     OW23446   0.440   5.291   6.320
 7516SOL    HW123447   0.440   5.335   6.410
 7516SOL    HW223448   0.492   5.206   6.324
 7517SOL     OW23449   0.870   1.958   6.866
 7517SOL    HW123450   0.969   1.959   6.881
 7517SOL    HW223451   0.824   1.932   6.951
 7518SOL     OW23452   5.131   3.502   3.272
 7518SOL    HW123453   5.202   3.574   3.272
 7518SOL    HW223454   5.051   3.535   3.321
 7519SOL     OW23455   6.327   6.568   4.387
 7519SOL    HW123456   6.418   6.538   4.416
 7519SOL    HW223457   6.262   6.492   4.396
 7520SOL     OW23458   1.361   0.622   2.767
 7520SOL    HW123459   1.388   0.653   2.676
 7520SOL    HW223460   1.263   0.599   2.767
 7521SOL     OW23461   5.610   2.300   4.885
 7521SOL    HW123462   5.544   2.374   4.896
 7521SOL    HW223463   5.570   2.214   4.914
 7522SOL     OW23464   1.485   0.068   5.163
 7522SOL    HW123465   1.409   0.045   5.223
 7522SOL    HW223466   1.567   0.018   5.192
 7523SOL     OW23467   4.963   0.531   6.183
 7523SOL    HW123468   4.903   0.592   6.235
 7523SOL    HW223469   5.014   0.584   6.115
 7524SOL     OW23470   6.964   2.993   5.022
 7524SOL    HW123471   6.981   2.961   4.929
 7524SOL    HW223472   0.022   2.963   5.081
 7525SOL     OW23473   4.382   6.454   6.673
 7525SOL    HW123474   4.358   6.386   6.604
 7525SOL    HW223475   4.460   6.420   6.727
 7526SOL     OW23476   2.676   2.964   1.170
 7526SOL    HW123477   2.743   2.913   1.224
 7526SOL    HW223478   2.587   2.959   1.215
 7527SOL     OW23479   3.386   5.951   3.493
 7527SOL    HW123480   3.479   5.947   3.455
 7527SOL    HW223481   3.391   5.980   3.589
 7528SOL     OW23482   6.094   2.297   0.063
 7528SOL    HW123483   6.131   2.373   0.117
 7528SOL    HW223484   5.997   2.285   0.085
 7529SOL     OW23485   5.328   1.684   4.452
 7529SOL    HW123486   5.411   1.643   4.414
 7529SOL    HW223487   5.270   1.613   4.491
 7530SOL     OW23488   5.827   2.005   1.929
 7530SOL    HW123489   5.925   2.021   1.943
 7530SOL    HW223490   5.780   2.092   1.917
 7531SOL     OW23491   4.852   3.330   3.295
 7531SOL    HW123492   4.811   3.352   3.207
 7531SOL    HW223493   4.853   3.412   3.353
 7532SOL     OW23494   5.052   6.234   6.667
 7532SOL    HW123495   5.059   6.289   6.750
 7532SOL    HW223496   5.071   6.291   6.587
 7533SOL     OW23497   3.997   2.018   1.767
 7533SOL    HW123498   3.973   2.115   1.768
 7533SOL    HW223499   4.002   1.987   1.672
 7534SOL     OW23500   4.844   5.878   4.321
 7534SOL    HW123501   4.803   5.829   4.244
 7534SOL    HW223502   4.839   5.976   4.304
 7535SOL     OW23503   1.753   6.658   4.764
 7535SOL    HW123504   1.800   6.718   4.699
 7535SOL    HW223505   1.679   6.708   4.809
 7536SOL     OW23506   5.099   5.708   4.348
 7536SOL    HW123507   5.139   5.715   4.256
 7536SOL    HW223508   5.018   5.766   4.353
 7537SOL     OW23509   2.005   4.513   2.002
 7537SOL    HW123510   1.942   4.496   1.926
 7537SOL    HW223511   1.960   4.492   2.088
 7538SOL     OW23512   1.954   2.503   1.437
 7538SOL    HW123513   1.864   2.512   1.478
 7538SOL    HW223514   1.945   2.484   1.339
 7539SOL     OW23515   0.796   4.846   3.422
 7539SOL    HW123516   0.703   4.827   3.391
 7539SOL    HW223517   0.818   4.942   3.402
 7540SOL     OW23518   4.177   6.364   4.702
 7540SOL    HW123519   4.213   6.276   4.671
 7540SOL    HW223520   4.158   6.422   4.623
 7541SOL     OW23521   1.095   4.303   5.983
 7541SOL    HW123522   1.168   4.235   5.989
 7541SOL    HW223523   1.119   4.383   6.037
 7542SOL     OW23524   6.753   5.829   6.301
 7542SOL    HW123525   6.672   5.771   6.291
 7542SOL    HW223526   6.754   5.870   6.392
 7543SOL     OW23527   2.760   0.565   4.882
 7543SOL    HW123528   2.751   0.524   4.973
 7543SOL    HW223529   2.805   0.654   4.891
 7544SOL     OW23530   0.041   2.976   4.513
 7544SOL    HW123531   0.053   3.072   4.489
 7544SOL    HW223532   0.110   2.921   4.465
 7545SOL     OW23533   0.488   6.658   6.114
 7545SOL    HW123534   0.402   6.628   6.074
 7545SOL    HW223535   0.471   6.701   6.203
 7546SOL     OW23536   4.765   2.321   1.273
 7546SOL    HW123537   4.792   2.254   1.341
 7546SOL    HW223538   4.693   2.379   1.309
 7547SOL     OW23539   4.554   0.995   1.023
 7547SOL    HW123540   4.479   0.935   0.996
 7547SOL    HW223541   4.628   0.989   0.955
 7548SOL     OW23542   4.404   2.457   6.999
 7548SOL    HW123543   4.494   2.489   6.970
 7548SOL    HW223544   4.334   2.492   6.936
 7549SOL     OW23545   3.995   2.849   6.829
 7549SOL    HW123546   3.931   2.924   6.846
 7549SOL    HW223547   4.085   2.872   6.865
 7550SOL     OW23548   1.804   4.828   3.323
 7550SOL    HW123549   1.849   4.912   3.295
 7550SOL    HW223550   1.859   4.782   3.392
 7551SOL     OW23551   5.353   3.194   5.500
 7551SOL    HW123552   5.289   3.271   5.502
 7551SOL    HW223553   5.421   3.209   5.429
 7552SOL     OW23554   1.280   5.978   4.446
 7552SOL    HW123555   1.238   5.897   4.406
 7552SOL    HW223556   1.304   6.042   4.373
 7553SOL     OW23557   5.395   6.421   5.828
 7553SOL    HW123558   5.337   6.358   5.879
 7553SOL    HW223559   5.351   6.444   5.741
 7554SOL     OW23560   4.530   0.565   0.313
 7554SOL    HW123561   4.495   0.498   0.379
 7554SOL    HW223562   4.559   0.517   0.230
 7555SOL     OW23563   3.244   5.599   6.244
 7555SOL    HW123564   3.330   5.604   6.192
 7555SOL    HW223565   3.247   5.519   6.305
 7556SOL     OW23566   2.108   1.648   0.231
 7556SOL    HW123567   2.086   1.583   0.304
 7556SOL    HW223568   2.033   1.650   0.165
 7557SOL     OW23569   5.155   0.237   0.061
 7557SOL    HW123570   5.085   0.261   7.011
 7557SOL    HW223571   5.244   0.231   0.016
 7558SOL     OW23572   2.125   3.053   3.613
 7558SOL    HW123573   2.134   3.041   3.514
 7558SOL    HW223574   2.033   3.026   3.641
 7559SOL     OW23575   4.087   1.936   5.659
 7559SOL    HW123576   4.024   1.878   5.711
 7559SOL    HW223577   4.095   2.024   5.704
 7560SOL     OW23578   6.295   0.053   6.892
 7560SOL    HW123579   6.295   0.123   6.964
 7560SOL    HW223580   6.361   0.079   6.821
 7561SOL     OW23581   5.809   3.338   5.724
 7561SOL    HW123582   5.867   3.287   5.788
 7561SOL    HW223583   5.860   3.416   5.688
 7562SOL     OW23584   0.603   5.136   4.978
 7562SOL    HW123585   0.515   5.119   5.021
 7562SOL    HW223586   0.591   5.142   4.879
 7563SOL     OW23587   2.790   6.149   2.051
 7563SOL    HW123588   2.877   6.105   2.028
 7563SOL    HW223589   2.730   6.082   2.094
 7564SOL     OW23590   3.803   0.254   4.936
 7564SOL    HW123591   3.838   0.325   4.876
 7564SOL    HW223592   3.715   0.283   4.974
 7565SOL     OW23593   5.586   4.063   5.729
 7565SOL    HW123594   5.651   4.015   5.788
 7565SOL    HW223595   5.558   4.149   5.773
 7566SOL     OW23596   5.602   5.239   2.441
 7566SOL    HW123597   5.526   5.176   2.457
 7566SOL    HW223598   5.679   5.189   2.403
 7567SOL     OW23599   0.783   0.806   5.876
 7567SOL    HW123600   0.786   0.882   5.811
 7567SOL    HW223601   0.797   0.842   5.969
 7568SOL     OW23602   5.345   5.323   1.756
 7568SOL    HW123603   5.409   5.321   1.680
 7568SOL    HW223604   5.331   5.418   1.786
 7569SOL     OW23605   3.771   4.388   6.173
 7569SOL    HW123606   3.682   4.374   6.216
 7569SOL    HW223607   3.767   4.359   6.078
 7570SOL     OW23608   6.608   3.909   4.143
 7570SOL    HW123609   6.529   3.928   4.084
 7570SOL    HW223610   6.583   3.839   4.210
 7571SOL     OW23611   5.480   3.613   3.396
 7571SOL    HW123612   5.573   3.645   3.377
 7571SOL    HW223613   5.452   3.549   3.325
 7572SOL     OW23614   4.898   0.229   3.026
 7572SOL    HW123615   4.897   0.288   3.107
 7572SOL    HW223616   4.956   0.270   2.956
 7573SOL     OW23617   6.677   0.569   5.365
 7573SOL    HW123618   6.582   0.541   5.349
 7573SOL    HW223619   6.691   0.660   5.326
 7574SOL     OW23620   5.955   1.652   4.480
 7574SOL    HW123621   5.949   1.619   4.386
 7574SOL    HW223622   5.866   1.644   4.524
 7575SOL     OW23623   6.397   6.480   0.878
 7575SOL    HW123624   6.312   6.432   0.855
 7575SOL    HW223625   6.454   6.422   0.936
 7576SOL     OW23626   4.967   1.777   0.292
 7576SOL    HW123627   5.047   1.744   0.341
 7576SOL    HW223628   4.897   1.705   0.289
 7577SOL     OW23629   0.211   6.198   0.399
 7577SOL    HW123630   0.175   6.271   0.457
 7577SOL    HW223631   0.170   6.110   0.426
 7578SOL     OW23632   1.448   5.232   2.546
 7578SOL    HW123633   1.508   5.173   2.492
 7578SOL    HW223634   1.380   5.275   2.487
 7579SOL     OW23635   6.781   1.830   1.653
 7579SOL    HW123636   6.796   1.820   1.554
 7579SOL    HW223637   6.727   1.753   1.687
 7580SOL     OW23638   1.158   4.475   3.103
 7580SOL    HW123639   1.223   4.548   3.080
 7580SOL    HW223640   1.120   4.491   3.194
 7581SOL     OW23641   0.116   1.509   1.614
 7581SOL    HW123642   0.175   1.589   1.618
 7581SOL    HW223643   0.020   1.538   1.615
 7582SOL     OW23644   4.031   1.726   3.648
 7582SOL    HW123645   4.004   1.816   3.682
 7582SOL    HW223646   4.128   1.728   3.623
 7583SOL     OW23647   5.848   3.457   3.119
 7583SOL    HW123648   5.786   3.382   3.143
 7583SOL    HW223649   5.797   3.528   3.070
 7584SOL     OW23650   1.337   6.915   2.780
 7584SOL    HW123651   1.402   6.932   2.706
 7584SOL    HW223652   1.313   6.818   2.783
 7585SOL     OW23653   1.291   1.852   6.031
 7585SOL    HW123654   1.313   1.761   6.065
 7585SOL    HW223655   1.304   1.919   6.104
 7586SOL     OW23656   2.005   6.591   3.348
 7586SOL    HW123657   1.917   6.567   3.307
 7586SOL    HW223658   2.077   6.587   3.278
 7587SOL     OW23659   2.571   1.433   7.012
 7587SOL    HW123660   2.576   1.430   0.094
 7587SOL    HW223661   2.525   1.351   6.978
 7588SOL     OW23662   1.347   2.853   4.206
 7588SOL    HW123663   1.428   2.797   4.223
 7588SOL    HW223664   1.375   2.944   4.177
 7589SOL     OW23665   6.734   0.972   3.090
 7589SOL    HW123666   6.802   1.021   3.036
 7589SOL    HW223667   6.757   0.875   3.092
 7590SOL     OW23668   6.156   0.880   6.581
 7590SOL    HW123669   6.148   0.887   6.681
 7590SOL    HW223670   6.232   0.937   6.550
 7591SOL     OW23671   5.168   3.412   6.693
 7591SOL    HW123672   5.152   3.314   6.705
 7591SOL    HW223673   5.110   3.445   6.619
 7592SOL     OW23674   6.298   4.746   4.686
 7592SOL    HW123675   6.216   4.760   4.630
 7592SOL    HW223676   6.343   4.833   4.704
 7593SOL     OW23677   0.079   2.686   6.635
 7593SOL    HW123678   6.998   2.700   6.627
 7593SOL    HW223679   0.097   2.593   6.669
 7594SOL     OW23680   0.957   4.731   1.334
 7594SOL    HW123681   1.011   4.716   1.417
 7594SOL    HW223682   0.896   4.653   1.320
 7595SOL     OW23683   6.506   3.256   6.676
 7595SOL    HW123684   6.545   3.222   6.762
 7595SOL    HW223685   6.554   3.339   6.649
 7596SOL     OW23686   2.661   6.738   4.705
 7596SOL    HW123687   2.610   6.655   4.682
 7596SOL    HW223688   2.721   6.719   4.783
 7597SOL     OW23689   1.784   6.824   3.140
 7597SOL    HW123690   1.874   6.836   3.099
 7597SOL    HW223691   1.713   6.842   3.071
 7598SOL     OW23692   6.118   0.372   2.965
 7598SOL    HW123693   6.110   0.396   2.868
 7598SOL    HW223694   6.203   0.409   3.002
 7599SOL     OW23695   5.236   3.283   1.231
 7599SOL    HW123696   5.237   3.254   1.136
 7599SOL    HW223697   5.245   3.383   1.236
 7600SOL     OW23698   1.167   0.834   3.257
 7600SOL    HW123699   1.124   0.745   3.246
 7600SOL    HW223700   1.185   0.850   3.354
 7601SOL     OW23701   2.860   5.303   2.314
 7601SOL    HW123702   2.956   5.305   2.284
 7601SOL    HW223703   2.856   5.286   2.412
 7602SOL     OW23704   0.992   3.364   6.906
 7602SOL    HW123705   0.971   3.275   6.947
 7602SOL    HW223706   1.090   3.369   6.885
 7603SOL     OW23707   1.756   6.334   5.857
 7603SOL    HW123708   1.814   6.254   5.849
 7603SOL    HW223709   1.746   6.359   5.953
 7604SOL     OW23710   1.393   1.944   5.130
 7604SOL    HW123711   1.312   1.962   5.075
 7604SOL    HW223712   1.435   1.858   5.101
 7605SOL     OW23713   0.891   0.634   0.966
 7605SOL    HW123714   0.941   0.548   0.953
 7605SOL    HW223715   0.804   0.629   0.917
 7606SOL     OW23716   5.425   3.031   5.075
 7606SOL    HW123717   5.403   3.072   4.987
 7606SOL    HW223718   5.459   2.938   5.061
 7607SOL     OW23719   3.570   5.109   0.262
 7607SOL    HW123720   3.590   5.073   0.171
 7607SOL    HW223721   3.533   5.202   0.254
 7608SOL     OW23722   5.123   2.491   6.914
 7608SOL    HW123723   5.186   2.569   6.913
 7608SOL    HW223724   5.134   2.441   6.999
 7609SOL     OW23725   1.218   4.285   4.106
 7609SOL    HW123726   1.263   4.289   4.195
 7609SOL    HW223727   1.258   4.212   4.051
 7610SOL     OW23728   4.038   5.128   5.570
 7610SOL    HW123729   4.056   5.145   5.667
 7610SOL    HW223730   4.066   5.208   5.517
 7611SOL     OW23731   5.511   3.772   1.257
 7611SOL    HW123732   5.592   3.807   1.303
 7611SOL    HW223733   5.536   3.692   1.202
 7612SOL     OW23734   4.570   2.338   2.694
 7612SOL    HW123735   4.587   2.437   2.697
 7612SOL    HW223736   4.514   2.317   2.614
 7613SOL     OW23737   1.036   1.875   1.999
 7613SOL    HW123738   1.069   1.853   2.091
 7613SOL    HW223739   0.959   1.814   1.976
 7614SOL     OW23740   5.515   3.695   1.770
 7614SOL    HW123741   5.446   3.626   1.746
 7614SOL    HW223742   5.543   3.683   1.865
 7615SOL     OW23743   4.826   4.159   5.721
 7615SOL    HW123744   4.801   4.169   5.624
 7615SOL    HW223745   4.923   4.181   5.732
 7616SOL     OW23746   6.489   0.295   3.507
 7616SOL    HW123747   6.500   0.258   3.415
 7616SOL    HW223748   6.472   0.219   3.571
 7617SOL     OW23749   5.440   5.697   3.213
 7617SOL    HW123750   5.440   5.729   3.307
 7617SOL    HW223751   5.346   5.680   3.183
 7618SOL     OW23752   0.892   2.506   6.790
 7618SOL    HW123753   0.838   2.460   6.860
 7618SOL    HW223754   0.882   2.605   6.800
 7619SOL     OW23755   6.892   2.319   5.006
 7619SOL    HW123756   6.814   2.327   4.945
 7619SOL    HW223757   6.919   2.410   5.037
 7620SOL     OW23758   4.264   4.993   0.885
 7620SOL    HW123759   4.286   4.925   0.816
 7620SOL    HW223760   4.188   5.050   0.854
 7621SOL     OW23761   0.605   0.466   1.185
 7621SOL    HW123762   0.569   0.409   1.111
 7621SOL    HW223763   0.685   0.422   1.226
 7622SOL     OW23764   4.077   4.663   6.509
 7622SOL    HW123765   4.021   4.697   6.434
 7622SOL    HW223766   4.023   4.659   6.593
 7623SOL     OW23767   4.151   4.427   1.098
 7623SOL    HW123768   4.216   4.495   1.133
 7623SOL    HW223769   4.155   4.345   1.154
 7624SOL     OW23770   6.758   3.243   3.597
 7624SOL    HW123771   6.740   3.317   3.662
 7624SOL    HW223772   6.692   3.246   3.523
 7625SOL     OW23773   6.303   2.010   0.125
 7625SOL    HW123774   6.270   2.001   0.031
 7625SOL    HW223775   6.292   1.922   0.172
 7626SOL     OW23776   6.539   1.193   5.891
 7626SOL    HW123777   6.529   1.198   5.792
 7626SOL    HW223778   6.634   1.170   5.914
 7627SOL     OW23779   2.690   1.778   0.282
 7627SOL    HW123780   2.718   1.791   0.377
 7627SOL    HW223781   2.614   1.713   0.278
 7628SOL     OW23782   3.801   2.966   1.512
 7628SOL    HW123783   3.843   2.884   1.551
 7628SOL    HW223784   3.802   2.960   1.413
 7629SOL     OW23785   6.821   4.242   3.755
 7629SOL    HW123786   6.878   4.183   3.698
 7629SOL    HW223787   6.731   4.201   3.767
 7630SOL     OW23788   1.082   0.581   6.470
 7630SOL    HW123789   1.095   0.680   6.476
 7630SOL    HW223790   1.131   0.545   6.391
 7631SOL     OW23791   1.359   1.185   5.462
 7631SOL    HW123792   1.349   1.101   5.408
 7631SOL    HW223793   1.449   1.225   5.443
 7632SOL     OW23794   4.116   5.057   1.144
 7632SOL    HW123795   4.188   5.034   1.079
 7632SOL    HW223796   4.093   4.977   1.198
 7633SOL     OW23797   5.165   0.704   2.120
 7633SOL    HW123798   5.148   0.666   2.029
 7633SOL    HW223799   5.078   0.727   2.163
 7634SOL     OW23800   1.207   1.368   1.720
 7634SOL    HW123801   1.262   1.302   1.669
 7634SOL    HW223802   1.266   1.442   1.752
 7635SOL     OW23803   2.785   5.329   4.076
 7635SOL    HW123804   2.798   5.408   4.016
 7635SOL    HW223805   2.871   5.280   4.085
 7636SOL     OW23806   1.252   3.893   4.090
 7636SOL    HW123807   1.227   3.798   4.071
 7636SOL    HW223808   1.282   3.937   4.005
 7637SOL     OW23809   1.250   6.270   2.588
 7637SOL    HW123810   1.334   6.278   2.535
 7637SOL    HW223811   1.197   6.355   2.581
 7638SOL     OW23812   1.322   5.580   1.995
 7638SOL    HW123813   1.296   5.503   1.936
 7638SOL    HW223814   1.332   5.662   1.939
 7639SOL     OW23815   0.391   1.311   0.268
 7639SOL    HW123816   0.304   1.265   0.248
 7639SOL    HW223817   0.466   1.258   0.229
 7640SOL     OW23818   3.032   2.459   6.777
 7640SOL    HW123819   3.093   2.417   6.845
 7640SOL    HW223820   3.023   2.398   6.699
 7641SOL     OW23821   6.937   4.196   2.676
 7641SOL    HW123822   6.990   4.142   2.610
 7641SOL    HW223823   6.971   4.180   2.768
 7642SOL     OW23824   5.916   0.891   2.618
 7642SOL    HW123825   5.966   0.969   2.581
 7642SOL    HW223826   5.881   0.834   2.543
 7643SOL     OW23827   5.178   1.540   2.256
 7643SOL    HW123828   5.245   1.601   2.298
 7643SOL    HW223829   5.189   1.541   2.157
 7644SOL     OW23830   4.806   2.850   2.202
 7644SOL    HW123831   4.780   2.754   2.197
 7644SOL    HW223832   4.768   2.899   2.124
 7645SOL     OW23833   4.121   3.136   5.608
 7645SOL    HW123834   4.198   3.092   5.562
 7645SOL    HW223835   4.155   3.204   5.673
 7646SOL     OW23836   0.579   2.817   3.751
 7646SOL    HW123837   0.496   2.781   3.794
 7646SOL    HW223838   0.657   2.758   3.773
 7647SOL     OW23839   0.602   3.020   4.204
 7647SOL    HW123840   0.688   3.011   4.254
 7647SOL    HW223841   0.584   2.936   4.153
 7648SOL     OW23842   2.330   1.116   2.156
 7648SOL    HW123843   2.299   1.203   2.118
 7648SOL    HW223844   2.383   1.132   2.239
 7649SOL     OW23845   1.326   1.293   4.477
 7649SOL    HW123846   1.262   1.234   4.427
 7649SOL    HW223847   1.279   1.377   4.505
 7650SOL     OW23848   5.584   0.573   1.381
 7650SOL    HW123849   5.618   0.482   1.359
 7650SOL    HW223850   5.543   0.615   1.300
 7651SOL     OW23851   2.588   5.797   4.264
 7651SOL    HW123852   2.521   5.785   4.191
 7651SOL    HW223853   2.626   5.708   4.290
 7652SOL     OW23854   5.486   2.888   5.482
 7652SOL    HW123855   5.410   2.891   5.547
 7652SOL    HW223856   5.460   2.833   5.402
 7653SOL     OW23857   1.605   1.271   0.007
 7653SOL    HW123858   1.692   1.236   0.043
 7653SOL    HW223859   1.573   1.209   6.952
 7654SOL     OW23860   5.457   3.442   5.024
 7654SOL    HW123861   5.420   3.462   5.115
 7654SOL    HW223862   5.397   3.377   4.978
 7655SOL     OW23863   3.828   0.343   3.750
 7655SOL    HW123864   3.749   0.333   3.811
 7655SOL    HW223865   3.909   0.303   3.792
 7656SOL     OW23866   5.535   2.881   6.352
 7656SOL    HW123867   5.514   2.813   6.422
 7656SOL    HW223868   5.476   2.867   6.273
 7657SOL     OW23869   2.096   2.715   3.892
 7657SOL    HW123870   2.136   2.807   3.898
 7657SOL    HW223871   2.166   2.650   3.863
 7658SOL     OW23872   3.163   0.360   0.675
 7658SOL    HW123873   3.209   0.274   0.649
 7658SOL    HW223874   3.229   0.435   0.670
 7659SOL     OW23875   4.603   4.197   0.174
 7659SOL    HW123876   4.625   4.283   0.128
 7659SOL    HW223877   4.587   4.125   0.106
 7660SOL     OW23878   5.963   5.199   4.527
 7660SOL    HW123879   6.020   5.276   4.557
 7660SOL    HW223880   5.871   5.209   4.565
 7661SOL     OW23881   5.099   2.098   5.380
 7661SOL    HW123882   5.199   2.095   5.383
 7661SOL    HW223883   5.064   2.149   5.459
 7662SOL     OW23884   0.913   2.361   3.369
 7662SOL    HW123885   1.007   2.346   3.399
 7662SOL    HW223886   0.912   2.371   3.269
 7663SOL     OW23887   4.995   5.375   6.609
 7663SOL    HW123888   5.081   5.368   6.560
 7663SOL    HW223889   4.981   5.292   6.664
 7664SOL     OW23890   3.707   1.484   3.033
 7664SOL    HW123891   3.642   1.559   3.025
 7664SOL    HW223892   3.798   1.515   3.005
 7665SOL     OW23893   5.604   1.729   4.345
 7665SOL    HW123894   5.629   1.727   4.442
 7665SOL    HW223895   5.575   1.822   4.321
 7666SOL     OW23896   6.868   5.137   4.449
 7666SOL    HW123897   6.950   5.131   4.392
 7666SOL    HW223898   6.885   5.199   4.526
 7667SOL     OW23899   4.246   0.436   2.740
 7667SOL    HW123900   4.241   0.361   2.674
 7667SOL    HW223901   4.161   0.441   2.792
 7668SOL     OW23902   2.682   4.897   0.583
 7668SOL    HW123903   2.762   4.921   0.638
 7668SOL    HW223904   2.691   4.937   0.492
 7669SOL     OW23905   4.356   0.738   5.389
 7669SOL    HW123906   4.427   0.748   5.320
 7669SOL    HW223907   4.370   0.804   5.462
 7670SOL     OW23908   0.825   5.973   1.006
 7670SOL    HW123909   0.781   6.052   1.049
 7670SOL    HW223910   0.770   5.943   0.928
 7671SOL     OW23911   4.735   6.974   2.635
 7671SOL    HW123912   4.753   6.968   2.733
 7671SOL    HW223913   4.748   0.051   2.605
 7672SOL     OW23914   6.560   4.776   3.376
 7672SOL    HW123915   6.535   4.743   3.467
 7672SOL    HW223916   6.480   4.815   3.331
 7673SOL     OW23917   1.688   5.625   2.652
 7673SOL    HW123918   1.771   5.680   2.663
 7673SOL    HW223919   1.674   5.605   2.555
 7674SOL     OW23920   4.302   0.360   4.155
 7674SOL    HW123921   4.262   0.448   4.131
 7674SOL    HW223922   4.397   0.373   4.182
 7675SOL     OW23923   4.338   6.512   3.245
 7675SOL    HW123924   4.288   6.580   3.297
 7675SOL    HW223925   4.333   6.423   3.292
 7676SOL     OW23926   2.974   1.878   6.075
 7676SOL    HW123927   2.949   1.912   6.166
 7676SOL    HW223928   2.914   1.919   6.007
 7677SOL     OW23929   0.567   4.589   0.497
 7677SOL    HW123930   0.565   4.666   0.432
 7677SOL    HW223931   0.652   4.539   0.487
 7678SOL     OW23932   1.406   2.838   5.043
 7678SOL    HW123933   1.370   2.757   5.089
 7678SOL    HW223934   1.504   2.827   5.028
 7679SOL     OW23935   2.176   5.419   5.338
 7679SOL    HW123936   2.240   5.495   5.351
 7679SOL    HW223937   2.146   5.417   5.242
 7680SOL     OW23938   1.306   0.430   6.330
 7680SOL    HW123939   1.285   0.450   6.234
 7680SOL    HW223940   1.281   0.335   6.351
 7681SOL     OW23941   2.532   1.699   6.892
 7681SOL    HW123942   2.451   1.719   6.947
 7681SOL    HW223943   2.569   1.610   6.919
 7682SOL     OW23944   4.144   1.508   2.063
 7682SOL    HW123945   4.233   1.549   2.085
 7682SOL    HW223946   4.144   1.413   2.092
 7683SOL     OW23947   0.722   1.441   4.807
 7683SOL    HW123948   0.659   1.420   4.882
 7683SOL    HW223949   0.739   1.539   4.803
 7684SOL     OW23950   4.054   2.518   1.680
 7684SOL    HW123951   4.047   2.455   1.602
 7684SOL    HW223952   4.005   2.603   1.659
 7685SOL     OW23953   3.498   1.339   6.784
 7685SOL    HW123954   3.442   1.260   6.758
 7685SOL    HW223955   3.566   1.357   6.714
 7686SOL     OW23956   5.386   6.510   4.256
 7686SOL    HW123957   5.400   6.511   4.355
 7686SOL    HW223958   5.409   6.601   4.219
 7687SOL     OW23959   4.919   4.864   5.012
 7687SOL    HW123960   4.908   4.822   5.103
 7687SOL    HW223961   4.830   4.892   4.978
 7688SOL     OW23962   0.093   6.219   5.847
 7688SOL    HW123963   0.134   6.310   5.843
 7688SOL    HW223964   0.163   6.151   5.869
 7689SOL     OW23965   4.865   0.214   2.604
 7689SOL    HW123966   4.916   0.159   2.538
 7689SOL    HW223967   4.927   0.278   2.650
 7690SOL     OW23968   5.437   5.375   0.571
 7690SOL    HW123969   5.379   5.336   0.643
 7690SOL    HW223970   5.393   5.362   0.482
 7691SOL     OW23971   4.599   4.658   1.746
 7691SOL    HW123972   4.515   4.620   1.707
 7691SOL    HW223973   4.633   4.597   1.818
 7692SOL     OW23974   0.592   6.248   1.524
 7692SOL    HW123975   0.629   6.239   1.616
 7692SOL    HW223976   0.557   6.341   1.511
 7693SOL     OW23977   3.379   0.354   1.622
 7693SOL    HW123978   3.298   0.408   1.599
 7693SOL    HW223979   3.413   0.308   1.539
 7694SOL     OW23980   5.885   2.743   4.377
 7694SOL    HW123981   5.881   2.701   4.287
 7694SOL    HW223982   5.820   2.697   4.438
 7695SOL     OW23983   5.828   0.754   1.820
 7695SOL    HW123984   5.871   0.676   1.864
 7695SOL    HW223985   5.820   0.737   1.722
 7696SOL     OW23986   0.294   1.255   6.161
 7696SOL    HW123987   0.337   1.180   6.111
 7696SOL    HW223988   0.355   1.285   6.235
 7697SOL     OW23989   3.222   0.666   2.855
 7697SOL    HW123990   3.146   0.603   2.871
 7697SOL    HW223991   3.200   0.727   2.779
 7698SOL     OW23992   6.556   1.832   5.182
 7698SOL    HW123993   6.634   1.853   5.122
 7698SOL    HW223994   6.517   1.744   5.157
 7699SOL     OW23995   2.576   5.154   6.892
 7699SOL    HW123996   2.480   5.137   6.873
 7699SOL    HW223997   2.629   5.070   6.876
 7700SOL     OW23998   4.258   5.967   3.405
 7700SOL    HW123999   4.197   6.006   3.473
 7700SOL    HW224000   4.205   5.915   3.338
 7701SOL     OW24001   0.160   2.100   6.289
 7701SOL    HW124002   0.113   2.121   6.204
 7701SOL    HW224003   0.212   2.180   6.320
 7702SOL     OW24004   4.311   6.188   5.314
 7702SOL    HW124005   4.228   6.171   5.260
 7702SOL    HW224006   4.287   6.238   5.397
 7703SOL     OW24007   6.485   6.946   5.319
 7703SOL    HW124008   6.481   6.891   5.235
 7703SOL    HW224009   6.428   6.904   5.389
 7704SOL     OW24010   6.544   2.105   4.265
 7704SOL    HW124011   6.464   2.045   4.255
 7704SOL    HW224012   6.515   2.201   4.257
 7705SOL     OW24013   2.501   5.085   0.700
 7705SOL    HW124014   2.590   5.044   0.679
 7705SOL    HW224015   2.478   5.152   0.630
 7706SOL     OW24016   3.346   2.960   3.408
 7706SOL    HW124017   3.427   2.924   3.360
 7706SOL    HW224018   3.367   2.972   3.504
 7707SOL     OW24019   0.373   4.987   6.345
 7707SOL    HW124020   0.292   5.043   6.359
 7707SOL    HW224021   0.367   4.906   6.403
 7708SOL     OW24022   1.415   6.937   4.174
 7708SOL    HW124023   1.510   6.903   4.174
 7708SOL    HW224024   1.378   6.931   4.082
 7709SOL     OW24025   6.812   5.279   1.493
 7709SOL    HW124026   6.765   5.368   1.488
 7709SOL    HW224027   6.897   5.290   1.544
 7710SOL     OW24028   1.909   2.401   0.712
 7710SOL    HW124029   1.943   2.493   0.693
 7710SOL    HW224030   1.830   2.381   0.655
 7711SOL     OW24031   6.238   5.778   5.681
 7711SOL    HW124032   6.214   5.752   5.775
 7711SOL    HW224033   6.162   5.828   5.640
 7712SOL     OW24034   5.964   4.503   0.045
 7712SOL    HW124035   6.018   4.583   0.020
 7712SOL    HW224036   5.868   4.519   0.023
 7713SOL     OW24037   1.977   3.987   1.040
 7713SOL    HW124038   1.899   3.941   1.083
 7713SOL    HW224039   2.062   3.947   1.075
 7714SOL     OW24040   0.362   6.528   5.416
 7714SOL    HW124041   0.381   6.476   5.500
 7714SOL    HW224042   0.322   6.466   5.348
 7715SOL     OW24043   2.531   1.950   6.372
 7715SOL    HW124044   2.591   1.872   6.356
 7715SOL    HW224045   2.565   2.029   6.321
 7716SOL     OW24046   6.876   5.150   0.045
 7716SOL    HW124047   6.935   5.079   0.007
 7716SOL    HW224048   6.850   5.126   0.138
 7717SOL     OW24049   1.464   1.746   4.943
 7717SOL    HW124050   1.526   1.825   4.944
 7717SOL    HW224051   1.509   1.670   4.897
 7718SOL     OW24052   6.655   4.587   2.878
 7718SOL    HW124053   6.684   4.607   2.971
 7718SOL    HW224054   6.721   4.626   2.813
 7719SOL     OW24055   0.998   4.361   4.938
 7719SOL    HW124056   0.910   4.370   4.893
 7719SOL    HW224057   1.027   4.450   4.974
 7720SOL     OW24058   6.212   1.811   5.825
 7720SOL    HW124059   6.150   1.850   5.756
 7720SOL    HW224060   6.175   1.724   5.857
 7721SOL     OW24061   0.589   0.553   2.343
 7721SOL    HW124062   0.679   0.585   2.313
 7721SOL    HW224063   0.597   0.513   2.435
 7722SOL     OW24064   2.078   5.451   4.048
 7722SOL    HW124065   2.027   5.378   4.002
 7722SOL    HW224066   2.159   5.412   4.092
 7723SOL     OW24067   4.834   3.637   6.760
 7723SOL    HW124068   4.822   3.575   6.838
 7723SOL    HW224069   4.751   3.637   6.704
 7724SOL     OW24070   3.335   4.412   0.664
 7724SOL    HW124071   3.285   4.494   0.692
 7724SOL    HW224072   3.272   4.335   0.660
 7725SOL     OW24073   5.853   2.403   2.652
 7725SOL    HW124074   5.884   2.360   2.736
 7725SOL    HW224075   5.843   2.334   2.580
 7726SOL     OW24076   0.907   2.784   5.933
 7726SOL    HW124077   0.985   2.800   5.994
 7726SOL    HW224078   0.939   2.767   5.840
 7727SOL     OW24079   6.170   2.934   1.393
 7727SOL    HW124080   6.075   2.964   1.392
 7727SOL    HW224081   6.198   2.909   1.300
 7728SOL     OW24082   2.162   3.011   5.215
 7728SOL    HW124083   2.120   2.925   5.185
 7728SOL    HW224084   2.249   3.023   5.168
 7729SOL     OW24085   5.709   1.555   1.849
 7729SOL    HW124086   5.782   1.618   1.876
 7729SOL    HW224087   5.721   1.468   1.898
 7730SOL     OW24088   6.290   4.468   4.945
 7730SOL    HW124089   6.294   4.508   5.037
 7730SOL    HW224090   6.381   4.467   4.904
 7731SOL     OW24091   6.345   6.964   0.663
 7731SOL    HW124092   6.384   6.932   0.577
 7731SOL    HW224093   6.270   6.904   0.691
 7732SOL     OW24094   4.243   0.437   0.138
 7732SOL    HW124095   4.255   0.438   0.237
 7732SOL    HW224096   4.239   0.342   0.106
 7733SOL     OW24097   6.328   5.199   2.781
 7733SOL    HW124098   6.409   5.196   2.840
 7733SOL    HW224099   6.266   5.270   2.813
 7734SOL     OW24100   2.397   4.957   4.409
 7734SOL    HW124101   2.456   5.020   4.361
 7734SOL    HW224102   2.450   4.880   4.444
 7735SOL     OW24103   6.364   5.558   0.135
 7735SOL    HW124104   6.331   5.561   0.229
 7735SOL    HW224105   6.331   5.475   0.091
 7736SOL     OW24106   2.327   3.068   0.463
 7736SOL    HW124107   2.233   3.045   0.491
 7736SOL    HW224108   2.382   3.086   0.545
 7737SOL     OW24109   3.141   5.475   1.929
 7737SOL    HW124110   3.134   5.376   1.929
 7737SOL    HW224111   3.116   5.511   1.839
 7738SOL     OW24112   2.606   5.972   6.908
 7738SOL    HW124113   2.636   5.954   6.815
 7738SOL    HW224114   2.613   6.070   6.928
 7739SOL     OW24115   1.109   1.819   1.325
 7739SOL    HW124116   1.194   1.768   1.334
 7739SOL    HW224117   1.073   1.808   1.232
 7740SOL     OW24118   1.769   1.211   2.583
 7740SOL    HW124119   1.835   1.218   2.509
 7740SOL    HW224120   1.722   1.298   2.595
 7741SOL     OW24121   1.051   4.000   4.810
 7741SOL    HW124122   1.148   4.022   4.809
 7741SOL    HW224123   1.032   3.931   4.740
 7742SOL     OW24124   3.992   1.440   4.068
 7742SOL    HW124125   3.938   1.457   3.985
 7742SOL    HW224126   3.983   1.517   4.131
 7743SOL     OW24127   4.774   0.761   6.893
 7743SOL    HW124128   4.683   0.795   6.919
 7743SOL    HW224129   4.776   0.743   6.795
 7744SOL     OW24130   0.533   5.903   3.484
 7744SOL    HW124131   0.538   5.966   3.406
 7744SOL    HW224132   0.506   5.812   3.451
 7745SOL     OW24133   2.558   6.684   0.070
 7745SOL    HW124134   2.591   6.761   0.015
 7745SOL    HW224135   2.495   6.718   0.140
 7746SOL     OW24136   1.310   6.853   0.794
 7746SOL    HW124137   1.317   6.766   0.842
 7746SOL    HW224138   1.213   6.876   0.780
 7747SOL     OW24139   0.581   6.109   1.060
 7747SOL    HW124140   0.617   6.198   1.031
 7747SOL    HW224141   0.546   6.060   0.981
 7748SOL     OW24142   3.351   3.541   5.064
 7748SOL    HW124143   3.275   3.605   5.075
 7748SOL    HW224144   3.387   3.515   5.154
 7749SOL     OW24145   2.958   3.809   3.738
 7749SOL    HW124146   2.913   3.848   3.657
 7749SOL    HW224147   3.056   3.802   3.720
 7750SOL     OW24148   5.908   5.506   5.903
 7750SOL    HW124149   5.817   5.466   5.895
 7750SOL    HW224150   5.933   5.513   5.999
 7751SOL     OW24151   0.790   2.224   2.966
 7751SOL    HW124152   0.812   2.144   3.021
 7751SOL    HW224153   0.692   2.230   2.952
 7752SOL     OW24154   5.906   5.670   5.695
 7752SOL    HW124155   5.912   5.599   5.766
 7752SOL    HW224156   5.860   5.632   5.615
 7753SOL     OW24157   2.403   1.045   4.084
 7753SOL    HW124158   2.466   1.113   4.120
 7753SOL    HW224159   2.440   0.953   4.101
 7754SOL     OW24160   5.186   0.245   2.032
 7754SOL    HW124161   5.262   0.239   2.097
 7754SOL    HW224162   5.221   0.232   1.939
 7755SOL     OW24163   1.060   0.571   5.806
 7755SOL    HW124164   1.136   0.507   5.795
 7755SOL    HW224165   1.033   0.607   5.717
 7756SOL     OW24166   2.759   5.889   2.489
 7756SOL    HW124167   2.813   5.968   2.459
 7756SOL    HW224168   2.680   5.921   2.541
 7757SOL     OW24169   5.109   6.472   4.673
 7757SOL    HW124170   5.135   6.404   4.741
 7757SOL    HW224171   5.012   6.493   4.682
 7758SOL     OW24172   1.475   2.270   6.793
 7758SOL    HW124173   1.493   2.202   6.723
 7758SOL    HW224174   1.560   2.318   6.816
 7759SOL     OW24175   1.665   1.262   5.018
 7759SOL    HW124176   1.738   1.217   4.967
 7759SOL    HW224177   1.584   1.204   5.019
 7760SOL     OW24178   5.697   3.639   2.372
 7760SOL    HW124179   5.692   3.616   2.275
 7760SOL    HW224180   5.617   3.604   2.419
 7761SOL     OW24181   2.601   0.112   6.701
 7761SOL    HW124182   2.565   0.185   6.758
 7761SOL    HW224183   2.666   0.057   6.753
 7762SOL     OW24184   4.028   0.849   5.378
 7762SOL    HW124185   4.035   0.944   5.345
 7762SOL    HW224186   4.113   0.801   5.356
 7763SOL     OW24187   1.387   1.467   1.454
 7763SOL    HW124188   1.432   1.388   1.413
 7763SOL    HW224189   1.432   1.488   1.541
 7764SOL     OW24190   3.823   2.969   2.524
 7764SOL    HW124191   3.876   3.053   2.510
 7764SOL    HW224192   3.770   2.948   2.441
 7765SOL     OW24193   6.084   3.168   3.704
 7765SOL    HW124194   6.001   3.120   3.733
 7765SOL    HW224195   6.131   3.206   3.783
 7766SOL     OW24196   4.974   1.371   6.491
 7766SOL    HW124197   5.063   1.341   6.526
 7766SOL    HW224198   4.921   1.292   6.463
 7767SOL     OW24199   3.908   6.605   4.065
 7767SOL    HW124200   3.847   6.531   4.035
 7767SOL    HW224201   3.854   6.686   4.085
 7768SOL     OW24202   4.329   5.137   2.491
 7768SOL    HW124203   4.266   5.113   2.564
 7768SOL    HW224204   4.408   5.076   2.493
 7769SOL     OW24205   5.099   1.278   1.549
 7769SOL    HW124206   5.120   1.232   1.636
 7769SOL    HW224207   5.131   1.372   1.553
 7770SOL     OW24208   1.743   4.040   1.782
 7770SOL    HW124209   1.839   4.044   1.754
 7770SOL    HW224210   1.734   3.982   1.863
 7771SOL     OW24211   2.594   2.537   5.257
 7771SOL    HW124212   2.649   2.599   5.312
 7771SOL    HW224213   2.505   2.577   5.239
 7772SOL     OW24214   5.201   1.006   3.708
 7772SOL    HW124215   5.273   1.062   3.751
 7772SOL    HW224216   5.189   1.034   3.613
 7773SOL     OW24217   2.726   4.887   5.358
 7773SOL    HW124218   2.671   4.879   5.275
 7773SOL    HW224219   2.784   4.806   5.368
 7774SOL     OW24220   5.954   2.289   6.529
 7774SOL    HW124221   5.993   2.197   6.537
 7774SOL    HW224222   5.942   2.311   6.432
 7775SOL     OW24223   3.472   6.694   3.005
 7775SOL    HW124224   3.499   6.760   3.075
 7775SOL    HW224225   3.468   6.739   2.916
 7776SOL     OW24226   2.877   3.047   6.644
 7776SOL    HW124227   2.825   3.072   6.562
 7776SOL    HW224228   2.969   3.016   6.618
 7777SOL     OW24229   2.584   1.390   5.355
 7777SOL    HW124230   2.672   1.431   5.331
 7777SOL    HW224231   2.546   1.343   5.275
 7778SOL     OW24232   5.085   6.376   6.908
 7778SOL    HW124233   5.087   6.331   6.997
 7778SOL    HW224234   5.119   6.470   6.917
 7779SOL     OW24235   3.912   3.162   0.385
 7779SOL    HW124236   3.838   3.187   0.447
 7779SOL    HW224237   3.989   3.127   0.438
 7780SOL     OW24238   1.705   5.293   4.857
 7780SOL    HW124239   1.738   5.385   4.878
 7780SOL    HW224240   1.731   5.269   4.764
 7781SOL     OW24241   1.751   4.190   6.568
 7781SOL    HW124242   1.807   4.166   6.488
 7781SOL    HW224243   1.811   4.211   6.645
 7782SOL     OW24244   1.638   3.541   5.450
 7782SOL    HW124245   1.569   3.472   5.469
 7782SOL    HW224246   1.712   3.499   5.397
 7783SOL     OW24247   3.191   6.728   5.975
 7783SOL    HW124248   3.278   6.776   5.976
 7783SOL    HW224249   3.152   6.728   6.067
 7784SOL     OW24250   2.154   2.248   0.331
 7784SOL    HW124251   2.128   2.151   0.323
 7784SOL    HW224252   2.196   2.278   0.246
 7785SOL     OW24253   1.609   6.747   3.810
 7785SOL    HW124254   1.666   6.667   3.796
 7785SOL    HW224255   1.664   6.822   3.847
 7786SOL     OW24256   3.424   5.324   6.181
 7786SOL    HW124257   3.488   5.248   6.167
 7786SOL    HW224258   3.470   5.411   6.165
 7787SOL     OW24259   1.788   3.368   5.285
 7787SOL    HW124260   1.809   3.307   5.362
 7787SOL    HW224261   1.824   3.328   5.201
 7788SOL     OW24262   1.438   0.538   1.636
 7788SOL    HW124263   1.360   0.578   1.588
 7788SOL    HW224264   1.523   0.565   1.591
 7789SOL     OW24265   3.370   6.816   0.405
 7789SOL    HW124266   3.386   6.891   0.342
 7789SOL    HW224267   3.282   6.828   0.451
 7790SOL     OW24268   6.156   5.045   2.425
 7790SOL    HW124269   6.065   5.057   2.467
 7790SOL    HW224270   6.159   4.959   2.376
 7791SOL     OW24271   2.811   6.676   4.041
 7791SOL    HW124272   2.834   6.637   4.131
 7791SOL    HW224273   2.848   6.618   3.969
 7792SOL     OW24274   0.935   5.342   6.101
 7792SOL    HW124275   1.021   5.382   6.071
 7792SOL    HW224276   0.897   5.286   6.027
 7793SOL     OW24277   1.619   0.566   5.720
 7793SOL    HW124278   1.562   0.525   5.792
 7793SOL    HW224279   1.712   0.530   5.726
 7794SOL     OW24280   4.963   5.444   3.873
 7794SOL    HW124281   5.008   5.532   3.861
 7794SOL    HW224282   4.944   5.429   3.970
 7795SOL     OW24283   1.869   3.937   4.744
 7795SOL    HW124284   1.939   4.003   4.772
 7795SOL    HW224285   1.864   3.934   4.645
 7796SOL     OW24286   3.173   3.782   4.265
 7796SOL    HW124287   3.131   3.841   4.333
 7796SOL    HW224288   3.112   3.706   4.244
 7797SOL     OW24289   0.985   5.654   2.702
 7797SOL    HW124290   0.987   5.660   2.602
 7797SOL    HW224291   0.939   5.569   2.729
 7798SOL     OW24292   1.448   4.924   6.467
 7798SOL    HW124293   1.426   5.006   6.520
 7798SOL    HW224294   1.364   4.872   6.450
 7799SOL     OW24295   6.902   6.506   1.992
 7799SOL    HW124296   6.917   6.524   2.089
 7799SOL    HW224297   6.917   6.590   1.940
 7800SOL     OW24298   1.293   4.882   1.043
 7800SOL    HW124299   1.332   4.960   1.091
 7800SOL    HW224300   1.341   4.798   1.069
 7801SOL     OW24301   2.364   1.859   1.739
 7801SOL    HW124302   2.404   1.949   1.758
 7801SOL    HW224303   2.376   1.837   1.643
 7802SOL     OW24304   5.165   2.495   1.270
 7802SOL    HW124305   5.088   2.482   1.208
 7802SOL    HW224306   5.250   2.501   1.217
 7803SOL     OW24307   4.363   3.037   5.971
 7803SOL    HW124308   4.396   3.000   5.884
 7803SOL    HW224309   4.328   3.130   5.956
 7804SOL     OW24310   6.189   1.358   3.729
 7804SOL    HW124311   6.164   1.454   3.735
 7804SOL    HW224312   6.248   1.334   3.807
 7805SOL     OW24313   5.242   0.928   1.512
 7805SOL    HW124314   5.211   0.968   1.426
 7805SOL    HW224315   5.259   0.830   1.499
 7806SOL     OW24316   5.807   2.483   6.068
 7806SOL    HW124317   5.799   2.583   6.073
 7806SOL    HW224318   5.758   2.450   5.988
 7807SOL     OW24319   0.625   5.057   6.327
 7807SOL    HW124320   0.672   5.003   6.257
 7807SOL    HW224321   0.537   5.015   6.348
 7808SOL     OW24322   0.285   3.255   4.339
 7808SOL    HW124323   0.357   3.316   4.306
 7808SOL    HW224324   0.321   3.162   4.345
 7809SOL     OW24325   2.722   6.106   4.778
 7809SOL    HW124326   2.799   6.166   4.800
 7809SOL    HW224327   2.757   6.020   4.741
 7810SOL     OW24328   3.553   0.034   5.248
 7810SOL    HW124329   3.564   6.973   5.309
 7810SOL    HW224330   3.641   0.056   5.205
 7811SOL     OW24331   6.947   4.341   4.183
 7811SOL    HW124332   7.012   4.309   4.115
 7811SOL    HW224333   6.993   4.403   4.247
 7812SOL     OW24334   1.026   1.916   4.160
 7812SOL    HW124335   1.075   1.840   4.118
 7812SOL    HW224336   0.931   1.917   4.126
 7813SOL     OW24337   4.173   2.155   6.254
 7813SOL    HW124338   4.088   2.187   6.297
 7813SOL    HW224339   4.217   2.232   6.207
 7814SOL     OW24340   6.735   3.448   3.803
 7814SOL    HW124341   6.756   3.518   3.871
 7814SOL    HW224342   6.640   3.458   3.773
 7815SOL     OW24343   5.245   0.740   6.887
 7815SOL    HW124344   5.167   0.681   6.871
 7815SOL    HW224345   5.233   0.826   6.837
 7816SOL     OW24346   1.405   2.341   6.336
 7816SOL    HW124347   1.445   2.250   6.338
 7816SOL    HW224348   1.410   2.379   6.244
 7817SOL     OW24349   6.229   3.864   3.870
 7817SOL    HW124350   6.170   3.793   3.908
 7817SOL    HW224351   6.305   3.882   3.933
 7818SOL     OW24352   4.165   0.982   2.895
 7818SOL    HW124353   4.235   0.981   2.823
 7818SOL    HW224354   4.200   1.032   2.974
 7819SOL     OW24355   6.633   3.188   1.851
 7819SOL    HW124356   6.568   3.251   1.807
 7819SOL    HW224357   6.666   3.123   1.784
 7820SOL     OW24358   1.581   2.372   4.222
 7820SOL    HW124359   1.650   2.432   4.181
 7820SOL    HW224360   1.623   2.317   4.294
 7821SOL     OW24361   4.996   6.017   1.038
 7821SOL    HW124362   5.071   5.952   1.023
 7821SOL    HW224363   5.031   6.110   1.036
 7822SOL     OW24364   0.181   0.532   5.486
 7822SOL    HW124365   0.108   0.584   5.442
 7822SOL    HW224366   0.267   0.549   5.438
 7823SOL     OW24367   2.202   3.763   5.035
 7823SOL    HW124368   2.110   3.778   5.071
 7823SOL    HW224369   2.261   3.840   5.060
 7824SOL     OW24370   6.126   1.997   5.229
 7824SOL    HW124371   6.208   2.015   5.282
 7824SOL    HW224372   6.057   2.066   5.249
 7825SOL     OW24373   1.632   3.048   0.370
 7825SOL    HW124374   1.630   2.953   0.339
 7825SOL    HW224375   1.665   3.051   0.465
 7826SOL     OW24376   5.914   1.384   1.127
 7826SOL    HW124377   5.886   1.422   1.216
 7826SOL    HW224378   5.899   1.452   1.055
 7827SOL     OW24379   1.794   6.082   1.020
 7827SOL    HW124380   1.850   6.035   0.952
 7827SOL    HW224381   1.836   6.073   1.110
 7828SOL     OW24382   6.290   4.689   0.280
 7828SOL    HW124383   6.293   4.595   0.247
 7828SOL    HW224384   6.360   4.702   0.351
 7829SOL     OW24385   2.730   3.436   0.935
 7829SOL    HW124386   2.784   3.455   1.018
 7829SOL    HW224387   2.634   3.427   0.960
 7830SOL     OW24388   3.150   4.969   5.461
 7830SOL    HW124389   3.163   4.887   5.405
 7830SOL    HW224390   3.056   5.002   5.453
 7831SOL     OW24391   1.964   0.371   2.077
 7831SOL    HW124392   2.043   0.323   2.114
 7831SOL    HW224393   1.880   0.331   2.114
 7832SOL     OW24394   6.413   0.554   4.822
 7832SOL    HW124395   6.347   0.614   4.868
 7832SOL    HW224396   6.398   0.558   4.723
 7833SOL     OW24397   0.999   1.068   5.001
 7833SOL    HW124398   1.027   0.996   5.065
 7833SOL    HW224399   0.974   1.028   4.914
 7834SOL     OW24400   7.011   1.795   3.590
 7834SOL    HW124401   0.032   1.842   3.510
 7834SOL    HW224402   6.920   1.831   3.610
 7835SOL     OW24403   4.464   1.792   5.167
 7835SOL    HW124404   4.545   1.848   5.147
 7835SOL    HW224405   4.401   1.845   5.224
 7836SOL     OW24406   3.323   4.271   5.311
 7836SOL    HW124407   3.260   4.349   5.315
 7836SOL    HW224408   3.270   4.187   5.298
 7837SOL     OW24409   5.055   5.771   6.905
 7837SOL    HW124410   5.003   5.783   6.990
 7837SOL    HW224411   5.082   5.860   6.869
 7838SOL     OW24412   4.387   6.528   1.214
 7838SOL    HW124413   4.472   6.497   1.171
 7838SOL    HW224414   4.309   6.482   1.172
 7839SOL     OW24415   6.317   3.964   4.964
 7839SOL    HW124416   6.272   3.931   5.047
 7839SOL    HW224417   6.386   4.032   4.989
 7840SOL     OW24418   0.240   3.515   4.481
 7840SOL    HW124419   0.172   3.526   4.408
 7840SOL    HW224420   0.290   3.430   4.466
 7841SOL     OW24421   4.532   1.638   6.617
 7841SOL    HW124422   4.483   1.551   6.621
 7841SOL    HW224423   4.631   1.621   6.620
 7842SOL     OW24424   1.981   1.161   2.320
 7842SOL    HW124425   2.062   1.137   2.373
 7842SOL    HW224426   1.987   1.117   2.230
 7843SOL     OW24427   0.355   6.572   3.502
 7843SOL    HW124428   0.315   6.664   3.509
 7843SOL    HW224429   0.454   6.578   3.511
 7844SOL     OW24430   3.490   1.007   2.347
 7844SOL    HW124431   3.497   1.055   2.434
 7844SOL    HW224432   3.546   1.055   2.278
 7845SOL     OW24433   5.183   1.788   2.434
 7845SOL    HW124434   5.150   1.727   2.506
 7845SOL    HW224435   5.190   1.881   2.470
 7846SOL     OW24436   1.047   2.461   1.484
 7846SOL    HW124437   1.100   2.514   1.418
 7846SOL    HW224438   1.096   2.376   1.506
 7847SOL     OW24439   6.529   1.458   3.490
 7847SOL    HW124440   6.451   1.423   3.437
 7847SOL    HW224441   6.559   1.388   3.555
 7848SOL     OW24442   3.016   4.297   1.139
 7848SOL    HW124443   2.918   4.308   1.126
 7848SOL    HW224444   3.038   4.300   1.236
 7849SOL     OW24445   6.192   4.169   4.809
 7849SOL    HW124446   6.230   4.081   4.838
 7849SOL    HW224447   6.264   4.223   4.764
 7850SOL     OW24448   0.607   2.042   3.778
 7850SOL    HW124449   0.509   2.028   3.765
 7850SOL    HW224450   0.654   1.954   3.770
 7851SOL     OW24451   0.801   2.481   1.731
 7851SOL    HW124452   0.861   2.550   1.689
 7851SOL    HW224453   0.827   2.468   1.827
 7852SOL     OW24454   2.921   0.864   0.494
 7852SOL    HW124455   2.931   0.859   0.394
 7852SOL    HW224456   2.849   0.930   0.516
 7853SOL     OW24457   4.819   2.748   1.248
 7853SOL    HW124458   4.896   2.785   1.198
 7853SOL    HW224459   4.853   2.690   1.323
 7854SOL     OW24460   3.310   2.409   6.154
 7854SOL    HW124461   3.295   2.414   6.253
 7854SOL    HW224462   3.374   2.480   6.127
 7855SOL     OW24463   4.508   5.984   4.956
 7855SOL    HW124464   4.567   6.019   4.883
 7855SOL    HW224465   4.496   6.055   5.025
 7856SOL     OW24466   0.457   5.349   5.180
 7856SOL    HW124467   0.443   5.339   5.082
 7856SOL    HW224468   0.429   5.265   5.227
 7857SOL     OW24469   4.859   3.426   1.009
 7857SOL    HW124470   4.852   3.327   0.994
 7857SOL    HW224471   4.913   3.466   0.934
 7858SOL     OW24472   6.829   6.666   4.823
 7858SOL    HW124473   6.836   6.568   4.809
 7858SOL    HW224474   6.819   6.712   4.734
 7859SOL     OW24475   4.639   3.610   0.104
 7859SOL    HW124476   4.654   3.561   0.191
 7859SOL    HW224477   4.692   3.566   0.032
 7860SOL     OW24478   4.452   1.121   4.769
 7860SOL    HW124479   4.358   1.090   4.760
 7860SOL    HW224480   4.513   1.041   4.769
 7861SOL     OW24481   2.577   5.228   1.559
 7861SOL    HW124482   2.565   5.253   1.655
 7861SOL    HW224483   2.672   5.199   1.545
 7862SOL     OW24484   1.905   5.806   2.734
 7862SOL    HW124485   1.899   5.831   2.830
 7862SOL    HW224486   1.866   5.879   2.677
 7863SOL     OW24487   0.671   4.684   3.617
 7863SOL    HW124488   0.738   4.751   3.584
 7863SOL    HW224489   0.579   4.714   3.593
 7864SOL     OW24490   1.684   5.534   6.240
 7864SOL    HW124491   1.629   5.458   6.273
 7864SOL    HW224492   1.625   5.613   6.222
 7865SOL     OW24493   6.245   5.442   4.332
 7865SOL    HW124494   6.259   5.541   4.334
 7865SOL    HW224495   6.161   5.421   4.282
 7866SOL     OW24496   1.244   0.379   5.435
 7866SOL    HW124497   1.187   0.395   5.515
 7866SOL    HW224498   1.338   0.408   5.454
 7867SOL     OW24499   5.710   6.909   3.531
 7867SOL    HW124500   5.647   6.948   3.464
 7867SOL    HW224501   5.671   6.824   3.568
 7868SOL     OW24502   4.297   5.902   0.544
 7868SOL    HW124503   4.223   5.969   0.546
 7868SOL    HW224504   4.260   5.811   0.560
 7869SOL     OW24505   5.344   4.689   5.697
 7869SOL    HW124506   5.420   4.754   5.694
 7869SOL    HW224507   5.342   4.635   5.613
 7870SOL     OW24508   4.973   6.852   4.851
 7870SOL    HW124509   4.945   6.776   4.909
 7870SOL    HW224510   5.069   6.875   4.870
 7871SOL     OW24511   5.058   2.225   1.923
 7871SOL    HW124512   5.084   2.310   1.877
 7871SOL    HW224513   4.986   2.244   1.990
 7872SOL     OW24514   1.815   4.042   2.148
 7872SOL    HW124515   1.772   3.977   2.086
 7872SOL    HW224516   1.815   4.004   2.241
 7873SOL     OW24517   6.085   0.166   0.457
 7873SOL    HW124518   6.150   0.184   0.384
 7873SOL    HW224519   6.133   0.165   0.545
 7874SOL     OW24520   4.425   2.201   1.311
 7874SOL    HW124521   4.382   2.286   1.282
 7874SOL    HW224522   4.363   2.152   1.373
 7875SOL     OW24523   3.949   3.003   0.154
 7875SOL    HW124524   3.932   3.088   0.206
 7875SOL    HW224525   3.890   3.002   0.073
 7876SOL     OW24526   1.237   6.403   3.457
 7876SOL    HW124527   1.205   6.324   3.509
 7876SOL    HW224528   1.212   6.487   3.505
 7877SOL     OW24529   6.942   1.602   2.975
 7877SOL    HW124530   6.980   1.694   2.984
 7877SOL    HW224531   6.975   1.559   2.891
 7878SOL     OW24532   4.715   4.245   3.583
 7878SOL    HW124533   4.795   4.304   3.569
 7878SOL    HW224534   4.738   4.172   3.646
 7879SOL     OW24535   3.610   5.061   2.662
 7879SOL    HW124536   3.597   4.985   2.597
 7879SOL    HW224537   3.627   5.145   2.611
 7880SOL     OW24538   2.365   3.540   0.732
 7880SOL    HW124539   2.410   3.608   0.674
 7880SOL    HW224540   2.271   3.526   0.700
 7881SOL     OW24541   4.826   4.164   4.279
 7881SOL    HW124542   4.807   4.066   4.278
 7881SOL    HW224543   4.789   4.204   4.362
 7882SOL     OW24544   2.143   3.482   1.610
 7882SOL    HW124545   2.065   3.420   1.599
 7882SOL    HW224546   2.189   3.462   1.696
 7883SOL     OW24547   0.900   0.013   5.868
 7883SOL    HW124548   0.949   0.040   5.950
 7883SOL    HW224549   0.850   6.946   5.885
 7884SOL     OW24550   0.926   3.759   4.301
 7884SOL    HW124551   0.971   3.722   4.382
 7884SOL    HW224552   0.975   3.729   4.219
 7885SOL     OW24553   6.755   5.901   0.592
 7885SOL    HW124554   6.842   5.885   0.640
 7885SOL    HW224555   6.698   5.961   0.647
 7886SOL     OW24556   4.338   5.619   6.903
 7886SOL    HW124557   4.272   5.694   6.907
 7886SOL    HW224558   4.317   5.552   6.974
 7887SOL     OW24559   3.582   2.004   6.826
 7887SOL    HW124560   3.516   1.941   6.784
 7887SOL    HW224561   3.663   1.952   6.854
 7888SOL     OW24562   5.716   0.519   4.057
 7888SOL    HW124563   5.652   0.491   3.986
 7888SOL    HW224564   5.704   0.616   4.078
 7889SOL     OW24565   1.542   4.850   1.560
 7889SOL    HW124566   1.604   4.878   1.633
 7889SOL    HW224567   1.571   4.762   1.523
 7890SOL     OW24568   1.891   3.828   2.759
 7890SOL    HW124569   1.881   3.759   2.687
 7890SOL    HW224570   1.980   3.817   2.804
 7891SOL     OW24571   2.053   4.627   3.121
 7891SOL    HW124572   2.140   4.597   3.158
 7891SOL    HW224573   1.982   4.561   3.146
 7892SOL     OW24574   1.978   2.670   4.240
 7892SOL    HW124575   2.064   2.666   4.188
 7892SOL    HW224576   1.973   2.756   4.290
 7893SOL     OW24577   6.319   6.717   2.395
 7893SOL    HW124578   6.392   6.739   2.460
 7893SOL    HW224579   6.357   6.708   2.303
 7894SOL     OW24580   2.829   6.276   1.583
 7894SOL    HW124581   2.749   6.233   1.626
 7894SOL    HW224582   2.801   6.362   1.542
 7895SOL     OW24583   6.073   1.569   5.876
 7895SOL    HW124584   6.062   1.506   5.953
 7895SOL    HW224585   5.984   1.587   5.835
 7896SOL     OW24586   4.981   4.434   6.555
 7896SOL    HW124587   5.006   4.366   6.624
 7896SOL    HW224588   4.920   4.392   6.487
 7897SOL     OW24589   2.723   3.755   6.280
 7897SOL    HW124590   2.643   3.700   6.302
 7897SOL    HW224591   2.710   3.800   6.192
 7898SOL     OW24592   5.454   2.240   3.599
 7898SOL    HW124593   5.504   2.211   3.518
 7898SOL    HW224594   5.491   2.326   3.633
 7899SOL     OW24595   6.624   1.643   1.744
 7899SOL    HW124596   6.583   1.573   1.686
 7899SOL    HW224597   6.569   1.655   1.827
 7900SOL     OW24598   1.236   5.180   0.768
 7900SOL    HW124599   1.196   5.091   0.748
 7900SOL    HW224600   1.192   5.218   0.849
 7901SOL     OW24601   4.840   0.533   5.866
 7901SOL    HW124602   4.812   0.563   5.775
 7901SOL    HW224603   4.855   0.613   5.924
 7902SOL     OW24604   4.739   5.041   1.339
 7902SOL    HW124605   4.769   4.969   1.402
 7902SOL    HW224606   4.744   5.129   1.386
 7903SOL     OW24607   6.142   2.384   0.677
 7903SOL    HW124608   6.072   2.333   0.626
 7903SOL    HW224609   6.211   2.418   0.613
 7904SOL     OW24610   6.104   0.492   2.715
 7904SOL    HW124611   6.112   0.586   2.749
 7904SOL    HW224612   6.145   0.487   2.624
 7905SOL     OW24613   4.465   1.573   0.267
 7905SOL    HW124614   4.464   1.476   0.291
 7905SOL    HW224615   4.463   1.628   0.351
 7906SOL     OW24616   0.699   5.849   0.109
 7906SOL    HW124617   0.605   5.876   0.128
 7906SOL    HW224618   0.747   5.924   0.064
 7907SOL     OW24619   6.233   2.375   4.820
 7907SOL    HW124620   6.153   2.417   4.779
 7907SOL    HW224621   6.240   2.279   4.790
 7908SOL     OW24622   1.549   1.490   4.138
 7908SOL    HW124623   1.547   1.405   4.087
 7908SOL    HW224624   1.630   1.492   4.197
 7909SOL     OW24625   5.170   3.562   4.904
 7909SOL    HW124626   5.093   3.608   4.859
 7909SOL    HW224627   5.171   3.466   4.877
 7910SOL     OW24628   3.206   3.018   5.679
 7910SOL    HW124629   3.173   3.051   5.590
 7910SOL    HW224630   3.147   3.054   5.751
 7911SOL     OW24631   0.286   4.293   6.510
 7911SOL    HW124632   0.352   4.221   6.533
 7911SOL    HW224633   0.295   4.317   6.414
 7912SOL     OW24634   0.269   5.211   0.214
 7912SOL    HW124635   0.325   5.128   0.210
 7912SOL    HW224636   0.270   5.248   0.307
 7913SOL     OW24637   0.630   5.355   0.101
 7913SOL    HW124638   0.539   5.335   0.065
 7913SOL    HW224639   0.662   5.442   0.063
 7914SOL     OW24640   0.261   5.286   6.623
 7914SOL    HW124641   0.226   5.366   6.672
 7914SOL    HW224642   0.295   5.219   6.689
 7915SOL     OW24643   5.011   2.439   2.412
 7915SOL    HW124644   5.035   2.518   2.468
 7915SOL    HW224645   5.009   2.465   2.316
 7916SOL     OW24646   5.701   3.662   5.217
 7916SOL    HW124647   5.741   3.573   5.241
 7916SOL    HW224648   5.720   3.727   5.290
 7917SOL     OW24649   3.761   3.289   3.780
 7917SOL    HW124650   3.713   3.285   3.867
 7917SOL    HW224651   3.845   3.342   3.791
 7918SOL     OW24652   6.867   1.445   0.978
 7918SOL    HW124653   6.778   1.402   0.989
 7918SOL    HW224654   6.861   1.523   0.915
 7919SOL     OW24655   0.044   4.617   3.592
 7919SOL    HW124656   6.962   4.619   3.587
 7919SOL    HW224657   0.081   4.583   3.505
 7920SOL     OW24658   0.020   5.082   1.562
 7920SOL    HW124659   0.022   5.060   1.660
 7920SOL    HW224660   0.102   5.047   1.518
 7921SOL     OW24661   3.768   6.010   0.167
 7921SOL    HW124662   3.810   5.983   0.080
 7921SOL    HW224663   3.809   6.095   0.199
 7922SOL     OW24664   6.593   5.691   0.112
 7922SOL    HW124665   6.495   5.685   0.131
 7922SOL    HW224666   6.638   5.748   0.181
 7923SOL     OW24667   2.066   0.769   2.783
 7923SOL    HW124668   2.016   0.826   2.848
 7923SOL    HW224669   2.048   0.800   2.689
 7924SOL     OW24670   3.765   6.451   3.123
 7924SOL    HW124671   3.780   6.449   3.222
 7924SOL    HW224672   3.691   6.389   3.099
 7925SOL     OW24673   0.509   1.962   6.329
 7925SOL    HW124674   0.538   2.005   6.244
 7925SOL    HW224675   0.453   1.881   6.307
 7926SOL     OW24676   4.533   1.103   4.165
 7926SOL    HW124677   4.501   1.151   4.246
 7926SOL    HW224678   4.632   1.098   4.165
 7927SOL     OW24679   4.064   5.806   4.967
 7927SOL    HW124680   4.162   5.817   4.954
 7927SOL    HW224681   4.020   5.895   4.975
 7928SOL     OW24682   1.183   4.482   3.925
 7928SOL    HW124683   1.236   4.566   3.935
 7928SOL    HW224684   1.192   4.426   4.007
 7929SOL     OW24685   3.959   3.737   4.707
 7929SOL    HW124686   3.877   3.689   4.676
 7929SOL    HW224687   3.960   3.830   4.670
 7930SOL     OW24688   4.787   5.749   3.580
 7930SOL    HW124689   4.760   5.655   3.560
 7930SOL    HW224690   4.706   5.806   3.592
 7931SOL     OW24691   2.252   2.180   6.606
 7931SOL    HW124692   2.280   2.087   6.631
 7931SOL    HW224693   2.227   2.230   6.688
 7932SOL     OW24694   2.521   6.970   0.192
 7932SOL    HW124695   2.619   6.958   0.177
 7932SOL    HW224696   2.506   0.031   0.252
 7933SOL     OW24697   0.006   6.887   0.462
 7933SOL    HW124698   6.938   6.904   0.414
 7933SOL    HW224699   0.060   6.971   0.466
 7934SOL     OW24700   2.527   3.854   6.918
 7934SOL    HW124701   2.611   3.897   6.950
 7934SOL    HW224702   2.449   3.914   6.939
 7935SOL     OW24703   5.306   5.373   0.299
 7935SOL    HW124704   5.355   5.363   0.213
 7935SOL    HW224705   5.211   5.397   0.281
 7936SOL     OW24706   3.395   5.694   2.125
 7936SOL    HW124707   3.415   5.652   2.037
 7936SOL    HW224708   3.416   5.629   2.198
 7937SOL     OW24709   5.131   6.798   3.956
 7937SOL    HW124710   5.041   6.825   3.991
 7937SOL    HW224711   5.124   6.708   3.913
 7938SOL     OW24712   5.513   5.001   4.782
 7938SOL    HW124713   5.540   4.924   4.724
 7938SOL    HW224714   5.478   4.967   4.869
 7939SOL     OW24715   1.030   1.419   6.077
 7939SOL    HW124716   1.021   1.403   6.175
 7939SOL    HW224717   1.039   1.517   6.059
 7940SOL     OW24718   2.401   5.136   2.089
 7940SOL    HW124719   2.330   5.092   2.144
 7940SOL    HW224720   2.481   5.076   2.083
 7941SOL     OW24721   6.530   0.153   1.547
 7941SOL    HW124722   6.594   0.134   1.472
 7941SOL    HW224723   6.450   0.094   1.538
 7942SOL     OW24724   6.739   6.501   2.841
 7942SOL    HW124725   6.683   6.419   2.853
 7942SOL    HW224726   6.762   6.539   2.931
 7943SOL     OW24727   5.494   1.834   0.807
 7943SOL    HW124728   5.407   1.867   0.771
 7943SOL    HW224729   5.564   1.905   0.795
 7944SOL     OW24730   0.261   2.939   0.625
 7944SOL    HW124731   0.171   2.961   0.664
 7944SOL    HW224732   0.272   2.840   0.622
 7945SOL     OW24733   5.272   0.052   3.065
 7945SOL    HW124734   5.370   0.069   3.071
 7945SOL    HW224735   5.256   6.971   3.059
 7946SOL     OW24736   1.573   3.045   5.598
 7946SOL    HW124737   1.524   3.033   5.511
 7946SOL    HW224738   1.645   2.976   5.605
 7947SOL     OW24739   4.420   2.868   6.976
 7947SOL    HW124740   4.332   2.911   6.992
 7947SOL    HW224741   4.417   2.815   6.891
 7948SOL     OW24742   6.673   6.698   1.259
 7948SOL    HW124743   6.677   6.692   1.359
 7948SOL    HW224744   6.629   6.616   1.222
 7949SOL     OW24745   4.774   4.985   3.918
 7949SOL    HW124746   4.777   5.064   3.979
 7949SOL    HW224747   4.679   4.961   3.899
 7950SOL     OW24748   4.849   5.467   3.410
 7950SOL    HW124749   4.829   5.414   3.492
 7950SOL    HW224750   4.854   5.405   3.331
 7951SOL     OW24751   2.899   3.634   0.869
 7951SOL    HW124752   2.902   3.679   0.958
 7951SOL    HW224753   2.829   3.563   0.870
 7952SOL     OW24754   0.266   2.887   6.682
 7952SOL    HW124755   0.342   2.840   6.637
 7952SOL    HW224756   0.183   2.832   6.673
 7953SOL     OW24757   1.978   2.973   3.122
 7953SOL    HW124758   1.922   3.006   3.046
 7953SOL    HW224759   1.932   2.897   3.167
 7954SOL     OW24760   4.988   5.216   4.957
 7954SOL    HW124761   5.013   5.191   4.863
 7954SOL    HW224762   4.946   5.307   4.957
 7955SOL     OW24763   0.254   6.509   6.431
 7955SOL    HW124764   0.193   6.580   6.396
 7955SOL    HW224765   0.349   6.538   6.421
 7956SOL     OW24766   0.590   5.371   3.281
 7956SOL    HW124767   0.680   5.392   3.319
 7956SOL    HW224768   0.601   5.334   3.188
 7957SOL     OW24769   2.153   1.899   0.922
 7957SOL    HW124770   2.126   1.954   1.001
 7957SOL    HW224771   2.097   1.924   0.843
 7958SOL     OW24772   3.625   5.494   3.908
 7958SOL    HW124773   3.526   5.504   3.916
 7958SOL    HW224774   3.648   5.398   3.892
 7959SOL     OW24775   4.277   5.423   0.533
 7959SOL    HW124776   4.288   5.496   0.600
 7959SOL    HW224777   4.233   5.460   0.451
 7960SOL     OW24778   3.749   1.712   0.977
 7960SOL    HW124779   3.693   1.746   1.052
 7960SOL    HW224780   3.828   1.772   0.965
 7961SOL     OW24781   2.063   5.805   6.688
 7961SOL    HW124782   2.007   5.804   6.771
 7961SOL    HW224783   2.131   5.733   6.693
 7962SOL     OW24784   2.033   0.667   0.237
 7962SOL    HW124785   2.066   0.760   0.221
 7962SOL    HW224786   1.947   0.653   0.189
 7963SOL     OW24787   6.599   1.162   4.125
 7963SOL    HW124788   6.585   1.234   4.058
 7963SOL    HW224789   6.590   1.200   4.217
 7964SOL     OW24790   5.958   4.934   3.670
 7964SOL    HW124791   5.889   4.880   3.620
 7964SOL    HW224792   6.049   4.906   3.640
 7965SOL     OW24793   4.192   2.998   0.038
 7965SOL    HW124794   4.171   3.044   6.970
 7965SOL    HW224795   4.107   2.984   0.090
 7966SOL     OW24796   0.934   3.525   4.952
 7966SOL    HW124797   0.982   3.461   5.011
 7966SOL    HW224798   0.880   3.588   5.007
 7967SOL     OW24799   2.979   6.320   4.111
 7967SOL    HW124800   3.024   6.281   4.030
 7967SOL    HW224801   2.926   6.249   4.157
 7968SOL     OW24802   2.159   3.270   3.139
 7968SOL    HW124803   2.221   3.203   3.181
 7968SOL    HW224804   2.094   3.303   3.207
 7969SOL     OW24805   4.568   0.220   1.922
 7969SOL    HW124806   4.469   0.226   1.916
 7969SOL    HW224807   4.609   0.286   1.859
 7970SOL     OW24808   0.116   3.719   2.604
 7970SOL    HW124809   0.095   3.622   2.605
 7970SOL    HW224810   0.183   3.739   2.533
 7971SOL     OW24811   3.148   1.597   1.533
 7971SOL    HW124812   3.163   1.653   1.615
 7971SOL    HW224813   3.084   1.645   1.472
 7972SOL     OW24814   6.894   4.048   1.299
 7972SOL    HW124815   6.893   4.046   1.399
 7972SOL    HW224816   6.953   4.123   1.268
 7973SOL     OW24817   5.261   3.340   3.060
 7973SOL    HW124818   5.199   3.405   3.104
 7973SOL    HW224819   5.249   3.344   2.961
 7974SOL     OW24820   6.086   0.419   5.018
 7974SOL    HW124821   6.010   0.358   5.044
 7974SOL    HW224822   6.160   0.410   5.085
 7975SOL     OW24823   5.195   0.210   3.753
 7975SOL    HW124824   5.207   0.309   3.764
 7975SOL    HW224825   5.282   0.164   3.770
 7976SOL     OW24826   0.607   6.895   5.871
 7976SOL    HW124827   0.582   6.823   5.935
 7976SOL    HW224828   0.544   6.972   5.880
 7977SOL     OW24829   4.523   5.738   2.366
 7977SOL    HW124830   4.429   5.772   2.363
 7977SOL    HW224831   4.549   5.722   2.461
 7978SOL     OW24832   6.093   4.093   5.924
 7978SOL    HW124833   6.167   4.113   5.859
 7978SOL    HW224834   6.132   4.071   6.013
 7979SOL     OW24835   2.725   0.230   5.040
 7979SOL    HW124836   2.699   0.158   4.976
 7979SOL    HW224837   2.814   0.209   5.080
 7980SOL     OW24838   4.013   5.383   6.875
 7980SOL    HW124839   4.042   5.297   6.918
 7980SOL    HW224840   3.975   5.444   6.945
 7981SOL     OW24841   1.045   6.015   1.648
 7981SOL    HW124842   1.103   5.937   1.672
 7981SOL    HW224843   0.949   5.992   1.669
 7982SOL     OW24844   6.614   1.786   0.599
 7982SOL    HW124845   6.657   1.811   0.512
 7982SOL    HW224846   6.581   1.692   0.594
 7983SOL     OW24847   5.097   2.027   3.071
 7983SOL    HW124848   5.125   1.934   3.095
 7983SOL    HW224849   5.026   2.058   3.133
 7984SOL     OW24850   1.101   1.473   1.387
 7984SOL    HW124851   1.078   1.444   1.294
 7984SOL    HW224852   1.200   1.468   1.400
 7985SOL     OW24853   2.168   6.563   3.147
 7985SOL    HW124854   2.254   6.561   3.096
 7985SOL    HW224855   2.097   6.516   3.095
 7986SOL     OW24856   3.249   1.261   6.914
 7986SOL    HW124857   3.214   1.338   6.967
 7986SOL    HW224858   3.239   1.280   6.816
 7987SOL     OW24859   0.525   3.932   6.293
 7987SOL    HW124860   0.447   3.873   6.272
 7987SOL    HW224861   0.610   3.884   6.275
 7988SOL     OW24862   2.472   2.523   4.331
 7988SOL    HW124863   2.545   2.475   4.284
 7988SOL    HW224864   2.390   2.524   4.274
 7989SOL     OW24865   3.321   2.634   5.520
 7989SOL    HW124866   3.421   2.637   5.516
 7989SOL    HW224867   3.288   2.559   5.462
 7990SOL     OW24868   0.589   3.792   3.313
 7990SOL    HW124869   0.517   3.727   3.337
 7990SOL    HW224870   0.549   3.883   3.304
 7991SOL     OW24871   6.285   2.026   5.475
 7991SOL    HW124872   6.264   2.045   5.570
 7991SOL    HW224873   6.337   2.102   5.436
 7992SOL     OW24874   1.375   6.613   0.920
 7992SOL    HW124875   1.364   6.602   1.019
 7992SOL    HW224876   1.468   6.588   0.894
 7993SOL     OW24877   1.961   5.971   6.475
 7993SOL    HW124878   1.882   5.927   6.432
 7993SOL    HW224879   2.005   5.908   6.538
 7994SOL     OW24880   4.698   0.455   3.525
 7994SOL    HW124881   4.617   0.482   3.474
 7994SOL    HW224882   4.677   0.376   3.583
 7995SOL     OW24883   4.049   5.210   3.333
 7995SOL    HW124884   4.006   5.120   3.339
 7995SOL    HW224885   4.103   5.216   3.249
 7996SOL     OW24886   3.186   6.339   4.511
 7996SOL    HW124887   3.128   6.393   4.571
 7996SOL    HW224888   3.185   6.377   4.418
 7997SOL     OW24889   6.640   1.646   1.152
 7997SOL    HW124890   6.648   1.687   1.061
 7997SOL    HW224891   6.732   1.632   1.190
 7998SOL     OW24892   4.484   5.608   0.821
 7998SOL    HW124893   4.427   5.535   0.858
 7998SOL    HW224894   4.430   5.691   0.808
 7999SOL     OW24895   1.087   0.170   6.013
 7999SOL    HW124896   1.171   0.120   6.036
 7999SOL    HW224897   1.047   0.209   6.096
 8000SOL     OW24898   5.630   0.057   6.373
 8000SOL    HW124899   5.712   0.059   6.315
 8000SOL    HW224900   5.551   0.089   6.320
 8001SOL     OW24901   3.566   5.830   1.916
 8001SOL    HW124902   3.506   5.905   1.889
 8001SOL    HW224903   3.535   5.746   1.873
 8002SOL     OW24904   0.835   3.416   6.088
 8002SOL    HW124905   0.908   3.447   6.149
 8002SOL    HW224906   0.866   3.336   6.038
 8003SOL     OW24907   2.574   4.550   2.538
 8003SOL    HW124908   2.637   4.603   2.482
 8003SOL    HW224909   2.619   4.523   2.623
 8004SOL     OW24910   1.644   4.545   2.888
 8004SOL    HW124911   1.638   4.449   2.915
 8004SOL    HW224912   1.664   4.600   2.969
 8005SOL     OW24913   3.102   1.876   2.591
 8005SOL    HW124914   3.020   1.924   2.622
 8005SOL    HW224915   3.179   1.901   2.650
 8006SOL     OW24916   2.354   6.165   0.877
 8006SOL    HW124917   2.277   6.147   0.814
 8006SOL    HW224918   2.337   6.118   0.964
 8007SOL     OW24919   0.622   0.316   3.792
 8007SOL    HW124920   0.566   0.386   3.835
 8007SOL    HW224921   0.719   0.340   3.801
 8008SOL     OW24922   4.615   6.616   6.079
 8008SOL    HW124923   4.657   6.580   5.995
 8008SOL    HW224924   4.584   6.540   6.136
 8009SOL     OW24925   6.349   0.521   3.028
 8009SOL    HW124926   6.393   0.572   3.102
 8009SOL    HW224927   6.416   0.462   2.983
 8010SOL     OW24928   2.306   1.503   6.793
 8010SOL    HW124929   2.336   1.593   6.824
 8010SOL    HW224930   2.216   1.482   6.832
 8011SOL     OW24931   2.107   2.726   1.262
 8011SOL    HW124932   2.078   2.644   1.214
 8011SOL    HW224933   2.204   2.742   1.245
 8012SOL     OW24934   1.715   5.880   1.449
 8012SOL    HW124935   1.760   5.833   1.373
 8012SOL    HW224936   1.646   5.820   1.489
 8013SOL     OW24937   0.580   5.057   4.318
 8013SOL    HW124938   0.649   5.064   4.390
 8013SOL    HW224939   0.497   5.105   4.346
 8014SOL     OW24940   1.254   6.435   5.260
 8014SOL    HW124941   1.349   6.404   5.262
 8014SOL    HW224942   1.197   6.368   5.307
 8015SOL     OW24943   2.840   1.424   0.269
 8015SOL    HW124944   2.858   1.501   0.208
 8015SOL    HW224945   2.892   1.436   0.354
 8016SOL     OW24946   4.068   0.161   6.607
 8016SOL    HW124947   4.051   0.185   6.702
 8016SOL    HW224948   4.063   0.062   6.596
 8017SOL     OW24949   6.715   4.875   5.807
 8017SOL    HW124950   6.702   4.970   5.836
 8017SOL    HW224951   6.752   4.822   5.883
 8018SOL     OW24952   4.891   2.441   6.094
 8018SOL    HW124953   4.963   2.468   6.158
 8018SOL    HW224954   4.838   2.522   6.068
 8019SOL     OW24955   1.925   3.609   0.165
 8019SOL    HW124956   1.904   3.653   0.252
 8019SOL    HW224957   1.865   3.530   0.152
 8020SOL     OW24958   6.218   6.305   0.538
 8020SOL    HW124959   6.250   6.384   0.484
 8020SOL    HW224960   6.289   6.235   0.539
 8021SOL     OW24961   1.423   1.559   2.119
 8021SOL    HW124962   1.413   1.591   2.214
 8021SOL    HW224963   1.374   1.473   2.108
 8022SOL     OW24964   4.135   0.704   2.999
 8022SOL    HW124965   4.148   0.784   2.941
 8022SOL    HW224966   4.064   0.645   2.960
 8023SOL     OW24967   5.943   5.920   3.463
 8023SOL    HW124968   5.996   5.985   3.409
 8023SOL    HW224969   5.896   5.856   3.402
 8024SOL     OW24970   3.164   4.617   0.187
 8024SOL    HW124971   3.176   4.714   0.165
 8024SOL    HW224972   3.142   4.607   0.284
 8025SOL     OW24973   3.582   6.163   5.791
 8025SOL    HW124974   3.547   6.183   5.699
 8025SOL    HW224975   3.505   6.156   5.854
 8026SOL     OW24976   0.656   3.822   6.606
 8026SOL    HW124977   0.568   3.798   6.567
 8026SOL    HW224978   0.708   3.876   6.540
 8027SOL     OW24979   4.756   2.184   5.602
 8027SOL    HW124980   4.844   2.231   5.598
 8027SOL    HW224981   4.769   2.087   5.584
 8028SOL     OW24982   3.866   4.899   6.184
 8028SOL    HW124983   3.781   4.852   6.208
 8028SOL    HW224984   3.924   4.838   6.130
 8029SOL     OW24985   5.698   3.516   6.518
 8029SOL    HW124986   5.648   3.436   6.553
 8029SOL    HW224987   5.657   3.546   6.432
 8030SOL     OW24988   5.769   3.903   5.878
 8030SOL    HW124989   5.852   3.906   5.934
 8030SOL    HW224990   5.702   3.842   5.921
 8031SOL     OW24991   4.870   5.939   2.624
 8031SOL    HW124992   4.836   5.944   2.530
 8031SOL    HW224993   4.943   5.871   2.629
 8032SOL     OW24994   6.037   4.263   5.038
 8032SOL    HW124995   5.978   4.192   4.998
 8032SOL    HW224996   6.112   4.283   4.975
 8033SOL     OW24997   4.856   3.215   0.233
 8033SOL    HW124998   4.857   3.130   0.180
 8033SOL    HW224999   4.920   3.280   0.193
 8034SOL     OW25000   5.991   1.303   5.336
 8034SOL    HW125001   5.987   1.342   5.428
 8034SOL    HW225002   5.910   1.248   5.319
 8035SOL     OW25003   5.077   0.071   5.315
 8035SOL    HW125004   4.978   0.077   5.330
 8035SOL    HW225005   5.094   0.040   5.222
 8036SOL     OW25006   1.103   3.591   1.681
 8036SOL    HW125007   1.063   3.518   1.737
 8036SOL    HW225008   1.129   3.554   1.592
 8037SOL     OW25009   1.552   3.315   1.385
 8037SOL    HW125010   1.605   3.375   1.325
 8037SOL    HW225011   1.567   3.343   1.480
 8038SOL     OW25012   4.964   1.672   2.658
 8038SOL    HW125013   5.000   1.761   2.686
 8038SOL    HW225014   4.870   1.683   2.626
 8039SOL     OW25015   1.267   0.197   3.457
 8039SOL    HW125016   1.193   0.235   3.401
 8039SOL    HW225017   1.302   0.268   3.518
 8040SOL     OW25018   1.055   5.722   0.864
 8040SOL    HW125019   1.128   5.657   0.878
 8040SOL    HW225020   1.052   5.787   0.940
 8041SOL     OW25021   3.314   2.031   2.101
 8041SOL    HW125022   3.412   2.035   2.120
 8041SOL    HW225023   3.263   2.049   2.186
 8042SOL     OW25024   3.434   2.836   2.364
 8042SOL    HW125025   3.374   2.838   2.284
 8042SOL    HW225026   3.389   2.787   2.439
 8043SOL     OW25027   3.372   6.625   0.704
 8043SOL    HW125028   3.377   6.607   0.606
 8043SOL    HW225029   3.455   6.591   0.748
 8044SOL     OW25030   3.036   3.306   1.267
 8044SOL    HW125031   3.100   3.286   1.192
 8044SOL    HW225032   3.001   3.221   1.305
 8045SOL     OW25033   5.621   1.500   2.566
 8045SOL    HW125034   5.583   1.417   2.608
 8045SOL    HW225035   5.657   1.477   2.475
 8046SOL     OW25036   6.093   4.382   6.524
 8046SOL    HW125037   6.036   4.300   6.529
 8046SOL    HW225038   6.055   4.446   6.458
 8047SOL     OW25039   3.460   4.832   5.241
 8047SOL    HW125040   3.551   4.851   5.277
 8047SOL    HW225041   3.446   4.884   5.157
 8048SOL     OW25042   5.437   1.476   5.559
 8048SOL    HW125043   5.500   1.489   5.482
 8048SOL    HW225044   5.481   1.507   5.643
 8049SOL     OW25045   1.004   0.152   1.846
 8049SOL    HW125046   0.954   0.098   1.914
 8049SOL    HW225047   0.962   0.242   1.837
 8050SOL     OW25048   0.915   4.162   1.142
 8050SOL    HW125049   0.829   4.114   1.160
 8050SOL    HW225050   0.931   4.231   1.212
 8051SOL     OW25051   5.041   0.150   3.437
 8051SOL    HW125052   5.113   0.086   3.465
 8051SOL    HW225053   5.000   0.192   3.518
 8052SOL     OW25054   3.214   1.789   2.103
 8052SOL    HW125055   3.281   1.861   2.090
 8052SOL    HW225056   3.122   1.828   2.105
 8053SOL     OW25057   3.664   3.325   3.010
 8053SOL    HW125058   3.666   3.398   3.078
 8053SOL    HW225059   3.630   3.362   2.923
 8054SOL     OW25060   4.957   6.380   4.033
 8054SOL    HW125061   4.863   6.414   4.037
 8054SOL    HW225062   5.000   6.390   4.122
 8055SOL     OW25063   0.836   0.450   6.273
 8055SOL    HW125064   0.789   0.402   6.347
 8055SOL    HW225065   0.807   0.413   6.185
 8056SOL     OW25066   4.796   1.082   3.577
 8056SOL    HW125067   4.708   1.101   3.535
 8056SOL    HW225068   4.788   1.001   3.636
 8057SOL     OW25069   2.463   1.106   2.387
 8057SOL    HW125070   2.522   1.144   2.459
 8057SOL    HW225071   2.371   1.095   2.423
 8058SOL     OW25072   3.527   0.053   3.111
 8058SOL    HW125073   3.614   0.093   3.138
 8058SOL    HW225074   3.465   0.050   3.190
 8059SOL     OW25075   4.270   2.197   5.049
 8059SOL    HW125076   4.275   2.295   5.028
 8059SOL    HW225077   4.207   2.153   4.984
 8060SOL     OW25078   0.537   1.458   4.584
 8060SOL    HW125079   0.632   1.434   4.605
 8060SOL    HW225080   0.536   1.531   4.516
 8061SOL     OW25081   6.523   6.110   2.115
 8061SOL    HW125082   6.492   6.039   2.051
 8061SOL    HW225083   6.622   6.121   2.106
 8062SOL     OW25084   2.359   4.319   3.642
 8062SOL    HW125085   2.438   4.371   3.610
 8062SOL    HW225086   2.314   4.275   3.564
 8063SOL     OW25087   1.833   4.093   0.257
 8063SOL    HW125088   1.832   4.170   0.194
 8063SOL    HW225089   1.749   4.040   0.245
 8064SOL     OW25090   0.065   4.795   0.527
 8064SOL    HW125091   0.110   4.707   0.542
 8064SOL    HW225092   6.999   4.800   0.582
 8065SOL     OW25093   4.249   6.474   3.595
 8065SOL    HW125094   4.160   6.430   3.580
 8065SOL    HW225095   4.263   6.544   3.525
 8066SOL     OW25096   1.147   1.344   6.344
 8066SOL    HW125097   1.080   1.269   6.343
 8066SOL    HW225098   1.178   1.359   6.437
 8067SOL     OW25099   4.379   3.279   1.557
 8067SOL    HW125100   4.476   3.284   1.531
 8067SOL    HW225101   4.323   3.264   1.476
 8068SOL     OW25102   6.523   5.524   5.758
 8068SOL    HW125103   6.519   5.585   5.679
 8068SOL    HW225104   6.610   5.537   5.806
 8069SOL     OW25105   2.196   6.068   1.689
 8069SOL    HW125106   2.173   5.976   1.721
 8069SOL    HW225107   2.162   6.136   1.755
 8070SOL     OW25108   2.986   4.481   0.662
 8070SOL    HW125109   2.897   4.524   0.645
 8070SOL    HW225110   2.996   4.462   0.760
 8071SOL     OW25111   3.950   6.359   5.128
 8071SOL    HW125112   3.909   6.336   5.216
 8071SOL    HW225113   3.886   6.413   5.073
 8072SOL     OW25114   3.183   1.424   0.306
 8072SOL    HW125115   3.144   1.440   0.215
 8072SOL    HW225116   3.190   1.326   0.323
 8073SOL     OW25117   5.109   6.829   6.672
 8073SOL    HW125118   5.094   6.928   6.669
 8073SOL    HW225119   5.131   6.801   6.765
 8074SOL     OW25120   3.614   2.554   0.134
 8074SOL    HW125121   3.549   2.496   0.184
 8074SOL    HW225122   3.565   2.611   0.069
 8075SOL     OW25123   6.501   1.445   1.556
 8075SOL    HW125124   6.484   1.470   1.461
 8075SOL    HW225125   6.450   1.362   1.578
 8076SOL     OW25126   4.464   2.978   5.726
 8076SOL    HW125127   4.436   2.884   5.707
 8076SOL    HW225128   4.508   3.017   5.646
 8077SOL     OW25129   0.617   0.082   2.033
 8077SOL    HW125130   0.614   0.165   2.088
 8077SOL    HW225131   0.710   0.044   2.035
 8078SOL     OW25132   5.808   1.777   0.605
 8078SOL    HW125133   5.751   1.708   0.561
 8078SOL    HW225134   5.820   1.855   0.543
 8079SOL     OW25135   5.547   2.138   3.348
 8079SOL    HW125136   5.487   2.068   3.311
 8079SOL    HW225137   5.631   2.142   3.294
 8080SOL     OW25138   1.731   3.747   0.757
 8080SOL    HW125139   1.794   3.822   0.736
 8080SOL    HW225140   1.709   3.697   0.673
 8081SOL     OW25141   6.100   0.610   5.295
 8081SOL    HW125142   6.090   0.709   5.290
 8081SOL    HW225143   6.071   0.569   5.208
 8082SOL     OW25144   6.019   2.005   2.630
 8082SOL    HW125145   6.090   1.941   2.601
 8082SOL    HW225146   5.948   1.956   2.681
 8083SOL     OW25147   5.098   3.070   2.225
 8083SOL    HW125148   5.047   3.065   2.139
 8083SOL    HW225149   5.035   3.063   2.302
 8084SOL     OW25150   5.730   6.634   1.605
 8084SOL    HW125151   5.714   6.580   1.522
 8084SOL    HW225152   5.829   6.643   1.619
 8085SOL     OW25153   5.705   0.304   2.323
 8085SOL    HW125154   5.794   0.316   2.279
 8085SOL    HW225155   5.638   0.273   2.255
 8086SOL     OW25156   3.945   0.425   4.331
 8086SOL    HW125157   3.965   0.350   4.268
 8086SOL    HW225158   3.904   0.388   4.415
 8087SOL     OW25159   2.249   1.369   1.119
 8087SOL    HW125160   2.236   1.272   1.141
 8087SOL    HW225161   2.236   1.382   1.021
 8088SOL     OW25162   6.140   1.815   1.946
 8088SOL    HW125163   6.136   1.908   1.907
 8088SOL    HW225164   6.186   1.819   2.035
 8089SOL     OW25165   5.262   2.091   7.001
 8089SOL    HW125166   5.196   2.119   0.054
 8089SOL    HW225167   5.286   1.995   7.014
 8090SOL     OW25168   4.665   2.270   6.147
 8090SOL    HW125169   4.744   2.327   6.125
 8090SOL    HW225170   4.682   2.176   6.116
 8091SOL     OW25171   2.974   3.719   6.780
 8091SOL    HW125172   2.940   3.690   6.690
 8091SOL    HW225173   2.912   3.686   6.851
 8092SOL     OW25174   1.121   1.726   4.882
 8092SOL    HW125175   1.198   1.783   4.909
 8092SOL    HW225176   1.148   1.665   4.808
 8093SOL     OW25177   6.306   5.957   1.328
 8093SOL    HW125178   6.317   5.862   1.300
 8093SOL    HW225179   6.396   6.002   1.327
 8094SOL     OW25180   2.070   4.332   5.398
 8094SOL    HW125181   2.137   4.267   5.361
 8094SOL    HW225182   2.117   4.402   5.451
 8095SOL     OW25183   6.375   3.442   3.888
 8095SOL    HW125184   6.409   3.467   3.797
 8095SOL    HW225185   6.319   3.359   3.881
 8096SOL     OW25186   2.910   5.824   3.608
 8096SOL    HW125187   2.934   5.920   3.622
 8096SOL    HW225188   2.960   5.789   3.529
 8097SOL     OW25189   5.185   0.988   4.029
 8097SOL    HW125190   5.270   0.942   4.004
 8097SOL    HW225191   5.141   1.023   3.946
 8098SOL     OW25192   2.313   6.747   4.556
 8098SOL    HW125193   2.253   6.765   4.633
 8098SOL    HW225194   2.328   6.832   4.505
 8099SOL     OW25195   6.282   0.675   3.917
 8099SOL    HW125196   6.277   0.759   3.863
 8099SOL    HW225197   6.192   0.631   3.919
 8100SOL     OW25198   0.384   0.246   0.324
 8100SOL    HW125199   0.330   0.265   0.241
 8100SOL    HW225200   0.328   0.194   0.388
 8101SOL     OW25201   1.913   0.281   4.714
 8101SOL    HW125202   1.873   0.277   4.622
 8101SOL    HW225203   1.960   0.368   4.726
 8102SOL     OW25204   1.710   5.306   6.607
 8102SOL    HW125205   1.779   5.378   6.618
 8102SOL    HW225206   1.620   5.348   6.598
 8103SOL     OW25207   3.950   1.435   1.310
 8103SOL    HW125208   3.950   1.530   1.281
 8103SOL    HW225209   3.955   1.375   1.230
 8104SOL     OW25210   3.095   6.851   6.237
 8104SOL    HW125211   3.193   6.868   6.240
 8104SOL    HW225212   3.069   6.788   6.310
 8105SOL     OW25213   2.108   2.487   3.222
 8105SOL    HW125214   2.019   2.482   3.175
 8105SOL    HW225215   2.095   2.470   3.319
 8106SOL     OW25216   1.535   5.541   3.133
 8106SOL    HW125217   1.475   5.560   3.056
 8106SOL    HW225218   1.483   5.549   3.218
 8107SOL     OW25219   1.899   6.102   5.901
 8107SOL    HW125220   1.993   6.068   5.914
 8107SOL    HW225221   1.835   6.027   5.919
 8108SOL     OW25222   6.592   2.946   4.899
 8108SOL    HW125223   6.529   2.984   4.966
 8108SOL    HW225224   6.614   3.015   4.830
 8109SOL     OW25225   1.838   3.923   4.465
 8109SOL    HW125226   1.882   3.993   4.408
 8109SOL    HW225227   1.739   3.936   4.462
 8110SOL     OW25228   3.485   6.680   0.198
 8110SOL    HW125229   3.424   6.731   0.258
 8110SOL    HW225230   3.577   6.678   0.239
 8111SOL     OW25231   2.995   0.381   5.889
 8111SOL    HW125232   2.962   0.291   5.860
 8111SOL    HW225233   2.926   0.425   5.948
 8112SOL     OW25234   2.369   1.020   5.635
 8112SOL    HW125235   2.338   0.979   5.549
 8112SOL    HW225236   2.426   0.955   5.685
 8113SOL     OW25237   2.692   2.593   0.142
 8113SOL    HW125238   2.733   2.527   0.080
 8113SOL    HW225239   2.618   2.641   0.095
 8114SOL     OW25240   2.359   2.586   2.345
 8114SOL    HW125241   2.371   2.685   2.338
 8114SOL    HW225242   2.261   2.564   2.342
 8115SOL     OW25243   3.333   1.354   1.540
 8115SOL    HW125244   3.292   1.274   1.584
 8115SOL    HW225245   3.314   1.351   1.442
 8116SOL     OW25246   5.172   0.060   5.058
 8116SOL    HW125247   5.231   0.138   5.079
 8116SOL    HW225248   5.194   0.025   4.967
 8117SOL     OW25249   1.756   1.972   3.627
 8117SOL    HW125250   1.738   1.882   3.667
 8117SOL    HW225251   1.735   2.043   3.693
 8118SOL     OW25252   0.621   3.939   5.859
 8118SOL    HW125253   0.605   3.982   5.770
 8118SOL    HW225254   0.535   3.903   5.894
 8119SOL     OW25255   0.173   5.790   4.782
 8119SOL    HW125256   0.110   5.859   4.745
 8119SOL    HW225257   0.179   5.801   4.881
 8120SOL     OW25258   3.885   3.749   6.954
 8120SOL    HW125259   3.804   3.696   6.928
 8120SOL    HW225260   3.865   3.846   6.946
 8121SOL     OW25261   0.177   5.988   3.107
 8121SOL    HW125262   0.201   6.023   3.198
 8121SOL    HW225263   0.098   6.038   3.072
 8122SOL     OW25264   0.039   5.055   2.415
 8122SOL    HW125265   0.124   5.058   2.468
 8122SOL    HW225266   0.053   4.998   2.334
 8123SOL     OW25267   0.762   0.059   6.733
 8123SOL    HW125268   0.671   0.100   6.739
 8123SOL    HW225269   0.754   6.986   6.691
 8124SOL     OW25270   0.662   6.929   1.586
 8124SOL    HW125271   0.740   6.873   1.615
 8124SOL    HW225272   0.624   6.976   1.665
 8125SOL     OW25273   6.400   5.188   3.153
 8125SOL    HW125274   6.311   5.166   3.111
 8125SOL    HW225275   6.444   5.260   3.100
 8126SOL     OW25276   6.257   4.982   2.106
 8126SOL    HW125277   6.334   4.933   2.148
 8126SOL    HW225278   6.181   4.919   2.092
 8127SOL     OW25279   2.507   5.855   0.456
 8127SOL    HW125280   2.505   5.822   0.362
 8127SOL    HW225281   2.508   5.777   0.519
 8128SOL     OW25282   3.792   2.272   0.067
 8128SOL    HW125283   3.729   2.349   0.056
 8128SOL    HW225284   3.846   2.285   0.149
 8129SOL     OW25285   4.828   0.700   6.336
 8129SOL    HW125286   4.905   0.764   6.334
 8129SOL    HW225287   4.822   0.658   6.427
 8130SOL     OW25288   1.214   5.380   5.969
 8130SOL    HW125289   1.312   5.399   5.963
 8130SOL    HW225290   1.168   5.417   5.889
 8131SOL     OW25291   2.901   1.203   0.112
 8131SOL    HW125292   2.814   1.178   0.069
 8131SOL    HW225293   2.883   1.255   0.195
 8132SOL     OW25294   5.570   5.883   6.102
 8132SOL    HW125295   5.484   5.929   6.125
 8132SOL    HW225296   5.628   5.944   6.049
 8133SOL     OW25297   3.357   5.159   2.733
 8133SOL    HW125298   3.320   5.233   2.678
 8133SOL    HW225299   3.435   5.117   2.686
 8134SOL     OW25300   2.211   1.461   4.331
 8134SOL    HW125301   2.181   1.371   4.298
 8134SOL    HW225302   2.283   1.449   4.399
 8135SOL     OW25303   3.192   4.874   2.140
 8135SOL    HW125304   3.206   4.832   2.050
 8135SOL    HW225305   3.137   4.813   2.196
 8136SOL     OW25306   4.557   5.273   2.757
 8136SOL    HW125307   4.497   5.349   2.780
 8136SOL    HW225308   4.505   5.187   2.759
 8137SOL     OW25309   2.272   2.820   4.205
 8137SOL    HW125310   2.286   2.731   4.162
 8137SOL    HW225311   2.285   2.892   4.137
 8138SOL     OW25312   5.856   1.745   1.955
 8138SOL    HW125313   5.954   1.737   1.970
 8138SOL    HW225314   5.832   1.840   1.936
 8139SOL     OW25315   1.060   2.716   3.769
 8139SOL    HW125316   1.029   2.792   3.710
 8139SOL    HW225317   1.123   2.752   3.838
 8140SOL     OW25318   3.993   0.298   0.450
 8140SOL    HW125319   3.925   0.296   0.377
 8140SOL    HW225320   3.957   0.350   0.528
 8141SOL     OW25321   5.106   0.642   5.214
 8141SOL    HW125322   5.158   0.564   5.248
 8141SOL    HW225323   5.165   0.698   5.154
 8142SOL     OW25324   2.179   5.678   0.676
 8142SOL    HW125325   2.181   5.778   0.688
 8142SOL    HW225326   2.129   5.656   0.592
 8143SOL     OW25327   5.523   5.257   1.554
 8143SOL    HW125328   5.490   5.163   1.561
 8143SOL    HW225329   5.590   5.264   1.481
 8144SOL     OW25330   0.561   5.970   5.443
 8144SOL    HW125331   0.638   5.968   5.379
 8144SOL    HW225332   0.514   5.881   5.442
 8145SOL     OW25333   4.249   5.152   0.500
 8145SOL    HW125334   4.151   5.135   0.489
 8145SOL    HW225335   4.263   5.241   0.543
 8146SOL     OW25336   6.381   0.550   5.438
 8146SOL    HW125337   6.323   0.630   5.425
 8146SOL    HW225338   6.357   0.504   5.524
 8147SOL     OW25339   0.500   0.418   0.495
 8147SOL    HW125340   0.567   0.467   0.439
 8147SOL    HW225341   0.474   0.333   0.450
 8148SOL     OW25342   4.055   4.133   6.540
 8148SOL    HW125343   3.959   4.122   6.567
 8148SOL    HW225344   4.062   4.201   6.468
 8149SOL     OW25345   1.850   6.795   4.541
 8149SOL    HW125346   1.793   6.849   4.479
 8149SOL    HW225347   1.943   6.790   4.505
 8150SOL     OW25348   0.368   3.474   0.911
 8150SOL    HW125349   0.282   3.425   0.925
 8150SOL    HW225350   0.394   3.469   0.815
 8151SOL     OW25351   6.260   5.462   3.621
 8151SOL    HW125352   6.210   5.546   3.603
 8151SOL    HW225353   6.359   5.479   3.613
 8152SOL     OW25354   4.799   2.214   2.769
 8152SOL    HW125355   4.836   2.160   2.693
 8152SOL    HW225356   4.724   2.271   2.736
 8153SOL     OW25357   0.570   0.953   3.373
 8153SOL    HW125358   0.645   0.995   3.322
 8153SOL    HW225359   0.539   1.016   3.444
 8154SOL     OW25360   3.398   1.581   3.258
 8154SOL    HW125361   3.462   1.509   3.232
 8154SOL    HW225362   3.422   1.617   3.348
 8155SOL     OW25363   1.122   3.912   2.391
 8155SOL    HW125364   1.149   3.848   2.319
 8155SOL    HW225365   1.202   3.934   2.447
 8156SOL     OW25366   5.584   5.906   1.690
 8156SOL    HW125367   5.521   5.982   1.675
 8156SOL    HW225368   5.676   5.941   1.705
 8157SOL     OW25369   5.894   3.595   5.882
 8157SOL    HW125370   5.938   3.620   5.969
 8157SOL    HW225371   5.797   3.576   5.898
 8158SOL     OW25372   5.797   4.915   6.406
 8158SOL    HW125373   5.867   4.947   6.342
 8158SOL    HW225374   5.836   4.908   6.498
 8159SOL     OW25375   3.974   6.640   5.659
 8159SOL    HW125376   4.009   6.613   5.570
 8159SOL    HW225377   3.956   6.558   5.714
 8160SOL     OW25378   4.756   0.821   3.648
 8160SOL    HW125379   4.659   0.803   3.631
 8160SOL    HW225380   4.810   0.744   3.614
 8161SOL     OW25381   5.845   3.542   6.773
 8161SOL    HW125382   5.777   3.605   6.811
 8161SOL    HW225383   5.864   3.567   6.678
 8162SOL     OW25384   0.419   5.318   6.954
 8162SOL    HW125385   0.413   5.259   6.873
 8162SOL    HW225386   0.330   5.324   6.998
 8163SOL     OW25387   3.885   5.410   5.345
 8163SOL    HW125388   3.883   5.438   5.440
 8163SOL    HW225389   3.976   5.426   5.306
 8164SOL     OW25390   4.320   0.485   6.713
 8164SOL    HW125391   4.278   0.571   6.742
 8164SOL    HW225392   4.369   0.444   6.790
 8165SOL     OW25393   6.680   3.904   6.256
 8165SOL    HW125394   6.771   3.866   6.241
 8165SOL    HW225395   6.652   3.888   6.350
 8166SOL     OW25396   2.367   1.936   4.058
 8166SOL    HW125397   2.402   1.847   4.032
 8166SOL    HW225398   2.358   1.941   4.157
 8167SOL     OW25399   6.790   1.013   3.766
 8167SOL    HW125400   6.704   1.064   3.769
 8167SOL    HW225401   6.865   1.075   3.745
 8168SOL     OW25402   2.480   0.526   1.420
 8168SOL    HW125403   2.394   0.492   1.457
 8168SOL    HW225404   2.555   0.467   1.449
 8169SOL     OW25405   4.094   1.781   0.460
 8169SOL    HW125406   4.193   1.789   0.444
 8169SOL    HW225407   4.077   1.709   0.527
 8170SOL     OW25408   6.384   4.816   1.611
 8170SOL    HW125409   6.332   4.738   1.646
 8170SOL    HW225410   6.321   4.888   1.582
 8171SOL     OW25411   1.768   0.963   6.504
 8171SOL    HW125412   1.849   1.004   6.464
 8171SOL    HW225413   1.771   0.973   6.604
 8172SOL     OW25414   0.306   2.138   1.952
 8172SOL    HW125415   0.292   2.236   1.940
 8172SOL    HW225416   0.328   2.096   1.864
 8173SOL     OW25417   5.728   2.409   2.949
 8173SOL    HW125418   5.740   2.508   2.953
 8173SOL    HW225419   5.666   2.386   2.873
 8174SOL     OW25420   1.076   6.225   2.379
 8174SOL    HW125421   1.126   6.233   2.465
 8174SOL    HW225422   0.979   6.210   2.398
 8175SOL     OW25423   0.928   2.792   4.090
 8175SOL    HW125424   0.968   2.863   4.032
 8175SOL    HW225425   0.840   2.764   4.053
 8176SOL     OW25426   1.894   4.504   1.373
 8176SOL    HW125427   1.881   4.420   1.425
 8176SOL    HW225428   1.877   4.487   1.276
 8177SOL     OW25429   3.546   0.774   2.547
 8177SOL    HW125430   3.516   0.855   2.597
 8177SOL    HW225431   3.641   0.785   2.517
 8178SOL     OW25432   3.069   6.444   1.180
 8178SOL    HW125433   3.026   6.490   1.258
 8178SOL    HW225434   2.999   6.407   1.119
 8179SOL     OW25435   5.756   1.318   4.497
 8179SOL    HW125436   5.768   1.236   4.553
 8179SOL    HW225437   5.746   1.291   4.401
 8180SOL     OW25438   6.516   0.540   0.002
 8180SOL    HW125439   6.570   0.529   0.086
 8180SOL    HW225440   6.428   0.582   0.024
 8181SOL     OW25441   0.536   0.837   1.104
 8181SOL    HW125442   0.580   0.812   1.018
 8181SOL    HW225443   0.550   0.764   1.171
 8182SOL     OW25444   3.749   3.359   4.756
 8182SOL    HW125445   3.815   3.406   4.697
 8182SOL    HW225446   3.693   3.427   4.803
 8183SOL     OW25447   6.498   1.453   4.955
 8183SOL    HW125448   6.570   1.406   4.905
 8183SOL    HW225449   6.443   1.387   5.006
 8184SOL     OW25450   1.045   0.121   0.048
 8184SOL    HW125451   0.999   0.062   0.115
 8184SOL    HW225452   1.119   0.071   0.004
 8185SOL     OW25453   2.225   0.511   0.333
 8185SOL    HW125454   2.233   0.429   0.277
 8185SOL    HW225455   2.152   0.569   0.297
 8186SOL     OW25456   2.330   4.131   5.326
 8186SOL    HW125457   2.354   4.070   5.402
 8186SOL    HW225458   2.304   4.076   5.247
 8187SOL     OW25459   2.467   1.795   5.103
 8187SOL    HW125460   2.564   1.814   5.090
 8187SOL    HW225461   2.414   1.876   5.075
 8188SOL     OW25462   4.211   1.586   3.868
 8188SOL    HW125463   4.183   1.506   3.814
 8188SOL    HW225464   4.295   1.564   3.917
 8189SOL     OW25465   5.609   5.264   2.713
 8189SOL    HW125466   5.591   5.257   2.615
 8189SOL    HW225467   5.706   5.288   2.726
 8190SOL     OW25468   5.129   4.156   3.700
 8190SOL    HW125469   5.048   4.171   3.756
 8190SOL    HW225470   5.137   4.059   3.678
 8191SOL     OW25471   4.583   5.342   2.491
 8191SOL    HW125472   4.549   5.314   2.581
 8191SOL    HW225473   4.516   5.399   2.445
 8192SOL     OW25474   1.445   5.192   2.134
 8192SOL    HW125475   1.491   5.265   2.084
 8192SOL    HW225476   1.495   5.171   2.218
 8193SOL     OW25477   6.629   5.411   4.627
 8193SOL    HW125478   6.573   5.491   4.649
 8193SOL    HW225479   6.622   5.343   4.700
 8194SOL     OW25480   4.368   0.814   0.951
 8194SOL    HW125481   4.284   0.838   0.998
 8194SOL    HW225482   4.346   0.772   0.862
 8195SOL     OW25483   6.080   0.251   4.075
 8195SOL    HW125484   5.992   0.266   4.119
 8195SOL    HW225485   6.079   0.162   4.029
 8196SOL     OW25486   5.464   0.160   6.846
 8196SOL    HW125487   5.465   0.083   6.783
 8196SOL    HW225488   5.389   0.222   6.824
 8197SOL     OW25489   4.050   1.935   1.497
 8197SOL    HW125490   3.990   1.952   1.420
 8197SOL    HW225491   4.060   1.836   1.511
 8198SOL     OW25492   2.823   6.954   2.477
 8198SOL    HW125493   2.894   0.005   2.459
 8198SOL    HW225494   2.864   6.863   2.479
 8199SOL     OW25495   4.886   3.636   6.126
 8199SOL    HW125496   4.820   3.652   6.200
 8199SOL    HW225497   4.838   3.602   6.045
 8200SOL     OW25498   5.895   4.229   2.266
 8200SOL    HW125499   5.815   4.244   2.324
 8200SOL    HW225500   5.868   4.177   2.184
 8201SOL     OW25501   6.816   0.907   4.975
 8201SOL    HW125502   6.792   0.878   4.882
 8201SOL    HW225503   6.915   0.896   4.989
 8202SOL     OW25504   6.807   5.869   3.015
 8202SOL    HW125505   6.846   5.780   3.038
 8202SOL    HW225506   6.880   5.933   2.993
 8203SOL     OW25507   1.754   2.294   6.903
 8203SOL    HW125508   1.723   2.202   6.927
 8203SOL    HW225509   1.756   2.350   6.985
 8204SOL     OW25510   3.825   3.858   0.619
 8204SOL    HW125511   3.791   3.840   0.527
 8204SOL    HW225512   3.918   3.822   0.629
 8205SOL     OW25513   6.688   3.104   0.186
 8205SOL    HW125514   6.629   3.047   0.244
 8205SOL    HW225515   6.699   3.194   0.228
 8206SOL     OW25516   4.892   1.335   0.241
 8206SOL    HW125517   4.867   1.409   0.303
 8206SOL    HW225518   4.965   1.281   0.281
 8207SOL     OW25519   3.537   3.919   4.533
 8207SOL    HW125520   3.518   3.847   4.466
 8207SOL    HW225521   3.508   3.888   4.624
 8208SOL     OW25522   1.523   0.742   0.927
 8208SOL    HW125523   1.615   0.725   0.892
 8208SOL    HW225524   1.517   0.837   0.960
 8209SOL     OW25525   6.909   0.507   4.888
 8209SOL    HW125526   6.828   0.565   4.897
 8209SOL    HW225527   6.881   0.411   4.887
 8210SOL     OW25528   1.857   2.382   0.299
 8210SOL    HW125529   1.837   2.286   0.316
 8210SOL    HW225530   1.955   2.394   0.285
 8211SOL     OW25531   3.501   3.898   1.408
 8211SOL    HW125532   3.551   3.854   1.334
 8211SOL    HW225533   3.540   3.871   1.496
 8212SOL     OW25534   1.595   2.659   2.883
 8212SOL    HW125535   1.620   2.572   2.925
 8212SOL    HW225536   1.538   2.643   2.803
 8213SOL     OW25537   6.827   5.136   1.275
 8213SOL    HW125538   6.821   5.189   1.359
 8213SOL    HW225539   6.745   5.079   1.265
 8214SOL     OW25540   5.973   4.274   3.726
 8214SOL    HW125541   5.909   4.221   3.670
 8214SOL    HW225542   5.926   4.308   3.807
 8215SOL     OW25543   3.207   5.870   5.256
 8215SOL    HW125544   3.217   5.775   5.286
 8215SOL    HW225545   3.136   5.915   5.309
 8216SOL     OW25546   5.688   5.753   4.451
 8216SOL    HW125547   5.681   5.765   4.551
 8216SOL    HW225548   5.731   5.665   4.431
 8217SOL     OW25549   2.169   4.539   6.974
 8217SOL    HW125550   2.228   4.535   0.037
 8217SOL    HW225551   2.076   4.514   7.000
 8218SOL     OW25552   0.194   1.165   0.022
 8218SOL    HW125553   0.148   1.082   7.008
 8218SOL    HW225554   0.198   1.165   0.121
 8219SOL     OW25555   4.741   1.619   0.284
 8219SOL    HW125556   4.669   1.588   0.222
 8219SOL    HW225557   4.705   1.691   0.344
 8220SOL     OW25558   3.409   3.200   3.281
 8220SOL    HW125559   3.371   3.116   3.319
 8220SOL    HW225560   3.372   3.216   3.190
 8221SOL     OW25561   4.663   6.140   4.771
 8221SOL    HW125562   4.712   6.076   4.712
 8221SOL    HW225563   4.727   6.203   4.813
 8222SOL     OW25564   5.180   1.575   1.991
 8222SOL    HW125565   5.261   1.600   1.939
 8222SOL    HW225566   5.119   1.521   1.933
 8223SOL     OW25567   1.780   3.865   5.898
 8223SOL    HW125568   1.723   3.834   5.822
 8223SOL    HW225569   1.779   3.796   5.971
 8224SOL     OW25570   0.042   2.605   2.850
 8224SOL    HW125571   7.008   2.584   2.933
 8224SOL    HW225572   0.123   2.659   2.874
 8225SOL     OW25573   3.409   0.851   6.969
 8225SOL    HW125574   3.312   0.835   6.951
 8225SOL    HW225575   3.419   0.933   0.008
 8226SOL     OW25576   4.212   0.067   2.250
 8226SOL    HW125577   4.286   7.017   2.254
 8226SOL    HW225578   4.158   0.063   2.333
 8227SOL     OW25579   0.154   2.658   3.438
 8227SOL    HW125580   0.132   2.753   3.463
 8227SOL    HW225581   0.216   2.619   3.506
 8228SOL     OW25582   0.216   2.948   5.477
 8228SOL    HW125583   0.247   3.042   5.494
 8228SOL    HW225584   0.188   2.906   5.563
 8229SOL     OW25585   3.679   4.266   0.394
 8229SOL    HW125586   3.747   4.283   0.466
 8229SOL    HW225587   3.596   4.317   0.414
 8230SOL     OW25588   4.277   6.734   5.347
 8230SOL    HW125589   4.195   6.707   5.297
 8230SOL    HW225590   4.284   6.833   5.349
 8231SOL     OW25591   4.056   5.154   0.771
 8231SOL    HW125592   3.976   5.099   0.795
 8231SOL    HW225593   4.049   5.244   0.813
 8232SOL     OW25594   5.059   1.614   0.824
 8232SOL    HW125595   5.122   1.603   0.901
 8232SOL    HW225596   5.002   1.533   0.817
 8233SOL     OW25597   0.908   6.066   6.200
 8233SOL    HW125598   0.836   6.129   6.227
 8233SOL    HW225599   0.871   5.997   6.137
 8234SOL     OW25600   2.768   3.637   6.945
 8234SOL    HW125601   2.829   3.574   6.994
 8234SOL    HW225602   2.679   3.639   6.991
 8235SOL     OW25603   1.677   3.556   0.511
 8235SOL    HW125604   1.589   3.575   0.467
 8235SOL    HW225605   1.745   3.623   0.480
 8236SOL     OW25606   6.960   4.319   6.950
 8236SOL    HW125607   6.918   4.405   6.923
 8236SOL    HW225608   0.025   4.337   7.003
 8237SOL     OW25609   4.897   6.096   4.596
 8237SOL    HW125610   4.991   6.067   4.615
 8237SOL    HW225611   4.899   6.171   4.529
 8238SOL     OW25612   1.483   5.025   0.284
 8238SOL    HW125613   1.502   4.943   0.338
 8238SOL    HW225614   1.527   5.015   0.194
 8239SOL     OW25615   6.352   1.257   5.062
 8239SOL    HW125616   6.388   1.236   5.154
 8239SOL    HW225617   6.357   1.174   5.005
 8240SOL     OW25618   3.424   3.952   2.872
 8240SOL    HW125619   3.497   4.003   2.918
 8240SOL    HW225620   3.396   3.876   2.931
 8241SOL     OW25621   4.036   6.643   0.328
 8241SOL    HW125622   3.979   6.722   0.304
 8241SOL    HW225623   4.099   6.669   0.401
 8242SOL     OW25624   1.337   4.385   5.710
 8242SOL    HW125625   1.238   4.388   5.720
 8242SOL    HW225626   1.360   4.368   5.614
 8243SOL     OW25627   1.161   2.796   0.184
 8243SOL    HW125628   1.176   2.801   0.085
 8243SOL    HW225629   1.237   2.840   0.231
 8244SOL     OW25630   1.310   6.982   3.631
 8244SOL    HW125631   1.385   6.925   3.598
 8244SOL    HW225632   1.291   0.036   3.565
 8245SOL     OW25633   3.934   1.596   2.950
 8245SOL    HW125634   3.945   1.617   3.047
 8245SOL    HW225635   4.007   1.640   2.898
 8246SOL     OW25636   6.964   3.165   5.631
 8246SOL    HW125637   6.963   3.115   5.544
 8246SOL    HW225638   0.041   3.188   5.654
 8247SOL     OW25639   0.813   7.012   2.442
 8247SOL    HW125640   0.775   6.921   2.425
 8247SOL    HW225641   0.831   0.005   2.540
 8248SOL     OW25642   5.551   5.138   3.807
 8248SOL    HW125643   5.561   5.073   3.882
 8248SOL    HW225644   5.543   5.089   3.720
 8249SOL     OW25645   2.154   3.156   5.456
 8249SOL    HW125646   2.102   3.087   5.508
 8249SOL    HW225647   2.195   3.112   5.376
 8250SOL     OW25648   3.335   4.069   2.332
 8250SOL    HW125649   3.329   4.081   2.431
 8250SOL    HW225650   3.430   4.085   2.302
 8251SOL     OW25651   5.990   3.087   4.206
 8251SOL    HW125652   6.049   3.167   4.223
 8251SOL    HW225653   5.960   3.049   4.294
 8252SOL     OW25654   3.355   2.731   6.145
 8252SOL    HW125655   3.262   2.711   6.114
 8252SOL    HW225656   3.408   2.768   6.069
 8253SOL     OW25657   4.174   4.199   5.264
 8253SOL    HW125658   4.217   4.281   5.229
 8253SOL    HW225659   4.118   4.157   5.192
 8254SOL     OW25660   4.422   4.785   4.711
 8254SOL    HW125661   4.460   4.873   4.685
 8254SOL    HW225662   4.341   4.766   4.657
 8255SOL     OW25663   3.184   6.317   4.897
 8255SOL    HW125664   3.253   6.269   4.843
 8255SOL    HW225665   3.190   6.288   4.992
 8256SOL     OW25666   6.295   0.935   1.955
 8256SOL    HW125667   6.354   0.854   1.964
 8256SOL    HW225668   6.294   0.985   2.041
 8257SOL     OW25669   6.646   4.006   3.798
 8257SOL    HW125670   6.581   3.942   3.755
 8257SOL    HW225671   6.735   3.962   3.808
 8258SOL     OW25672   5.218   0.959   0.723
 8258SOL    HW125673   5.303   0.963   0.777
 8258SOL    HW225674   5.145   0.920   0.779
 8259SOL     OW25675   4.434   2.123   3.253
 8259SOL    HW125676   4.482   2.040   3.225
 8259SOL    HW225677   4.389   2.108   3.341
 8260SOL     OW25678   2.757   6.958   2.205
 8260SOL    HW125679   2.778   6.978   2.301
 8260SOL    HW225680   2.737   6.861   2.194
 8261SOL     OW25681   6.368   1.518   2.233
 8261SOL    HW125682   6.425   1.441   2.261
 8261SOL    HW225683   6.409   1.604   2.265
 8262SOL     OW25684   0.577   2.867   0.385
 8262SOL    HW125685   0.487   2.831   0.361
 8262SOL    HW225686   0.647   2.825   0.327
 8263SOL     OW25687   1.067   2.001   0.584
 8263SOL    HW125688   1.110   2.075   0.532
 8263SOL    HW225689   1.124   1.919   0.578
 8264SOL     OW25690   2.579   6.084   2.619
 8264SOL    HW125691   2.536   6.007   2.570
 8264SOL    HW225692   2.525   6.104   2.701
 8265SOL     OW25693   0.707   6.789   1.161
 8265SOL    HW125694   0.664   6.857   1.102
 8265SOL    HW225695   0.662   6.789   1.251
 8266SOL     OW25696   2.248   1.350   3.908
 8266SOL    HW125697   2.162   1.300   3.911
 8266SOL    HW225698   2.239   1.436   3.958
 8267SOL     OW25699   1.669   2.709   0.703
 8267SOL    HW125700   1.643   2.785   0.763
 8267SOL    HW225701   1.768   2.701   0.700
 8268SOL     OW25702   2.385   6.480   5.675
 8268SOL    HW125703   2.389   6.505   5.578
 8268SOL    HW225704   2.433   6.394   5.689
 8269SOL     OW25705   5.006   1.468   1.795
 8269SOL    HW125706   4.955   1.393   1.752
 8269SOL    HW225707   5.059   1.516   1.725
 8270SOL     OW25708   2.774   6.836   5.199
 8270SOL    HW125709   2.828   6.912   5.233
 8270SOL    HW225710   2.829   6.752   5.201
 8271SOL     OW25711   0.006   0.765   2.772
 8271SOL    HW125712   0.046   0.681   2.735
 8271SOL    HW225713   6.952   0.798   2.711
 8272SOL     OW25714   4.596   1.981   1.383
 8272SOL    HW125715   4.537   2.062   1.378
 8272SOL    HW225716   4.540   1.899   1.374
 8273SOL     OW25717   2.259   6.577   0.956
 8273SOL    HW125718   2.254   6.534   0.866
 8273SOL    HW225719   2.352   6.570   0.992
 8274SOL     OW25720   5.049   4.892   2.791
 8274SOL    HW125721   5.000   4.889   2.704
 8274SOL    HW225722   5.060   4.986   2.821
 8275SOL     OW25723   4.741   1.529   5.847
 8275SOL    HW125724   4.839   1.516   5.862
 8275SOL    HW225725   4.708   1.605   5.903
 8276SOL     OW25726   1.337   2.533   3.412
 8276SOL    HW125727   1.290   2.621   3.420
 8276SOL    HW225728   1.398   2.534   3.333
 8277SOL     OW25729   6.571   0.549   0.606
 8277SOL    HW125730   6.666   0.580   0.598
 8277SOL    HW225731   6.568   0.459   0.649
 8278SOL     OW25732   2.758   1.828   5.443
 8278SOL    HW125733   2.663   1.850   5.422
 8278SOL    HW225734   2.780   1.738   5.406
 8279SOL     OW25735   1.630   0.719   3.675
 8279SOL    HW125736   1.631   0.684   3.582
 8279SOL    HW225737   1.552   0.781   3.686
 8280SOL     OW25738   2.331   2.655   0.415
 8280SOL    HW125739   2.301   2.682   0.506
 8280SOL    HW225740   2.361   2.735   0.364
 8281SOL     OW25741   2.382   5.051   1.618
 8281SOL    HW125742   2.456   5.111   1.589
 8281SOL    HW225743   2.418   4.959   1.636
 8282SOL     OW25744   5.275   3.651   0.194
 8282SOL    HW125745   5.225   3.575   0.153
 8282SOL    HW225746   5.316   3.706   0.122
 8283SOL     OW25747   2.114   5.031   0.103
 8283SOL    HW125748   2.177   5.059   0.174
 8283SOL    HW225749   2.120   4.932   0.090
 8284SOL     OW25750   1.078   3.368   0.744
 8284SOL    HW125751   1.029   3.398   0.662
 8284SOL    HW225752   1.020   3.305   0.796
 8285SOL     OW25753   3.381   3.198   5.088
 8285SOL    HW125754   3.437   3.120   5.061
 8285SOL    HW225755   3.350   3.247   5.007
 8286SOL     OW25756   5.526   3.313   6.647
 8286SOL    HW125757   5.518   3.241   6.578
 8286SOL    HW225758   5.490   3.280   6.734
 8287SOL     OW25759   1.959   5.553   4.263
 8287SOL    HW125760   1.860   5.549   4.249
 8287SOL    HW225761   2.006   5.538   4.176
 8288SOL     OW25762   2.866   1.591   1.189
 8288SOL    HW125763   2.871   1.655   1.266
 8288SOL    HW225764   2.912   1.632   1.110
 8289SOL     OW25765   0.626   5.663   1.294
 8289SOL    HW125766   0.683   5.728   1.344
 8289SOL    HW225767   0.677   5.627   1.216
 8290SOL     OW25768   5.760   0.814   1.229
 8290SOL    HW125769   5.697   0.753   1.180
 8290SOL    HW225770   5.735   0.909   1.210
 8291SOL     OW25771   5.631   6.294   5.834
 8291SOL    HW125772   5.578   6.377   5.850
 8291SOL    HW225773   5.572   6.225   5.791
 8292SOL     OW25774   2.630   6.225   6.980
 8292SOL    HW125775   2.678   6.224   0.051
 8292SOL    HW225776   2.556   6.292   6.984
 8293SOL     OW25777   3.400   6.697   6.949
 8293SOL    HW125778   3.456   6.632   6.896
 8293SOL    HW225779   3.430   6.696   0.027
 8294SOL     OW25780   5.582   4.323   5.131
 8294SOL    HW125781   5.511   4.280   5.073
 8294SOL    HW225782   5.651   4.254   5.154
 8295SOL     OW25783   5.228   5.724   1.373
 8295SOL    HW125784   5.191   5.791   1.437
 8295SOL    HW225785   5.317   5.692   1.406
 8296SOL     OW25786   2.277   6.076   6.423
 8296SOL    HW125787   2.192   6.123   6.397
 8296SOL    HW225788   2.350   6.143   6.435
 8297SOL     OW25789   6.170   2.799   2.330
 8297SOL    HW125790   6.098   2.730   2.338
 8297SOL    HW225791   6.165   2.843   2.240
 8298SOL     OW25792   5.647   2.430   1.149
 8298SOL    HW125793   5.731   2.402   1.195
 8298SOL    HW225794   5.651   2.528   1.130
 8299SOL     OW25795   6.676   2.658   1.991
 8299SOL    HW125796   6.715   2.574   2.029
 8299SOL    HW225797   6.745   2.706   1.938
 8300SOL     OW25798   0.623   6.153   5.110
 8300SOL    HW125799   0.593   6.232   5.163
 8300SOL    HW225800   0.546   6.117   5.057
 8301SOL     OW25801   4.176   1.892   1.936
 8301SOL    HW125802   4.131   1.885   2.025
 8301SOL    HW225803   4.110   1.920   1.867
 8302SOL     OW25804   6.227   6.332   6.618
 8302SOL    HW125805   6.186   6.412   6.576
 8302SOL    HW225806   6.287   6.286   6.552
 8303SOL     OW25807   6.536   0.655   4.035
 8303SOL    HW125808   6.465   0.650   3.965
 8303SOL    HW225809   6.566   0.750   4.045
 8304SOL     OW25810   0.693   3.565   0.985
 8304SOL    HW125811   0.686   3.664   0.971
 8304SOL    HW225812   0.689   3.518   0.896
 8305SOL     OW25813   4.073   4.869   4.320
 8305SOL    HW125814   4.008   4.945   4.312
 8305SOL    HW225815   4.119   4.856   4.232
 8306SOL     OW25816   6.931   2.813   5.345
 8306SOL    HW125817   6.835   2.824   5.369
 8306SOL    HW225818   6.959   2.718   5.358
 8307SOL     OW25819   4.166   5.259   1.416
 8307SOL    HW125820   4.159   5.266   1.516
 8307SOL    HW225821   4.091   5.205   1.380
 8308SOL     OW25822   4.012   5.413   0.900
 8308SOL    HW125823   3.967   5.366   0.976
 8308SOL    HW225824   4.099   5.450   0.931
 8309SOL     OW25825   6.064   5.802   3.788
 8309SOL    HW125826   6.044   5.731   3.720
 8309SOL    HW225827   6.079   5.889   3.742
 8310SOL     OW25828   0.890   4.506   0.636
 8310SOL    HW125829   0.893   4.420   0.687
 8310SOL    HW225830   0.852   4.489   0.545
 8311SOL     OW25831   0.701   0.951   4.734
 8311SOL    HW125832   0.757   1.032   4.753
 8311SOL    HW225833   0.648   0.966   4.650
 8312SOL     OW25834   4.237   6.815   0.864
 8312SOL    HW125835   4.231   6.905   0.820
 8312SOL    HW225836   4.301   6.820   0.941
 8313SOL     OW25837   5.101   1.008   2.286
 8313SOL    HW125838   5.158   1.030   2.206
 8313SOL    HW225839   5.159   0.968   2.357
 8314SOL     OW25840   4.516   6.991   1.137
 8314SOL    HW125841   4.531   0.040   1.209
 8314SOL    HW225842   4.509   0.020   1.049
 8315SOL     OW25843   3.846   3.490   0.817
 8315SOL    HW125844   3.866   3.471   0.913
 8315SOL    HW225845   3.890   3.575   0.790
 8316SOL     OW25846   0.815   2.232   1.599
 8316SOL    HW125847   0.795   2.285   1.682
 8316SOL    HW225848   0.862   2.147   1.625
 8317SOL     OW25849   2.239   2.408   2.935
 8317SOL    HW125850   2.188   2.494   2.933
 8317SOL    HW225851   2.217   2.354   2.854
 8318SOL     OW25852   4.479   1.190   5.123
 8318SOL    HW125853   4.535   1.226   5.049
 8318SOL    HW225854   4.521   1.213   5.211
 8319SOL     OW25855   2.944   1.072   6.315
 8319SOL    HW125856   2.865   1.124   6.284
 8319SOL    HW225857   2.921   0.974   6.317
 8320SOL     OW25858   3.327   3.686   1.591
 8320SOL    HW125859   3.415   3.677   1.638
 8320SOL    HW225860   3.258   3.718   1.657
 8321SOL     OW25861   6.970   0.866   0.403
 8321SOL    HW125862   0.009   0.812   0.465
 8321SOL    HW225863   6.978   0.963   0.426
 8322SOL     OW25864   0.136   0.414   0.582
 8322SOL    HW125865   0.193   0.467   0.520
 8322SOL    HW225866   0.040   0.440   0.571
 8323SOL     OW25867   5.596   5.791   2.647
 8323SOL    HW125868   5.638   5.760   2.561
 8323SOL    HW225869   5.562   5.711   2.697
 8324SOL     OW25870   5.497   1.077   1.585
 8324SOL    HW125871   5.426   1.028   1.535
 8324SOL    HW225872   5.496   1.173   1.559
 8325SOL     OW25873   3.093   3.369   5.329
 8325SOL    HW125874   3.177   3.422   5.336
 8325SOL    HW225875   3.014   3.430   5.331
 8326SOL     OW25876   4.862   3.321   5.526
 8326SOL    HW125877   4.842   3.280   5.437
 8326SOL    HW225878   4.904   3.411   5.513
 8327SOL     OW25879   6.221   2.300   6.121
 8327SOL    HW125880   6.277   2.266   6.046
 8327SOL    HW225881   6.276   2.305   6.204
 8328SOL     OW25882   2.455   4.420   5.563
 8328SOL    HW125883   2.492   4.502   5.519
 8328SOL    HW225884   2.465   4.341   5.503
 8329SOL     OW25885   0.359   3.708   6.180
 8329SOL    HW125886   0.262   3.720   6.204
 8329SOL    HW225887   0.375   3.741   6.087
 8330SOL     OW25888   3.144   6.526   0.473
 8330SOL    HW125889   3.066   6.587   0.492
 8330SOL    HW225890   3.117   6.460   0.403
 8331SOL     OW25891   2.657   1.478   1.072
 8331SOL    HW125892   2.682   1.394   1.024
 8331SOL    HW225893   2.738   1.517   1.115
 8332SOL     OW25894   4.891   4.874   2.557
 8332SOL    HW125895   4.847   4.936   2.491
 8332SOL    HW225896   4.947   4.808   2.508
 8333SOL     OW25897   0.636   6.299   6.576
 8333SOL    HW125898   0.548   6.254   6.565
 8333SOL    HW225899   0.690   6.250   6.645
 8334SOL     OW25900   4.145   1.342   3.749
 8334SOL    HW125901   4.070   1.389   3.703
 8334SOL    HW225902   4.114   1.254   3.784
 8335SOL     OW25903   6.617   5.390   6.418
 8335SOL    HW125904   6.617   5.317   6.487
 8335SOL    HW225905   6.558   5.365   6.342
 8336SOL     OW25906   6.325   0.138   2.888
 8336SOL    HW125907   6.357   0.044   2.873
 8336SOL    HW225908   6.256   0.139   2.961
 8337SOL     OW25909   0.835   6.033   3.312
 8337SOL    HW125910   0.865   6.044   3.407
 8337SOL    HW225911   0.799   5.941   3.298
 8338SOL     OW25912   2.077   5.315   1.817
 8338SOL    HW125913   2.166   5.272   1.834
 8338SOL    HW225914   2.035   5.275   1.736
 8339SOL     OW25915   5.974   0.367   2.150
 8339SOL    HW125916   6.055   0.340   2.202
 8339SOL    HW225917   5.978   0.328   2.059
 8340SOL     OW25918   5.250   3.501   1.549
 8340SOL    HW125919   5.199   3.587   1.545
 8340SOL    HW225920   5.186   3.424   1.543
 8341SOL     OW25921   2.229   6.620   6.542
 8341SOL    HW125922   2.306   6.676   6.510
 8341SOL    HW225923   2.263   6.541   6.592
 8342SOL     OW25924   3.818   0.367   1.516
 8342SOL    HW125925   3.817   0.297   1.588
 8342SOL    HW225926   3.846   0.326   1.430
 8343SOL     OW25927   1.230   5.106   6.151
 8343SOL    HW125928   1.240   5.033   6.083
 8343SOL    HW225929   1.206   5.191   6.105
 8344SOL     OW25930   4.549   0.328   5.116
 8344SOL    HW125931   4.554   0.372   5.027
 8344SOL    HW225932   4.591   0.387   5.185
 8345SOL     OW25933   5.076   1.532   3.887
 8345SOL    HW125934   5.067   1.631   3.884
 8345SOL    HW225935   5.159   1.507   3.937
 8346SOL     OW25936   2.124   4.607   0.365
 8346SOL    HW125937   2.140   4.653   0.278
 8346SOL    HW225938   2.210   4.568   0.398
 8347SOL     OW25939   4.051   5.508   4.643
 8347SOL    HW125940   4.019   5.556   4.724
 8347SOL    HW225941   3.985   5.519   4.569
 8348SOL     OW25942   1.347   6.943   2.354
 8348SOL    HW125943   1.286   6.985   2.421
 8348SOL    HW225944   1.300   6.936   2.266
 8349SOL     OW25945   6.438   6.270   1.636
 8349SOL    HW125946   6.397   6.179   1.633
 8349SOL    HW225947   6.365   6.339   1.642
 8350SOL     OW25948   4.828   0.936   4.919
 8350SOL    HW125949   4.741   0.901   4.886
 8350SOL    HW225950   4.891   0.947   4.842
 8351SOL     OW25951   4.830   5.202   4.075
 8351SOL    HW125952   4.845   5.212   4.173
 8351SOL    HW225953   4.914   5.171   4.031
 8352SOL     OW25954   6.982   6.115   2.966
 8352SOL    HW125955   6.924   6.116   2.884
 8352SOL    HW225956   6.967   6.199   3.018
 8353SOL     OW25957   6.419   3.653   1.572
 8353SOL    HW125958   6.342   3.708   1.604
 8353SOL    HW225959   6.475   3.625   1.650
 8354SOL     OW25960   3.901   0.291   6.823
 8354SOL    HW125961   3.916   0.384   6.855
 8354SOL    HW225962   3.847   0.241   6.890
 8355SOL     OW25963   2.868   0.251   0.293
 8355SOL    HW125964   2.842   0.220   0.385
 8355SOL    HW225965   2.936   0.189   0.255
 8356SOL     OW25966   1.871   6.377   1.068
 8356SOL    HW125967   1.875   6.280   1.044
 8356SOL    HW225968   1.830   6.388   1.158
 8357SOL     OW25969   3.882   0.428   5.919
 8357SOL    HW125970   3.859   0.412   6.015
 8357SOL    HW225971   3.865   0.344   5.867
 8358SOL     OW25972   1.060   3.439   5.645
 8358SOL    HW125973   1.129   3.400   5.705
 8358SOL    HW225974   1.092   3.435   5.550
 8359SOL     OW25975   2.950   6.491   4.579
 8359SOL    HW125976   2.897   6.548   4.517
 8359SOL    HW225977   2.914   6.398   4.579
 8360SOL     OW25978   3.739   6.000   1.083
 8360SOL    HW125979   3.772   5.911   1.051
 8360SOL    HW225980   3.723   6.059   1.005
 8361SOL     OW25981   2.368   0.227   2.733
 8361SOL    HW125982   2.382   0.200   2.637
 8361SOL    HW225983   2.364   0.327   2.738
 8362SOL     OW25984   2.937   1.799   0.691
 8362SOL    HW125985   2.840   1.813   0.673
 8362SOL    HW225986   2.948   1.749   0.777
 8363SOL     OW25987   0.687   2.573   0.211
 8363SOL    HW125988   0.770   2.624   0.232
 8363SOL    HW225989   0.706   2.475   0.217
 8364SOL     OW25990   6.142   2.898   2.592
 8364SOL    HW125991   6.074   2.831   2.620
 8364SOL    HW225992   6.164   2.884   2.495
 8365SOL     OW25993   1.795   4.491   1.824
 8365SOL    HW125994   1.803   4.579   1.778
 8365SOL    HW225995   1.741   4.429   1.767
 8366SOL     OW25996   2.627   5.813   2.252
 8366SOL    HW125997   2.698   5.832   2.320
 8366SOL    HW225998   2.574   5.896   2.236
 8367SOL     OW25999   4.019   6.065   3.848
 8367SOL    HW126000   3.996   6.010   3.928
 8367SOL    HW226001   4.083   6.137   3.874
 8368SOL     OW26002   2.051   6.667   5.953
 8368SOL    HW126003   2.133   6.724   5.957
 8368SOL    HW226004   2.031   6.644   5.857
 8369SOL     OW26005   1.882   6.801   6.809
 8369SOL    HW126006   1.803   6.803   6.747
 8369SOL    HW226007   1.939   6.722   6.786
 8370SOL     OW26008   2.438   2.076   5.693
 8370SOL    HW126009   2.452   2.073   5.594
 8370SOL    HW226010   2.501   2.011   5.737
 8371SOL     OW26011   1.998   4.253   1.523
 8371SOL    HW126012   2.000   4.187   1.598
 8371SOL    HW226013   1.965   4.208   1.440
 8372SOL     OW26014   0.250   5.870   2.145
 8372SOL    HW126015   0.316   5.943   2.163
 8372SOL    HW226016   0.292   5.782   2.163
 8373SOL     OW26017   1.302   0.653   3.827
 8373SOL    HW126018   1.371   0.699   3.771
 8373SOL    HW226019   1.221   0.636   3.771
 8374SOL     OW26020   6.662   0.933   6.391
 8374SOL    HW126021   6.662   1.015   6.449
 8374SOL    HW226022   6.626   0.957   6.301
 8375SOL     OW26023   3.342   6.985   6.307
 8375SOL    HW126024   3.367   0.063   6.319
 8375SOL    HW226025   3.309   6.948   6.394
 8376SOL     OW26026   1.921   0.713   4.302
 8376SOL    HW126027   1.917   0.792   4.240
 8376SOL    HW226028   2.016   0.692   4.324
 8377SOL     OW26029   5.877   5.720   1.207
 8377SOL    HW126030   5.970   5.754   1.214
 8377SOL    HW226031   5.816   5.779   1.260
 8378SOL     OW26032   4.595   4.943   3.092
 8378SOL    HW126033   4.589   4.881   3.170
 8378SOL    HW226034   4.522   5.010   3.096
 8379SOL     OW26035   6.460   2.255   1.112
 8379SOL    HW126036   6.549   2.217   1.087
 8379SOL    HW226037   6.459   2.353   1.093
 8380SOL     OW26038   6.974   1.469   2.708
 8380SOL    HW126039   7.014   1.519   2.631
 8380SOL    HW226040   6.877   1.453   2.691
 8381SOL     OW26041   0.386   4.044   4.849
 8381SOL    HW126042   0.383   4.022   4.751
 8381SOL    HW226043   0.427   3.967   4.899
 8382SOL     OW26044   1.610   0.566   1.860
 8382SOL    HW126045   1.546   0.572   1.784
 8382SOL    HW226046   1.688   0.626   1.843
 8383SOL     OW26047   2.657   0.222   5.929
 8383SOL    HW126048   2.670   0.141   5.872
 8383SOL    HW226049   2.670   0.198   6.025
 8384SOL     OW26050   0.200   0.038   0.506
 8384SOL    HW126051   0.267   6.993   0.468
 8384SOL    HW226052   0.237   0.083   0.587
 8385SOL     OW26053   5.930   2.372   1.502
 8385SOL    HW126054   6.019   2.416   1.491
 8385SOL    HW226055   5.900   2.335   1.415
 8386SOL     OW26056   0.686   4.185   2.247
 8386SOL    HW126057   0.670   4.129   2.165
 8386SOL    HW226058   0.751   4.137   2.307
 8387SOL     OW26059   0.879   1.192   1.891
 8387SOL    HW126060   0.974   1.180   1.919
 8387SOL    HW226061   0.848   1.111   1.841
 8388SOL     OW26062   1.741   6.384   0.340
 8388SOL    HW126063   1.801   6.379   0.260
 8388SOL    HW226064   1.777   6.325   0.412
 8389SOL     OW26065   6.206   3.898   2.839
 8389SOL    HW126066   6.127   3.845   2.869
 8389SOL    HW226067   6.236   3.958   2.914
 8390SOL     OW26068   4.126   1.169   6.145
 8390SOL    HW126069   4.142   1.268   6.142
 8390SOL    HW226070   4.126   1.139   6.241
 8391SOL     OW26071   6.243   5.364   0.015
 8391SOL    HW126072   6.189   5.313   0.083
 8391SOL    HW226073   6.183   5.399   6.961
 8392SOL     OW26074   6.920   3.880   3.793
 8392SOL    HW126075   6.954   3.792   3.760
 8392SOL    HW226076   6.952   3.953   3.732
 8393SOL     OW26077   6.105   1.099   2.605
 8393SOL    HW126078   6.065   1.175   2.555
 8393SOL    HW226079   6.154   1.134   2.686
 8394SOL     OW26080   5.919   3.057   1.417
 8394SOL    HW126081   5.896   3.081   1.512
 8394SOL    HW226082   5.848   2.998   1.380
 8395SOL     OW26083   2.936   6.727   5.579
 8395SOL    HW126084   2.972   6.776   5.500
 8395SOL    HW226085   2.973   6.766   5.663
 8396SOL     OW26086   4.961   4.761   3.575
 8396SOL    HW126087   5.024   4.761   3.653
 8396SOL    HW226088   4.871   4.728   3.605
 8397SOL     OW26089   1.222   1.133   3.201
 8397SOL    HW126090   1.317   1.105   3.182
 8397SOL    HW226091   1.163   1.052   3.198
 8398SOL     OW26092   4.588   2.863   6.107
 8398SOL    HW126093   4.602   2.947   6.055
 8398SOL    HW226094   4.497   2.864   6.149
 8399SOL     OW26095   6.406   6.658   6.663
 8399SOL    HW126096   6.330   6.671   6.727
 8399SOL    HW226097   6.457   6.576   6.689
 8400SOL     OW26098   2.400   2.263   4.206
 8400SOL    HW126099   2.446   2.204   4.272
 8400SOL    HW226100   2.387   2.213   4.120
 8401SOL     OW26101   1.846   1.445   5.271
 8401SOL    HW126102   1.877   1.354   5.244
 8401SOL    HW226103   1.916   1.490   5.325
 8402SOL     OW26104   5.627   1.442   6.305
 8402SOL    HW126105   5.722   1.412   6.315
 8402SOL    HW226106   5.619   1.537   6.335
 8403SOL     OW26107   0.613   3.212   3.996
 8403SOL    HW126108   0.643   3.168   4.081
 8403SOL    HW226109   0.513   3.215   3.994
 8404SOL     OW26110   3.754   0.047   5.819
 8404SOL    HW126111   3.669   0.097   5.836
 8404SOL    HW226112   3.765   6.993   5.888
 8405SOL     OW26113   2.930   1.557   5.567
 8405SOL    HW126114   2.956   1.465   5.597
 8405SOL    HW226115   2.945   1.622   5.642
 8406SOL     OW26116   4.240   0.406   0.410
 8406SOL    HW126117   4.163   0.346   0.428
 8406SOL    HW226118   4.307   0.398   0.485
 8407SOL     OW26119   4.012   6.314   3.596
 8407SOL    HW126120   3.941   6.336   3.528
 8407SOL    HW226121   4.028   6.215   3.595
 8408SOL     OW26122   5.257   4.838   1.130
 8408SOL    HW126123   5.258   4.744   1.095
 8408SOL    HW226124   5.351   4.873   1.134
 8409SOL     OW26125   4.873   2.248   2.141
 8409SOL    HW126126   4.819   2.282   2.218
 8409SOL    HW226127   4.816   2.187   2.086
 8410SOL     OW26128   6.156   1.604   1.785
 8410SOL    HW126129   6.193   1.663   1.714
 8410SOL    HW226130   6.139   1.658   1.867
 8411SOL     OW26131   0.259   5.870   0.945
 8411SOL    HW126132   0.320   5.817   1.004
 8411SOL    HW226133   0.283   5.854   0.849
 8412SOL     OW26134   3.373   2.443   1.033
 8412SOL    HW126135   3.313   2.371   0.998
 8412SOL    HW226136   3.393   2.508   0.960
 8413SOL     OW26137   4.713   5.598   6.214
 8413SOL    HW126138   4.808   5.619   6.236
 8413SOL    HW226139   4.693   5.503   6.235
 8414SOL     OW26140   2.432   0.533   3.629
 8414SOL    HW126141   2.357   0.585   3.671
 8414SOL    HW226142   2.453   0.453   3.685
 8415SOL     OW26143   1.200   6.428   4.320
 8415SOL    HW126144   1.189   6.469   4.230
 8415SOL    HW226145   1.238   6.495   4.383
 8416SOL     OW26146   6.366   1.412   4.559
 8416SOL    HW126147   6.382   1.498   4.607
 8416SOL    HW226148   6.268   1.399   4.544
 8417SOL     OW26149   0.776   3.012   5.497
 8417SOL    HW126150   0.801   2.945   5.427
 8417SOL    HW226151   0.859   3.041   5.545
 8418SOL     OW26152   0.261   5.787   1.834
 8418SOL    HW126153   0.196   5.748   1.900
 8418SOL    HW226154   0.284   5.880   1.863
 8419SOL     OW26155   5.241   0.891   2.502
 8419SOL    HW126156   5.280   0.808   2.461
 8419SOL    HW226157   5.157   0.867   2.551
 8420SOL     OW26158   3.447   6.819   1.725
 8420SOL    HW126159   3.493   6.782   1.644
 8420SOL    HW226160   3.373   6.880   1.696
 8421SOL     OW26161   3.823   4.330   0.094
 8421SOL    HW126162   3.797   4.297   0.184
 8421SOL    HW226163   3.742   4.332   0.035
 8422SOL     OW26164   4.233   1.271   2.233
 8422SOL    HW126165   4.220   1.194   2.170
 8422SOL    HW226166   4.322   1.262   2.279
 8423SOL     OW26167   4.360   4.201   5.913
 8423SOL    HW126168   4.268   4.224   5.943
 8423SOL    HW226169   4.357   4.122   5.851
 8424SOL     OW26170   1.863   2.558   3.132
 8424SOL    HW126171   1.852   2.641   3.187
 8424SOL    HW226172   1.774   2.529   3.097
 8425SOL     OW26173   4.152   3.545   4.755
 8425SOL    HW126174   4.085   3.618   4.741
 8425SOL    HW226175   4.233   3.582   4.799
 8426SOL     OW26176   3.395   3.194   2.789
 8426SOL    HW126177   3.312   3.141   2.769
 8426SOL    HW226178   3.470   3.160   2.732
 8427SOL     OW26179   2.960   3.822   4.030
 8427SOL    HW126180   3.036   3.883   4.052
 8427SOL    HW226181   2.945   3.821   3.931
 8428SOL     OW26182   0.354   6.462   1.868
 8428SOL    HW126183   0.419   6.413   1.926
 8428SOL    HW226184   0.261   6.428   1.886
 8429SOL     OW26185   1.767   5.365   5.577
 8429SOL    HW126186   1.690   5.343   5.517
 8429SOL    HW226187   1.851   5.325   5.541
 8430SOL     OW26188   3.907   4.880   3.987
 8430SOL    HW126189   3.856   4.961   3.960
 8430SOL    HW226190   3.872   4.846   4.075
 8431SOL     OW26191   4.016   3.576   0.396
 8431SOL    HW126192   4.027   3.541   0.303
 8431SOL    HW226193   4.035   3.503   0.462
 8432SOL     OW26194   6.425   5.015   5.637
 8432SOL    HW126195   6.333   4.978   5.652
 8432SOL    HW226196   6.452   5.069   5.716
 8433SOL     OW26197   4.318   2.811   0.863
 8433SOL    HW126198   4.286   2.765   0.946
 8433SOL    HW226199   4.274   2.901   0.855
 8434SOL     OW26200   2.413   6.990   4.374
 8434SOL    HW126201   2.420   7.008   4.276
 8434SOL    HW226202   2.403   0.060   4.422
 8435SOL     OW26203   5.559   0.011   2.756
 8435SOL    HW126204   5.535   0.083   2.692
 8435SOL    HW226205   5.599   0.051   2.838
 8436SOL     OW26206   3.523   6.524   3.894
 8436SOL    HW126207   3.478   6.545   3.980
 8436SOL    HW226208   3.468   6.458   3.842
 8437SOL     OW26209   2.435   2.559   2.597
 8437SOL    HW126210   2.419   2.653   2.627
 8437SOL    HW226211   2.431   2.554   2.497
 8438SOL     OW26212   2.699   4.800   3.073
 8438SOL    HW126213   2.715   4.735   3.147
 8438SOL    HW226214   2.609   4.843   3.085
 8439SOL     OW26215   6.153   4.746   2.359
 8439SOL    HW126216   6.207   4.737   2.275
 8439SOL    HW226217   6.144   4.657   2.403
 8440SOL     OW26218   2.729   2.338   3.063
 8440SOL    HW126219   2.804   2.312   3.003
 8440SOL    HW226220   2.681   2.416   3.024
 8441SOL     OW26221   5.730   6.128   6.271
 8441SOL    HW126222   5.821   6.159   6.242
 8441SOL    HW226223   5.665   6.203   6.262
 8442SOL     OW26224   3.728   1.792   5.004
 8442SOL    HW126225   3.693   1.699   4.991
 8442SOL    HW226226   3.708   1.822   5.098
 8443SOL     OW26227   2.249   4.895   3.729
 8443SOL    HW126228   2.228   4.989   3.755
 8443SOL    HW226229   2.164   4.845   3.713
 8444SOL     OW26230   3.273   6.709   3.628
 8444SOL    HW126231   3.250   6.704   3.725
 8444SOL    HW226232   3.350   6.771   3.615
 8445SOL     OW26233   3.009   0.114   1.094
 8445SOL    HW126234   3.064   0.031   1.094
 8445SOL    HW226235   3.059   0.187   1.048
 8446SOL     OW26236   6.408   4.839   5.139
 8446SOL    HW126237   6.438   4.783   5.062
 8446SOL    HW226238   6.487   4.863   5.196
 8447SOL     OW26239   3.878   1.181   1.424
 8447SOL    HW126240   3.891   1.274   1.390
 8447SOL    HW226241   3.808   1.135   1.368
 8448SOL     OW26242   4.691   6.310   3.481
 8448SOL    HW126243   4.698   6.266   3.391
 8448SOL    HW226244   4.601   6.290   3.520
 8449SOL     OW26245   6.907   3.254   3.189
 8449SOL    HW126246   6.829   3.203   3.151
 8449SOL    HW226247   6.893   3.352   3.176
 8450SOL     OW26248   0.799   0.837   1.346
 8450SOL    HW126249   0.842   0.888   1.271
 8450SOL    HW226250   0.829   0.742   1.343
 8451SOL     OW26251   3.089   1.052   0.026
 8451SOL    HW126252   3.006   1.103   0.049
 8451SOL    HW226253   3.151   1.110   6.991
 8452SOL     OW26254   5.736   3.112   4.651
 8452SOL    HW126255   5.724   3.177   4.726
 8452SOL    HW226256   5.708   3.021   4.681
 8453SOL     OW26257   0.032   5.526   0.356
 8453SOL    HW126258   6.998   5.549   0.274
 8453SOL    HW226259   7.001   5.455   0.408
 8454SOL     OW26260   0.248   4.854   0.329
 8454SOL    HW126261   0.205   4.845   0.419
 8454SOL    HW226262   0.178   4.849   0.258
 8455SOL     OW26263   0.063   1.861   3.062
 8455SOL    HW126264   0.029   1.900   3.147
 8455SOL    HW226265   0.126   1.925   3.018
 8456SOL     OW26266   4.334   0.196   3.416
 8456SOL    HW126267   4.432   0.218   3.422
 8456SOL    HW226268   4.283   0.256   3.478
 8457SOL     OW26269   6.674   5.875   4.657
 8457SOL    HW126270   6.653   5.946   4.590
 8457SOL    HW226271   6.682   5.915   4.748
 8458SOL     OW26272   2.014   0.270   0.024
 8458SOL    HW126273   2.085   0.267   0.094
 8458SOL    HW226274   1.980   0.177   0.007
 8459SOL     OW26275   2.233   5.727   3.108
 8459SOL    HW126276   2.153   5.688   3.063
 8459SOL    HW226277   2.316   5.688   3.067
 8460SOL     OW26278   4.590   3.994   5.340
 8460SOL    HW126279   4.545   3.906   5.356
 8460SOL    HW226280   4.668   3.980   5.279
 8461SOL     OW26281   0.761   2.861   4.804
 8461SOL    HW126282   0.775   2.836   4.899
 8461SOL    HW226283   0.846   2.898   4.766
 8462SOL     OW26284   3.210   1.574   6.685
 8462SOL    HW126285   3.284   1.582   6.617
 8462SOL    HW226286   3.248   1.585   6.776
 8463SOL     OW26287   6.660   0.078   1.832
 8463SOL    HW126288   6.744   0.034   1.863
 8463SOL    HW226289   6.637   0.044   1.740
 8464SOL     OW26290   5.437   4.757   4.046
 8464SOL    HW126291   5.346   4.795   4.062
 8464SOL    HW226292   5.470   4.713   4.130
 8465SOL     OW26293   1.178   2.478   0.620
 8465SOL    HW126294   1.263   2.524   0.643
 8465SOL    HW226295   1.172   2.391   0.669
 8466SOL     OW26296   1.038   6.810   3.767
 8466SOL    HW126297   0.993   6.723   3.748
 8466SOL    HW226298   0.992   6.855   3.844
 8467SOL     OW26299   2.695   5.993   0.603
 8467SOL    HW126300   2.748   5.936   0.666
 8467SOL    HW226301   2.638   5.935   0.544
 8468SOL     OW26302   3.260   1.318   0.602
 8468SOL    HW126303   3.289   1.359   0.516
 8468SOL    HW226304   3.338   1.315   0.665
 8469SOL     OW26305   3.259   2.767   6.855
 8469SOL    HW126306   3.192   2.693   6.856
 8469SOL    HW226307   3.222   2.846   6.905
 8470SOL     OW26308   2.435   3.730   1.183
 8470SOL    HW126309   2.484   3.792   1.244
 8470SOL    HW226310   2.461   3.635   1.204
 8471SOL     OW26311   2.967   0.950   3.249
 8471SOL    HW126312   2.962   0.928   3.347
 8471SOL    HW226313   2.885   0.914   3.203
 8472SOL     OW26314   7.014   7.004   4.085
 8472SOL    HW126315   0.031   0.040   4.163
 8472SOL    HW226316   6.918   0.008   4.070
 8473SOL     OW26317   0.474   5.501   6.506
 8473SOL    HW126318   0.467   5.595   6.472
 8473SOL    HW226319   0.477   5.502   6.606
 8474SOL     OW26320   2.927   3.035   1.825
 8474SOL    HW126321   2.899   3.127   1.854
 8474SOL    HW226322   2.945   2.979   1.905
 8475SOL     OW26323   6.857   1.349   3.053
 8475SOL    HW126324   6.870   1.432   3.000
 8475SOL    HW226325   6.811   1.371   3.140
 8476SOL     OW26326   6.047   0.930   2.100
 8476SOL    HW126327   6.092   0.865   2.039
 8476SOL    HW226328   5.981   0.984   2.047
 8477SOL     OW26329   3.325   6.558   1.104
 8477SOL    HW126330   3.356   6.518   1.018
 8477SOL    HW226331   3.231   6.529   1.123
 8478SOL     OW26332   1.244   0.431   6.066
 8478SOL    HW126333   1.195   0.389   5.990
 8478SOL    HW226334   1.342   0.411   6.058
 8479SOL     OW26335   6.103   1.294   0.554
 8479SOL    HW126336   6.071   1.379   0.594
 8479SOL    HW226337   6.034   1.222   0.569
 8480SOL     OW26338   3.161   0.961   1.343
 8480SOL    HW126339   3.125   1.004   1.426
 8480SOL    HW226340   3.260   0.975   1.339
 8481SOL     OW26341   4.459   1.451   4.017
 8481SOL    HW126342   4.449   1.415   4.110
 8481SOL    HW226343   4.512   1.386   3.963
 8482SOL     OW26344   2.472   0.307   2.270
 8482SOL    HW126345   2.531   0.316   2.190
 8482SOL    HW226346   2.491   0.381   2.334
 8483SOL     OW26347   3.840   6.199   1.773
 8483SOL    HW126348   3.848   6.172   1.869
 8483SOL    HW226349   3.908   6.148   1.719
 8484SOL     OW26350   6.921   4.833   3.141
 8484SOL    HW126351   0.001   4.858   3.147
 8484SOL    HW226352   6.867   4.898   3.194
 8485SOL     OW26353   1.831   3.417   6.597
 8485SOL    HW126354   1.775   3.500   6.596
 8485SOL    HW226355   1.815   3.365   6.513
 8486SOL     OW26356   4.910   1.212   3.154
 8486SOL    HW126357   4.839   1.151   3.188
 8486SOL    HW226358   4.994   1.160   3.135
 8487SOL     OW26359   5.674   6.877   0.796
 8487SOL    HW126360   5.696   6.796   0.741
 8487SOL    HW226361   5.733   6.879   0.877
 8488SOL     OW26362   5.909   5.149   5.527
 8488SOL    HW126363   5.977   5.136   5.455
 8488SOL    HW226364   5.830   5.089   5.509
 8489SOL     OW26365   6.286   0.026   1.479
 8489SOL    HW126366   6.235   0.099   1.434
 8489SOL    HW226367   6.285   6.962   1.422
 8490SOL     OW26368   4.425   6.241   3.554
 8490SOL    HW126369   4.398   6.165   3.612
 8490SOL    HW226370   4.372   6.322   3.578
 8491SOL     OW26371   2.449   0.746   1.595
 8491SOL    HW126372   2.521   0.726   1.661
 8491SOL    HW226373   2.448   0.675   1.525
 8492SOL     OW26374   4.671   3.944   6.206
 8492SOL    HW126375   4.725   3.959   6.124
 8492SOL    HW226376   4.713   3.992   6.283
 8493SOL     OW26377   3.370   1.556   6.901
 8493SOL    HW126378   3.437   1.619   6.939
 8493SOL    HW226379   3.417   1.476   6.863
 8494SOL     OW26380   2.005   4.462   6.414
 8494SOL    HW126381   1.980   4.400   6.489
 8494SOL    HW226382   1.924   4.481   6.359
 8495SOL     OW26383   6.711   3.339   0.339
 8495SOL    HW126384   6.621   3.367   0.306
 8495SOL    HW226385   6.774   3.417   0.337
 8496SOL     OW26386   0.459   1.792   2.451
 8496SOL    HW126387   0.473   1.890   2.459
 8496SOL    HW226388   0.520   1.744   2.514
 8497SOL     OW26389   5.435   6.765   4.181
 8497SOL    HW126390   5.413   6.841   4.120
 8497SOL    HW226391   5.529   6.774   4.212
 8498SOL     OW26392   0.455   6.440   2.395
 8498SOL    HW126393   0.524   6.474   2.459
 8498SOL    HW226394   0.381   6.398   2.446
 8499SOL     OW26395   2.452   5.570   6.619
 8499SOL    HW126396   2.464   5.669   6.609
 8499SOL    HW226397   2.538   5.524   6.596
 8500SOL     OW26398   1.917   0.581   5.701
 8500SOL    HW126399   1.862   0.659   5.733
 8500SOL    HW226400   2.014   0.602   5.716
 8501SOL     OW26401   1.424   2.463   0.111
 8501SOL    HW126402   1.395   2.485   0.204
 8501SOL    HW226403   1.345   2.462   0.051
 8502SOL     OW26404   1.666   4.851   1.204
 8502SOL    HW126405   1.748   4.816   1.159
 8502SOL    HW226406   1.674   4.950   1.217
 8503SOL     OW26407   1.259   5.240   3.000
 8503SOL    HW126408   1.264   5.145   3.031
 8503SOL    HW226409   1.351   5.274   2.982
 8504SOL     OW26410   1.656   6.558   3.505
 8504SOL    HW126411   1.627   6.471   3.543
 8504SOL    HW226412   1.713   6.606   3.571
 8505SOL     OW26413   5.031   4.101   3.358
 8505SOL    HW126414   5.069   4.013   3.387
 8505SOL    HW226415   4.931   4.098   3.365
 8506SOL     OW26416   0.615   6.923   0.736
 8506SOL    HW126417   0.594   6.915   0.833
 8506SOL    HW226418   0.709   6.956   0.724
 8507SOL     OW26419   2.467   0.473   5.361
 8507SOL    HW126420   2.525   0.512   5.432
 8507SOL    HW226421   2.491   0.376   5.349
 8508SOL     OW26422   6.975   2.893   4.758
 8508SOL    HW126423   0.006   2.808   4.775
 8508SOL    HW226424   7.005   2.931   4.670
 8509SOL     OW26425   6.111   1.731   4.213
 8509SOL    HW126426   6.065   1.780   4.140
 8509SOL    HW226427   6.055   1.653   4.242
 8510SOL     OW26428   5.929   4.547   2.885
 8510SOL    HW126429   5.887   4.509   2.803
 8510SOL    HW226430   5.858   4.583   2.946
 8511SOL     OW26431   5.429   4.442   1.897
 8511SOL    HW126432   5.502   4.381   1.927
 8511SOL    HW226433   5.412   4.510   1.969
 8512SOL     OW26434   3.941   2.345   0.273
 8512SOL    HW126435   3.943   2.331   0.372
 8512SOL    HW226436   4.017   2.296   0.230
 8513SOL     OW26437   4.772   3.938   1.373
 8513SOL    HW126438   4.738   3.863   1.430
 8513SOL    HW226439   4.699   3.968   1.311
 8514SOL     OW26440   2.321   2.707   3.234
 8514SOL    HW126441   2.260   2.643   3.187
 8514SOL    HW226442   2.328   2.792   3.182
 8515SOL     OW26443   0.120   1.346   6.764
 8515SOL    HW126444   0.157   1.438   6.778
 8515SOL    HW226445   0.080   1.312   6.850
 8516SOL     OW26446   6.388   3.050   1.716
 8516SOL    HW126447   6.345   2.965   1.684
 8516SOL    HW226448   6.455   3.080   1.648
 8517SOL     OW26449   2.108   2.179   5.916
 8517SOL    HW126450   2.159   2.253   5.873
 8517SOL    HW226451   2.130   2.175   6.014
 8518SOL     OW26452   4.984   3.916   6.133
 8518SOL    HW126453   4.943   3.984   6.071
 8518SOL    HW226454   4.952   3.825   6.107
 8519SOL     OW26455   0.654   5.194   0.789
 8519SOL    HW126456   0.632   5.153   0.700
 8519SOL    HW226457   0.683   5.123   0.853
 8520SOL     OW26458   2.823   2.735   6.180
 8520SOL    HW126459   2.808   2.741   6.081
 8520SOL    HW226460   2.735   2.728   6.227
 8521SOL     OW26461   2.333   5.766   5.589
 8521SOL    HW126462   2.357   5.863   5.596
 8521SOL    HW226463   2.413   5.710   5.613
 8522SOL     OW26464   0.382   6.959   1.502
 8522SOL    HW126465   0.367   6.998   1.593
 8522SOL    HW226466   0.448   6.884   1.508
 8523SOL     OW26467   2.318   6.444   6.758
 8523SOL    HW126468   2.235   6.389   6.768
 8523SOL    HW226469   2.368   6.444   6.845
 8524SOL     OW26470   0.815   3.365   4.552
 8524SOL    HW126471   0.849   3.445   4.602
 8524SOL    HW226472   0.722   3.344   4.582
 8525SOL     OW26473   5.922   5.276   1.581
 8525SOL    HW126474   5.850   5.262   1.513
 8525SOL    HW226475   5.961   5.187   1.606
 8526SOL     OW26476   3.684   6.073   0.687
 8526SOL    HW126477   3.741   6.124   0.752
 8526SOL    HW226478   3.601   6.126   0.667
 8527SOL     OW26479   3.525   0.347   6.969
 8527SOL    HW126480   3.547   0.292   6.889
 8527SOL    HW226481   3.526   0.444   6.945
 8528SOL     OW26482   3.746   1.260   0.640
 8528SOL    HW126483   3.803   1.323   0.694
 8528SOL    HW226484   3.758   1.280   0.543
 8529SOL     OW26485   1.354   0.013   0.595
 8529SOL    HW126486   1.368   6.958   0.663
 8529SOL    HW226487   1.414   7.016   0.517
 8530SOL     OW26488   3.980   3.547   5.153
 8530SOL    HW126489   3.995   3.471   5.089
 8530SOL    HW226490   3.917   3.518   5.225
 8531SOL     OW26491   6.777   5.594   2.830
 8531SOL    HW126492   6.805   5.504   2.861
 8531SOL    HW226493   6.782   5.599   2.730
 8532SOL     OW26494   4.073   5.949   4.674
 8532SOL    HW126495   4.151   5.901   4.712
 8532SOL    HW226496   4.021   5.992   4.748
 8533SOL     OW26497   1.924   6.093   0.200
 8533SOL    HW126498   1.865   6.017   0.227
 8533SOL    HW226499   1.993   6.108   0.270
 8534SOL     OW26500   4.850   2.586   3.840
 8534SOL    HW126501   4.818   2.518   3.775
 8534SOL    HW226502   4.874   2.542   3.926
 8535SOL     OW26503   6.041   1.614   3.853
 8535SOL    HW126504   6.113   1.634   3.787
 8535SOL    HW226505   6.027   1.694   3.912
 8536SOL     OW26506   0.292   1.422   4.973
 8536SOL    HW126507   0.250   1.332   4.977
 8536SOL    HW226508   0.385   1.418   5.010
 8537SOL     OW26509   5.485   1.632   3.298
 8537SOL    HW126510   5.405   1.689   3.319
 8537SOL    HW226511   5.467   1.579   3.216
 8538SOL     OW26512   2.108   1.353   6.949
 8538SOL    HW126513   2.132   1.299   6.868
 8538SOL    HW226514   2.040   1.304   7.003
 8539SOL     OW26515   6.460   1.789   2.293
 8539SOL    HW126516   6.411   1.872   2.267
 8539SOL    HW226517   6.525   1.810   2.365
 8540SOL     OW26518   5.794   0.113   6.618
 8540SOL    HW126519   5.793   0.041   6.687
 8540SOL    HW226520   5.733   0.087   6.543
 8541SOL     OW26521   3.858   2.184   3.601
 8541SOL    HW126522   3.926   2.234   3.547
 8541SOL    HW226523   3.812   2.117   3.542
 8542SOL     OW26524   3.442   4.894   6.636
 8542SOL    HW126525   3.529   4.850   6.660
 8542SOL    HW226526   3.369   4.826   6.639
 8543SOL     OW26527   2.043   1.784   1.426
 8543SOL    HW126528   2.143   1.786   1.415
 8543SOL    HW226529   2.008   1.696   1.395
 8544SOL     OW26530   5.463   3.670   4.189
 8544SOL    HW126531   5.447   3.737   4.261
 8544SOL    HW226532   5.395   3.597   4.197
 8545SOL     OW26533   4.367   0.441   6.059
 8545SOL    HW126534   4.361   0.409   6.154
 8545SOL    HW226535   4.436   0.387   6.010
 8546SOL     OW26536   5.842   1.975   4.203
 8546SOL    HW126537   5.882   1.972   4.295
 8546SOL    HW226538   5.742   1.977   4.212
 8547SOL     OW26539   0.637   6.590   5.772
 8547SOL    HW126540   0.683   6.660   5.716
 8547SOL    HW226541   0.544   6.619   5.791
 8548SOL     OW26542   5.852   2.788   5.561
 8548SOL    HW126543   5.945   2.754   5.580
 8548SOL    HW226544   5.789   2.710   5.553
 8549SOL     OW26545   0.534   3.802   3.657
 8549SOL    HW126546   0.457   3.852   3.618
 8549SOL    HW226547   0.500   3.726   3.712
 8550SOL     OW26548   2.389   4.310   6.356
 8550SOL    HW126549   2.310   4.267   6.398
 8550SOL    HW226550   2.381   4.304   6.257
 8551SOL     OW26551   3.644   3.643   6.327
 8551SOL    HW126552   3.576   3.683   6.265
 8551SOL    HW226553   3.736   3.663   6.293
 8552SOL     OW26554   2.361   6.602   4.054
 8552SOL    HW126555   2.367   6.690   4.102
 8552SOL    HW226556   2.334   6.617   3.959
 8553SOL     OW26557   5.308   5.269   6.188
 8553SOL    HW126558   5.322   5.302   6.094
 8553SOL    HW226559   5.302   5.347   6.250
 8554SOL     OW26560   0.453   5.005   0.170
 8554SOL    HW126561   0.389   4.958   0.231
 8554SOL    HW226562   0.547   4.981   0.195
 8555SOL     OW26563   0.642   0.115   3.098
 8555SOL    HW126564   0.724   0.085   3.147
 8555SOL    HW226565   0.645   0.214   3.086
 8556SOL     OW26566   0.949   0.084   3.657
 8556SOL    HW126567   0.947   0.058   3.754
 8556SOL    HW226568   1.020   0.030   3.611
 8557SOL     OW26569   6.732   1.405   2.067
 8557SOL    HW126570   6.826   1.378   2.046
 8557SOL    HW226571   6.668   1.347   2.016
 8558SOL     OW26572   2.591   5.814   2.863
 8558SOL    HW126573   2.607   5.898   2.916
 8558SOL    HW226574   2.543   5.747   2.921
 8559SOL     OW26575   6.093   0.668   1.917
 8559SOL    HW126576   6.122   0.666   1.822
 8559SOL    HW226577   6.168   0.636   1.976
 8560SOL     OW26578   6.546   0.331   1.193
 8560SOL    HW126579   6.581   0.340   1.286
 8560SOL    HW226580   6.590   0.398   1.134
 8561SOL     OW26581   3.512   6.283   1.913
 8561SOL    HW126582   3.420   6.312   1.884
 8561SOL    HW226583   3.545   6.211   1.852
 8562SOL     OW26584   4.979   6.608   5.033
 8562SOL    HW126585   5.053   6.571   5.090
 8562SOL    HW226586   4.902   6.545   5.034
 8563SOL     OW26587   2.607   3.422   0.151
 8563SOL    HW126588   2.530   3.368   0.185
 8563SOL    HW226589   2.582   3.519   0.151
 8564SOL     OW26590   2.500   0.842   3.822
 8564SOL    HW126591   2.596   0.829   3.845
 8564SOL    HW226592   2.486   0.935   3.788
 8565SOL     OW26593   4.703   6.722   1.344
 8565SOL    HW126594   4.723   6.730   1.442
 8565SOL    HW226595   4.619   6.770   1.323
 8566SOL     OW26596   1.214   0.976   2.219
 8566SOL    HW126597   1.166   1.058   2.251
 8566SOL    HW226598   1.149   0.916   2.171
 8567SOL     OW26599   0.123   1.865   1.624
 8567SOL    HW126600   0.211   1.822   1.601
 8567SOL    HW226601   0.083   1.820   1.703
 8568SOL     OW26602   4.500   0.589   6.336
 8568SOL    HW126603   4.428   0.640   6.383
 8568SOL    HW226604   4.522   0.634   6.249
 8569SOL     OW26605   5.255   1.526   5.959
 8569SOL    HW126606   5.327   1.539   6.028
 8569SOL    HW226607   5.279   1.450   5.900
 8570SOL     OW26608   1.058   2.332   5.900
 8570SOL    HW126609   0.996   2.265   5.861
 8570SOL    HW226610   1.006   2.412   5.931
 8571SOL     OW26611   0.319   5.582   5.863
 8571SOL    HW126612   0.265   5.653   5.908
 8571SOL    HW226613   0.286   5.492   5.893
 8572SOL     OW26614   2.889   5.163   6.468
 8572SOL    HW126615   2.910   5.122   6.379
 8572SOL    HW226616   2.841   5.250   6.453
 8573SOL     OW26617   3.432   6.099   6.760
 8573SOL    HW126618   3.521   6.099   6.714
 8573SOL    HW226619   3.377   6.175   6.725
 8574SOL     OW26620   6.792   5.168   5.471
 8574SOL    HW126621   6.863   5.098   5.484
 8574SOL    HW226622   6.714   5.127   5.423
 8575SOL     OW26623   3.532   2.411   6.798
 8575SOL    HW126624   3.577   2.435   6.712
 8575SOL    HW226625   3.511   2.495   6.849
 8576SOL     OW26626   1.093   6.735   1.166
 8576SOL    HW126627   1.126   6.661   1.107
 8576SOL    HW226628   1.064   6.697   1.254
 8577SOL     OW26629   6.388   5.059   4.485
 8577SOL    HW126630   6.467   5.118   4.469
 8577SOL    HW226631   6.412   4.964   4.465
 8578SOL     OW26632   5.177   0.458   4.531
 8578SOL    HW126633   5.118   0.416   4.461
 8578SOL    HW226634   5.124   0.469   4.616
 8579SOL     OW26635   1.440   6.074   3.516
 8579SOL    HW126636   1.456   6.064   3.418
 8579SOL    HW226637   1.474   6.163   3.547
 8580SOL     OW26638   2.253   6.810   1.984
 8580SOL    HW126639   2.334   6.800   2.042
 8580SOL    HW226640   2.281   6.810   1.888
 8581SOL     OW26641   3.346   2.738   1.422
 8581SOL    HW126642   3.325   2.659   1.480
 8581SOL    HW226643   3.425   2.787   1.460
 8582SOL     OW26644   4.218   4.753   2.074
 8582SOL    HW126645   4.134   4.766   2.127
 8582SOL    HW226646   4.198   4.702   1.991
 8583SOL     OW26647   5.781   0.485   5.857
 8583SOL    HW126648   5.691   0.486   5.900
 8583SOL    HW226649   5.846   0.535   5.914
 8584SOL     OW26650   0.212   3.952   6.360
 8584SOL    HW126651   0.280   4.012   6.319
 8584SOL    HW226652   0.136   4.007   6.395
 8585SOL     OW26653   6.804   6.705   0.081
 8585SOL    HW126654   6.800   6.659   7.010
 8585SOL    HW226655   6.881   6.669   0.134
 8586SOL     OW26656   2.599   6.398   3.471
 8586SOL    HW126657   2.510   6.440   3.453
 8586SOL    HW226658   2.647   6.452   3.541
 8587SOL     OW26659   1.174   0.159   3.049
 8587SOL    HW126660   1.148   0.194   2.959
 8587SOL    HW226661   1.253   0.210   3.083
 8588SOL     OW26662   2.970   0.572   6.944
 8588SOL    HW126663   3.001   0.477   6.942
 8588SOL    HW226664   2.877   0.578   6.907
 8589SOL     OW26665   4.240   2.285   4.599
 8589SOL    HW126666   4.296   2.249   4.524
 8589SOL    HW226667   4.172   2.218   4.626
 8590SOL     OW26668   6.553   5.781   4.045
 8590SOL    HW126669   6.495   5.841   4.100
 8590SOL    HW226670   6.497   5.709   4.004
 8591SOL     OW26671   1.055   4.943   6.319
 8591SOL    HW126672   1.134   4.973   6.266
 8591SOL    HW226673   0.973   4.944   6.261
 8592SOL     OW26674   0.033   4.296   0.318
 8592SOL    HW126675   0.087   4.217   0.288
 8592SOL    HW226676   0.002   4.281   0.412
 8593SOL     OW26677   1.341   6.694   2.474
 8593SOL    HW126678   1.362   6.688   2.572
 8593SOL    HW226679   1.360   6.786   2.441
 8594SOL     OW26680   3.709   3.678   5.238
 8594SOL    HW126681   3.687   3.581   5.226
 8594SOL    HW226682   3.639   3.734   5.193
 8595SOL     OW26683   2.574   1.576   2.578
 8595SOL    HW126684   2.518   1.551   2.499
 8595SOL    HW226685   2.640   1.503   2.597
 8596SOL     OW26686   6.026   5.178   2.114
 8596SOL    HW126687   6.110   5.141   2.155
 8596SOL    HW226688   6.050   5.252   2.051
 8597SOL     OW26689   4.106   2.253   1.192
 8597SOL    HW126690   4.059   2.339   1.212
 8597SOL    HW226691   4.105   2.236   1.094
 8598SOL     OW26692   0.521   5.462   1.440
 8598SOL    HW126693   0.424   5.474   1.461
 8598SOL    HW226694   0.550   5.530   1.373
 8599SOL     OW26695   1.007   3.013   3.953
 8599SOL    HW126696   0.928   3.019   3.892
 8599SOL    HW226697   0.993   3.075   4.030
 8600SOL     OW26698   5.735   4.599   6.965
 8600SOL    HW126699   5.791   4.652   6.902
 8600SOL    HW226700   5.656   4.653   6.994
 8601SOL     OW26701   0.688   0.731   4.509
 8601SOL    HW126702   0.591   0.705   4.501
 8601SOL    HW226703   0.704   0.770   4.600
 8602SOL     OW26704   2.413   6.155   2.808
 8602SOL    HW126705   2.360   6.074   2.783
 8602SOL    HW226706   2.362   6.208   2.876
 8603SOL     OW26707   3.610   3.998   7.011
 8603SOL    HW126708   3.554   4.036   6.938
 8603SOL    HW226709   3.707   4.013   6.991
 8604SOL     OW26710   6.151   2.911   3.124
 8604SOL    HW126711   6.197   2.963   3.052
 8604SOL    HW226712   6.125   2.821   3.089
 8605SOL     OW26713   3.529   4.957   4.626
 8605SOL    HW126714   3.445   4.928   4.581
 8605SOL    HW226715   3.608   4.930   4.571
 8606SOL     OW26716   2.105   4.673   5.622
 8606SOL    HW126717   2.048   4.718   5.553
 8606SOL    HW226718   2.083   4.709   5.712
 8607SOL     OW26719   2.738   4.944   0.957
 8607SOL    HW126720   2.790   4.959   0.873
 8607SOL    HW226721   2.744   4.848   0.983
 8608SOL     OW26722   4.845   5.089   3.052
 8608SOL    HW126723   4.903   5.046   3.121
 8608SOL    HW226724   4.760   5.036   3.042
 8609SOL     OW26725   4.771   0.777   4.185
 8609SOL    HW126726   4.709   0.716   4.137
 8609SOL    HW226727   4.810   0.844   4.121
 8610SOL     OW26728   0.999   0.569   2.778
 8610SOL    HW126729   0.952   0.573   2.866
 8610SOL    HW226730   0.996   0.658   2.734
 8611SOL     OW26731   1.626   2.985   3.702
 8611SOL    HW126732   1.612   2.976   3.603
 8611SOL    HW226733   1.548   2.945   3.750
 8612SOL     OW26734   2.933   3.168   7.005
 8612SOL    HW126735   3.011   3.219   6.970
 8612SOL    HW226736   2.921   3.187   0.085
 8613SOL     OW26737   2.376   1.688   1.511
 8613SOL    HW126738   2.465   1.654   1.479
 8613SOL    HW226739   2.314   1.695   1.433
 8614SOL     OW26740   1.184   3.215   2.760
 8614SOL    HW126741   1.239   3.137   2.727
 8614SOL    HW226742   1.116   3.182   2.825
 8615SOL     OW26743   5.117   2.018   4.691
 8615SOL    HW126744   5.051   2.019   4.616
 8615SOL    HW226745   5.079   1.967   4.768
 8616SOL     OW26746   1.436   5.389   1.296
 8616SOL    HW126747   1.492   5.453   1.349
 8616SOL    HW226748   1.397   5.321   1.357
 8617SOL     OW26749   6.003   1.001   0.346
 8617SOL    HW126750   6.073   0.970   0.281
 8617SOL    HW226751   6.000   0.937   0.423
 8618SOL     OW26752   5.071   6.801   1.055
 8618SOL    HW126753   5.094   6.897   1.076
 8618SOL    HW226754   5.119   6.773   0.972
 8619SOL     OW26755   3.558   5.275   0.987
 8619SOL    HW126756   3.586   5.369   1.011
 8619SOL    HW226757   3.624   5.236   0.923
 8620SOL     OW26758   5.922   0.083   3.420
 8620SOL    HW126759   5.988   0.082   3.345
 8620SOL    HW226760   5.970   0.065   3.507
 8621SOL     OW26761   5.961   1.784   3.486
 8621SOL    HW126762   6.036   1.734   3.443
 8621SOL    HW226763   5.888   1.800   3.419
 8622SOL     OW26764   4.502   4.722   0.543
 8622SOL    HW126765   4.567   4.796   0.524
 8622SOL    HW226766   4.535   4.637   0.501
 8623SOL     OW26767   0.275   4.258   2.767
 8623SOL    HW126768   0.203   4.210   2.816
 8623SOL    HW226769   0.267   4.357   2.783
 8624SOL     OW26770   1.059   4.783   3.757
 8624SOL    HW126771   1.004   4.702   3.773
 8624SOL    HW226772   1.117   4.770   3.676
 8625SOL     OW26773   4.857   0.603   4.538
 8625SOL    HW126774   4.778   0.639   4.487
 8625SOL    HW226775   4.866   0.653   4.624
 8626SOL     OW26776   3.786   2.926   4.802
 8626SOL    HW126777   3.845   2.894   4.728
 8626SOL    HW226778   3.721   2.854   4.827
 8627SOL     OW26779   1.061   0.298   2.810
 8627SOL    HW126780   1.151   0.260   2.790
 8627SOL    HW226781   1.057   0.392   2.777
 8628SOL     OW26782   6.375   6.672   1.775
 8628SOL    HW126783   6.366   6.767   1.747
 8628SOL    HW226784   6.300   6.648   1.837
 8629SOL     OW26785   1.615   5.525   4.554
 8629SOL    HW126786   1.642   5.434   4.586
 8629SOL    HW226787   1.660   5.545   4.468
 8630SOL     OW26788   5.952   4.130   4.393
 8630SOL    HW126789   5.856   4.118   4.420
 8630SOL    HW226790   6.007   4.152   4.474
 8631SOL     OW26791   3.766   5.757   6.293
 8631SOL    HW126792   3.687   5.773   6.352
 8631SOL    HW226793   3.735   5.746   6.199
 8632SOL     OW26794   3.814   6.364   3.399
 8632SOL    HW126795   3.796   6.448   3.450
 8632SOL    HW226796   3.728   6.320   3.376
 8633SOL     OW26797   5.209   1.129   4.859
 8633SOL    HW126798   5.267   1.141   4.779
 8633SOL    HW226799   5.255   1.168   4.939
 8634SOL     OW26800   6.223   2.905   1.097
 8634SOL    HW126801   6.308   2.869   1.135
 8634SOL    HW226802   6.239   2.996   1.059
 8635SOL     OW26803   5.994   3.797   6.067
 8635SOL    HW126804   5.932   3.767   6.140
 8635SOL    HW226805   6.044   3.878   6.098
 8636SOL     OW26806   5.501   4.794   0.003
 8636SOL    HW126807   5.531   4.868   6.961
 8636SOL    HW226808   5.403   4.801   0.018
 8637SOL     OW26809   1.884   0.550   0.524
 8637SOL    HW126810   1.828   0.631   0.514
 8637SOL    HW226811   1.919   0.522   0.435
 8638SOL     OW26812   1.779   3.399   0.112
 8638SOL    HW126813   1.692   3.351   0.121
 8638SOL    HW226814   1.818   3.381   0.022
 8639SOL     OW26815   6.048   2.713   1.893
 8639SOL    HW126816   6.062   2.759   1.806
 8639SOL    HW226817   5.951   2.687   1.902
 8640SOL     OW26818   4.561   4.059   0.694
 8640SOL    HW126819   4.579   3.961   0.695
 8640SOL    HW226820   4.627   4.106   0.753
 8641SOL     OW26821   6.993   4.234   4.573
 8641SOL    HW126822   6.976   4.178   4.655
 8641SOL    HW226823   0.074   4.234   4.554
 8642SOL     OW26824   4.213   0.681   2.563
 8642SOL    HW126825   4.251   0.596   2.600
 8642SOL    HW226826   4.121   0.696   2.600
 8643SOL     OW26827   4.300   6.982   0.351
 8643SOL    HW126828   4.225   6.918   0.364
 8643SOL    HW226829   4.360   6.981   0.431
 8644SOL     OW26830   4.635   2.503   5.584
 8644SOL    HW126831   4.679   2.419   5.616
 8644SOL    HW226832   4.685   2.538   5.505
 8645SOL     OW26833   5.323   4.900   1.504
 8645SOL    HW126834   5.332   4.886   1.603
 8645SOL    HW226835   5.231   4.932   1.483
 8646SOL     OW26836   6.200   1.465   1.124
 8646SOL    HW126837   6.156   1.380   1.153
 8646SOL    HW226838   6.132   1.538   1.122
 8647SOL     OW26839   3.339   4.575   6.319
 8647SOL    HW126840   3.267   4.643   6.329
 8647SOL    HW226841   3.346   4.548   6.223
 8648SOL     OW26842   5.712   1.572   4.578
 8648SOL    HW126843   5.717   1.473   4.569
 8648SOL    HW226844   5.625   1.597   4.623
 8649SOL     OW26845   5.699   4.986   5.899
 8649SOL    HW126846   5.630   5.008   5.968
 8649SOL    HW226847   5.755   4.909   5.930
 8650SOL     OW26848   1.585   4.642   4.467
 8650SOL    HW126849   1.681   4.658   4.492
 8650SOL    HW226850   1.548   4.568   4.522
 8651SOL     OW26851   3.916   0.577   0.167
 8651SOL    HW126852   3.980   0.601   0.240
 8651SOL    HW226853   3.853   0.506   0.200
 8652SOL     OW26854   1.393   4.092   3.009
 8652SOL    HW126855   1.465   4.099   2.941
 8652SOL    HW226856   1.310   4.056   2.966
 8653SOL     OW26857   5.659   2.207   5.992
 8653SOL    HW126858   5.673   2.203   5.893
 8653SOL    HW226859   5.580   2.264   6.013
 8654SOL     OW26860   0.973   6.544   1.876
 8654SOL    HW126861   1.050   6.523   1.815
 8654SOL    HW226862   1.008   6.587   1.959
 8655SOL     OW26863   5.983   0.915   3.845
 8655SOL    HW126864   5.899   0.966   3.827
 8655SOL    HW226865   6.035   0.905   3.761
 8656SOL     OW26866   6.602   1.152   0.843
 8656SOL    HW126867   6.605   1.211   0.923
 8656SOL    HW226868   6.560   1.201   0.767
 8657SOL     OW26869   4.479   4.706   0.031
 8657SOL    HW126870   4.457   4.609   0.020
 8657SOL    HW226871   4.536   4.718   0.112
 8658SOL     OW26872   5.126   5.875   0.352
 8658SOL    HW126873   5.036   5.889   0.393
 8658SOL    HW226874   5.115   5.851   0.256
 8659SOL     OW26875   4.557   1.135   3.470
 8659SOL    HW126876   4.517   1.214   3.516
 8659SOL    HW226877   4.488   1.091   3.413
 8660SOL     OW26878   4.994   3.562   0.778
 8660SOL    HW126879   4.979   3.661   0.785
 8660SOL    HW226880   5.070   3.536   0.836
 8661SOL     OW26881   5.398   4.086   1.394
 8661SOL    HW126882   5.372   4.060   1.301
 8661SOL    HW226883   5.491   4.124   1.393
 8662SOL     OW26884   4.915   6.072   1.842
 8662SOL    HW126885   4.864   5.989   1.863
 8662SOL    HW226886   4.937   6.074   1.745
 8663SOL     OW26887   2.382   5.844   1.041
 8663SOL    HW126888   2.461   5.826   0.983
 8663SOL    HW226889   2.413   5.853   1.136
 8664SOL     OW26890   3.731   5.429   0.802
 8664SOL    HW126891   3.804   5.474   0.854
 8664SOL    HW226892   3.652   5.490   0.795
 8665SOL     OW26893   5.524   5.727   5.222
 8665SOL    HW126894   5.539   5.757   5.316
 8665SOL    HW226895   5.608   5.738   5.169
 8666SOL     OW26896   5.561   2.624   5.238
 8666SOL    HW126897   5.628   2.627   5.312
 8666SOL    HW226898   5.477   2.670   5.265
 8667SOL     OW26899   4.376   2.421   2.957
 8667SOL    HW126900   4.401   2.516   2.936
 8667SOL    HW226901   4.458   2.364   2.949
 8668SOL     OW26902   5.108   3.178   3.291
 8668SOL    HW126903   5.075   3.267   3.323
 8668SOL    HW226904   5.035   3.131   3.243
 8669SOL     OW26905   2.638   6.839   6.835
 8669SOL    HW126906   2.706   6.772   6.805
 8669SOL    HW226907   2.576   6.859   6.759
 8670SOL     OW26908   3.689   4.356   5.554
 8670SOL    HW126909   3.605   4.309   5.582
 8670SOL    HW226910   3.739   4.299   5.488
 8671SOL     OW26911   5.801   1.502   3.676
 8671SOL    HW126912   5.727   1.480   3.740
 8671SOL    HW226913   5.845   1.587   3.705
 8672SOL     OW26914   2.124   5.649   3.871
 8672SOL    HW126915   2.216   5.644   3.834
 8672SOL    HW226916   2.106   5.569   3.929
 8673SOL     OW26917   0.121   1.629   6.513
 8673SOL    HW126918   0.207   1.579   6.500
 8673SOL    HW226919   0.099   1.633   6.611
 8674SOL     OW26920   6.790   5.886   1.443
 8674SOL    HW126921   6.781   5.894   1.542
 8674SOL    HW226922   6.812   5.791   1.420
 8675SOL     OW26923   3.609   1.614   4.178
 8675SOL    HW126924   3.640   1.629   4.272
 8675SOL    HW226925   3.671   1.661   4.115
 8676SOL     OW26926   3.916   6.668   3.056
 8676SOL    HW126927   3.870   6.584   3.085
 8676SOL    HW226928   3.848   6.736   3.031
 8677SOL     OW26929   2.511   6.073   5.283
 8677SOL    HW126930   2.529   6.127   5.201
 8677SOL    HW226931   2.595   6.028   5.313
 8678SOL     OW26932   0.246   0.198   0.713
 8678SOL    HW126933   0.225   0.281   0.662
 8678SOL    HW226934   0.300   0.221   0.794
 8679SOL     OW26935   6.355   3.292   4.828
 8679SOL    HW126936   6.287   3.355   4.865
 8679SOL    HW226937   6.358   3.210   4.885
 8680SOL     OW26938   0.580   3.662   1.347
 8680SOL    HW126939   0.554   3.584   1.291
 8680SOL    HW226940   0.558   3.747   1.298
 8681SOL     OW26941   4.611   4.949   0.447
 8681SOL    HW126942   4.542   4.933   0.377
 8681SOL    HW226943   4.606   5.044   0.477
 8682SOL     OW26944   4.408   6.677   2.056
 8682SOL    HW126945   4.461   6.710   2.134
 8682SOL    HW226946   4.365   6.590   2.078
 8683SOL     OW26947   1.318   2.699   1.841
 8683SOL    HW126948   1.272   2.760   1.905
 8683SOL    HW226949   1.374   2.752   1.777
 8684SOL     OW26950   0.450   2.862   4.823
 8684SOL    HW126951   0.549   2.867   4.817
 8684SOL    HW226952   0.414   2.951   4.853
 8685SOL     OW26953   1.309   2.304   5.840
 8685SOL    HW126954   1.209   2.295   5.841
 8685SOL    HW226955   1.350   2.221   5.803
 8686SOL     OW26956   6.444   1.480   1.281
 8686SOL    HW126957   6.354   1.484   1.239
 8686SOL    HW226958   6.503   1.550   1.240
 8687SOL     OW26959   3.609   5.927   2.609
 8687SOL    HW126960   3.547   5.857   2.574
 8687SOL    HW226961   3.593   6.013   2.562
 8688SOL     OW26962   2.848   6.224   0.493
 8688SOL    HW126963   2.939   6.188   0.476
 8688SOL    HW226964   2.785   6.149   0.516
 8689SOL     OW26965   3.715   4.719   0.337
 8689SOL    HW126966   3.667   4.743   0.421
 8689SOL    HW226967   3.741   4.803   0.289
 8690SOL     OW26968   1.785   2.679   3.571
 8690SOL    HW126969   1.865   2.739   3.562
 8690SOL    HW226970   1.713   2.711   3.510
 8691SOL     OW26971   4.732   2.603   6.331
 8691SOL    HW126972   4.716   2.608   6.233
 8691SOL    HW226973   4.763   2.512   6.356
 8692SOL     OW26974   3.629   2.104   2.633
 8692SOL    HW126975   3.686   2.061   2.563
 8692SOL    HW226976   3.556   2.156   2.588
 8693SOL     OW26977   5.549   1.385   1.241
 8693SOL    HW126978   5.551   1.428   1.151
 8693SOL    HW226979   5.502   1.297   1.235
 8694SOL     OW26980   4.530   1.369   5.915
 8694SOL    HW126981   4.588   1.443   5.883
 8694SOL    HW226982   4.475   1.401   5.993
 8695SOL     OW26983   4.699   3.074   5.909
 8695SOL    HW126984   4.762   3.118   5.845
 8695SOL    HW226985   4.611   3.059   5.864
 8696SOL     OW26986   2.856   5.971   0.907
 8696SOL    HW126987   2.933   5.953   0.846
 8696SOL    HW226988   2.820   6.062   0.888
 8697SOL     OW26989   6.353   3.396   0.829
 8697SOL    HW126990   6.339   3.375   0.732
 8697SOL    HW226991   6.444   3.364   0.857
 8698SOL     OW26992   6.272   5.710   3.970
 8698SOL    HW126993   6.178   5.723   3.938
 8698SOL    HW226994   6.288   5.614   3.990
 8699SOL     OW26995   1.362   2.706   5.359
 8699SOL    HW126996   1.390   2.802   5.365
 8699SOL    HW226997   1.320   2.678   5.446
 8700SOL     OW26998   1.940   1.423   4.718
 8700SOL    HW126999   1.893   1.435   4.805
 8700SOL    HW227000   1.902   1.485   4.650
 8701SOL     OW27001   1.568   0.339   6.879
 8701SOL    HW127002   1.609   0.325   6.789
 8701SOL    HW227003   1.606   0.273   6.944
 8702SOL     OW27004   5.525   5.089   0.354
 8702SOL    HW127005   5.506   5.114   0.259
 8702SOL    HW227006   5.621   5.107   0.376
 8703SOL     OW27007   2.460   5.505   1.019
 8703SOL    HW127008   2.412   5.589   1.044
 8703SOL    HW227009   2.515   5.520   0.937
 8704SOL     OW27010   5.903   3.680   2.591
 8704SOL    HW127011   5.999   3.690   2.563
 8704SOL    HW227012   5.845   3.682   2.510
 8705SOL     OW27013   4.941   0.798   0.725
 8705SOL    HW127014   4.919   0.735   0.651
 8705SOL    HW227015   4.917   0.756   0.813
 8706SOL     OW27016   4.757   1.974   6.135
 8706SOL    HW127017   4.749   1.944   6.230
 8706SOL    HW227018   4.706   1.912   6.076
 8707SOL     OW27019   5.662   2.143   6.951
 8707SOL    HW127020   5.704   2.062   6.991
 8707SOL    HW227021   5.566   2.146   6.977
 8708SOL     OW27022   4.250   2.273   2.117
 8708SOL    HW127023   4.331   2.231   2.158
 8708SOL    HW227024   4.170   2.217   2.136
 8709SOL     OW27025   6.901   5.989   6.149
 8709SOL    HW127026   6.995   5.967   6.175
 8709SOL    HW227027   6.838   5.923   6.190
 8710SOL     OW27028   2.115   3.834   3.252
 8710SOL    HW127029   2.152   3.742   3.242
 8710SOL    HW227030   2.046   3.850   3.181
 8711SOL     OW27031   0.064   5.702   2.483
 8711SOL    HW127032   0.093   5.786   2.529
 8711SOL    HW227033   0.048   5.721   2.386
 8712SOL     OW27034   4.213   2.318   4.197
 8712SOL    HW127035   4.267   2.308   4.113
 8712SOL    HW227036   4.233   2.406   4.239
 8713SOL     OW27037   0.826   4.453   3.661
 8713SOL    HW127038   0.786   4.544   3.652
 8713SOL    HW227039   0.785   4.391   3.594
 8714SOL     OW27040   0.410   1.075   6.017
 8714SOL    HW127041   0.405   1.026   5.930
 8714SOL    HW227042   0.496   1.052   6.063
 8715SOL     OW27043   4.870   0.004   0.676
 8715SOL    HW127044   4.892   0.070   0.748
 8715SOL    HW227045   4.869   6.929   0.715
 8716SOL     OW27046   0.706   0.555   1.557
 8716SOL    HW127047   0.671   0.508   1.638
 8716SOL    HW227048   0.631   0.604   1.513
 8717SOL     OW27049   4.095   3.217   2.945
 8717SOL    HW127050   4.036   3.153   2.896
 8717SOL    HW227051   4.110   3.298   2.888
 8718SOL     OW27052   0.655   3.290   5.777
 8718SOL    HW127053   0.677   3.384   5.751
 8718SOL    HW227054   0.737   3.233   5.769
 8719SOL     OW27055   2.094   6.930   6.227
 8719SOL    HW127056   2.063   6.835   6.218
 8719SOL    HW227057   2.025   6.992   6.191
 8720SOL     OW27058   6.654   4.911   5.531
 8720SOL    HW127059   6.563   4.942   5.559
 8720SOL    HW227060   6.707   4.886   5.612
 8721SOL     OW27061   5.758   2.236   3.720
 8721SOL    HW127062   5.702   2.162   3.682
 8721SOL    HW227063   5.845   2.241   3.672
 8722SOL     OW27064   3.689   0.634   0.500
 8722SOL    HW127065   3.720   0.703   0.565
 8722SOL    HW227066   3.627   0.676   0.434
 8723SOL     OW27067   5.548   5.701   1.176
 8723SOL    HW127068   5.502   5.789   1.176
 8723SOL    HW227069   5.548   5.664   1.269
 8724SOL     OW27070   6.208   0.053   5.310
 8724SOL    HW127071   6.303   0.044   5.280
 8724SOL    HW227072   6.200   0.133   5.370
 8725SOL     OW27073   2.427   6.806   6.603
 8725SOL    HW127074   2.360   6.818   6.676
 8725SOL    HW227075   2.397   6.856   6.522
 8726SOL     OW27076   6.431   0.852   1.665
 8726SOL    HW127077   6.415   0.902   1.579
 8726SOL    HW227078   6.377   0.893   1.738
 8727SOL     OW27079   0.258   6.716   1.900
 8727SOL    HW127080   0.320   6.648   1.860
 8727SOL    HW227081   0.307   6.802   1.913
 8728SOL     OW27082   3.934   0.051   4.464
 8728SOL    HW127083   4.019   0.090   4.501
 8728SOL    HW227084   3.947   6.971   4.448
 8729SOL     OW27085   4.517   5.910   3.342
 8729SOL    HW127086   4.424   5.940   3.362
 8729SOL    HW227087   4.582   5.984   3.360
 8730SOL     OW27088   6.553   4.238   2.075
 8730SOL    HW127089   6.458   4.235   2.106
 8730SOL    HW227090   6.613   4.202   2.147
 8731SOL     OW27091   2.223   1.741   2.745
 8731SOL    HW127092   2.169   1.678   2.688
 8731SOL    HW227093   2.165   1.779   2.817
 8732SOL     OW27094   4.908   4.297   1.823
 8732SOL    HW127095   4.995   4.295   1.872
 8732SOL    HW227096   4.852   4.219   1.851
 8733SOL     OW27097   1.297   5.633   3.368
 8733SOL    HW127098   1.356   5.699   3.415
 8733SOL    HW227099   1.221   5.681   3.324
 8734SOL     OW27100   0.910   4.855   1.714
 8734SOL    HW127101   0.942   4.880   1.805
 8734SOL    HW227102   0.942   4.762   1.692
 8735SOL     OW27103   0.795   1.778   6.669
 8735SOL    HW127104   0.853   1.791   6.589
 8735SOL    HW227105   0.829   1.833   6.745
 8736SOL     OW27106   0.505   6.566   6.783
 8736SOL    HW127107   0.584   6.537   6.730
 8736SOL    HW227108   0.526   6.652   6.829
 8737SOL     OW27109   3.007   6.855   5.824
 8737SOL    HW127110   3.045   6.793   5.893
 8737SOL    HW227111   3.019   6.950   5.853
 8738SOL     OW27112   1.835   4.566   3.514
 8738SOL    HW127113   1.871   4.493   3.572
 8738SOL    HW227114   1.846   4.654   3.561
 8739SOL     OW27115   6.600   5.116   5.941
 8739SOL    HW127116   6.518   5.164   5.909
 8739SOL    HW227117   6.646   5.173   6.009
 8740SOL     OW27118   5.110   1.151   5.326
 8740SOL    HW127119   5.069   1.101   5.402
 8740SOL    HW227120   5.108   1.094   5.244
 8741SOL     OW27121   2.614   0.864   2.315
 8741SOL    HW127122   2.563   0.784   2.346
 8741SOL    HW227123   2.567   0.947   2.347
 8742SOL     OW27124   5.941   5.936   1.620
 8742SOL    HW127125   5.963   5.839   1.628
 8742SOL    HW227126   5.883   5.951   1.540
 8743SOL     OW27127   2.343   6.580   2.700
 8743SOL    HW127128   2.345   6.663   2.644
 8743SOL    HW227129   2.255   6.574   2.747
 8744SOL     OW27130   4.062   2.516   6.025
 8744SOL    HW127131   3.966   2.545   6.028
 8744SOL    HW227132   4.086   2.491   5.931
 8745SOL     OW27133   6.174   2.557   6.064
 8745SOL    HW127134   6.264   2.595   6.085
 8745SOL    HW227135   6.174   2.459   6.085
 8746SOL     OW27136   4.464   4.215   5.426
 8746SOL    HW127137   4.520   4.139   5.394
 8746SOL    HW227138   4.383   4.180   5.472
 8747SOL     OW27139   0.230   3.142   3.006
 8747SOL    HW127140   0.243   3.098   2.917
 8747SOL    HW227141   0.237   3.241   2.996
 8748SOL     OW27142   0.066   1.486   5.779
 8748SOL    HW127143   0.070   1.417   5.851
 8748SOL    HW227144   6.988   1.506   5.757
 8749SOL     OW27145   2.922   0.151   5.671
 8749SOL    HW127146   2.960   0.099   5.594
 8749SOL    HW227147   2.968   0.124   5.756
 8750SOL     OW27148   3.111   3.161   5.174
 8750SOL    HW127149   3.198   3.149   5.127
 8750SOL    HW227150   3.110   3.250   5.220
 8751SOL     OW27151   6.435   0.331   2.436
 8751SOL    HW127152   6.402   0.289   2.521
 8751SOL    HW227153   6.504   0.399   2.458
 8752SOL     OW27154   3.072   4.141   6.764
 8752SOL    HW127155   3.004   4.092   6.708
 8752SOL    HW227156   3.025   4.206   6.823
 8753SOL     OW27157   4.872   1.711   4.664
 8753SOL    HW127158   4.961   1.706   4.709
 8753SOL    HW227159   4.808   1.761   4.722
 8754SOL     OW27160   1.558   1.864   5.906
 8754SOL    HW127161   1.473   1.832   5.950
 8754SOL    HW227162   1.636   1.826   5.955
 8755SOL     OW27163   2.253   1.242   6.395
 8755SOL    HW127164   2.217   1.336   6.390
 8755SOL    HW227165   2.305   1.231   6.480
 8756SOL     OW27166   2.142   3.773   2.896
 8756SOL    HW127167   2.156   3.704   2.967
 8756SOL    HW227168   2.208   3.758   2.822
 8757SOL     OW27169   5.564   6.586   5.504
 8757SOL    HW127170   5.546   6.664   5.443
 8757SOL    HW227171   5.477   6.544   5.531
 8758SOL     OW27172   4.711   6.205   1.968
 8758SOL    HW127173   4.796   6.153   1.965
 8758SOL    HW227174   4.653   6.170   2.041
 8759SOL     OW27175   4.156   2.268   6.677
 8759SOL    HW127176   4.151   2.334   6.603
 8759SOL    HW227177   4.099   2.299   6.753
 8760SOL     OW27178   2.139   1.744   5.181
 8760SOL    HW127179   2.100   1.836   5.193
 8760SOL    HW227180   2.178   1.713   5.268
 8761SOL     OW27181   3.764   0.866   1.414
 8761SOL    HW127182   3.676   0.874   1.461
 8761SOL    HW227183   3.837   0.862   1.482
 8762SOL     OW27184   0.964   3.594   3.075
 8762SOL    HW127185   0.912   3.525   3.026
 8762SOL    HW227186   0.989   3.559   3.166
 8763SOL     OW27187   6.030   5.641   5.007
 8763SOL    HW127188   5.999   5.590   4.927
 8763SOL    HW227189   6.121   5.608   5.034
 8764SOL     OW27190   5.060   0.733   4.367
 8764SOL    HW127191   4.991   0.675   4.409
 8764SOL    HW227192   5.015   0.802   4.310
 8765SOL     OW27193   6.196   6.940   4.866
 8765SOL    HW127194   6.262   7.014   4.881
 8765SOL    HW227195   6.220   6.862   4.924
 8766SOL     OW27196   3.991   5.201   2.862
 8766SOL    HW127197   3.977   5.133   2.790
 8766SOL    HW227198   3.939   5.284   2.841
 8767SOL     OW27199   4.209   0.288   3.176
 8767SOL    HW127200   4.242   0.239   3.256
 8767SOL    HW227201   4.282   0.294   3.108
 8768SOL     OW27202   1.339   2.922   0.314
 8768SOL    HW127203   1.318   2.931   0.411
 8768SOL    HW227204   1.432   2.886   0.303
 8769SOL     OW27205   1.107   0.336   4.455
 8769SOL    HW127206   1.192   0.347   4.506
 8769SOL    HW227207   1.084   0.422   4.409
 8770SOL     OW27208   4.923   4.434   2.142
 8770SOL    HW127209   4.981   4.404   2.066
 8770SOL    HW227210   4.978   4.481   2.210
 8771SOL     OW27211   1.483   0.459   5.490
 8771SOL    HW127212   1.538   0.493   5.414
 8771SOL    HW227213   1.501   0.515   5.571
 8772SOL     OW27214   6.312   6.664   0.304
 8772SOL    HW127215   6.387   6.599   0.293
 8772SOL    HW227216   6.348   6.751   0.338
 8773SOL     OW27217   4.908   1.752   3.425
 8773SOL    HW127218   4.981   1.812   3.393
 8773SOL    HW227219   4.897   1.761   3.524
 8774SOL     OW27220   2.423   1.632   0.373
 8774SOL    HW127221   2.334   1.617   0.330
 8774SOL    HW227222   2.487   1.561   0.344
 8775SOL     OW27223   6.351   0.507   4.554
 8775SOL    HW127224   6.277   0.440   4.554
 8775SOL    HW227225   6.315   0.597   4.530
 8776SOL     OW27226   2.872   3.514   4.591
 8776SOL    HW127227   2.849   3.469   4.505
 8776SOL    HW227228   2.879   3.613   4.577
 8777SOL     OW27229   0.039   4.249   1.202
 8777SOL    HW127230   0.005   4.327   1.150
 8777SOL    HW227231   0.115   4.206   1.151
 8778SOL     OW27232   6.528   2.440   4.509
 8778SOL    HW127233   6.539   2.352   4.555
 8778SOL    HW227234   6.617   2.485   4.501
 8779SOL     OW27235   2.317   5.174   1.848
 8779SOL    HW127236   2.305   5.094   1.790
 8779SOL    HW227237   2.359   5.146   1.935
 8780SOL     OW27238   1.420   5.657   3.740
 8780SOL    HW127239   1.434   5.714   3.660
 8780SOL    HW227240   1.389   5.566   3.711
 8781SOL     OW27241   6.488   2.413   4.235
 8781SOL    HW127242   6.495   2.430   4.334
 8781SOL    HW227243   6.579   2.421   4.194
 8782SOL     OW27244   5.297   0.654   1.785
 8782SOL    HW127245   5.351   0.578   1.750
 8782SOL    HW227246   5.229   0.681   1.716
 8783SOL     OW27247   5.899   3.461   3.646
 8783SOL    HW127248   5.908   3.372   3.600
 8783SOL    HW227249   5.985   3.483   3.692
 8784SOL     OW27250   5.018   4.306   4.897
 8784SOL    HW127251   4.951   4.267   4.960
 8784SOL    HW227252   4.971   4.355   4.824
 8785SOL     OW27253   6.101   3.496   0.093
 8785SOL    HW127254   6.193   3.488   0.055
 8785SOL    HW227255   6.070   3.590   0.085
 8786SOL     OW27256   2.861   6.292   0.180
 8786SOL    HW127257   2.907   6.261   0.263
 8786SOL    HW227258   2.821   6.383   0.196
 8787SOL     OW27259   1.742   2.871   2.056
 8787SOL    HW127260   1.720   2.958   2.011
 8787SOL    HW227261   1.676   2.854   2.129
 8788SOL     OW27262   6.659   1.940   5.429
 8788SOL    HW127263   6.610   1.906   5.509
 8788SOL    HW227264   6.616   1.905   5.346
 8789SOL     OW27265   6.240   0.048   5.647
 8789SOL    HW127266   6.217   0.135   5.603
 8789SOL    HW227267   6.233   0.059   5.746
 8790SOL     OW27268   6.934   1.149   0.382
 8790SOL    HW127269   6.910   1.192   0.469
 8790SOL    HW227270   6.894   1.201   0.307
 8791SOL     OW27271   5.391   6.917   5.108
 8791SOL    HW127272   5.423   7.001   5.152
 8791SOL    HW227273   5.292   6.911   5.114
 8792SOL     OW27274   4.160   6.399   3.013
 8792SOL    HW127275   4.096   6.383   3.088
 8792SOL    HW227276   4.220   6.476   3.036
 8793SOL     OW27277   1.884   5.532   3.724
 8793SOL    HW127278   1.961   5.565   3.778
 8793SOL    HW227279   1.803   5.586   3.746
 8794SOL     OW27280   3.845   6.758   1.810
 8794SOL    HW127281   3.824   6.662   1.795
 8794SOL    HW227282   3.907   6.767   1.888
 8795SOL     OW27283   1.409   6.686   5.111
 8795SOL    HW127284   1.421   6.597   5.066
 8795SOL    HW227285   1.435   6.678   5.207
 8796SOL     OW27286   4.104   0.548   5.246
 8796SOL    HW127287   4.026   0.486   5.233
 8796SOL    HW227288   4.177   0.499   5.294
 8797SOL     OW27289   0.835   6.864   5.176
 8797SOL    HW127290   0.847   6.781   5.230
 8797SOL    HW227291   0.859   6.845   5.080
 8798SOL     OW27292   5.059   4.497   5.173
 8798SOL    HW127293   5.122   4.487   5.096
 8798SOL    HW227294   5.031   4.593   5.182
 8799SOL     OW27295   2.051   4.906   3.106
 8799SOL    HW127296   2.121   4.928   3.174
 8799SOL    HW227297   2.037   4.807   3.103
 8800SOL     OW27298   6.016   3.880   4.874
 8800SOL    HW127299   6.083   3.860   4.803
 8800SOL    HW227300   5.935   3.921   4.832
 8801SOL     OW27301   1.810   1.557   4.533
 8801SOL    HW127302   1.778   1.502   4.455
 8801SOL    HW227303   1.747   1.634   4.547
 8802SOL     OW27304   0.980   0.434   0.727
 8802SOL    HW127305   1.001   0.510   0.666
 8802SOL    HW227306   1.043   0.358   0.711
 8803SOL     OW27307   1.606   4.977   5.995
 8803SOL    HW127308   1.662   4.895   6.003
 8803SOL    HW227309   1.578   5.008   6.086
 8804SOL     OW27310   2.939   0.697   1.952
 8804SOL    HW127311   2.932   0.634   2.029
 8804SOL    HW227312   3.030   0.688   1.909
 8805SOL     OW27313   2.367   0.579   4.000
 8805SOL    HW127314   2.397   0.622   3.915
 8805SOL    HW227315   2.436   0.513   4.030
 8806SOL     OW27316   1.718   5.272   1.941
 8806SOL    HW127317   1.748   5.333   2.015
 8806SOL    HW227318   1.686   5.328   1.864
 8807SOL     OW27319   6.646   6.180   6.059
 8807SOL    HW127320   6.702   6.221   6.130
 8807SOL    HW227321   6.704   6.152   5.982
 8808SOL     OW27322   5.504   1.649   1.018
 8808SOL    HW127323   5.515   1.719   0.947
 8808SOL    HW227324   5.407   1.626   1.026
 8809SOL     OW27325   5.282   4.261   2.687
 8809SOL    HW127326   5.351   4.281   2.757
 8809SOL    HW227327   5.324   4.211   2.611
 8810SOL     OW27328   5.530   1.625   5.768
 8810SOL    HW127329   5.477   1.683   5.830
 8810SOL    HW227330   5.563   1.544   5.817
 8811SOL     OW27331   2.941   1.925   3.926
 8811SOL    HW127332   2.992   1.989   3.983
 8811SOL    HW227333   3.002   1.854   3.892
 8812SOL     OW27334   1.369   0.790   0.691
 8812SOL    HW127335   1.406   0.759   0.778
 8812SOL    HW227336   1.424   0.753   0.616
 8813SOL     OW27337   1.123   4.643   1.551
 8813SOL    HW127338   1.213   4.684   1.560
 8813SOL    HW227339   1.081   4.633   1.641
 8814SOL     OW27340   6.395   0.758   0.756
 8814SOL    HW127341   6.446   0.809   0.826
 8814SOL    HW227342   6.453   0.685   0.720
 8815SOL     OW27343   6.924   6.396   0.861
 8815SOL    HW127344   6.965   6.305   0.846
 8815SOL    HW227345   6.997   6.465   0.863
 8816SOL     OW27346   1.870   0.138   0.621
 8816SOL    HW127347   1.933   0.095   0.686
 8816SOL    HW227348   1.916   0.216   0.578
 8817SOL     OW27349   0.547   5.985   5.917
 8817SOL    HW127350   0.562   5.887   5.932
 8817SOL    HW227351   0.593   6.013   5.833
 8818SOL     OW27352   0.352   3.633   3.405
 8818SOL    HW127353   0.300   3.654   3.488
 8818SOL    HW227354   0.320   3.691   3.330
 8819SOL     OW27355   4.357   5.344   4.084
 8819SOL    HW127356   4.427   5.310   4.146
 8819SOL    HW227357   4.328   5.435   4.114
 8820SOL     OW27358   2.447   1.718   4.318
 8820SOL    HW127359   2.525   1.694   4.375
 8820SOL    HW227360   2.412   1.808   4.345
 8821SOL     OW27361   1.791   6.048   0.535
 8821SOL    HW127362   1.722   6.032   0.605
 8821SOL    HW227363   1.851   5.968   0.528
 8822SOL     OW27364   1.060   0.310   3.253
 8822SOL    HW127365   0.974   0.319   3.304
 8822SOL    HW227366   1.067   0.218   3.214
 8823SOL     OW27367   2.108   0.823   0.966
 8823SOL    HW127368   2.182   0.819   1.033
 8823SOL    HW227369   2.053   0.740   0.971
 8824SOL     OW27370   1.827   3.776   1.144
 8824SOL    HW127371   1.819   3.707   1.073
 8824SOL    HW227372   1.736   3.805   1.174
 8825SOL     OW27373   1.815   0.943   3.514
 8825SOL    HW127374   1.818   0.914   3.610
 8825SOL    HW227375   1.720   0.952   3.485
 8826SOL     OW27376   6.324   2.349   0.456
 8826SOL    HW127377   6.389   2.273   0.448
 8826SOL    HW227378   6.372   2.429   0.493
 8827SOL     OW27379   3.284   1.632   2.995
 8827SOL    HW127380   3.314   1.601   3.085
 8827SOL    HW227381   3.197   1.682   3.004
 8828SOL     OW27382   4.442   5.483   4.387
 8828SOL    HW127383   4.424   5.385   4.391
 8828SOL    HW227384   4.541   5.499   4.382
 8829SOL     OW27385   0.297   2.720   0.114
 8829SOL    HW127386   0.234   2.704   0.190
 8829SOL    HW227387   0.309   2.636   0.062
 8830SOL     OW27388   0.562   1.498   0.992
 8830SOL    HW127389   0.634   1.510   1.060
 8830SOL    HW227390   0.479   1.465   1.037
 8831SOL     OW27391   5.208   1.180   3.458
 8831SOL    HW127392   5.116   1.207   3.429
 8831SOL    HW227393   5.271   1.192   3.382
 8832SOL     OW27394   6.162   6.139   2.849
 8832SOL    HW127395   6.151   6.238   2.836
 8832SOL    HW227396   6.236   6.123   2.915
 8833SOL     OW27397   1.928   6.467   5.534
 8833SOL    HW127398   1.986   6.429   5.607
 8833SOL    HW227399   1.984   6.519   5.470
 8834SOL     OW27400   5.458   3.889   4.346
 8834SOL    HW127401   5.375   3.890   4.402
 8834SOL    HW227402   5.454   3.964   4.281
 8835SOL     OW27403   6.223   0.698   5.936
 8835SOL    HW127404   6.298   0.638   5.965
 8835SOL    HW227405   6.254   0.759   5.864
 8836SOL     OW27406   4.392   1.094   7.013
 8836SOL    HW127407   4.327   1.098   0.071
 8836SOL    HW227408   4.454   1.172   7.017
 8837SOL     OW27409   0.603   6.635   2.642
 8837SOL    HW127410   0.513   6.678   2.641
 8837SOL    HW227411   0.606   6.567   2.715
 8838SOL     OW27412   3.146   4.919   3.177
 8838SOL    HW127413   3.164   4.916   3.078
 8838SOL    HW227414   3.130   5.014   3.205
 8839SOL     OW27415   5.348   5.450   2.078
 8839SOL    HW127416   5.312   5.502   2.000
 8839SOL    HW227417   5.310   5.358   2.077
 8840SOL     OW27418   6.666   2.228   2.082
 8840SOL    HW127419   6.720   2.312   2.082
 8840SOL    HW227420   6.700   2.166   2.152
 8841SOL     OW27421   1.487   0.832   4.809
 8841SOL    HW127422   1.577   0.788   4.807
 8841SOL    HW227423   1.425   0.778   4.867
 8842SOL     OW27424   3.728   2.854   0.695
 8842SOL    HW127425   3.679   2.833   0.611
 8842SOL    HW227426   3.691   2.937   0.736
 8843SOL     OW27427   1.894   2.999   5.068
 8843SOL    HW127428   1.975   2.947   5.093
 8843SOL    HW227429   1.920   3.091   5.040
 8844SOL     OW27430   5.353   1.000   0.278
 8844SOL    HW127431   5.433   1.035   0.328
 8844SOL    HW227432   5.335   0.906   0.305
 8845SOL     OW27433   4.658   4.424   0.003
 8845SOL    HW127434   4.623   4.469   6.938
 8845SOL    HW227435   4.722   4.352   6.994
 8846SOL     OW27436   2.012   5.867   3.974
 8846SOL    HW127437   2.069   5.790   3.946
 8846SOL    HW227438   2.053   5.912   4.053
 8847SOL     OW27439   2.647   0.736   2.962
 8847SOL    HW127440   2.595   0.687   2.892
 8847SOL    HW227441   2.745   0.719   2.948
 8848SOL     OW27442   2.797   0.767   1.385
 8848SOL    HW127443   2.773   0.717   1.303
 8848SOL    HW227444   2.791   0.866   1.368
 8849SOL     OW27445   3.103   6.376   3.207
 8849SOL    HW127446   3.057   6.369   3.295
 8849SOL    HW227447   3.060   6.449   3.153
 8850SOL     OW27448   1.207   1.946   0.144
 8850SOL    HW127449   1.155   1.875   0.192
 8850SOL    HW227450   1.175   1.952   0.050
 8851SOL     OW27451   1.680   4.299   2.166
 8851SOL    HW127452   1.699   4.339   2.256
 8851SOL    HW227453   1.734   4.216   2.154
 8852SOL     OW27454   1.020   1.935   5.341
 8852SOL    HW127455   1.071   1.911   5.259
 8852SOL    HW227456   1.084   1.950   5.417
 8853SOL     OW27457   2.699   0.818   2.025
 8853SOL    HW127458   2.796   0.800   2.009
 8853SOL    HW227459   2.682   0.820   2.123
 8854SOL     OW27460   1.889   3.155   4.546
 8854SOL    HW127461   1.951   3.121   4.617
 8854SOL    HW227462   1.923   3.243   4.511
 8855SOL     OW27463   6.329   5.055   1.507
 8855SOL    HW127464   6.308   5.142   1.552
 8855SOL    HW227465   6.428   5.040   1.508
 8856SOL     OW27466   6.843   6.246   6.726
 8856SOL    HW127467   6.934   6.257   6.687
 8856SOL    HW227468   6.776   6.240   6.653
 8857SOL     OW27469   6.754   1.806   5.010
 8857SOL    HW127470   6.839   1.853   4.988
 8857SOL    HW227471   6.766   1.708   4.994
 8858SOL     OW27472   0.279   4.997   4.708
 8858SOL    HW127473   0.281   4.969   4.613
 8858SOL    HW227474   0.296   4.917   4.767
 8859SOL     OW27475   1.103   1.144   3.843
 8859SOL    HW127476   1.140   1.182   3.928
 8859SOL    HW227477   1.025   1.085   3.863
 8860SOL     OW27478   6.723   2.788   1.618
 8860SOL    HW127479   6.667   2.801   1.700
 8860SOL    HW227480   6.781   2.708   1.629
 8861SOL     OW27481   3.758   1.238   0.338
 8861SOL    HW127482   3.784   1.335   0.332
 8861SOL    HW227483   3.840   1.182   0.351
 8862SOL     OW27484   5.125   6.302   3.651
 8862SOL    HW127485   5.040   6.256   3.626
 8862SOL    HW227486   5.104   6.378   3.712
 8863SOL     OW27487   1.831   5.136   3.234
 8863SOL    HW127488   1.746   5.178   3.265
 8863SOL    HW227489   1.907   5.171   3.288
 8864SOL     OW27490   4.437   4.127   6.914
 8864SOL    HW127491   4.478   4.204   6.864
 8864SOL    HW227492   4.441   4.045   6.857
 8865SOL     OW27493   3.027   0.830   5.527
 8865SOL    HW127494   2.987   0.786   5.446
 8865SOL    HW227495   3.104   0.887   5.499
 8866SOL     OW27496   5.192   6.784   3.095
 8866SOL    HW127497   5.261   6.713   3.078
 8866SOL    HW227498   5.144   6.764   3.180
 8867SOL     OW27499   6.446   3.839   3.701
 8867SOL    HW127500   6.366   3.827   3.760
 8867SOL    HW227501   6.422   3.896   3.622
 8868SOL     OW27502   6.758   3.796   2.516
 8868SOL    HW127503   6.700   3.874   2.491
 8868SOL    HW227504   6.800   3.813   2.605
 8869SOL     OW27505   3.912   6.038   4.874
 8869SOL    HW127506   3.842   5.970   4.849
 8869SOL    HW227507   3.879   6.130   4.853
 8870SOL     OW27508   1.929   6.796   1.473
 8870SOL    HW127509   1.840   6.797   1.520
 8870SOL    HW227510   2.000   6.829   1.535
 8871SOL     OW27511   1.916   1.238   3.270
 8871SOL    HW127512   1.829   1.230   3.221
 8871SOL    HW227513   1.963   1.321   3.240
 8872SOL     OW27514   1.182   4.832   6.534
 8872SOL    HW127515   1.154   4.884   6.453
 8872SOL    HW227516   1.109   4.770   6.561
 8873SOL     OW27517   1.568   0.313   1.474
 8873SOL    HW127518   1.589   0.410   1.459
 8873SOL    HW227519   1.557   0.296   1.572
 8874SOL     OW27520   1.268   6.020   2.020
 8874SOL    HW127521   1.250   6.096   1.957
 8874SOL    HW227522   1.286   6.057   2.112
 8875SOL     OW27523   0.146   3.419   3.925
 8875SOL    HW127524   0.058   3.373   3.932
 8875SOL    HW227525   0.140   3.510   3.964
 8876SOL     OW27526   2.444   0.949   6.775
 8876SOL    HW127527   2.517   0.969   6.710
 8876SOL    HW227528   2.457   0.857   6.812
 8877SOL     OW27529   1.719   3.597   2.909
 8877SOL    HW127530   1.714   3.697   2.905
 8877SOL    HW227531   1.760   3.562   2.825
 8878SOL     OW27532   3.507   4.758   0.500
 8878SOL    HW127533   3.513   4.760   0.600
 8878SOL    HW227534   3.503   4.663   0.469
 8879SOL     OW27535   6.416   4.826   2.265
 8879SOL    HW127536   6.506   4.867   2.248
 8879SOL    HW227537   6.415   4.784   2.356
 8880SOL     OW27538   4.223   6.334   4.300
 8880SOL    HW127539   4.321   6.339   4.316
 8880SOL    HW227540   4.178   6.297   4.382
 8881SOL     OW27541   5.025   5.239   4.471
 8881SOL    HW127542   5.077   5.212   4.389
 8881SOL    HW227543   5.051   5.332   4.497
 8882SOL     OW27544   3.470   0.751   0.381
 8882SOL    HW127545   3.453   0.703   0.295
 8882SOL    HW227546   3.428   0.841   0.377
 8883SOL     OW27547   0.862   5.858   5.780
 8883SOL    HW127548   0.932   5.835   5.713
 8883SOL    HW227549   0.781   5.893   5.733
 8884SOL     OW27550   6.154   3.881   5.225
 8884SOL    HW127551   6.073   3.860   5.170
 8884SOL    HW227552   6.165   3.980   5.233
 8885SOL     OW27553   5.102   4.895   0.274
 8885SOL    HW127554   5.086   4.988   0.307
 8885SOL    HW227555   5.144   4.841   0.347
 8886SOL     OW27556   3.822   5.531   5.953
 8886SOL    HW127557   3.817   5.453   5.889
 8886SOL    HW227558   3.801   5.499   6.045
 8887SOL     OW27559   3.951   1.285   0.832
 8887SOL    HW127560   4.032   1.322   0.786
 8887SOL    HW227561   3.922   1.201   0.786
 8888SOL     OW27562   2.491   2.264   3.749
 8888SOL    HW127563   2.561   2.194   3.763
 8888SOL    HW227564   2.409   2.222   3.709
 8889SOL     OW27565   6.839   6.251   6.254
 8889SOL    HW127566   6.874   6.161   6.230
 8889SOL    HW227567   6.911   6.320   6.239
 8890SOL     OW27568   0.778   6.079   6.701
 8890SOL    HW127569   0.860   6.038   6.661
 8890SOL    HW227570   0.699   6.022   6.681
 8891SOL     OW27571   4.356   4.337   0.081
 8891SOL    HW127572   4.390   4.263   0.023
 8891SOL    HW227573   4.382   4.320   0.176
 8892SOL     OW27574   3.796   4.880   3.578
 8892SOL    HW127575   3.803   4.968   3.625
 8892SOL    HW227576   3.703   4.869   3.541
 8893SOL     OW27577   1.315   5.448   5.251
 8893SOL    HW127578   1.266   5.437   5.164
 8893SOL    HW227579   1.399   5.393   5.249
 8894SOL     OW27580   4.108   1.603   0.085
 8894SOL    HW127581   4.059   1.523   0.052
 8894SOL    HW227582   4.191   1.617   0.031
 8895SOL     OW27583   0.595   2.926   0.650
 8895SOL    HW127584   0.579   2.895   0.556
 8895SOL    HW227585   0.518   2.899   0.707
 8896SOL     OW27586   1.656   2.918   4.961
 8896SOL    HW127587   1.740   2.948   5.007
 8896SOL    HW227588   1.639   2.977   4.881
 8897SOL     OW27589   2.162   3.981   3.544
 8897SOL    HW127590   2.207   3.895   3.519
 8897SOL    HW227591   2.063   3.967   3.547
 8898SOL     OW27592   5.549   3.992   2.256
 8898SOL    HW127593   5.573   4.085   2.285
 8898SOL    HW227594   5.629   3.949   2.214
 8899SOL     OW27595   0.144   4.591   6.874
 8899SOL    HW127596   0.215   4.537   6.829
 8899SOL    HW227597   0.152   4.580   6.973
 8900SOL     OW27598   5.845   2.416   3.214
 8900SOL    HW127599   5.819   2.459   3.127
 8900SOL    HW227600   5.801   2.464   3.289
 8901SOL     OW27601   1.045   1.550   3.479
 8901SOL    HW127602   1.102   1.478   3.441
 8901SOL    HW227603   1.102   1.629   3.502
 8902SOL     OW27604   1.874   5.553   6.640
 8902SOL    HW127605   1.926   5.572   6.557
 8902SOL    HW227606   1.937   5.551   6.718
 8903SOL     OW27607   1.285   2.060   4.686
 8903SOL    HW127608   1.383   2.056   4.706
 8903SOL    HW227609   1.271   2.103   4.597
 8904SOL     OW27610   0.979   2.372   3.102
 8904SOL    HW127611   1.065   2.338   3.064
 8904SOL    HW227612   0.902   2.333   3.051
 8905SOL     OW27613   1.735   3.389   2.531
 8905SOL    HW127614   1.650   3.433   2.558
 8905SOL    HW227615   1.750   3.400   2.433
 8906SOL     OW27616   1.208   6.145   1.068
 8906SOL    HW127617   1.261   6.085   1.127
 8906SOL    HW227618   1.270   6.208   1.021
 8907SOL     OW27619   3.030   2.623   5.305
 8907SOL    HW127620   3.088   2.704   5.296
 8907SOL    HW227621   3.077   2.553   5.359
 8908SOL     OW27622   1.566   4.719   0.084
 8908SOL    HW127623   1.545   4.658   0.008
 8908SOL    HW227624   1.549   4.814   0.057
 8909SOL     OW27625   2.938   0.821   6.277
 8909SOL    HW127626   2.923   0.730   6.317
 8909SOL    HW227627   2.958   0.812   6.180
 8910SOL     OW27628   0.137   3.269   5.348
 8910SOL    HW127629   0.230   3.237   5.368
 8910SOL    HW227630   0.074   3.191   5.350
 8911SOL     OW27631   5.633   2.866   4.716
 8911SOL    HW127632   5.606   2.856   4.811
 8911SOL    HW227633   5.656   2.776   4.678
 8912SOL     OW27634   2.901   2.820   5.861
 8912SOL    HW127635   2.877   2.836   5.766
 8912SOL    HW227636   3.000   2.812   5.869
 8913SOL     OW27637   4.579   5.222   0.071
 8913SOL    HW127638   4.621   5.191   0.157
 8913SOL    HW227639   4.607   5.316   0.053
 8914SOL     OW27640   4.842   0.053   4.704
 8914SOL    HW127641   4.754   0.068   4.750
 8914SOL    HW227642   4.897   7.008   4.759
 8915SOL     OW27643   1.483   1.958   4.403
 8915SOL    HW127644   1.521   1.893   4.469
 8915SOL    HW227645   1.503   1.927   4.310
 8916SOL     OW27646   5.869   2.024   6.692
 8916SOL    HW127647   5.846   2.038   6.596
 8916SOL    HW227648   5.848   1.929   6.718
 8917SOL     OW27649   5.423   1.993   0.426
 8917SOL    HW127650   5.480   2.046   0.364
 8917SOL    HW227651   5.404   2.047   0.508
 8918SOL     OW27652   1.700   5.191   0.900
 8918SOL    HW127653   1.671   5.100   0.930
 8918SOL    HW227654   1.701   5.253   0.979
 8919SOL     OW27655   5.034   4.581   6.313
 8919SOL    HW127656   4.946   4.606   6.273
 8919SOL    HW227657   5.021   4.558   6.410
 8920SOL     OW27658   0.746   2.049   6.430
 8920SOL    HW127659   0.662   1.995   6.423
 8920SOL    HW227660   0.815   2.011   6.367
 8921SOL     OW27661   1.717   2.649   1.532
 8921SOL    HW127662   1.678   2.589   1.601
 8921SOL    HW227663   1.713   2.744   1.563
 8922SOL     OW27664   3.984   6.735   2.029
 8922SOL    HW127665   3.937   6.730   2.118
 8922SOL    HW227666   4.047   6.658   2.021
 8923SOL     OW27667   1.255   1.626   5.406
 8923SOL    HW127668   1.256   1.723   5.431
 8923SOL    HW227669   1.348   1.594   5.392
 8924SOL     OW27670   5.081   5.347   5.182
 8924SOL    HW127671   5.065   5.287   5.104
 8924SOL    HW227672   4.998   5.354   5.237
 8925SOL     OW27673   6.602   6.936   2.385
 8925SOL    HW127674   6.630   6.892   2.471
 8925SOL    HW227675   6.614   6.872   2.309
 8926SOL     OW27676   6.413   3.388   5.303
 8926SOL    HW127677   6.364   3.459   5.253
 8926SOL    HW227678   6.492   3.429   5.349
 8927SOL     OW27679   6.507   1.558   5.202
 8927SOL    HW127680   6.531   1.482   5.262
 8927SOL    HW227681   6.493   1.525   5.109
 8928SOL     OW27682   1.342   0.013   6.034
 8928SOL    HW127683   1.360   6.992   5.944
 8928SOL    HW227684   1.309   6.960   6.096
 8929SOL     OW27685   6.561   1.962   4.850
 8929SOL    HW127686   6.537   1.914   4.765
 8929SOL    HW227687   6.636   1.915   4.896
 8930SOL     OW27688   0.704   3.107   3.082
 8930SOL    HW127689   0.647   3.189   3.080
 8930SOL    HW227690   0.795   3.131   3.117
 8931SOL     OW27691   3.092   3.089   1.608
 8931SOL    HW127692   3.021   3.072   1.677
 8931SOL    HW227693   3.182   3.071   1.646
 8932SOL     OW27694   6.760   2.208   2.418
 8932SOL    HW127695   6.688   2.274   2.395
 8932SOL    HW227696   6.747   2.125   2.365
 8933SOL     OW27697   2.863   2.706   6.509
 8933SOL    HW127698   2.867   2.805   6.498
 8933SOL    HW227699   2.811   2.684   6.592
 8934SOL     OW27700   3.737   5.167   5.276
 8934SOL    HW127701   3.781   5.251   5.306
 8934SOL    HW227702   3.745   5.097   5.348
 8935SOL     OW27703   0.386   4.406   0.520
 8935SOL    HW127704   0.346   4.369   0.436
 8935SOL    HW227705   0.461   4.467   0.497
 8936SOL     OW27706   1.634   3.902   0.282
 8936SOL    HW127707   1.622   3.809   0.248
 8936SOL    HW227708   1.547   3.937   0.317
 8937SOL     OW27709   0.652   0.088   4.775
 8937SOL    HW127710   0.576   0.150   4.756
 8937SOL    HW227711   0.671   0.033   4.693
 8938SOL     OW27712   0.530   5.463   0.960
 8938SOL    HW127713   0.606   5.440   1.021
 8938SOL    HW227714   0.566   5.500   0.874
 8939SOL     OW27715   4.765   2.813   4.165
 8939SOL    HW127716   4.680   2.812   4.218
 8939SOL    HW227717   4.751   2.867   4.082
 8940SOL     OW27718   0.098   1.121   3.894
 8940SOL    HW127719   0.145   1.060   3.830
 8940SOL    HW227720   0.036   1.067   3.951
 8941SOL     OW27721   5.343   2.729   5.320
 8941SOL    HW127722   5.304   2.761   5.234
 8941SOL    HW227723   5.275   2.674   5.369
 8942SOL     OW27724   0.943   4.307   5.526
 8942SOL    HW127725   0.903   4.250   5.454
 8942SOL    HW227726   0.982   4.248   5.597
 8943SOL     OW27727   3.871   3.814   0.342
 8943SOL    HW127728   3.932   3.874   0.290
 8943SOL    HW227729   3.917   3.727   0.360
 8944SOL     OW27730   4.967   4.762   5.271
 8944SOL    HW127731   4.904   4.744   5.347
 8944SOL    HW227732   5.056   4.786   5.308
 8945SOL     OW27733   1.928   1.096   3.934
 8945SOL    HW127734   2.024   1.068   3.926
 8945SOL    HW227735   1.872   1.036   3.876
 8946SOL     OW27736   2.954   1.368   4.948
 8946SOL    HW127737   3.015   1.348   4.871
 8946SOL    HW227738   3.010   1.388   5.029
 8947SOL     OW27739   1.072   3.993   5.108
 8947SOL    HW127740   1.134   3.914   5.114
 8947SOL    HW227741   1.053   4.012   5.012
 8948SOL     OW27742   6.299   6.029   3.968
 8948SOL    HW127743   6.305   5.932   3.942
 8948SOL    HW227744   6.239   6.038   4.048
 8949SOL     OW27745   2.003   0.441   0.730
 8949SOL    HW127746   2.091   0.489   0.733
 8949SOL    HW227747   1.940   0.490   0.669
 8950SOL     OW27748   4.649   3.291   5.695
 8950SOL    HW127749   4.729   3.326   5.646
 8950SOL    HW227750   4.597   3.231   5.634
 8951SOL     OW27751   1.112   2.303   5.006
 8951SOL    HW127752   1.200   2.351   5.000
 8951SOL    HW227753   1.045   2.347   4.947
 8952SOL     OW27754   1.117   0.193   2.151
 8952SOL    HW127755   1.206   0.227   2.121
 8952SOL    HW227756   1.060   0.174   2.071
 8953SOL     OW27757   1.113   4.060   6.623
 8953SOL    HW127758   1.201   4.103   6.602
 8953SOL    HW227759   1.073   4.103   6.703
 8954SOL     OW27760   0.353   6.229   6.403
 8954SOL    HW127761   0.324   6.325   6.409
 8954SOL    HW227762   0.335   6.194   6.311
 8955SOL     OW27763   0.423   4.573   2.617
 8955SOL    HW127764   0.329   4.604   2.633
 8955SOL    HW227765   0.443   4.496   2.677
 8956SOL     OW27766   0.039   1.812   6.940
 8956SOL    HW127767   6.971   1.826   6.890
 8956SOL    HW227768   0.020   1.807   0.021
 8957SOL     OW27769   3.081   4.285   1.710
 8957SOL    HW127770   3.042   4.324   1.794
 8957SOL    HW227771   3.040   4.330   1.631
 8958SOL     OW27772   1.020   0.605   4.361
 8958SOL    HW127773   0.979   0.684   4.314
 8958SOL    HW227774   1.072   0.637   4.440
 8959SOL     OW27775   1.526   4.307   0.999
 8959SOL    HW127776   1.435   4.270   0.977
 8959SOL    HW227777   1.563   4.354   0.919
 8960SOL     OW27778   4.927   5.776   2.170
 8960SOL    HW127779   4.945   5.818   2.259
 8960SOL    HW227780   4.925   5.676   2.180
 8961SOL     OW27781   2.350   2.575   4.586
 8961SOL    HW127782   2.397   2.565   4.498
 8961SOL    HW227783   2.416   2.565   4.660
 8962SOL     OW27784   6.450   6.562   2.743
 8962SOL    HW127785   6.390   6.483   2.736
 8962SOL    HW227786   6.539   6.532   2.778
 8963SOL     OW27787   4.817   6.729   4.392
 8963SOL    HW127788   4.863   6.816   4.408
 8963SOL    HW227789   4.839   6.666   4.466
 8964SOL     OW27790   6.164   3.514   3.668
 8964SOL    HW127791   6.171   3.605   3.628
 8964SOL    HW227792   6.255   3.482   3.694
 8965SOL     OW27793   2.095   5.202   0.545
 8965SOL    HW127794   2.086   5.168   0.639
 8965SOL    HW227795   2.052   5.292   0.538
 8966SOL     OW27796   1.634   4.017   5.387
 8966SOL    HW127797   1.590   3.928   5.397
 8966SOL    HW227798   1.733   4.005   5.379
 8967SOL     OW27799   3.354   6.149   1.589
 8967SOL    HW127800   3.346   6.220   1.520
 8967SOL    HW227801   3.450   6.120   1.596
 8968SOL     OW27802   5.021   4.881   2.177
 8968SOL    HW127803   4.963   4.841   2.248
 8968SOL    HW227804   5.116   4.883   2.207
 8969SOL     OW27805   6.479   0.107   4.123
 8969SOL    HW127806   6.459   0.129   4.028
 8969SOL    HW227807   6.527   0.183   4.166
 8970SOL     OW27808   3.289   2.488   0.220
 8970SOL    HW127809   3.310   2.399   0.261
 8970SOL    HW227810   3.277   2.477   0.121
 8971SOL     OW27811   3.663   5.345   2.018
 8971SOL    HW127812   3.736   5.314   1.959
 8971SOL    HW227813   3.590   5.276   2.021
 8972SOL     OW27814   4.999   5.360   6.290
 8972SOL    HW127815   4.975   5.457   6.296
 8972SOL    HW227816   5.082   5.343   6.343
 8973SOL     OW27817   1.184   3.255   2.279
 8973SOL    HW127818   1.269   3.307   2.292
 8973SOL    HW227819   1.106   3.316   2.295
 8974SOL     OW27820   1.420   4.365   5.451
 8974SOL    HW127821   1.506   4.328   5.418
 8974SOL    HW227822   1.349   4.356   5.381
 8975SOL     OW27823   2.601   0.239   6.951
 8975SOL    HW127824   2.506   0.211   6.964
 8975SOL    HW227825   2.662   0.175   6.998
 8976SOL     OW27826   0.805   5.301   5.074
 8976SOL    HW127827   0.733   5.248   5.030
 8976SOL    HW227828   0.767   5.385   5.112
 8977SOL     OW27829   5.753   1.255   6.608
 8977SOL    HW127830   5.732   1.157   6.601
 8977SOL    HW227831   5.831   1.268   6.669
 8978SOL     OW27832   5.947   6.867   6.294
 8978SOL    HW127833   6.041   6.879   6.263
 8978SOL    HW227834   5.887   6.931   6.246
 8979SOL     OW27835   1.386   3.197   4.324
 8979SOL    HW127836   1.327   3.200   4.405
 8979SOL    HW227837   1.481   3.189   4.352
 8980SOL     OW27838   2.448   3.277   5.327
 8980SOL    HW127839   2.379   3.311   5.262
 8980SOL    HW227840   2.490   3.195   5.291
 8981SOL     OW27841   3.673   1.820   5.280
 8981SOL    HW127842   3.701   1.866   5.364
 8981SOL    HW227843   3.606   1.749   5.302
 8982SOL     OW27844   1.365   2.487   0.373
 8982SOL    HW127845   1.404   2.400   0.400
 8982SOL    HW227846   1.344   2.542   0.454
 8983SOL     OW27847   2.772   6.495   6.164
 8983SOL    HW127848   2.761   6.415   6.105
 8983SOL    HW227849   2.758   6.578   6.109
 8984SOL     OW27850   0.844   6.957   3.920
 8984SOL    HW127851   0.769   6.913   3.871
 8984SOL    HW227852   0.809   0.016   3.974
 8985SOL     OW27853   3.524   2.245   0.434
 8985SOL    HW127854   3.546   2.202   0.346
 8985SOL    HW227855   3.598   2.308   0.459
 8986SOL     OW27856   4.311   5.651   2.681
 8986SOL    HW127857   4.290   5.747   2.663
 8986SOL    HW227858   4.264   5.593   2.614
 8987SOL     OW27859   4.576   6.527   1.756
 8987SOL    HW127860   4.667   6.532   1.715
 8987SOL    HW227861   4.581   6.483   1.845
 8988SOL     OW27862   1.134   4.762   4.774
 8988SOL    HW127863   1.137   4.668   4.739
 8988SOL    HW227864   1.207   4.774   4.842
 8989SOL     OW27865   5.020   3.554   0.415
 8989SOL    HW127866   5.023   3.653   0.405
 8989SOL    HW227867   4.924   3.523   0.415
 8990SOL     OW27868   1.602   5.738   4.708
 8990SOL    HW127869   1.697   5.758   4.733
 8990SOL    HW227870   1.598   5.647   4.667
 8991SOL     OW27871   1.787   2.734   4.641
 8991SOL    HW127872   1.861   2.736   4.708
 8991SOL    HW227873   1.823   2.758   4.551
 8992SOL     OW27874   4.553   1.348   0.687
 8992SOL    HW127875   4.639   1.332   0.639
 8992SOL    HW227876   4.548   1.444   0.715
 8993SOL     OW27877   4.741   2.521   0.772
 8993SOL    HW127878   4.758   2.426   0.797
 8993SOL    HW227879   4.645   2.543   0.787
 8994SOL     OW27880   1.438   4.103   5.210
 8994SOL    HW127881   1.514   4.059   5.258
 8994SOL    HW227882   1.472   4.143   5.125
 8995SOL     OW27883   1.123   2.390   0.245
 8995SOL    HW127884   1.175   2.473   0.262
 8995SOL    HW227885   1.174   2.311   0.279
 8996SOL     OW27886   5.075   4.161   6.776
 8996SOL    HW127887   5.096   4.101   6.699
 8996SOL    HW227888   5.137   4.141   6.852
 8997SOL     OW27889   5.143   2.086   6.365
 8997SOL    HW127890   5.156   2.007   6.424
 8997SOL    HW227891   5.148   2.170   6.419
 8998SOL     OW27892   6.484   3.637   4.305
 8998SOL    HW127893   6.426   3.713   4.276
 8998SOL    HW227894   6.509   3.582   4.226
 8999SOL     OW27895   4.780   6.442   5.931
 8999SOL    HW127896   4.785   6.394   6.018
 8999SOL    HW227897   4.861   6.499   5.919
 9000SOL     OW27898   1.597   3.028   1.416
 9000SOL    HW127899   1.591   3.128   1.422
 9000SOL    HW227900   1.671   2.995   1.474
 9001SOL     OW27901   1.066   4.475   2.190
 9001SOL    HW127902   0.972   4.501   2.212
 9001SOL    HW227903   1.076   4.376   2.195
 9002SOL     OW27904   1.920   5.181   5.121
 9002SOL    HW127905   1.855   5.141   5.186
 9002SOL    HW227906   1.904   5.143   5.030
 9003SOL     OW27907   5.809   4.121   1.939
 9003SOL    HW127908   5.801   4.021   1.943
 9003SOL    HW227909   5.894   4.145   1.893
 9004SOL     OW27910   4.146   5.980   1.140
 9004SOL    HW127911   4.242   6.005   1.123
 9004SOL    HW227912   4.086   6.047   1.095
 9005SOL     OW27913   6.579   2.168   5.131
 9005SOL    HW127914   6.552   2.079   5.094
 9005SOL    HW227915   6.673   2.164   5.163
 9006SOL     OW27916   2.030   5.724   1.272
 9006SOL    HW127917   2.064   5.724   1.366
 9006SOL    HW227918   1.933   5.699   1.272
 9007SOL     OW27919   3.338   0.835   3.247
 9007SOL    HW127920   3.298   0.776   3.318
 9007SOL    HW227921   3.372   0.778   3.173
 9008SOL     OW27922   0.995   5.351   3.012
 9008SOL    HW127923   1.077   5.294   3.021
 9008SOL    HW227924   0.914   5.296   3.033
 9009SOL     OW27925   2.611   5.751   0.938
 9009SOL    HW127926   2.634   5.737   0.842
 9009SOL    HW227927   2.686   5.800   0.983
 9010SOL     OW27928   1.558   6.551   4.129
 9010SOL    HW127929   1.499   6.547   4.209
 9010SOL    HW227930   1.564   6.460   4.087
 9011SOL     OW27931   4.945   1.311   0.950
 9011SOL    HW127932   4.978   1.281   1.040
 9011SOL    HW227933   4.846   1.315   0.950
 9012SOL     OW27934   2.133   4.535   6.699
 9012SOL    HW127935   2.204   4.558   6.632
 9012SOL    HW227936   2.172   4.539   6.791
 9013SOL     OW27937   7.008   0.204   6.210
 9013SOL    HW127938   6.940   0.268   6.175
 9013SOL    HW227939   0.080   0.250   6.216
 9014SOL     OW27940   6.843   2.041   0.668
 9014SOL    HW127941   6.913   2.073   0.733
 9014SOL    HW227942   6.886   1.984   0.598
 9015SOL     OW27943   4.708   2.293   1.712
 9015SOL    HW127944   4.687   2.391   1.701
 9015SOL    HW227945   4.631   2.248   1.757
 9016SOL     OW27946   7.013   6.301   6.533
 9016SOL    HW127947   0.072   6.337   6.480
 9016SOL    HW227948   6.936   6.365   6.529
 9017SOL     OW27949   4.676   1.563   4.253
 9017SOL    HW127950   4.687   1.577   4.155
 9017SOL    HW227951   4.579   1.566   4.277
 9018SOL     OW27952   2.542   3.138   6.258
 9018SOL    HW127953   2.515   3.195   6.336
 9018SOL    HW227954   2.476   3.064   6.246
 9019SOL     OW27955   1.568   4.838   2.556
 9019SOL    HW127956   1.561   4.739   2.573
 9019SOL    HW227957   1.491   4.868   2.500
 9020SOL     OW27958   0.001   3.787   0.988
 9020SOL    HW127959   6.921   3.795   1.008
 9020SOL    HW227960   0.016   3.802   0.890
 9021SOL     OW27961   6.947   0.543   3.657
 9021SOL    HW127962   6.899   0.504   3.579
 9021SOL    HW227963   6.882   0.562   3.730
 9022SOL     OW27964   2.721   1.106   6.934
 9022SOL    HW127965   2.633   1.151   6.914
 9022SOL    HW227966   2.763   1.076   6.849
 9023SOL     OW27967   3.425   3.257   1.861
 9023SOL    HW127968   3.499   3.208   1.907
 9023SOL    HW227969   3.438   3.356   1.874
 9024SOL     OW27970   1.440   3.785   5.981
 9024SOL    HW127971   1.505   3.836   5.924
 9024SOL    HW227972   1.390   3.848   6.040
 9025SOL     OW27973   0.585   5.074   0.547
 9025SOL    HW127974   0.616   4.998   0.490
 9025SOL    HW227975   0.599   5.161   0.498
 9026SOL     OW27976   3.380   2.944   0.820
 9026SOL    HW127977   3.310   2.879   0.847
 9026SOL    HW227978   3.338   3.021   0.772
 9027SOL     OW27979   0.766   3.220   2.738
 9027SOL    HW127980   0.721   3.132   2.721
 9027SOL    HW227981   0.843   3.231   2.676
 9028SOL     OW27982   3.183   2.846   5.371
 9028SOL    HW127983   3.151   2.932   5.410
 9028SOL    HW227984   3.220   2.788   5.444
 9029SOL     OW27985   3.626   6.874   4.998
 9029SOL    HW127986   3.715   6.833   5.016
 9029SOL    HW227987   3.624   6.968   5.030
 9030SOL     OW27988   2.096   1.966   3.671
 9030SOL    HW127989   2.006   2.001   3.647
 9030SOL    HW227990   2.118   1.992   3.765
 9031SOL     OW27991   4.212   6.119   4.136
 9031SOL    HW127992   4.129   6.064   4.125
 9031SOL    HW227993   4.200   6.184   4.211
 9032SOL     OW27994   4.555   3.961   1.201
 9032SOL    HW127995   4.480   4.027   1.204
 9032SOL    HW227996   4.555   3.915   1.113
 9033SOL     OW27997   0.330   4.067   2.572
 9033SOL    HW127998   0.248   4.050   2.518
 9033SOL    HW227999   0.311   4.138   2.640
 9034SOL     OW28000   2.796   5.933   4.389
 9034SOL    HW128001   2.713   5.886   4.360
 9034SOL    HW228002   2.863   5.866   4.421
 9035SOL     OW28003   2.769   4.634   6.978
 9035SOL    HW128004   2.677   4.596   6.984
 9035SOL    HW228005   2.816   4.623   0.048
 9036SOL     OW28006   2.058   3.290   5.801
 9036SOL    HW128007   2.088   3.364   5.861
 9036SOL    HW228008   2.138   3.237   5.771
 9037SOL     OW28009   1.211   4.249   4.559
 9037SOL    HW128010   1.126   4.208   4.526
 9037SOL    HW228011   1.272   4.177   4.591
 9038SOL     OW28012   4.556   1.491   6.358
 9038SOL    HW128013   4.549   1.560   6.430
 9038SOL    HW228014   4.507   1.408   6.387
 9039SOL     OW28015   2.342   5.018   6.197
 9039SOL    HW128016   2.256   4.967   6.200
 9039SOL    HW228017   2.419   4.954   6.205
 9040SOL     OW28018   2.641   2.394   2.753
 9040SOL    HW128019   2.608   2.468   2.812
 9040SOL    HW228020   2.586   2.393   2.669
 9041SOL     OW28021   1.135   2.359   1.001
 9041SOL    HW128022   1.220   2.375   1.052
 9041SOL    HW228023   1.072   2.305   1.057
 9042SOL     OW28024   4.196   0.141   4.514
 9042SOL    HW128025   4.219   0.084   4.435
 9042SOL    HW228026   4.231   0.098   4.598
 9043SOL     OW28027   1.924   1.081   6.258
 9043SOL    HW128028   2.002   1.143   6.257
 9043SOL    HW228029   1.956   0.987   6.253
 9044SOL     OW28030   6.608   0.299   0.714
 9044SOL    HW128031   6.634   0.299   0.810
 9044SOL    HW228032   6.599   0.205   0.682
 9045SOL     OW28033   3.582   1.447   2.535
 9045SOL    HW128034   3.537   1.366   2.497
 9045SOL    HW228035   3.588   1.438   2.635
 9046SOL     OW28036   3.466   4.157   3.091
 9046SOL    HW128037   3.519   4.158   3.176
 9046SOL    HW228038   3.376   4.118   3.109
 9047SOL     OW28039   1.759   3.686   4.817
 9047SOL    HW128040   1.779   3.783   4.804
 9047SOL    HW228041   1.733   3.670   4.912
 9048SOL     OW28042   6.621   3.017   6.321
 9048SOL    HW128043   6.663   3.105   6.295
 9048SOL    HW228044   6.675   2.976   6.395
 9049SOL     OW28045   4.334   6.578   5.555
 9049SOL    HW128046   4.320   6.644   5.482
 9049SOL    HW228047   4.246   6.549   5.592
 9050SOL     OW28048   0.710   3.837   0.939
 9050SOL    HW128049   0.683   3.919   0.990
 9050SOL    HW228050   0.779   3.862   0.871
 9051SOL     OW28051   3.075   0.135   1.404
 9051SOL    HW128052   3.134   0.055   1.393
 9051SOL    HW228053   3.032   0.157   1.317
 9052SOL     OW28054   2.580   2.473   3.584
 9052SOL    HW128055   2.544   2.401   3.643
 9052SOL    HW228056   2.665   2.508   3.622
 9053SOL     OW28057   2.157   1.389   2.493
 9053SOL    HW128058   2.167   1.429   2.402
 9053SOL    HW228059   2.088   1.439   2.545
 9054SOL     OW28060   3.239   5.691   4.100
 9054SOL    HW128061   3.202   5.641   4.178
 9054SOL    HW228062   3.220   5.788   4.111
 9055SOL     OW28063   5.541   2.283   4.433
 9055SOL    HW128064   5.522   2.375   4.468
 9055SOL    HW228065   5.471   2.257   4.366
 9056SOL     OW28066   0.296   2.376   1.290
 9056SOL    HW128067   0.340   2.290   1.318
 9056SOL    HW228068   0.250   2.417   1.368
 9057SOL     OW28069   4.716   2.820   5.111
 9057SOL    HW128070   4.738   2.908   5.153
 9057SOL    HW228071   4.766   2.811   5.024
 9058SOL     OW28072   1.739   1.006   1.714
 9058SOL    HW128073   1.675   1.066   1.762
 9058SOL    HW228074   1.744   0.918   1.761
 9059SOL     OW28075   0.856   2.556   2.724
 9059SOL    HW128076   0.919   2.610   2.669
 9059SOL    HW228077   0.864   2.583   2.820
 9060SOL     OW28078   5.902   3.013   4.444
 9060SOL    HW128079   5.852   2.929   4.424
 9060SOL    HW228080   5.858   3.061   4.521
 9061SOL     OW28081   2.647   5.459   2.261
 9061SOL    HW128082   2.728   5.401   2.261
 9061SOL    HW228083   2.674   5.554   2.278
 9062SOL     OW28084   1.322   6.108   2.274
 9062SOL    HW128085   1.389   6.166   2.321
 9062SOL    HW228086   1.230   6.133   2.305
 9063SOL     OW28087   3.234   0.420   4.167
 9063SOL    HW128088   3.262   0.463   4.081
 9063SOL    HW228089   3.203   0.327   4.150
 9064SOL     OW28090   6.311   3.162   6.145
 9064SOL    HW128091   6.310   3.062   6.137
 9064SOL    HW228092   6.285   3.188   6.239
 9065SOL     OW28093   3.950   0.548   6.922
 9065SOL    HW128094   4.042   0.588   6.912
 9065SOL    HW228095   3.913   0.571   7.012
 9066SOL     OW28096   5.125   6.726   0.349
 9066SOL    HW128097   5.128   6.823   0.326
 9066SOL    HW228098   5.211   6.699   0.394
 9067SOL     OW28099   0.849   1.016   3.638
 9067SOL    HW128100   0.894   1.079   3.574
 9067SOL    HW228101   0.788   1.068   3.698
 9068SOL     OW28102   1.526   6.334   4.581
 9068SOL    HW128103   1.547   6.431   4.569
 9068SOL    HW228104   1.607   6.286   4.616
 9069SOL     OW28105   1.298   3.235   0.893
 9069SOL    HW128106   1.219   3.291   0.871
 9069SOL    HW228107   1.294   3.206   0.988
 9070SOL     OW28108   1.360   3.583   5.156
 9070SOL    HW128109   1.395   3.491   5.141
 9070SOL    HW228110   1.287   3.601   5.090
 9071SOL     OW28111   6.659   6.355   1.319
 9071SOL    HW128112   6.700   6.369   1.410
 9071SOL    HW228113   6.723   6.388   1.249
 9072SOL     OW28114   0.172   2.615   0.930
 9072SOL    HW128115   0.219   2.610   0.842
 9072SOL    HW228116   0.097   2.549   0.932
 9073SOL     OW28117   2.408   0.119   2.478
 9073SOL    HW128118   2.454   0.188   2.422
 9073SOL    HW228119   2.467   0.039   2.487
 9074SOL     OW28120   1.014   0.287   2.487
 9074SOL    HW128121   0.945   0.226   2.525
 9074SOL    HW228122   0.985   0.318   2.396
 9075SOL     OW28123   0.082   1.532   2.359
 9075SOL    HW128124   0.142   1.544   2.438
 9075SOL    HW228125   0.122   1.463   2.298
 9076SOL     OW28126   0.079   1.249   6.332
 9076SOL    HW128127   0.012   1.320   6.351
 9076SOL    HW228128   0.137   1.276   6.256
 9077SOL     OW28129   4.248   6.967   1.304
 9077SOL    HW128130   4.272   0.027   1.362
 9077SOL    HW228131   4.323   6.901   1.303
 9078SOL     OW28132   3.274   3.350   4.891
 9078SOL    HW128133   3.187   3.347   4.842
 9078SOL    HW228134   3.277   3.434   4.946
 9079SOL     OW28135   2.513   0.575   4.780
 9079SOL    HW128136   2.484   0.671   4.783
 9079SOL    HW228137   2.597   0.564   4.834
 9080SOL     OW28138   5.285   2.967   6.560
 9080SOL    HW128139   5.260   2.871   6.577
 9080SOL    HW228140   5.375   2.985   6.600
 9081SOL     OW28141   4.885   6.440   2.389
 9081SOL    HW128142   4.873   6.463   2.292
 9081SOL    HW228143   4.820   6.492   2.444
 9082SOL     OW28144   1.726   0.424   4.895
 9082SOL    HW128145   1.790   0.371   4.839
 9082SOL    HW228146   1.633   0.400   4.869
 9083SOL     OW28147   4.213   4.876   5.886
 9083SOL    HW128148   4.264   4.853   5.802
 9083SOL    HW228149   4.223   4.973   5.905
 9084SOL     OW28150   3.627   3.782   3.075
 9084SOL    HW128151   3.531   3.765   3.097
 9084SOL    HW228152   3.648   3.878   3.090
 9085SOL     OW28153   2.234   0.576   0.625
 9085SOL    HW128154   2.297   0.652   0.639
 9085SOL    HW228155   2.234   0.549   0.529
 9086SOL     OW28156   0.763   4.396   0.422
 9086SOL    HW128157   0.737   4.306   0.457
 9086SOL    HW228158   0.802   4.385   0.330
 9087SOL     OW28159   4.739   2.803   1.778
 9087SOL    HW128160   4.800   2.845   1.711
 9087SOL    HW228161   4.709   2.871   1.845
 9088SOL     OW28162   6.296   0.274   1.104
 9088SOL    HW128163   6.388   0.298   1.135
 9088SOL    HW228164   6.298   0.252   1.006
 9089SOL     OW28165   5.505   6.815   5.335
 9089SOL    HW128166   5.422   6.863   5.364
 9089SOL    HW228167   5.523   6.835   5.238
 9090SOL     OW28168   5.797   1.455   5.512
 9090SOL    HW128169   5.801   1.419   5.605
 9090SOL    HW228170   5.812   1.554   5.515
 9091SOL     OW28171   2.591   3.679   6.706
 9091SOL    HW128172   2.634   3.607   6.761
 9091SOL    HW228173   2.570   3.757   6.766
 9092SOL     OW28174   6.595   0.846   0.488
 9092SOL    HW128175   6.553   0.777   0.429
 9092SOL    HW228176   6.532   0.924   0.498
 9093SOL     OW28177   2.100   6.064   5.327
 9093SOL    HW128178   2.143   6.011   5.253
 9093SOL    HW228179   2.035   6.005   5.376
 9094SOL     OW28180   6.816   4.411   2.585
 9094SOL    HW128181   6.831   4.494   2.638
 9094SOL    HW228182   6.869   4.336   2.624
 9095SOL     OW28183   4.774   4.601   6.201
 9095SOL    HW128184   4.677   4.611   6.179
 9095SOL    HW228185   4.799   4.504   6.199
 9096SOL     OW28186   6.704   5.226   3.406
 9096SOL    HW128187   6.669   5.218   3.499
 9096SOL    HW228188   6.662   5.304   3.361
 9097SOL     OW28189   2.064   1.761   6.841
 9097SOL    HW128190   2.101   1.737   6.931
 9097SOL    HW228191   1.982   1.707   6.823
 9098SOL     OW28192   2.540   2.134   5.119
 9098SOL    HW128193   2.608   2.077   5.074
 9098SOL    HW228194   2.582   2.186   5.193
 9099SOL     OW28195   2.303   3.129   6.576
 9099SOL    HW128196   2.249   3.087   6.504
 9099SOL    HW228197   2.244   3.149   6.655
 9100SOL     OW28198   0.965   3.611   2.038
 9100SOL    HW128199   0.895   3.668   2.081
 9100SOL    HW228200   0.926   3.521   2.018
 9101SOL     OW28201   2.610   1.193   2.629
 9101SOL    HW128202   2.653   1.158   2.712
 9101SOL    HW228203   2.661   1.272   2.596
 9102SOL     OW28204   4.089   7.010   1.816
 9102SOL    HW128205   4.132   6.920   1.811
 9102SOL    HW228206   4.062   0.012   1.911
 9103SOL     OW28207   5.566   1.663   6.936
 9103SOL    HW128208   5.540   1.605   6.859
 9103SOL    HW228209   5.606   1.607   7.008
 9104SOL     OW28210   6.881   6.985   1.945
 9104SOL    HW128211   6.879   6.941   2.034
 9104SOL    HW228212   6.959   0.030   1.941
 9105SOL     OW28213   1.137   6.769   4.920
 9105SOL    HW128214   1.042   6.740   4.930
 9105SOL    HW228215   1.187   6.701   4.866
 9106SOL     OW28216   0.839   3.638   6.706
 9106SOL    HW128217   0.833   3.623   6.805
 9106SOL    HW228218   0.771   3.707   6.679
 9107SOL     OW28219   2.033   0.816   6.340
 9107SOL    HW128220   2.006   0.722   6.360
 9107SOL    HW228221   2.073   0.857   6.422
 9108SOL     OW28222   5.048   4.184   5.408
 9108SOL    HW128223   5.094   4.272   5.420
 9108SOL    HW228224   4.949   4.199   5.404
 9109SOL     OW28225   4.773   2.857   2.708
 9109SOL    HW128226   4.854   2.840   2.651
 9109SOL    HW228227   4.794   2.926   2.776
 9110SOL     OW28228   1.114   5.739   4.621
 9110SOL    HW128229   1.155   5.741   4.530
 9110SOL    HW228230   1.185   5.720   4.689
 9111SOL     OW28231   4.763   2.980   6.411
 9111SOL    HW128232   4.782   3.027   6.325
 9111SOL    HW228233   4.734   3.047   6.480
 9112SOL     OW28234   1.384   4.626   2.786
 9112SOL    HW128235   1.349   4.555   2.724
 9112SOL    HW228236   1.483   4.618   2.794
 9113SOL     OW28237   5.791   2.589   4.177
 9113SOL    HW128238   5.847   2.579   4.095
 9113SOL    HW228239   5.707   2.534   4.166
 9114SOL     OW28240   1.030   6.167   3.992
 9114SOL    HW128241   0.966   6.108   3.943
 9114SOL    HW228242   0.990   6.258   4.001
 9115SOL     OW28243   6.126   5.278   3.456
 9115SOL    HW128244   6.185   5.325   3.522
 9115SOL    HW228245   6.030   5.296   3.478
 9116SOL     OW28246   0.277   0.024   2.994
 9116SOL    HW128247   0.362   0.033   2.942
 9116SOL    HW228248   0.286   6.968   3.061
 9117SOL     OW28249   4.017   1.625   6.298
 9117SOL    HW128250   4.077   1.615   6.378
 9117SOL    HW228251   4.048   1.703   6.244
 9118SOL     OW28252   6.175   4.031   0.763
 9118SOL    HW128253   6.079   4.014   0.786
 9118SOL    HW228254   6.234   3.984   0.829
 9119SOL     OW28255   3.988   6.900   1.360
 9119SOL    HW128256   3.939   6.915   1.274
 9119SOL    HW228257   4.086   6.915   1.347
 9120SOL     OW28258   6.551   2.933   6.031
 9120SOL    HW128259   6.575   2.989   6.110
 9120SOL    HW228260   6.622   2.864   6.016
 9121SOL     OW28261   3.856   0.238   5.646
 9121SOL    HW128262   3.898   0.183   5.574
 9121SOL    HW228263   3.824   0.179   5.720
 9122SOL     OW28264   2.206   3.887   1.959
 9122SOL    HW128265   2.214   3.868   2.057
 9122SOL    HW228266   2.178   3.982   1.946
 9123SOL     OW28267   1.442   0.714   3.444
 9123SOL    HW128268   1.359   0.759   3.475
 9123SOL    HW228269   1.494   0.776   3.385
 9124SOL     OW28270   3.502   5.087   2.034
 9124SOL    HW128271   3.445   5.064   1.956
 9124SOL    HW228272   3.549   5.005   2.066
 9125SOL     OW28273   3.658   5.536   0.443
 9125SOL    HW128274   3.749   5.506   0.469
 9125SOL    HW228275   3.665   5.614   0.381
 9126SOL     OW28276   4.503   4.447   0.889
 9126SOL    HW128277   4.550   4.414   0.971
 9126SOL    HW228278   4.473   4.369   0.834
 9127SOL     OW28279   6.814   3.192   5.155
 9127SOL    HW128280   6.877   3.142   5.096
 9127SOL    HW228281   6.763   3.259   5.101
 9128SOL     OW28282   6.355   2.927   4.505
 9128SOL    HW128283   6.291   2.861   4.464
 9128SOL    HW228284   6.381   2.895   4.596
 9129SOL     OW28285   1.516   1.798   1.053
 9129SOL    HW128286   1.584   1.829   1.120
 9129SOL    HW228287   1.458   1.875   1.026
 9130SOL     OW28288   2.004   4.030   5.847
 9130SOL    HW128289   1.930   4.028   5.780
 9130SOL    HW228290   1.980   3.973   5.925
 9131SOL     OW28291   5.364   2.577   0.179
 9131SOL    HW128292   5.423   2.656   0.164
 9131SOL    HW228293   5.330   2.577   0.273
 9132SOL     OW28294   1.105   4.973   4.109
 9132SOL    HW128295   1.205   4.980   4.108
 9132SOL    HW228296   1.068   5.033   4.180
 9133SOL     OW28297   3.235   0.543   1.062
 9133SOL    HW128298   3.204   0.612   0.997
 9133SOL    HW228299   3.236   0.582   1.154
 9134SOL     OW28300   4.619   5.414   0.634
 9134SOL    HW128301   4.713   5.446   0.625
 9134SOL    HW228302   4.570   5.471   0.700
 9135SOL     OW28303   0.885   6.395   2.119
 9135SOL    HW128304   0.851   6.461   2.186
 9135SOL    HW228305   0.980   6.370   2.141
 9136SOL     OW28306   5.150   4.785   6.107
 9136SOL    HW128307   5.100   4.725   6.169
 9136SOL    HW228308   5.143   4.880   6.138
 9137SOL     OW28309   4.730   6.113   5.922
 9137SOL    HW128310   4.747   6.166   5.839
 9137SOL    HW228311   4.701   6.174   5.996
 9138SOL     OW28312   2.038   3.027   0.539
 9138SOL    HW128313   1.951   3.033   0.588
 9138SOL    HW228314   2.021   3.037   0.440
 9139SOL     OW28315   0.282   0.883   1.411
 9139SOL    HW128316   0.286   0.786   1.387
 9139SOL    HW228317   0.193   0.920   1.386
 9140SOL     OW28318   0.595   4.696   1.676
 9140SOL    HW128319   0.533   4.748   1.734
 9140SOL    HW228320   0.618   4.750   1.595
 9141SOL     OW28321   0.191   5.675   6.247
 9141SOL    HW128322   0.186   5.775   6.242
 9141SOL    HW228323   0.139   5.635   6.172
 9142SOL     OW28324   0.806   3.411   2.946
 9142SOL    HW128325   0.789   3.356   2.864
 9142SOL    HW228326   0.734   3.393   3.013
 9143SOL     OW28327   0.243   4.237   1.888
 9143SOL    HW128328   0.146   4.260   1.896
 9143SOL    HW228329   0.253   4.146   1.849
 9144SOL     OW28330   3.039   5.282   4.393
 9144SOL    HW128331   3.095   5.219   4.340
 9144SOL    HW228332   3.089   5.312   4.474
 9145SOL     OW28333   1.463   6.669   6.187
 9145SOL    HW128334   1.468   6.670   6.088
 9145SOL    HW228335   1.502   6.584   6.222
 9146SOL     OW28336   5.945   3.256   3.472
 9146SOL    HW128337   5.951   3.206   3.385
 9146SOL    HW228338   5.996   3.206   3.542
 9147SOL     OW28339   5.679   6.788   4.293
 9147SOL    HW128340   5.670   6.874   4.343
 9147SOL    HW228341   5.776   6.769   4.276
 9148SOL     OW28342   6.278   0.178   1.846
 9148SOL    HW128343   6.337   0.164   1.925
 9148SOL    HW228344   6.308   0.259   1.796
 9149SOL     OW28345   5.979   2.815   1.026
 9149SOL    HW128346   6.068   2.851   1.051
 9149SOL    HW228347   5.922   2.888   0.988
 9150SOL     OW28348   2.785   4.108   0.255
 9150SOL    HW128349   2.706   4.169   0.248
 9150SOL    HW228350   2.791   4.052   0.172
 9151SOL     OW28351   2.043   3.889   3.848
 9151SOL    HW128352   1.982   3.930   3.780
 9151SOL    HW228353   2.101   3.820   3.804
 9152SOL     OW28354   2.133   3.625   4.125
 9152SOL    HW128355   2.159   3.530   4.147
 9152SOL    HW228356   2.034   3.630   4.113
 9153SOL     OW28357   0.396   2.177   6.442
 9153SOL    HW128358   0.427   2.202   6.534
 9153SOL    HW228359   0.420   2.082   6.423
 9154SOL     OW28360   6.074   5.248   3.162
 9154SOL    HW128361   6.076   5.205   3.253
 9154SOL    HW228362   6.092   5.346   3.171
 9155SOL     OW28363   1.734   5.304   2.687
 9155SOL    HW128364   1.757   5.276   2.594
 9155SOL    HW228365   1.798   5.374   2.717
 9156SOL     OW28366   6.618   3.289   0.924
 9156SOL    HW128367   6.644   3.386   0.928
 9156SOL    HW228368   6.691   3.236   0.881
 9157SOL     OW28369   3.441   4.197   6.190
 9157SOL    HW128370   3.476   4.253   6.265
 9157SOL    HW228371   3.505   4.123   6.171
 9158SOL     OW28372   6.863   3.857   4.063
 9158SOL    HW128373   6.900   3.869   3.970
 9158SOL    HW228374   6.777   3.907   4.071
 9159SOL     OW28375   3.019   6.944   3.312
 9159SOL    HW128376   3.005   0.016   3.271
 9159SOL    HW228377   3.040   6.954   3.409
 9160SOL     OW28378   0.739   5.044   6.675
 9160SOL    HW128379   0.709   4.951   6.653
 9160SOL    HW228380   0.777   5.088   6.594
 9161SOL     OW28381   5.733   3.841   1.984
 9161SOL    HW128382   5.767   3.847   2.078
 9161SOL    HW228383   5.642   3.800   1.984
 9162SOL     OW28384   4.403   1.685   2.630
 9162SOL    HW128385   4.449   1.625   2.565
 9162SOL    HW228386   4.410   1.647   2.722
 9163SOL     OW28387   0.772   2.495   2.399
 9163SOL    HW128388   0.787   2.571   2.462
 9163SOL    HW228389   0.675   2.490   2.375
 9164SOL     OW28390   2.180   0.159   6.738
 9164SOL    HW128391   2.094   0.108   6.735
 9164SOL    HW228392   2.168   0.248   6.693
 9165SOL     OW28393   5.122   2.576   4.832
 9165SOL    HW128394   5.110   2.479   4.810
 9165SOL    HW228395   5.064   2.631   4.772
 9166SOL     OW28396   4.547   5.717   1.842
 9166SOL    HW128397   4.454   5.708   1.808
 9166SOL    HW228398   4.549   5.786   1.914
 9167SOL     OW28399   0.833   1.265   5.832
 9167SOL    HW128400   0.920   1.300   5.868
 9167SOL    HW228401   0.758   1.294   5.891
 9168SOL     OW28402   6.410   5.342   4.809
 9168SOL    HW128403   6.398   5.249   4.776
 9168SOL    HW228404   6.363   5.406   4.747
 9169SOL     OW28405   6.323   5.561   6.629
 9169SOL    HW128406   6.328   5.636   6.695
 9169SOL    HW228407   6.375   5.586   6.547
 9170SOL     OW28408   1.399   1.627   6.141
 9170SOL    HW128409   1.397   1.585   6.050
 9170SOL    HW228410   1.459   1.574   6.201
 9171SOL     OW28411   2.892   4.976   0.725
 9171SOL    HW128412   2.948   4.894   0.743
 9171SOL    HW228413   2.952   5.051   0.696
 9172SOL     OW28414   5.569   1.261   4.855
 9172SOL    HW128415   5.668   1.265   4.860
 9172SOL    HW228416   5.530   1.318   4.928
 9173SOL     OW28417   6.557   2.723   3.742
 9173SOL    HW128418   6.540   2.721   3.840
 9173SOL    HW228419   6.499   2.655   3.696
 9174SOL     OW28420   1.077   6.039   0.024
 9174SOL    HW128421   1.076   6.020   0.122
 9174SOL    HW228422   1.013   5.978   6.995
 9175SOL     OW28423   2.127   0.017   0.316
 9175SOL    HW128424   2.153   6.958   0.257
 9175SOL    HW228425   2.194   0.026   0.390
 9176SOL     OW28426   2.010   0.977   3.197
 9176SOL    HW128427   1.951   1.051   3.229
 9176SOL    HW228428   2.024   0.912   3.272
 9177SOL     OW28429   0.592   4.725   3.913
 9177SOL    HW128430   0.607   4.714   3.815
 9177SOL    HW228431   0.675   4.699   3.962
 9178SOL     OW28432   2.445   6.424   6.994
 9178SOL    HW128433   2.493   6.512   7.000
 9178SOL    HW228434   2.369   6.423   0.041
 9179SOL     OW28435   4.017   6.508   5.439
 9179SOL    HW128436   3.921   6.486   5.424
 9179SOL    HW228437   4.057   6.543   5.354
 9180SOL     OW28438   6.841   1.529   4.323
 9180SOL    HW128439   6.792   1.586   4.387
 9180SOL    HW228440   6.867   1.443   4.368
 9181SOL     OW28441   4.330   1.823   3.605
 9181SOL    HW128442   4.378   1.769   3.536
 9181SOL    HW228443   4.383   1.825   3.689
 9182SOL     OW28444   1.900   1.473   2.850
 9182SOL    HW128445   1.999   1.473   2.836
 9182SOL    HW228446   1.868   1.379   2.858
 9183SOL     OW28447   5.530   2.639   6.813
 9183SOL    HW128448   5.553   2.552   6.857
 9183SOL    HW228449   5.433   2.659   6.828
 9184SOL     OW28450   3.311   3.201   0.719
 9184SOL    HW128451   3.214   3.196   0.745
 9184SOL    HW228452   3.342   3.296   0.725
 9185SOL     OW28453   0.522   0.836   6.732
 9185SOL    HW128454   0.600   0.802   6.784
 9185SOL    HW228455   0.478   0.760   6.684
 9186SOL     OW28456   4.966   0.286   6.600
 9186SOL    HW128457   4.972   0.309   6.697
 9186SOL    HW228458   5.011   0.357   6.546
 9187SOL     OW28459   4.802   1.577   6.591
 9187SOL    HW128460   4.852   1.492   6.579
 9187SOL    HW228461   4.805   1.630   6.507
 9188SOL     OW28462   1.113   0.343   1.412
 9188SOL    HW128463   1.048   0.285   1.363
 9188SOL    HW228464   1.201   0.340   1.366
 9189SOL     OW28465   2.788   1.201   3.529
 9189SOL    HW128466   2.841   1.274   3.485
 9189SOL    HW228467   2.706   1.240   3.570
 9190SOL     OW28468   5.768   3.774   5.461
 9190SOL    HW128469   5.790   3.735   5.551
 9190SOL    HW228470   5.849   3.818   5.423
 9191SOL     OW28471   5.687   5.771   6.743
 9191SOL    HW128472   5.755   5.698   6.731
 9191SOL    HW228473   5.726   5.858   6.713
 9192SOL     OW28474   0.115   4.461   6.098
 9192SOL    HW128475   0.075   4.393   6.037
 9192SOL    HW228476   0.130   4.546   6.047
 9193SOL     OW28477   3.978   3.336   3.498
 9193SOL    HW128478   3.962   3.251   3.448
 9193SOL    HW228479   3.968   3.414   3.436
 9194SOL     OW28480   2.974   5.603   2.564
 9194SOL    HW128481   3.018   5.678   2.515
 9194SOL    HW228482   2.924   5.639   2.643
 9195SOL     OW28483   0.352   3.220   3.456
 9195SOL    HW128484   0.365   3.252   3.549
 9195SOL    HW228485   0.260   3.182   3.446
 9196SOL     OW28486   4.076   0.782   3.594
 9196SOL    HW128487   4.000   0.844   3.579
 9196SOL    HW228488   4.162   0.831   3.580
 9197SOL     OW28489   2.585   3.025   6.720
 9197SOL    HW128490   2.612   3.012   6.624
 9197SOL    HW228491   2.488   3.001   6.730
 9198SOL     OW28492   5.580   3.716   5.954
 9198SOL    HW128493   5.482   3.704   5.974
 9198SOL    HW228494   5.633   3.652   6.009
 9199SOL     OW28495   1.757   3.619   6.351
 9199SOL    HW128496   1.825   3.546   6.358
 9199SOL    HW228497   1.684   3.591   6.289
 9200SOL     OW28498   6.781   6.987   0.825
 9200SOL    HW128499   6.712   7.005   0.755
 9200SOL    HW228500   6.873   6.994   0.785
 9201SOL     OW28501   0.098   4.709   1.733
 9201SOL    HW128502   0.163   4.646   1.775
 9201SOL    HW228503   0.029   4.657   1.683
 9202SOL     OW28504   2.593   4.901   4.115
 9202SOL    HW128505   2.603   4.895   4.214
 9202SOL    HW228506   2.614   4.812   4.074
 9203SOL     OW28507   5.847   1.255   5.922
 9203SOL    HW128508   5.838   1.186   5.850
 9203SOL    HW228509   5.770   1.319   5.916
 9204SOL     OW28510   5.404   3.725   3.643
 9204SOL    HW128511   5.487   3.745   3.695
 9204SOL    HW228512   5.428   3.690   3.553
 9205SOL     OW28513   5.777   2.673   3.003
 9205SOL    HW128514   5.759   2.685   3.101
 9205SOL    HW228515   5.761   2.759   2.955
 9206SOL     OW28516   1.996   6.111   3.806
 9206SOL    HW128517   2.012   6.016   3.834
 9206SOL    HW228518   2.056   6.133   3.729
 9207SOL     OW28519   4.267   6.123   6.186
 9207SOL    HW128520   4.324   6.060   6.238
 9207SOL    HW228521   4.324   6.174   6.122
 9208SOL     OW28522   4.900   3.353   2.481
 9208SOL    HW128523   4.905   3.363   2.580
 9208SOL    HW228524   4.992   3.359   2.442
 9209SOL     OW28525   4.110   1.242   2.798
 9209SOL    HW128526   4.146   1.157   2.835
 9209SOL    HW228527   4.011   1.245   2.810
 9210SOL     OW28528   1.939   0.249   1.452
 9210SOL    HW128529   1.843   0.275   1.445
 9210SOL    HW228530   1.964   0.190   1.375
 9211SOL     OW28531   5.124   1.848   6.520
 9211SOL    HW128532   5.115   1.769   6.459
 9211SOL    HW228533   5.033   1.885   6.540
 9212SOL     OW28534   4.979   4.838   4.236
 9212SOL    HW128535   4.898   4.814   4.184
 9212SOL    HW228536   4.963   4.823   4.333
 9213SOL     OW28537   6.021   0.564   3.984
 9213SOL    HW128538   5.956   0.593   3.913
 9213SOL    HW228539   5.970   0.534   4.065
 9214SOL     OW28540   1.575   2.679   4.507
 9214SOL    HW128541   1.663   2.692   4.553
 9214SOL    HW228542   1.501   2.679   4.575
 9215SOL     OW28543   0.456   3.627   2.671
 9215SOL    HW128544   0.383   3.651   2.607
 9215SOL    HW228545   0.462   3.527   2.680
 9216SOL     OW28546   2.874   5.681   5.088
 9216SOL    HW128547   2.802   5.652   5.151
 9216SOL    HW228548   2.851   5.771   5.050
 9217SOL     OW28549   5.427   1.347   6.135
 9217SOL    HW128550   5.511   1.372   6.184
 9217SOL    HW228551   5.372   1.288   6.194
 9218SOL     OW28552   5.881   6.612   6.406
 9218SOL    HW128553   5.907   6.602   6.502
 9218SOL    HW228554   5.905   6.704   6.375
 9219SOL     OW28555   3.737   2.734   5.304
 9219SOL    HW128556   3.804   2.660   5.312
 9219SOL    HW228557   3.778   2.820   5.333
 9220SOL     OW28558   1.634   6.263   2.964
 9220SOL    HW128559   1.582   6.286   3.047
 9220SOL    HW228560   1.573   6.268   2.885
 9221SOL     OW28561   2.276   0.893   6.529
 9221SOL    HW128562   2.328   0.924   6.609
 9221SOL    HW228563   2.322   0.925   6.446
 9222SOL     OW28564   1.867   4.827   3.613
 9222SOL    HW128565   1.774   4.856   3.634
 9222SOL    HW228566   1.916   4.808   3.699
 9223SOL     OW28567   1.445   4.109   4.644
 9223SOL    HW128568   1.497   4.067   4.570
 9223SOL    HW228569   1.452   4.052   4.726
 9224SOL     OW28570   1.523   4.615   3.751
 9224SOL    HW128571   1.561   4.530   3.787
 9224SOL    HW228572   1.447   4.644   3.807
 9225SOL     OW28573   3.763   6.915   6.545
 9225SOL    HW128574   3.859   6.904   6.571
 9225SOL    HW228575   3.759   6.956   6.454
 9226SOL     OW28576   0.955   6.930   1.101
 9226SOL    HW128577   1.024   6.860   1.117
 9226SOL    HW228578   0.868   6.901   1.141
 9227SOL     OW28579   2.360   5.479   0.708
 9227SOL    HW128580   2.294   5.549   0.681
 9227SOL    HW228581   2.328   5.433   0.791
 9228SOL     OW28582   1.981   2.461   5.666
 9228SOL    HW128583   1.936   2.524   5.604
 9228SOL    HW228584   2.036   2.396   5.614
 9229SOL     OW28585   0.398   4.235   6.842
 9229SOL    HW128586   0.385   4.325   6.800
 9229SOL    HW228587   0.491   4.204   6.827
 9230SOL     OW28588   4.927   2.467   4.079
 9230SOL    HW128589   4.984   2.386   4.092
 9230SOL    HW228590   4.964   2.543   4.132
 9231SOL     OW28591   0.989   5.409   4.819
 9231SOL    HW128592   0.928   5.470   4.870
 9231SOL    HW228593   1.070   5.389   4.875
 9232SOL     OW28594   2.036   5.612   1.890
 9232SOL    HW128595   1.958   5.572   1.938
 9232SOL    HW228596   2.117   5.555   1.903
 9233SOL     OW28597   0.563   6.981   1.028
 9233SOL    HW128598   0.472   6.962   0.990
 9233SOL    HW228599   0.586   0.060   1.012
 9234SOL     OW28600   2.346   4.848   0.596
 9234SOL    HW128601   2.409   4.906   0.647
 9234SOL    HW228602   2.254   4.886   0.602
 9235SOL     OW28603   2.539   2.539   3.199
 9235SOL    HW128604   2.474   2.602   3.240
 9235SOL    HW228605   2.583   2.485   3.271
 9236SOL     OW28606   1.813   2.918   6.515
 9236SOL    HW128607   1.782   2.875   6.600
 9236SOL    HW228608   1.777   2.868   6.437
 9237SOL     OW28609   5.848   5.367   3.522
 9237SOL    HW128610   5.818   5.431   3.592
 9237SOL    HW228611   5.769   5.337   3.468
 9238SOL     OW28612   1.537   3.359   5.136
 9238SOL    HW128613   1.522   3.261   5.149
 9238SOL    HW228614   1.607   3.391   5.200
 9239SOL     OW28615   0.422   4.677   0.205
 9239SOL    HW128616   0.385   4.733   0.280
 9239SOL    HW228617   0.482   4.733   0.148
 9240SOL     OW28618   4.874   3.066   3.133
 9240SOL    HW128619   4.812   3.096   3.205
 9240SOL    HW228620   4.914   2.978   3.158
 9241SOL     OW28621   6.702   6.168   0.244
 9241SOL    HW128622   6.623   6.214   0.283
 9241SOL    HW228623   6.711   6.192   0.148
 9242SOL     OW28624   1.232   2.260   2.346
 9242SOL    HW128625   1.166   2.311   2.292
 9242SOL    HW228626   1.324   2.279   2.314
 9243SOL     OW28627   0.277   0.323   1.305
 9243SOL    HW128628   0.178   0.325   1.288
 9243SOL    HW228629   0.311   0.230   1.293
 9244SOL     OW28630   3.555   6.427   5.368
 9244SOL    HW128631   3.535   6.523   5.344
 9244SOL    HW228632   3.514   6.367   5.299
 9245SOL     OW28633   0.940   4.033   3.037
 9245SOL    HW128634   1.011   3.981   3.084
 9245SOL    HW228635   0.968   4.052   2.943
 9246SOL     OW28636   6.243   6.829   4.305
 9246SOL    HW128637   6.221   6.865   4.395
 9246SOL    HW228638   6.277   6.735   4.313
 9247SOL     OW28639   3.770   5.768   2.758
 9247SOL    HW128640   3.698   5.815   2.707
 9247SOL    HW228641   3.841   5.834   2.783
 9248SOL     OW28642   2.455   1.546   5.116
 9248SOL    HW128643   2.535   1.501   5.075
 9248SOL    HW228644   2.468   1.645   5.112
 9249SOL     OW28645   3.724   4.837   1.711
 9249SOL    HW128646   3.651   4.811   1.774
 9249SOL    HW228647   3.788   4.761   1.700
 9250SOL     OW28648   6.794   4.313   4.410
 9250SOL    HW128649   6.870   4.291   4.471
 9250SOL    HW228650   6.826   4.315   4.315
 9251SOL     OW28651   3.923   2.954   1.167
 9251SOL    HW128652   3.828   2.985   1.158
 9251SOL    HW228653   3.927   2.855   1.155
 9252SOL     OW28654   4.294   0.961   5.132
 9252SOL    HW128655   4.340   0.895   5.191
 9252SOL    HW228656   4.332   1.052   5.147
 9253SOL     OW28657   0.410   4.692   5.572
 9253SOL    HW128658   0.321   4.667   5.610
 9253SOL    HW228659   0.427   4.789   5.588
 9254SOL     OW28660   6.016   4.287   2.639
 9254SOL    HW128661   5.978   4.194   2.636
 9254SOL    HW228662   5.943   4.354   2.626
 9255SOL     OW28663   6.484   3.870   0.188
 9255SOL    HW128664   6.415   3.835   0.250
 9255SOL    HW228665   6.483   3.970   0.190
 9256SOL     OW28666   1.898   6.802   1.799
 9256SOL    HW128667   1.982   6.834   1.754
 9256SOL    HW228668   1.899   6.831   1.894
 9257SOL     OW28669   6.772   5.788   3.411
 9257SOL    HW128670   6.810   5.724   3.478
 9257SOL    HW228671   6.760   5.741   3.324
 9258SOL     OW28672   3.345   3.389   7.012
 9258SOL    HW128673   3.334   3.484   6.982
 9258SOL    HW228674   3.443   3.367   7.015
 9259SOL     OW28675   1.591   1.166   6.217
 9259SOL    HW128676   1.503   1.122   6.233
 9259SOL    HW228677   1.657   1.097   6.185
 9260SOL     OW28678   5.717   3.004   5.882
 9260SOL    HW128679   5.782   3.069   5.922
 9260SOL    HW228680   5.712   3.019   5.783
 9261SOL     OW28681   4.014   1.584   0.639
 9261SOL    HW128682   4.054   1.615   0.726
 9261SOL    HW228683   4.066   1.507   0.604
 9262SOL     OW28684   6.640   6.637   4.265
 9262SOL    HW128685   6.546   6.645   4.232
 9262SOL    HW228686   6.646   6.674   4.358
 9263SOL     OW28687   2.818   5.056   3.077
 9263SOL    HW128688   2.820   4.957   3.071
 9263SOL    HW228689   2.758   5.093   3.006
 9264SOL     OW28690   5.534   3.693   6.662
 9264SOL    HW128691   5.439   3.694   6.629
 9264SOL    HW228692   5.585   3.621   6.615
 9265SOL     OW28693   4.033   1.826   6.853
 9265SOL    HW128694   4.099   1.870   6.915
 9265SOL    HW228695   4.068   1.831   6.759
 9266SOL     OW28696   0.895   4.234   1.590
 9266SOL    HW128697   0.935   4.227   1.681
 9266SOL    HW228698   0.834   4.314   1.586
 9267SOL     OW28699   0.758   1.229   3.803
 9267SOL    HW128700   0.782   1.311   3.855
 9267SOL    HW228701   0.717   1.257   3.716
 9268SOL     OW28702   0.582   0.095   1.771
 9268SOL    HW128703   0.573   0.109   1.870
 9268SOL    HW228704   0.517   0.154   1.723
 9269SOL     OW28705   4.548   6.908   0.220
 9269SOL    HW128706   4.623   6.966   0.251
 9269SOL    HW228707   4.472   6.913   0.285
 9270SOL     OW28708   3.578   0.847   6.189
 9270SOL    HW128709   3.615   0.880   6.103
 9270SOL    HW228710   3.532   0.759   6.175
 9271SOL     OW28711   1.115   0.651   6.828
 9271SOL    HW128712   1.153   0.714   6.760
 9271SOL    HW228713   1.189   0.598   6.869
 9272SOL     OW28714   6.444   6.766   6.230
 9272SOL    HW128715   6.449   6.854   6.276
 9272SOL    HW228716   6.408   6.778   6.137
 9273SOL     OW28717   5.668   5.811   4.005
 9273SOL    HW128718   5.718   5.887   4.047
 9273SOL    HW228719   5.610   5.767   4.073
 9274SOL     OW28720   0.568   3.215   0.804
 9274SOL    HW128721   0.573   3.119   0.775
 9274SOL    HW228722   0.498   3.262   0.751
 9275SOL     OW28723   0.824   6.387   1.291
 9275SOL    HW128724   0.763   6.336   1.351
 9275SOL    HW228725   0.777   6.409   1.205
 9276SOL     OW28726   3.491   4.455   0.436
 9276SOL    HW128727   3.428   4.444   0.513
 9276SOL    HW228728   3.439   4.453   0.350
 9277SOL     OW28729   4.505   4.934   2.430
 9277SOL    HW128730   4.498   4.835   2.417
 9277SOL    HW228731   4.516   4.979   2.341
 9278SOL     OW28732   0.194   0.370   4.262
 9278SOL    HW128733   0.131   0.324   4.200
 9278SOL    HW228734   0.284   0.378   4.219
 9279SOL     OW28735   3.698   5.482   1.324
 9279SOL    HW128736   3.721   5.385   1.309
 9279SOL    HW228737   3.631   5.489   1.397
 9280SOL     OW28738   1.234   1.164   2.761
 9280SOL    HW128739   1.331   1.177   2.741
 9280SOL    HW228740   1.209   1.217   2.842
 9281SOL     OW28741   3.768   3.401   6.389
 9281SOL    HW128742   3.725   3.485   6.356
 9281SOL    HW228743   3.703   3.326   6.384
 9282SOL     OW28744   3.078   0.390   4.882
 9282SOL    HW128745   3.178   0.383   4.888
 9282SOL    HW228746   3.045   0.332   4.808
 9283SOL     OW28747   5.406   6.765   6.099
 9283SOL    HW128748   5.463   6.779   6.180
 9283SOL    HW228749   5.462   6.732   6.023
 9284SOL     OW28750   3.664   3.965   5.361
 9284SOL    HW128751   3.616   3.952   5.448
 9284SOL    HW228752   3.676   3.877   5.315
 9285SOL     OW28753   5.857   3.042   2.411
 9285SOL    HW128754   5.955   3.051   2.431
 9285SOL    HW228755   5.839   2.952   2.371
 9286SOL     OW28756   4.695   6.320   0.713
 9286SOL    HW128757   4.602   6.302   0.680
 9286SOL    HW228758   4.743   6.377   0.646
 9287SOL     OW28759   2.605   4.498   5.812
 9287SOL    HW128760   2.564   4.465   5.727
 9287SOL    HW228761   2.600   4.598   5.814
 9288SOL     OW28762   4.514   2.538   3.962
 9288SOL    HW128763   4.530   2.519   4.059
 9288SOL    HW228764   4.564   2.621   3.936
 9289SOL     OW28765   4.298   6.642   6.082
 9289SOL    HW128766   4.254   6.724   6.045
 9289SOL    HW228767   4.395   6.659   6.097
 9290SOL     OW28768   5.422   0.502   4.684
 9290SOL    HW128769   5.458   0.590   4.653
 9290SOL    HW228770   5.332   0.486   4.643
 9291SOL     OW28771   1.252   5.737   5.227
 9291SOL    HW128772   1.295   5.656   5.268
 9291SOL    HW228773   1.253   5.813   5.292
 9292SOL     OW28774   1.278   1.190   5.778
 9292SOL    HW128775   1.291   1.273   5.723
 9292SOL    HW228776   1.309   1.111   5.725
 9293SOL     OW28777   4.780   2.976   5.586
 9293SOL    HW128778   4.831   3.047   5.634
 9293SOL    HW228779   4.843   2.906   5.552
 9294SOL     OW28780   4.736   0.778   0.485
 9294SOL    HW128781   4.650   0.752   0.441
 9294SOL    HW228782   4.813   0.740   0.433
 9295SOL     OW28783   0.391   0.592   5.301
 9295SOL    HW128784   0.481   0.570   5.338
 9295SOL    HW228785   0.389   0.575   5.203
 9296SOL     OW28786   2.950   4.127   0.871
 9296SOL    HW128787   3.029   4.101   0.926
 9296SOL    HW228788   2.921   4.219   0.895
 9297SOL     OW28789   6.579   6.387   3.178
 9297SOL    HW128790   6.640   6.407   3.255
 9297SOL    HW228791   6.520   6.465   3.161
 9298SOL     OW28792   1.178   6.405   5.830
 9298SOL    HW128793   1.180   6.306   5.847
 9298SOL    HW228794   1.084   6.439   5.837
 9299SOL     OW28795   2.015   2.283   4.387
 9299SOL    HW128796   2.057   2.371   4.408
 9299SOL    HW228797   2.084   2.211   4.395
 9300SOL     OW28798   1.875   5.847   5.119
 9300SOL    HW128799   1.836   5.836   5.211
 9300SOL    HW228800   1.862   5.941   5.089
 9301SOL     OW28801   0.609   4.021   4.472
 9301SOL    HW128802   0.648   3.964   4.399
 9301SOL    HW228803   0.549   3.966   4.529
 9302SOL     OW28804   2.182   3.168   4.904
 9302SOL    HW128805   2.246   3.094   4.924
 9302SOL    HW228806   2.098   3.130   4.864
 9303SOL     OW28807   3.009   3.836   0.376
 9303SOL    HW128808   2.936   3.900   0.402
 9303SOL    HW228809   2.973   3.743   0.373
 9304SOL     OW28810   5.104   5.046   1.062
 9304SOL    HW128811   5.152   4.959   1.074
 9304SOL    HW228812   5.141   5.095   0.983
 9305SOL     OW28813   2.408   1.469   0.602
 9305SOL    HW128814   2.409   1.536   0.528
 9305SOL    HW228815   2.492   1.477   0.655
 9306SOL     OW28816   0.432   3.878   4.604
 9306SOL    HW128817   0.360   3.842   4.545
 9306SOL    HW228818   0.477   3.803   4.652
 9307SOL     OW28819   2.418   3.097   0.841
 9307SOL    HW128820   2.451   3.172   0.783
 9307SOL    HW228821   2.350   3.044   0.790
 9308SOL     OW28822   1.196   3.977   1.359
 9308SOL    HW128823   1.207   4.031   1.443
 9308SOL    HW228824   1.273   3.996   1.298
 9309SOL     OW28825   5.175   5.838   5.770
 9309SOL    HW128826   5.246   5.820   5.701
 9309SOL    HW228827   5.111   5.762   5.773
 9310SOL     OW28828   4.453   5.438   5.790
 9310SOL    HW128829   4.430   5.444   5.887
 9310SOL    HW228830   4.397   5.502   5.738
 9311SOL     OW28831   4.253   3.432   1.775
 9311SOL    HW128832   4.210   3.385   1.852
 9311SOL    HW228833   4.328   3.376   1.739
 9312SOL     OW28834   1.331   1.985   1.022
 9312SOL    HW128835   1.338   2.024   1.114
 9312SOL    HW228836   1.243   2.008   0.982
 9313SOL     OW28837   1.332   0.353   2.041
 9313SOL    HW128838   1.299   0.395   1.957
 9313SOL    HW228839   1.430   0.336   2.035
 9314SOL     OW28840   4.960   2.931   0.840
 9314SOL    HW128841   5.007   2.908   0.756
 9314SOL    HW228842   4.928   2.848   0.885
 9315SOL     OW28843   5.592   1.258   6.824
 9315SOL    HW128844   5.658   1.244   6.750
 9315SOL    HW228845   5.637   1.302   6.901
 9316SOL     OW28846   5.367   0.542   5.538
 9316SOL    HW128847   5.448   0.563   5.593
 9316SOL    HW228848   5.345   0.622   5.482
 9317SOL     OW28849   2.977   5.405   3.816
 9317SOL    HW128850   2.966   5.492   3.865
 9317SOL    HW228851   3.039   5.346   3.867
 9318SOL     OW28852   5.321   6.063   0.424
 9318SOL    HW128853   5.402   6.011   0.450
 9318SOL    HW228854   5.244   6.001   0.408
 9319SOL     OW28855   2.748   4.301   1.085
 9319SOL    HW128856   2.705   4.328   0.999
 9319SOL    HW228857   2.697   4.225   1.125
 9320SOL     OW28858   5.641   0.149   5.993
 9320SOL    HW128859   5.585   0.181   6.070
 9320SOL    HW228860   5.585   0.144   5.911
 9321SOL     OW28861   0.208   3.199   5.690
 9321SOL    HW128862   0.292   3.154   5.662
 9321SOL    HW228863   0.228   3.268   5.759
 9322SOL     OW28864   6.256   4.023   5.500
 9322SOL    HW128865   6.233   4.092   5.432
 9322SOL    HW228866   6.218   3.935   5.473
 9323SOL     OW28867   1.504   3.548   3.619
 9323SOL    HW128868   1.506   3.449   3.605
 9323SOL    HW228869   1.420   3.586   3.581
 9324SOL     OW28870   0.932   3.999   0.716
 9324SOL    HW128871   1.020   4.028   0.754
 9324SOL    HW228872   0.931   4.018   0.618
 9325SOL     OW28873   1.842   5.322   2.435
 9325SOL    HW128874   1.800   5.388   2.374
 9325SOL    HW228875   1.938   5.310   2.410
 9326SOL     OW28876   4.026   3.989   0.176
 9326SOL    HW128877   4.069   4.059   0.233
 9326SOL    HW228878   4.072   3.984   0.088
 9327SOL     OW28879   4.536   0.708   3.074
 9327SOL    HW128880   4.465   0.674   3.135
 9327SOL    HW228881   4.505   0.702   2.980
 9328SOL     OW28882   3.160   6.691   4.531
 9328SOL    HW128883   3.159   6.629   4.609
 9328SOL    HW228884   3.115   6.648   4.452
 9329SOL     OW28885   0.280   6.028   5.888
 9329SOL    HW128886   0.242   5.936   5.888
 9329SOL    HW228887   0.380   6.024   5.896
 9330SOL     OW28888   6.569   0.079   7.007
 9330SOL    HW128889   6.542   0.167   6.968
 9330SOL    HW228890   6.584   0.013   6.933
 9331SOL     OW28891   1.253   3.348   4.863
 9331SOL    HW128892   1.182   3.405   4.823
 9331SOL    HW228893   1.234   3.252   4.845
 9332SOL     OW28894   4.099   6.125   0.788
 9332SOL    HW128895   4.099   6.061   0.710
 9332SOL    HW228896   4.189   6.169   0.794
 9333SOL     OW28897   3.697   5.049   0.483
 9333SOL    HW128898   3.655   5.129   0.526
 9333SOL    HW228899   3.668   5.043   0.388
 9334SOL     OW28900   4.818   6.344   4.835
 9334SOL    HW128901   4.793   6.375   4.927
 9334SOL    HW228902   4.917   6.330   4.830
 9335SOL     OW28903   2.348   2.015   1.325
 9335SOL    HW128904   2.325   2.084   1.256
 9335SOL    HW228905   2.283   2.021   1.400
 9336SOL     OW28906   6.233   0.661   5.008
 9336SOL    HW128907   6.186   0.575   5.027
 9336SOL    HW228908   6.166   0.731   4.982
 9337SOL     OW28909   4.397   7.004   6.584
 9337SOL    HW128910   4.475   6.967   6.634
 9337SOL    HW228911   4.398   0.086   6.590
 9338SOL     OW28912   6.871   6.180   0.493
 9338SOL    HW128913   6.825   6.171   0.404
 9338SOL    HW228914   6.938   6.107   0.503
 9339SOL     OW28915   5.800   4.603   6.560
 9339SOL    HW128916   5.864   4.640   6.627
 9339SOL    HW228917   5.848   4.581   6.476
 9340SOL     OW28918   3.560   6.126   2.404
 9340SOL    HW128919   3.497   6.060   2.362
 9340SOL    HW228920   3.595   6.188   2.334
 9341SOL     OW28921   6.135   3.978   6.194
 9341SOL    HW128922   6.229   3.949   6.212
 9341SOL    HW228923   6.081   3.970   6.277
 9342SOL     OW28924   2.578   0.389   4.478
 9342SOL    HW128925   2.645   0.425   4.543
 9342SOL    HW228926   2.598   0.293   4.458
 9343SOL     OW28927   4.682   4.469   1.913
 9343SOL    HW128928   4.617   4.404   1.951
 9343SOL    HW228929   4.772   4.426   1.905
 9344SOL     OW28930   5.429   4.691   6.116
 9344SOL    HW128931   5.335   4.708   6.086
 9344SOL    HW228932   5.445   4.741   6.201
 9345SOL     OW28933   6.945   6.040   6.889
 9345SOL    HW128934   6.929   6.115   6.824
 9345SOL    HW228935   6.858   5.997   6.913
 9346SOL     OW28936   5.123   6.625   2.239
 9346SOL    HW128937   5.160   6.716   2.222
 9346SOL    HW228938   5.113   6.611   2.338
 9347SOL     OW28939   3.833   5.727   1.373
 9347SOL    HW128940   3.783   5.645   1.346
 9347SOL    HW228941   3.912   5.740   1.312
 9348SOL     OW28942   2.402   6.335   3.211
 9348SOL    HW128943   2.367   6.405   3.273
 9348SOL    HW228944   2.486   6.369   3.168
 9349SOL     OW28945   6.587   5.833   2.413
 9349SOL    HW128946   6.523   5.809   2.486
 9349SOL    HW228947   6.604   5.753   2.356
 9350SOL     OW28948   6.660   1.331   4.764
 9350SOL    HW128949   6.730   1.402   4.752
 9350SOL    HW228950   6.600   1.330   4.684
 9351SOL     OW28951   2.007   0.981   5.551
 9351SOL    HW128952   2.070   0.959   5.477
 9351SOL    HW228953   1.923   1.020   5.513
 9352SOL     OW28954   1.764   2.582   5.514
 9352SOL    HW128955   1.805   2.614   5.429
 9352SOL    HW228956   1.672   2.547   5.496
 9353SOL     OW28957   1.638   4.304   1.699
 9353SOL    HW128958   1.577   4.308   1.620
 9353SOL    HW228959   1.670   4.210   1.711
 9354SOL     OW28960   6.243   1.756   1.111
 9354SOL    HW128961   6.329   1.794   1.145
 9354SOL    HW228962   6.190   1.720   1.187
 9355SOL     OW28963   6.388   0.777   4.445
 9355SOL    HW128964   6.458   0.718   4.405
 9355SOL    HW228965   6.298   0.752   4.409
 9356SOL     OW28966   4.246   5.179   2.228
 9356SOL    HW128967   4.313   5.197   2.156
 9356SOL    HW228968   4.291   5.181   2.317
 9357SOL     OW28969   2.668   3.458   0.421
 9357SOL    HW128970   2.742   3.443   0.488
 9357SOL    HW228971   2.705   3.452   0.329
 9358SOL     OW28972   5.644   4.322   1.995
 9358SOL    HW128973   5.634   4.321   2.094
 9358SOL    HW228974   5.710   4.251   1.969
 9359SOL     OW28975   6.912   3.887   6.703
 9359SOL    HW128976   7.002   3.866   6.740
 9359SOL    HW228977   6.876   3.969   6.748
 9360SOL     OW28978   1.928   6.882   5.396
 9360SOL    HW128979   1.868   6.882   5.316
 9360SOL    HW228980   2.023   6.895   5.367
 9361SOL     OW28981   3.286   6.225   2.776
 9361SOL    HW128982   3.238   6.295   2.724
 9361SOL    HW228983   3.264   6.235   2.873
 9362SOL     OW28984   2.163   0.917   2.357
 9362SOL    HW128985   2.177   0.826   2.318
 9362SOL    HW228986   2.249   0.968   2.354
 9363SOL     OW28987   3.439   5.564   1.864
 9363SOL    HW128988   3.522   5.512   1.845
 9363SOL    HW228989   3.359   5.510   1.839
 9364SOL     OW28990   4.534   2.809   6.425
 9364SOL    HW128991   4.558   2.712   6.417
 9364SOL    HW228992   4.607   2.864   6.384
 9365SOL     OW28993   2.681   2.267   5.306
 9365SOL    HW128994   2.657   2.363   5.293
 9365SOL    HW228995   2.776   2.260   5.337
 9366SOL     OW28996   3.354   1.704   0.216
 9366SOL    HW128997   3.384   1.612   0.242
 9366SOL    HW228998   3.332   1.756   0.298
 9367SOL     OW28999   0.128   5.093   4.311
 9367SOL    HW129000   0.152   5.014   4.253
 9367SOL    HW229001   0.212   5.135   4.345
 9368SOL     OW29002   3.780   1.933   2.442
 9368SOL    HW129003   3.876   1.923   2.468
 9368SOL    HW229004   3.760   1.873   2.365
 9369SOL     OW29005   6.596   1.453   6.110
 9369SOL    HW129006   6.526   1.390   6.144
 9369SOL    HW229007   6.553   1.525   6.056
 9370SOL     OW29008   5.598   0.927   3.023
 9370SOL    HW129009   5.677   0.926   2.963
 9370SOL    HW229010   5.515   0.941   2.968
 9371SOL     OW29011   1.704   5.485   0.366
 9371SOL    HW129012   1.622   5.484   0.309
 9371SOL    HW229013   1.681   5.450   0.457
 9372SOL     OW29014   5.484   6.319   3.077
 9372SOL    HW129015   5.562   6.261   3.053
 9372SOL    HW229016   5.518   6.400   3.126
 9373SOL     OW29017   4.671   2.017   2.922
 9373SOL    HW129018   4.743   2.074   2.883
 9373SOL    HW229019   4.666   1.931   2.872
 9374SOL     OW29020   5.622   2.536   0.441
 9374SOL    HW129021   5.610   2.624   0.488
 9374SOL    HW229022   5.678   2.550   0.359
 9375SOL     OW29023   6.729   1.412   3.293
 9375SOL    HW129024   6.652   1.404   3.357
 9375SOL    HW229025   6.789   1.486   3.322
 9376SOL     OW29026   3.116   3.595   0.693
 9376SOL    HW129027   3.112   3.685   0.650
 9376SOL    HW229028   3.042   3.586   0.759
 9377SOL     OW29029   6.549   5.457   3.604
 9377SOL    HW129030   6.554   5.362   3.636
 9377SOL    HW229031   6.638   5.484   3.568
 9378SOL     OW29032   2.353   0.076   5.728
 9378SOL    HW129033   2.387   0.010   5.662
 9378SOL    HW229034   2.400   0.163   5.715
 9379SOL     OW29035   4.764   4.461   4.775
 9379SOL    HW129036   4.768   4.461   4.875
 9379SOL    HW229037   4.668   4.452   4.746
 9380SOL     OW29038   6.262   6.314   5.631
 9380SOL    HW129039   6.299   6.221   5.640
 9380SOL    HW229040   6.299   6.372   5.704
 9381SOL     OW29041   3.095   3.066   5.429
 9381SOL    HW129042   3.116   3.104   5.339
 9381SOL    HW229043   3.010   3.106   5.463
 9382SOL     OW29044   3.795   1.411   3.300
 9382SOL    HW129045   3.782   1.473   3.222
 9382SOL    HW229046   3.705   1.376   3.329
 9383SOL     OW29047   3.649   5.914   4.814
 9383SOL    HW129048   3.584   5.990   4.814
 9383SOL    HW229049   3.696   5.910   4.726
 9384SOL     OW29050   4.572   6.088   2.208
 9384SOL    HW129051   4.488   6.141   2.196
 9384SOL    HW229052   4.627   6.128   2.282
 9385SOL     OW29053   4.205   1.911   2.715
 9385SOL    HW129054   4.110   1.890   2.741
 9385SOL    HW229055   4.240   1.983   2.775
 9386SOL     OW29056   3.078   6.089   4.350
 9386SOL    HW129057   3.074   6.062   4.446
 9386SOL    HW229058   3.063   6.187   4.342
 9387SOL     OW29059   4.368   0.251   1.035
 9387SOL    HW129060   4.376   0.275   0.938
 9387SOL    HW229061   4.294   0.184   1.046
 9388SOL     OW29062   1.643   5.979   2.862
 9388SOL    HW129063   1.565   5.953   2.805
 9388SOL    HW229064   1.638   6.077   2.883
 9389SOL     OW29065   2.590   0.052   4.878
 9389SOL    HW129066   2.505   0.104   4.885
 9389SOL    HW229067   2.578   6.981   4.924
 9390SOL     OW29068   3.915   5.618   3.111
 9390SOL    HW129069   3.898   5.716   3.100
 9390SOL    HW229070   3.952   5.601   3.202
 9391SOL     OW29071   1.855   0.382   5.525
 9391SOL    HW129072   1.893   0.427   5.606
 9391SOL    HW229073   1.798   0.447   5.474
 9392SOL     OW29074   0.591   6.892   4.438
 9392SOL    HW129075   0.674   6.859   4.482
 9392SOL    HW229076   0.532   6.814   4.416
 9393SOL     OW29077   3.945   1.644   4.241
 9393SOL    HW129078   4.015   1.697   4.289
 9393SOL    HW229079   3.919   1.565   4.296
 9394SOL     OW29080   6.127   2.449   3.358
 9394SOL    HW129081   6.085   2.445   3.267
 9394SOL    HW229082   6.182   2.532   3.366
 9395SOL     OW29083   2.710   2.156   0.466
 9395SOL    HW129084   2.799   2.126   0.431
 9395SOL    HW229085   2.718   2.248   0.503
 9396SOL     OW29086   0.447   6.580   4.618
 9396SOL    HW129087   0.353   6.600   4.592
 9396SOL    HW229088   0.493   6.665   4.645
 9397SOL     OW29089   2.669   0.444   0.194
 9397SOL    HW129090   2.682   0.540   0.170
 9397SOL    HW229091   2.748   0.391   0.164
 9398SOL     OW29092   1.942   0.380   6.814
 9398SOL    HW129093   1.981   0.344   6.899
 9398SOL    HW229094   2.013   0.389   6.745
 9399SOL     OW29095   0.405   2.540   6.972
 9399SOL    HW129096   0.428   2.448   7.002
 9399SOL    HW229097   0.412   2.545   6.873
 9400SOL     OW29098   5.297   3.427   1.834
 9400SOL    HW129099   5.297   3.461   1.740
 9400SOL    HW229100   5.303   3.327   1.833
 9401SOL     OW29101   3.010   6.152   3.627
 9401SOL    HW129102   3.040   6.245   3.650
 9401SOL    HW229103   3.069   6.115   3.556
 9402SOL     OW29104   1.862   4.515   5.726
 9402SOL    HW129105   1.913   4.537   5.810
 9402SOL    HW229106   1.765   4.533   5.741
 9403SOL     OW29107   4.820   1.540   2.931
 9403SOL    HW129108   4.785   1.503   3.017
 9403SOL    HW229109   4.769   1.500   2.855
 9404SOL     OW29110   1.305   4.469   6.566
 9404SOL    HW129111   1.388   4.415   6.571
 9404SOL    HW229112   1.302   4.518   6.478
 9405SOL     OW29113   6.664   6.712   2.238
 9405SOL    HW129114   6.752   6.666   2.254
 9405SOL    HW229115   6.616   6.667   2.163
 9406SOL     OW29116   6.809   1.401   5.831
 9406SOL    HW129117   6.801   1.449   5.918
 9406SOL    HW229118   6.798   1.302   5.846
 9407SOL     OW29119   2.875   6.702   2.425
 9407SOL    HW129120   2.963   6.657   2.410
 9407SOL    HW229121   2.803   6.633   2.426
 9408SOL     OW29122   3.621   1.690   5.780
 9408SOL    HW129123   3.604   1.738   5.866
 9408SOL    HW229124   3.557   1.721   5.710
 9409SOL     OW29125   4.788   4.168   4.986
 9409SOL    HW129126   4.822   4.076   5.005
 9409SOL    HW229127   4.703   4.184   5.037
 9410SOL     OW29128   3.525   5.585   1.515
 9410SOL    HW129129   3.546   5.510   1.578
 9410SOL    HW229130   3.427   5.583   1.493
 9411SOL     OW29131   3.342   4.595   1.014
 9411SOL    HW129132   3.401   4.516   1.028
 9411SOL    HW229133   3.378   4.673   1.064
 9412SOL     OW29134   0.370   3.379   1.667
 9412SOL    HW129135   0.338   3.418   1.581
 9412SOL    HW229136   0.469   3.365   1.662
 9413SOL     OW29137   4.376   5.600   4.821
 9413SOL    HW129138   4.356   5.515   4.772
 9413SOL    HW229139   4.457   5.644   4.781
 9414SOL     OW29140   3.587   1.736   3.469
 9414SOL    HW129141   3.530   1.816   3.485
 9414SOL    HW229142   3.634   1.746   3.381
 9415SOL     OW29143   2.676   6.332   2.735
 9415SOL    HW129144   2.630   6.243   2.736
 9415SOL    HW229145   2.617   6.401   2.777
 9416SOL     OW29146   0.739   1.902   1.582
 9416SOL    HW129147   0.768   1.807   1.575
 9416SOL    HW229148   0.702   1.932   1.494
 9417SOL     OW29149   2.837   0.764   5.716
 9417SOL    HW129150   2.876   0.733   5.803
 9417SOL    HW229151   2.909   0.770   5.647
 9418SOL     OW29152   2.843   6.774   0.792
 9418SOL    HW129153   2.901   6.714   0.846
 9418SOL    HW229154   2.891   6.860   0.775
 9419SOL     OW29155   3.153   6.341   5.379
 9419SOL    HW129156   3.065   6.302   5.406
 9419SOL    HW229157   3.225   6.307   5.440
 9420SOL     OW29158   0.855   2.153   4.433
 9420SOL    HW129159   0.921   2.090   4.476
 9420SOL    HW229160   0.816   2.109   4.352
 9421SOL     OW29161   2.563   5.868   5.084
 9421SOL    HW129162   2.533   5.810   5.009
 9421SOL    HW229163   2.495   5.939   5.102
 9422SOL     OW29164   5.136   0.097   2.812
 9422SOL    HW129165   5.085   0.181   2.794
 9422SOL    HW229166   5.153   0.089   2.911
 9423SOL     OW29167   4.016   0.488   2.862
 9423SOL    HW129168   4.003   0.441   2.949
 9423SOL    HW229169   3.928   0.497   2.815
 9424SOL     OW29170   4.811   0.465   5.156
 9424SOL    HW129171   4.844   0.554   5.126
 9424SOL    HW229172   4.879   0.395   5.134
 9425SOL     OW29173   0.398   3.436   6.252
 9425SOL    HW129174   0.382   3.529   6.218
 9425SOL    HW229175   0.311   3.394   6.278
 9426SOL     OW29176   2.832   1.651   0.087
 9426SOL    HW129177   2.768   1.711   0.135
 9426SOL    HW229178   2.917   1.701   0.070
 9427SOL     OW29179   2.486   4.746   5.177
 9427SOL    HW129180   2.510   4.706   5.089
 9427SOL    HW229181   2.442   4.835   5.163
 9428SOL     OW29182   5.128   0.234   1.571
 9428SOL    HW129183   5.179   0.152   1.595
 9428SOL    HW229184   5.089   0.274   1.655
 9429SOL     OW29185   1.248   4.856   1.936
 9429SOL    HW129186   1.300   4.905   1.866
 9429SOL    HW229187   1.164   4.905   1.955
 9430SOL     OW29188   0.128   6.682   2.150
 9430SOL    HW129189   0.186   6.681   2.069
 9430SOL    HW229190   0.184   6.695   2.232
 9431SOL     OW29191   5.833   4.493   0.688
 9431SOL    HW129192   5.894   4.513   0.611
 9431SOL    HW229193   5.880   4.436   0.755
 9432SOL     OW29194   0.089   0.315   3.463
 9432SOL    HW129195   0.168   0.325   3.524
 9432SOL    HW229196   0.035   0.399   3.465
 9433SOL     OW29197   3.271   4.891   4.011
 9433SOL    HW129198   3.174   4.900   4.033
 9433SOL    HW229199   3.292   4.945   3.929
 9434SOL     OW29200   5.634   4.625   3.335
 9434SOL    HW129201   5.689   4.636   3.418
 9434SOL    HW229202   5.604   4.715   3.302
 9435SOL     OW29203   0.935   1.629   3.725
 9435SOL    HW129204   0.994   1.598   3.651
 9435SOL    HW229205   0.886   1.551   3.764
 9436SOL     OW29206   0.995   4.191   1.855
 9436SOL    HW129207   1.083   4.237   1.872
 9436SOL    HW229208   0.923   4.239   1.904
 9437SOL     OW29209   1.503   6.332   3.575
 9437SOL    HW129210   1.487   6.326   3.674
 9437SOL    HW229211   1.418   6.355   3.529
 9438SOL     OW29212   1.244   6.354   1.467
 9438SOL    HW129213   1.276   6.416   1.395
 9438SOL    HW229214   1.204   6.272   1.426
 9439SOL     OW29215   0.509   3.207   1.922
 9439SOL    HW129216   0.591   3.184   1.869
 9439SOL    HW229217   0.441   3.135   1.911
 9440SOL     OW29218   4.919   6.098   4.145
 9440SOL    HW129219   4.948   6.125   4.054
 9440SOL    HW229220   4.996   6.056   4.194
 9441SOL     OW29221   1.569   5.319   5.139
 9441SOL    HW129222   1.595   5.413   5.115
 9441SOL    HW229223   1.639   5.256   5.107
 9442SOL     OW29224   6.172   2.495   0.262
 9442SOL    HW129225   6.100   2.540   0.314
 9442SOL    HW229226   6.229   2.441   0.323
 9443SOL     OW29227   2.157   4.938   1.022
 9443SOL    HW129228   2.226   4.986   1.077
 9443SOL    HW229229   2.193   4.849   0.994
 9444SOL     OW29230   0.853   3.946   6.444
 9444SOL    HW129231   0.945   3.973   6.473
 9444SOL    HW229232   0.819   4.012   6.376
 9445SOL     OW29233   5.213   3.394   2.141
 9445SOL    HW129234   5.139   3.328   2.140
 9445SOL    HW229235   5.229   3.428   2.048
 9446SOL     OW29236   6.398   6.868   3.527
 9446SOL    HW129237   6.363   6.781   3.562
 9446SOL    HW229238   6.365   6.881   3.433
 9447SOL     OW29239   5.949   3.612   3.427
 9447SOL    HW129240   5.932   3.557   3.508
 9447SOL    HW229241   5.958   3.552   3.347
 9448SOL     OW29242   5.702   6.365   6.097
 9448SOL    HW129243   5.674   6.323   6.010
 9448SOL    HW229244   5.634   6.433   6.124
 9449SOL     OW29245   7.006   5.813   6.567
 9449SOL    HW129246   0.021   5.736   6.512
 9449SOL    HW229247   0.054   5.888   6.563
 9450SOL     OW29248   3.435   4.969   5.013
 9450SOL    HW129249   3.525   4.969   4.968
 9450SOL    HW229250   3.384   5.050   4.984
 9451SOL     OW29251   4.185   5.585   5.995
 9451SOL    HW129252   4.165   5.682   5.985
 9451SOL    HW229253   4.142   5.550   6.078
 9452SOL     OW29254   1.660   2.951   0.849
 9452SOL    HW129255   1.705   3.032   0.888
 9452SOL    HW229256   1.594   2.915   0.916
 9453SOL     OW29257   2.263   4.608   3.311
 9453SOL    HW129258   2.307   4.685   3.356
 9453SOL    HW229259   2.330   4.560   3.254
 9454SOL     OW29260   1.773   3.621   5.660
 9454SOL    HW129261   1.712   3.607   5.582
 9454SOL    HW229262   1.776   3.538   5.716
 9455SOL     OW29263   3.704   1.756   2.683
 9455SOL    HW129264   3.611   1.791   2.676
 9455SOL    HW229265   3.743   1.742   2.592
 9456SOL     OW29266   0.188   4.561   0.107
 9456SOL    HW129267   0.273   4.608   0.131
 9456SOL    HW229268   0.117   4.583   0.174
 9457SOL     OW29269   1.779   3.592   5.995
 9457SOL    HW129270   1.862   3.599   6.049
 9457SOL    HW229271   1.779   3.507   5.943
 9458SOL     OW29272   1.319   4.163   6.454
 9458SOL    HW129273   1.343   4.244   6.400
 9458SOL    HW229274   1.391   4.094   6.442
 9459SOL     OW29275   6.456   4.359   2.497
 9459SOL    HW129276   6.436   4.267   2.465
 9459SOL    HW229277   6.463   4.359   2.597
 9460SOL     OW29278   0.354   1.582   4.762
 9460SOL    HW129279   0.425   1.539   4.708
 9460SOL    HW229280   0.336   1.527   4.844
 9461SOL     OW29281   6.729   1.595   3.682
 9461SOL    HW129282   6.792   1.523   3.654
 9461SOL    HW229283   6.637   1.575   3.649
 9462SOL     OW29284   2.177   4.167   2.871
 9462SOL    HW129285   2.129   4.255   2.869
 9462SOL    HW229286   2.186   4.136   2.966
 9463SOL     OW29287   0.415   1.207   1.538
 9463SOL    HW129288   0.382   1.132   1.594
 9463SOL    HW229289   0.502   1.182   1.496
 9464SOL     OW29290   5.151   6.558   0.111
 9464SOL    HW129291   5.153   6.628   0.183
 9464SOL    HW229292   5.236   6.562   0.058
 9465SOL     OW29293   6.852   0.012   3.139
 9465SOL    HW129294   6.809   6.941   3.121
 9465SOL    HW229295   6.919   0.002   3.212
 9466SOL     OW29296   3.967   3.782   5.001
 9466SOL    HW129297   3.959   3.694   5.048
 9466SOL    HW229298   3.972   3.767   4.902
 9467SOL     OW29299   1.107   2.831   1.495
 9467SOL    HW129300   1.010   2.846   1.476
 9467SOL    HW229301   1.125   2.847   1.592
 9468SOL     OW29302   5.404   2.469   6.279
 9468SOL    HW129303   5.446   2.559   6.264
 9468SOL    HW229304   5.456   2.418   6.347
 9469SOL     OW29305   6.058   5.693   1.685
 9469SOL    HW129306   6.156   5.716   1.687
 9469SOL    HW229307   6.040   5.636   1.605
 9470SOL     OW29308   6.041   2.901   6.157
 9470SOL    HW129309   6.120   2.891   6.096
 9470SOL    HW229310   5.999   2.991   6.143
 9471SOL     OW29311   6.189   2.357   5.074
 9471SOL    HW129312   6.120   2.285   5.085
 9471SOL    HW229313   6.212   2.366   4.977
 9472SOL     OW29314   6.960   3.953   4.402
 9472SOL    HW129315   7.006   4.041   4.417
 9472SOL    HW229316   6.964   3.930   4.305
 9473SOL     OW29317   3.449   6.195   5.534
 9473SOL    HW129318   3.476   6.278   5.486
 9473SOL    HW229319   3.447   6.118   5.470
 9474SOL     OW29320   6.401   3.609   1.088
 9474SOL    HW129321   6.465   3.571   1.155
 9474SOL    HW229322   6.324   3.546   1.077
 9475SOL     OW29323   3.096   2.941   0.205
 9475SOL    HW129324   3.117   2.848   0.236
 9475SOL    HW229325   3.181   2.991   0.189
 9476SOL     OW29326   3.505   3.767   4.746
 9476SOL    HW129327   3.470   3.699   4.811
 9476SOL    HW229328   3.599   3.790   4.770
 9477SOL     OW29329   6.740   3.574   2.054
 9477SOL    HW129330   6.827   3.597   2.009
 9477SOL    HW229331   6.737   3.476   2.070
 9478SOL     OW29332   6.178   3.561   6.150
 9478SOL    HW129333   6.192   3.657   6.124
 9478SOL    HW229334   6.116   3.556   6.229
 9479SOL     OW29335   6.119   6.530   6.259
 9479SOL    HW129336   6.033   6.540   6.307
 9479SOL    HW229337   6.194   6.557   6.319
 9480SOL     OW29338   4.518   4.523   6.785
 9480SOL    HW129339   4.422   4.540   6.804
 9480SOL    HW229340   4.557   4.601   6.737
 9481SOL     OW29341   5.975   3.893   1.486
 9481SOL    HW129342   5.960   3.836   1.567
 9481SOL    HW229343   5.972   3.835   1.404
 9482SOL     OW29344   6.184   1.624   3.377
 9482SOL    HW129345   6.160   1.691   3.306
 9482SOL    HW229346   6.189   1.533   3.336
 9483SOL     OW29347   1.216   1.523   0.772
 9483SOL    HW129348   1.205   1.488   0.679
 9483SOL    HW229349   1.307   1.564   0.782
 9484SOL     OW29350   4.705   1.557   3.683
 9484SOL    HW129351   4.621   1.581   3.633
 9484SOL    HW229352   4.764   1.638   3.687
 9485SOL     OW29353   0.719   0.207   2.267
 9485SOL    HW129354   0.745   0.139   2.335
 9485SOL    HW229355   0.788   0.280   2.264
 9486SOL     OW29356   2.204   5.099   1.403
 9486SOL    HW129357   2.105   5.092   1.417
 9486SOL    HW229358   2.251   5.063   1.483
 9487SOL     OW29359   3.006   3.450   3.464
 9487SOL    HW129360   2.950   3.438   3.546
 9487SOL    HW229361   3.064   3.531   3.475
 9488SOL     OW29362   3.052   6.414   1.696
 9488SOL    HW129363   2.975   6.373   1.647
 9488SOL    HW229364   3.097   6.482   1.638
 9489SOL     OW29365   3.277   4.016   1.650
 9489SOL    HW129366   3.282   3.946   1.721
 9489SOL    HW229367   3.250   4.103   1.691
 9490SOL     OW29368   6.209   6.119   0.172
 9490SOL    HW129369   6.116   6.114   0.208
 9490SOL    HW229370   6.223   6.207   0.127
 9491SOL     OW29371   6.901   4.864   4.389
 9491SOL    HW129372   6.889   4.960   4.414
 9491SOL    HW229373   6.991   4.833   4.419
 9492SOL     OW29374   3.217   3.591   2.599
 9492SOL    HW129375   3.216   3.667   2.535
 9492SOL    HW229376   3.123   3.561   2.617
 9493SOL     OW29377   4.206   5.175   3.956
 9493SOL    HW129378   4.262   5.238   4.009
 9493SOL    HW229379   4.248   5.084   3.957
 9494SOL     OW29380   3.981   4.086   0.874
 9494SOL    HW129381   3.914   4.014   0.894
 9494SOL    HW229382   4.070   4.043   0.854
 9495SOL     OW29383   6.269   2.522   4.492
 9495SOL    HW129384   6.368   2.522   4.480
 9495SOL    HW229385   6.247   2.537   4.588
 9496SOL     OW29386   5.158   5.197   0.842
 9496SOL    HW129387   5.143   5.292   0.871
 9496SOL    HW229388   5.244   5.191   0.792
 9497SOL     OW29389   5.250   4.312   0.553
 9497SOL    HW129390   5.150   4.307   0.560
 9497SOL    HW229391   5.288   4.346   0.639
 9498SOL     OW29392   5.464   0.509   6.231
 9498SOL    HW129393   5.391   0.537   6.293
 9498SOL    HW229394   5.537   0.577   6.231
 9499SOL     OW29395   2.392   3.121   5.767
 9499SOL    HW129396   2.426   3.177   5.843
 9499SOL    HW229397   2.377   3.180   5.687
 9500SOL     OW29398   3.684   6.975   1.871
 9500SOL    HW129399   3.615   6.934   1.812
 9500SOL    HW229400   3.771   6.927   1.857
 9501SOL     OW29401   2.690   1.225   4.335
 9501SOL    HW129402   2.717   1.313   4.296
 9501SOL    HW229403   2.703   1.153   4.267
 9502SOL     OW29404   0.469   1.812   4.792
 9502SOL    HW129405   0.478   1.860   4.704
 9502SOL    HW229406   0.406   1.735   4.781
 9503SOL     OW29407   0.710   0.957   1.986
 9503SOL    HW129408   0.718   0.889   1.913
 9503SOL    HW229409   0.784   0.946   2.051
 9504SOL     OW29410   0.065   2.317   1.105
 9504SOL    HW129411   0.011   2.379   1.162
 9504SOL    HW229412   0.162   2.337   1.117
 9505SOL     OW29413   5.071   3.729   3.605
 9505SOL    HW129414   5.088   3.631   3.613
 9505SOL    HW229415   5.130   3.778   3.670
 9506SOL     OW29416   0.634   3.312   6.321
 9506SOL    HW129417   0.718   3.322   6.267
 9506SOL    HW229418   0.560   3.362   6.276
 9507SOL     OW29419   1.780   1.323   3.927
 9507SOL    HW129420   1.865   1.272   3.910
 9507SOL    HW229421   1.792   1.417   3.895
 9508SOL     OW29422   6.428   2.564   0.543
 9508SOL    HW129423   6.515   2.594   0.583
 9508SOL    HW229424   6.354   2.621   0.579
 9509SOL     OW29425   1.112   6.669   5.245
 9509SOL    HW129426   1.165   6.586   5.229
 9509SOL    HW229427   1.034   6.648   5.304
 9510SOL     OW29428   0.559   3.752   1.609
 9510SOL    HW129429   0.479   3.796   1.648
 9510SOL    HW229430   0.536   3.712   1.521
 9511SOL     OW29431   1.227   1.542   6.800
 9511SOL    HW129432   1.288   1.495   6.863
 9511SOL    HW229433   1.133   1.512   6.816
 9512SOL     OW29434   5.964   2.023   3.256
 9512SOL    HW129435   5.999   2.049   3.346
 9512SOL    HW229436   5.887   2.081   3.232
 9513SOL     OW29437   1.229   3.261   5.135
 9513SOL    HW129438   1.260   3.307   5.052
 9513SOL    HW229439   1.241   3.162   5.124
 9514SOL     OW29440   1.483   3.701   6.874
 9514SOL    HW129441   1.427   3.780   6.851
 9514SOL    HW229442   1.448   3.658   6.958
 9515SOL     OW29443   1.424   6.082   0.529
 9515SOL    HW129444   1.506   6.121   0.488
 9515SOL    HW229445   1.441   5.987   0.555
 9516SOL     OW29446   4.863   3.536   4.497
 9516SOL    HW129447   4.888   3.505   4.589
 9516SOL    HW229448   4.766   3.562   4.496
 9517SOL     OW29449   1.465   4.980   0.713
 9517SOL    HW129450   1.386   4.924   0.738
 9517SOL    HW229451   1.534   4.976   0.786
 9518SOL     OW29452   0.772   2.137   6.693
 9518SOL    HW129453   0.798   2.120   6.598
 9518SOL    HW229454   0.836   2.090   6.754
 9519SOL     OW29455   3.667   3.116   3.192
 9519SOL    HW129456   3.582   3.147   3.233
 9519SOL    HW229457   3.685   3.168   3.108
 9520SOL     OW29458   6.588   1.700   3.312
 9520SOL    HW129459   6.528   1.670   3.238
 9520SOL    HW229460   6.559   1.658   3.398
 9521SOL     OW29461   3.578   3.798   1.663
 9521SOL    HW129462   3.603   3.740   1.740
 9521SOL    HW229463   3.622   3.888   1.673
 9522SOL     OW29464   4.177   5.560   3.038
 9522SOL    HW129465   4.233   5.643   3.036
 9522SOL    HW229466   4.081   5.584   3.055
 9523SOL     OW29467   2.673   5.002   5.095
 9523SOL    HW129468   2.573   5.000   5.095
 9523SOL    HW229469   2.708   4.966   5.008
 9524SOL     OW29470   1.573   2.521   0.937
 9524SOL    HW129471   1.634   2.559   0.867
 9524SOL    HW229472   1.511   2.455   0.895
 9525SOL     OW29473   1.603   1.985   4.744
 9525SOL    HW129474   1.664   2.058   4.712
 9525SOL    HW229475   1.636   1.948   4.831
 9526SOL     OW29476   5.983   4.810   1.664
 9526SOL    HW129477   6.002   4.846   1.573
 9526SOL    HW229478   6.009   4.714   1.668
 9527SOL     OW29479   2.371   0.362   4.863
 9527SOL    HW129480   2.366   0.376   4.962
 9527SOL    HW229481   2.420   0.438   4.821
 9528SOL     OW29482   5.941   1.583   0.940
 9528SOL    HW129483   5.960   1.678   0.961
 9528SOL    HW229484   5.844   1.572   0.917
 9529SOL     OW29485   5.595   3.990   0.508
 9529SOL    HW129486   5.593   4.027   0.415
 9529SOL    HW229487   5.603   4.066   0.574
 9530SOL     OW29488   1.027   4.711   4.103
 9530SOL    HW129489   1.069   4.798   4.077
 9530SOL    HW229490   0.977   4.674   4.024
 9531SOL     OW29491   4.446   4.548   2.937
 9531SOL    HW129492   4.476   4.462   2.979
 9531SOL    HW229493   4.525   4.600   2.906
 9532SOL     OW29494   0.037   5.012   1.180
 9532SOL    HW129495   0.122   5.061   1.204
 9532SOL    HW229496   6.976   5.065   1.211
 9533SOL     OW29497   0.805   5.128   3.329
 9533SOL    HW129498   0.852   5.125   3.241
 9533SOL    HW229499   0.831   5.211   3.378
 9534SOL     OW29500   5.943   4.171   4.716
 9534SOL    HW129501   6.035   4.172   4.756
 9534SOL    HW229502   5.917   4.264   4.689
 9535SOL     OW29503   1.846   0.860   5.755
 9535SOL    HW129504   1.751   0.887   5.769
 9535SOL    HW229505   1.886   0.918   5.684
 9536SOL     OW29506   3.118   3.488   5.760
 9536SOL    HW129507   3.213   3.456   5.756
 9536SOL    HW229508   3.058   3.416   5.727
 9537SOL     OW29509   3.208   1.408   4.787
 9537SOL    HW129510   3.197   1.360   4.699
 9537SOL    HW229511   3.228   1.504   4.770
 9538SOL     OW29512   4.467   0.516   4.425
 9538SOL    HW129513   4.511   0.458   4.495
 9538SOL    HW229514   4.375   0.483   4.407
 9539SOL     OW29515   2.944   3.757   4.516
 9539SOL    HW129516   3.031   3.787   4.555
 9539SOL    HW229517   2.889   3.836   4.491
 9540SOL     OW29518   5.792   5.252   4.124
 9540SOL    HW129519   5.884   5.284   4.099
 9540SOL    HW229520   5.792   5.152   4.128
 9541SOL     OW29521   2.044   0.814   5.971
 9541SOL    HW129522   2.021   0.722   6.005
 9541SOL    HW229523   1.982   0.838   5.896
 9542SOL     OW29524   5.700   5.141   4.600
 9542SOL    HW129525   5.750   5.060   4.568
 9542SOL    HW229526   5.638   5.115   4.674
 9543SOL     OW29527   3.819   0.550   6.379
 9543SOL    HW129528   3.796   0.468   6.431
 9543SOL    HW229529   3.875   0.611   6.435
 9544SOL     OW29530   5.340   3.327   4.495
 9544SOL    HW129531   5.323   3.405   4.556
 9544SOL    HW229532   5.436   3.300   4.502
 9545SOL     OW29533   5.717   4.885   2.523
 9545SOL    HW129534   5.812   4.852   2.524
 9545SOL    HW229535   5.699   4.936   2.607
 9546SOL     OW29536   4.031   1.064   5.860
 9546SOL    HW129537   4.020   1.069   5.960
 9546SOL    HW229538   4.103   0.999   5.837
 9547SOL     OW29539   2.490   5.237   3.712
 9547SOL    HW129540   2.514   5.333   3.699
 9547SOL    HW229541   2.520   5.207   3.802
 9548SOL     OW29542   6.890   5.271   4.684
 9548SOL    HW129543   6.856   5.365   4.689
 9548SOL    HW229544   6.820   5.209   4.719
 9549SOL     OW29545   2.570   1.332   2.117
 9549SOL    HW129546   2.482   1.340   2.069
 9549SOL    HW229547   2.641   1.379   2.064
 9550SOL     OW29548   6.775   1.234   0.107
 9550SOL    HW129549   6.792   1.274   0.017
 9550SOL    HW229550   6.721   1.150   0.097
 9551SOL     OW29551   5.806   2.777   6.027
 9551SOL    HW129552   5.868   2.825   6.089
 9551SOL    HW229553   5.767   2.843   5.963
 9552SOL     OW29554   2.513   6.016   5.931
 9552SOL    HW129555   2.425   5.980   5.962
 9552SOL    HW229556   2.567   5.942   5.891
 9553SOL     OW29557   5.512   2.309   0.423
 9553SOL    HW129558   5.574   2.244   0.468
 9553SOL    HW229559   5.549   2.401   0.432
 9554SOL     OW29560   1.442   6.303   3.148
 9554SOL    HW129561   1.481   6.351   3.227
 9554SOL    HW229562   1.355   6.346   3.123
 9555SOL     OW29563   0.066   1.243   3.155
 9555SOL    HW129564   7.000   1.260   3.103
 9555SOL    HW229565   0.068   1.303   3.235
 9556SOL     OW29566   1.512   3.420   0.867
 9556SOL    HW129567   1.460   3.428   0.782
 9556SOL    HW229568   1.475   3.345   0.922
 9557SOL     OW29569   5.634   7.014   1.156
 9557SOL    HW129570   5.703   0.061   1.123
 9557SOL    HW229571   5.639   7.008   1.256
 9558SOL     OW29572   5.998   5.897   5.593
 9558SOL    HW129573   5.977   5.812   5.642
 9558SOL    HW229574   5.916   5.954   5.589
 9559SOL     OW29575   0.866   4.990   0.581
 9559SOL    HW129576   0.934   4.919   0.598
 9559SOL    HW229577   0.912   5.077   0.568
 9560SOL     OW29578   2.312   1.142   2.886
 9560SOL    HW129579   2.340   1.047   2.876
 9560SOL    HW229580   2.392   1.201   2.896
 9561SOL     OW29581   0.510   0.824   1.554
 9561SOL    HW129582   0.600   0.840   1.514
 9561SOL    HW229583   0.442   0.882   1.510
 9562SOL     OW29584   2.738   0.026   4.650
 9562SOL    HW129585   2.735   6.943   4.646
 9562SOL    HW229586   2.675   0.058   4.721
 9563SOL     OW29587   6.976   6.915   0.082
 9563SOL    HW129588   6.928   6.830   0.102
 9563SOL    HW229589   0.050   6.913   0.122
 9564SOL     OW29590   2.260   0.998   0.451
 9564SOL    HW129591   2.196   1.042   0.388
 9564SOL    HW229592   2.312   1.068   0.500
 9565SOL     OW29593   3.930   1.261   5.420
 9565SOL    HW129594   4.007   1.206   5.387
 9565SOL    HW229595   3.910   1.235   5.515
 9566SOL     OW29596   2.957   6.090   0.028
 9566SOL    HW129597   2.903   6.170   0.055
 9566SOL    HW229598   2.977   6.034   0.108
 9567SOL     OW29599   5.161   4.769   0.534
 9567SOL    HW129600   5.079   4.790   0.588
 9567SOL    HW229601   5.242   4.779   0.593
 9568SOL     OW29602   4.695   1.877   0.013
 9568SOL    HW129603   4.663   1.949   6.969
 9568SOL    HW229604   4.759   1.818   6.982
 9569SOL     OW29605   6.959   1.726   2.249
 9569SOL    HW129606   7.001   1.657   2.307
 9569SOL    HW229607   0.005   1.801   2.233
 9570SOL     OW29608   0.705   2.964   1.630
 9570SOL    HW129609   0.662   3.010   1.553
 9570SOL    HW229610   0.730   2.871   1.604
 9571SOL     OW29611   3.662   2.839   5.737
 9571SOL    HW129612   3.588   2.905   5.725
 9571SOL    HW229613   3.746   2.888   5.763
 9572SOL     OW29614   1.899   5.019   2.154
 9572SOL    HW129615   1.991   4.987   2.174
 9572SOL    HW229616   1.832   4.959   2.197
 9573SOL     OW29617   0.693   2.289   6.309
 9573SOL    HW129618   0.707   2.207   6.365
 9573SOL    HW229619   0.777   2.343   6.308
 9574SOL     OW29620   3.608   2.918   2.703
 9574SOL    HW129621   3.663   2.879   2.629
 9574SOL    HW229622   3.511   2.903   2.684
 9575SOL     OW29623   0.466   1.401   1.807
 9575SOL    HW129624   0.529   1.325   1.822
 9575SOL    HW229625   0.469   1.427   1.710
 9576SOL     OW29626   1.891   1.848   0.690
 9576SOL    HW129627   1.963   1.816   0.628
 9576SOL    HW229628   1.887   1.948   0.689
 9577SOL     OW29629   0.583   0.443   6.034
 9577SOL    HW129630   0.652   0.463   5.964
 9577SOL    HW229631   0.492   0.462   5.996
 9578SOL     OW29632   1.115   3.689   2.862
 9578SOL    HW129633   1.175   3.621   2.820
 9578SOL    HW229634   1.046   3.643   2.918
 9579SOL     OW29635   0.165   5.245   3.310
 9579SOL    HW129636   0.245   5.205   3.354
 9579SOL    HW229637   0.082   5.216   3.357
 9580SOL     OW29638   4.336   3.534   1.021
 9580SOL    HW129639   4.324   3.465   0.949
 9580SOL    HW229640   4.400   3.499   1.089
 9581SOL     OW29641   0.539   0.225   6.715
 9581SOL    HW129642   0.528   0.290   6.640
 9581SOL    HW229643   0.458   0.225   6.773
 9582SOL     OW29644   4.502   5.326   5.256
 9582SOL    HW129645   4.418   5.301   5.207
 9582SOL    HW229646   4.545   5.404   5.210
 9583SOL     OW29647   2.860   3.886   1.264
 9583SOL    HW129648   2.840   3.792   1.292
 9583SOL    HW229649   2.840   3.897   1.167
 9584SOL     OW29650   0.019   5.153   5.928
 9584SOL    HW129651   7.005   5.096   6.004
 9584SOL    HW229652   0.054   5.240   5.963
 9585SOL     OW29653   5.968   6.730   3.624
 9585SOL    HW129654   5.906   6.746   3.701
 9585SOL    HW229655   5.920   6.678   3.553
 9586SOL     OW29656   4.889   5.025   1.981
 9586SOL    HW129657   4.939   4.963   2.041
 9586SOL    HW229658   4.895   4.993   1.887
 9587SOL     OW29659   0.788   0.165   1.481
 9587SOL    HW129660   0.749   0.075   1.500
 9587SOL    HW229661   0.727   0.236   1.515
 9588SOL     OW29662   6.239   6.701   1.435
 9588SOL    HW129663   6.287   6.616   1.414
 9588SOL    HW229664   6.221   6.751   1.350
 9589SOL     OW29665   1.813   5.071   0.027
 9589SOL    HW129666   1.766   5.129   0.094
 9589SOL    HW229667   1.909   5.061   0.053
 9590SOL     OW29668   5.671   3.377   1.717
 9590SOL    HW129669   5.666   3.323   1.802
 9590SOL    HW229670   5.599   3.347   1.655
 9591SOL     OW29671   2.940   5.209   5.667
 9591SOL    HW129672   2.878   5.152   5.613
 9591SOL    HW229673   3.005   5.151   5.715
 9592SOL     OW29674   2.806   4.438   0.416
 9592SOL    HW129675   2.877   4.429   0.486
 9592SOL    HW229676   2.844   4.410   0.327
 9593SOL     OW29677   0.457   1.244   6.408
 9593SOL    HW129678   0.365   1.246   6.447
 9593SOL    HW229679   0.503   1.159   6.436
 9594SOL     OW29680   1.699   5.083   3.899
 9594SOL    HW129681   1.641   5.081   3.817
 9594SOL    HW229682   1.671   5.010   3.961
 9595SOL     OW29683   0.350   2.990   4.387
 9595SOL    HW129684   0.321   2.897   4.363
 9595SOL    HW229685   0.437   3.010   4.342
 9596SOL     OW29686   1.350   5.140   6.583
 9596SOL    HW129687   1.255   5.171   6.591
 9596SOL    HW229688   1.410   5.218   6.566
 9597SOL     OW29689   6.952   4.120   1.564
 9597SOL    HW129690   6.947   4.219   1.551
 9597SOL    HW229691   6.891   4.093   1.639
 9598SOL     OW29692   1.425   4.959   3.141
 9598SOL    HW129693   1.463   4.926   3.227
 9598SOL    HW229694   1.493   5.015   3.094
 9599SOL     OW29695   2.605   0.608   4.294
 9599SOL    HW129696   2.622   0.524   4.346
 9599SOL    HW229697   2.542   0.667   4.344
 9600SOL     OW29698   3.322   6.480   0.093
 9600SOL    HW129699   3.373   6.514   0.172
 9600SOL    HW229700   3.282   6.557   0.043
 9601SOL     OW29701   4.987   4.019   1.004
 9601SOL    HW129702   4.993   3.987   1.099
 9601SOL    HW229703   5.001   4.118   1.001
 9602SOL     OW29704   6.214   4.018   6.575
 9602SOL    HW129705   6.210   3.919   6.565
 9602SOL    HW229706   6.133   4.059   6.535
 9603SOL     OW29707   4.536   1.513   5.386
 9603SOL    HW129708   4.534   1.552   5.478
 9603SOL    HW229709   4.558   1.585   5.320
 9604SOL     OW29710   4.822   0.425   0.626
 9604SOL    HW129711   4.753   0.497   0.635
 9604SOL    HW229712   4.778   0.341   0.594
 9605SOL     OW29713   0.913   5.671   3.451
 9605SOL    HW129714   0.823   5.715   3.452
 9605SOL    HW229715   0.982   5.738   3.426
 9606SOL     OW29716   1.926   6.335   0.064
 9606SOL    HW129717   1.863   6.334   7.003
 9606SOL    HW229718   1.924   6.246   0.109
 9607SOL     OW29719   1.910   1.346   6.620
 9607SOL    HW129720   1.971   1.402   6.564
 9607SOL    HW229721   1.828   1.324   6.567
 9608SOL     OW29722   7.011   5.434   2.141
 9608SOL    HW129723   6.956   5.365   2.095
 9608SOL    HW229724   7.014   5.415   2.239
 9609SOL     OW29725   2.243   3.535   0.172
 9609SOL    HW129726   2.147   3.562   0.177
 9609SOL    HW229727   2.248   3.437   0.151
 9610SOL     OW29728   1.612   4.856   3.694
 9610SOL    HW129729   1.543   4.928   3.691
 9610SOL    HW229730   1.567   4.768   3.705
 9611SOL     OW29731   1.048   6.252   6.862
 9611SOL    HW129732   0.984   6.309   6.914
 9611SOL    HW229733   1.063   6.166   6.909
 9612SOL     OW29734   0.457   3.919   1.267
 9612SOL    HW129735   0.381   3.894   1.208
 9612SOL    HW229736   0.427   3.988   1.333
 9613SOL     OW29737   5.172   0.513   3.831
 9613SOL    HW129738   5.218   0.581   3.773
 9613SOL    HW229739   5.075   0.537   3.839
 9614SOL     OW29740   3.734   2.426   1.392
 9614SOL    HW129741   3.777   2.509   1.356
 9614SOL    HW229742   3.722   2.434   1.491
 9615SOL     OW29743   2.673   0.132   0.627
 9615SOL    HW129744   2.625   0.053   0.665
 9615SOL    HW229745   2.613   0.212   0.629
 9616SOL     OW29746   3.315   3.619   1.322
 9616SOL    HW129747   3.339   3.689   1.389
 9616SOL    HW229748   3.285   3.663   1.238
 9617SOL     OW29749   1.304   3.672   3.470
 9617SOL    HW129750   1.374   3.725   3.423
 9617SOL    HW229751   1.215   3.714   3.456
 9618SOL     OW29752   4.264   6.652   6.848
 9618SOL    HW129753   4.174   6.623   6.818
 9618SOL    HW229754   4.334   6.599   6.801
 9619SOL     OW29755   1.672   6.584   6.619
 9619SOL    HW129756   1.628   6.653   6.677
 9619SOL    HW229757   1.742   6.628   6.562
 9620SOL     OW29758   4.502   1.184   6.160
 9620SOL    HW129759   4.496   1.208   6.063
 9620SOL    HW229760   4.586   1.132   6.176
 9621SOL     OW29761   0.770   1.734   1.907
 9621SOL    HW129762   0.774   1.702   1.812
 9621SOL    HW229763   0.707   1.676   1.959
 9622SOL     OW29764   6.895   1.281   0.615
 9622SOL    HW129765   6.803   1.318   0.610
 9622SOL    HW229766   6.928   1.284   0.709
 9623SOL     OW29767   2.896   3.809   5.549
 9623SOL    HW129768   2.917   3.904   5.574
 9623SOL    HW229769   2.856   3.808   5.457
 9624SOL     OW29770   6.694   4.146   2.284
 9624SOL    HW129771   6.650   4.080   2.345
 9624SOL    HW229772   6.787   4.163   2.316
 9625SOL     OW29773   4.996   5.161   6.765
 9625SOL    HW129774   4.981   5.229   6.838
 9625SOL    HW229775   4.914   5.104   6.755
 9626SOL     OW29776   3.665   4.732   6.747
 9626SOL    HW129777   3.576   4.722   6.792
 9626SOL    HW229778   3.736   4.694   6.806
 9627SOL     OW29779   6.923   5.984   4.523
 9627SOL    HW129780   6.869   6.069   4.529
 9627SOL    HW229781   0.001   6.004   4.544
 9628SOL     OW29782   4.773   4.881   6.831
 9628SOL    HW129783   4.808   4.893   6.925
 9628SOL    HW229784   4.838   4.825   6.779
 9629SOL     OW29785   0.092   0.130   2.021
 9629SOL    HW129786   0.127   0.223   2.032
 9629SOL    HW229787   0.108   0.077   2.104
 9630SOL     OW29788   6.872   6.921   5.187
 9630SOL    HW129789   6.859   7.016   5.159
 9630SOL    HW229790   6.881   6.916   5.286
 9631SOL     OW29791   6.909   6.714   6.800
 9631SOL    HW129792   6.947   6.769   6.875
 9631SOL    HW229793   6.950   6.743   6.714
 9632SOL     OW29794   0.563   6.865   2.999
 9632SOL    HW129795   0.624   6.793   3.030
 9632SOL    HW229796   0.585   6.950   3.047
 9633SOL     OW29797   5.139   4.587   5.866
 9633SOL    HW129798   5.216   4.614   5.807
 9633SOL    HW229799   5.131   4.651   5.942
 9634SOL     OW29800   1.082   5.802   4.086
 9634SOL    HW129801   1.010   5.742   4.052
 9634SOL    HW229802   1.171   5.763   4.063
 9635SOL     OW29803   1.745   4.739   4.987
 9635SOL    HW129804   1.678   4.668   5.012
 9635SOL    HW229805   1.791   4.773   5.069
 9636SOL     OW29806   4.326   2.034   5.926
 9636SOL    HW129807   4.235   2.067   5.951
 9636SOL    HW229808   4.377   2.109   5.882
 9637SOL     OW29809   2.499   1.227   6.109
 9637SOL    HW129810   2.532   1.311   6.065
 9637SOL    HW229811   2.461   1.166   6.040
 9638SOL     OW29812   6.771   3.757   6.944
 9638SOL    HW129813   6.676   3.788   6.956
 9638SOL    HW229814   6.803   3.781   6.853
 9639SOL     OW29815   3.375   1.554   2.339
 9639SOL    HW129816   3.299   1.615   2.358
 9639SOL    HW229817   3.431   1.543   2.421
 9640SOL     OW29818   2.135   3.004   3.353
 9640SOL    HW129819   2.045   2.990   3.312
 9640SOL    HW229820   2.204   2.956   3.298
 9641SOL     OW29821   3.607   6.538   0.804
 9641SOL    HW129822   3.701   6.506   0.800
 9641SOL    HW229823   3.557   6.486   0.873
 9642SOL     OW29824   3.543   6.630   4.936
 9642SOL    HW129825   3.582   6.721   4.944
 9642SOL    HW229826   3.447   6.636   4.908
 9643SOL     OW29827   5.552   5.249   4.250
 9643SOL    HW129828   5.644   5.267   4.216
 9643SOL    HW229829   5.519   5.162   4.211
 9644SOL     OW29830   1.226   4.461   6.177
 9644SOL    HW129831   1.317   4.419   6.172
 9644SOL    HW229832   1.165   4.402   6.231
 9645SOL     OW29833   3.142   5.289   3.475
 9645SOL    HW129834   3.083   5.263   3.551
 9645SOL    HW229835   3.102   5.255   3.389
 9646SOL     OW29836   3.057   4.767   1.828
 9646SOL    HW129837   2.982   4.716   1.871
 9646SOL    HW229838   3.104   4.708   1.762
 9647SOL     OW29839   6.115   5.375   1.913
 9647SOL    HW129840   6.143   5.353   1.819
 9647SOL    HW229841   6.197   5.386   1.970
 9648SOL     OW29842   4.437   1.629   0.569
 9648SOL    HW129843   4.533   1.651   0.586
 9648SOL    HW229844   4.380   1.708   0.595
 9649SOL     OW29845   2.875   6.681   0.040
 9649SOL    HW129846   2.893   6.622   6.979
 9649SOL    HW229847   2.836   6.626   0.115
 9650SOL     OW29848   5.828   5.115   2.316
 9650SOL    HW129849   5.896   5.162   2.259
 9650SOL    HW229850   5.851   5.018   2.320
 9651SOL     OW29851   6.951   0.992   6.308
 9651SOL    HW129852   7.015   1.069   6.300
 9651SOL    HW229853   6.870   1.022   6.358
 9652SOL     OW29854   2.005   4.456   0.591
 9652SOL    HW129855   2.095   4.467   0.550
 9652SOL    HW229856   2.002   4.505   0.678
 9653SOL     OW29857   4.290   5.346   4.710
 9653SOL    HW129858   4.250   5.255   4.713
 9653SOL    HW229859   4.223   5.411   4.674
 9654SOL     OW29860   3.184   2.971   1.369
 9654SOL    HW129861   3.155   3.013   1.455
 9654SOL    HW229862   3.241   2.891   1.389
 9655SOL     OW29863   0.179   1.592   6.856
 9655SOL    HW129864   0.120   1.669   6.878
 9655SOL    HW229865   0.274   1.616   6.875
 9656SOL     OW29866   2.670   1.779   0.948
 9656SOL    HW129867   2.592   1.782   0.885
 9656SOL    HW229868   2.644   1.822   1.035
 9657SOL     OW29869   5.820   0.624   3.811
 9657SOL    HW129870   5.852   0.659   3.723
 9657SOL    HW229871   5.745   0.682   3.844
 9658SOL     OW29872   6.122   2.051   3.486
 9658SOL    HW129873   6.189   1.990   3.443
 9658SOL    HW229874   6.112   2.026   3.583
 9659SOL     OW29875   6.710   4.338   0.556
 9659SOL    HW129876   6.658   4.276   0.497
 9659SOL    HW229877   6.681   4.432   0.540
 9660SOL     OW29878   0.727   5.609   0.315
 9660SOL    HW129879   0.647   5.566   0.358
 9660SOL    HW229880   0.697   5.671   0.243
 9661SOL     OW29881   4.074   6.135   1.640
 9661SOL    HW129882   4.116   6.077   1.571
 9661SOL    HW229883   4.092   6.231   1.618
 9662SOL     OW29884   5.792   2.430   5.121
 9662SOL    HW129885   5.850   2.492   5.068
 9662SOL    HW229886   5.696   2.452   5.105
 9663SOL     OW29887   0.879   5.642   3.939
 9663SOL    HW129888   0.796   5.616   3.988
 9663SOL    HW229889   0.864   5.635   3.841
 9664SOL     OW29890   6.021   6.710   3.276
 9664SOL    HW129891   5.948   6.696   3.343
 9664SOL    HW229892   6.091   6.770   3.314
 9665SOL     OW29893   5.327   5.302   5.311
 9665SOL    HW129894   5.373   5.223   5.270
 9665SOL    HW229895   5.240   5.317   5.265
 9666SOL     OW29896   5.372   4.183   2.101
 9666SOL    HW129897   5.359   4.129   2.017
 9666SOL    HW229898   5.326   4.138   2.177
 9667SOL     OW29899   3.516   2.924   4.195
 9667SOL    HW129900   3.550   2.892   4.284
 9667SOL    HW229901   3.433   2.979   4.208
 9668SOL     OW29902   6.266   0.981   6.271
 9668SOL    HW129903   6.251   1.078   6.290
 9668SOL    HW229904   6.321   0.972   6.188
 9669SOL     OW29905   0.415   1.041   1.224
 9669SOL    HW129906   0.364   1.007   1.303
 9669SOL    HW229907   0.460   0.965   1.177
 9670SOL     OW29908   5.349   4.775   6.499
 9670SOL    HW129909   5.277   4.834   6.536
 9670SOL    HW229910   5.315   4.681   6.492
 9671SOL     OW29911   0.860   4.977   6.106
 9671SOL    HW129912   0.810   4.900   6.066
 9671SOL    HW229913   0.834   5.061   6.059
 9672SOL     OW29914   1.598   6.609   4.528
 9672SOL    HW129915   1.662   6.604   4.604
 9672SOL    HW229916   1.591   6.704   4.496
 9673SOL     OW29917   5.003   4.513   0.009
 9673SOL    HW129918   4.950   4.432   7.001
 9673SOL    HW229919   5.094   4.485   0.041
 9674SOL     OW29920   2.715   6.200   3.279
 9674SOL    HW129921   2.672   6.237   3.196
 9674SOL    HW229922   2.664   6.231   3.359
 9675SOL     OW29923   5.678   1.533   0.839
 9675SOL    HW129924   5.615   1.572   0.906
 9675SOL    HW229925   5.648   1.442   0.813
 9676SOL     OW29926   1.283   3.329   5.768
 9676SOL    HW129927   1.285   3.405   5.834
 9676SOL    HW229928   1.375   3.289   5.762
 9677SOL     OW29929   2.466   5.261   6.136
 9677SOL    HW129930   2.478   5.313   6.220
 9677SOL    HW229931   2.440   5.167   6.159
 9678SOL     OW29932   3.106   4.042   2.790
 9678SOL    HW129933   3.190   4.022   2.740
 9678SOL    HW229934   3.093   4.141   2.796
 9679SOL     OW29935   1.649   1.570   1.964
 9679SOL    HW129936   1.558   1.573   2.006
 9679SOL    HW229937   1.682   1.663   1.950
 9680SOL     OW29938   6.281   0.419   4.024
 9680SOL    HW129939   6.194   0.370   4.031
 9680SOL    HW229940   6.265   0.514   3.998
 9681SOL     OW29941   2.804   1.036   1.341
 9681SOL    HW129942   2.756   1.117   1.307
 9681SOL    HW229943   2.901   1.043   1.320
 9682SOL     OW29944   5.253   5.436   3.642
 9682SOL    HW129945   5.296   5.502   3.703
 9682SOL    HW229946   5.176   5.392   3.689
 9683SOL     OW29947   3.177   4.999   0.565
 9683SOL    HW129948   3.198   4.925   0.629
 9683SOL    HW229949   3.253   5.010   0.501
 9684SOL     OW29950   0.179   2.895   5.147
 9684SOL    HW129951   0.179   2.908   5.246
 9684SOL    HW229952   0.269   2.863   5.118
 9685SOL     OW29953   2.195   3.015   0.733
 9685SOL    HW129954   2.141   3.040   0.653
 9685SOL    HW229955   2.149   2.942   0.783
 9686SOL     OW29956   5.908   1.922   0.822
 9686SOL    HW129957   5.842   1.994   0.803
 9686SOL    HW229958   5.900   1.850   0.753
 9687SOL     OW29959   2.197   0.733   4.154
 9687SOL    HW129960   2.257   0.674   4.101
 9687SOL    HW229961   2.249   0.775   4.229
 9688SOL     OW29962   6.852   2.571   3.711
 9688SOL    HW129963   6.849   2.497   3.644
 9688SOL    HW229964   6.858   2.659   3.663
 9689SOL     OW29965   1.953   6.205   1.555
 9689SOL    HW129966   1.887   6.227   1.627
 9689SOL    HW229967   2.019   6.139   1.590
 9690SOL     OW29968   5.679   5.418   6.527
 9690SOL    HW129969   5.754   5.482   6.512
 9690SOL    HW229970   5.593   5.469   6.533
 9691SOL     OW29971   2.573   4.464   1.298
 9691SOL    HW129972   2.585   4.392   1.229
 9691SOL    HW229973   2.512   4.431   1.370
 9692SOL     OW29974   2.526   4.973   2.836
 9692SOL    HW129975   2.610   5.001   2.790
 9692SOL    HW229976   2.489   5.051   2.888
 9693SOL     OW29977   6.395   5.281   1.859
 9693SOL    HW129978   6.373   5.184   1.872
 9693SOL    HW229979   6.382   5.330   1.944
 9694SOL     OW29980   2.388   1.016   5.957
 9694SOL    HW129981   2.424   0.938   5.906
 9694SOL    HW229982   2.338   0.982   6.037
 9695SOL     OW29983   6.587   3.853   1.175
 9695SOL    HW129984   6.560   3.760   1.201
 9695SOL    HW229985   6.530   3.919   1.224
 9696SOL     OW29986   5.213   1.862   1.025
 9696SOL    HW129987   5.117   1.873   1.052
 9696SOL    HW229988   5.260   1.950   1.031
 9697SOL     OW29989   6.838   5.239   6.639
 9697SOL    HW129990   6.892   5.319   6.663
 9697SOL    HW229991   6.759   5.233   6.700
 9698SOL     OW29992   5.479   0.709   5.849
 9698SOL    HW129993   5.524   0.708   5.760
 9698SOL    HW229994   5.494   0.622   5.896
 9699SOL     OW29995   0.348   4.750   6.464
 9699SOL    HW129996   0.258   4.714   6.440
 9699SOL    HW229997   0.415   4.675   6.464
 9700SOL     OW29998   4.199   5.549   5.468
 9700SOL    HW129999   4.125   5.598   5.422
 9700SOL    HW230000   4.187   5.555   5.567
 9701SOL     OW30001   3.437   5.270   4.517
 9701SOL    HW130002   3.523   5.285   4.566
 9701SOL    HW230003   3.368   5.233   4.580
 9702SOL     OW30004   5.743   0.525   7.007
 9702SOL    HW130005   5.747   0.477   6.919
 9702SOL    HW230006   5.810   0.485   0.053
 9703SOL     OW30007   3.762   5.708   3.770
 9703SOL    HW130008   3.695   5.782   3.781
 9703SOL    HW230009   3.719   5.621   3.795
 9704SOL     OW30010   2.986   1.464   2.315
 9704SOL    HW130011   3.006   1.369   2.341
 9704SOL    HW230012   3.040   1.526   2.370
 9705SOL     OW30013   5.487   5.429   0.977
 9705SOL    HW130014   5.485   5.406   1.074
 9705SOL    HW230015   5.448   5.520   0.963
 9706SOL     OW30016   0.790   2.477   0.976
 9706SOL    HW130017   0.778   2.573   0.950
 9706SOL    HW230018   0.780   2.419   0.896
 9707SOL     OW30019   6.362   4.422   1.521
 9707SOL    HW130020   6.370   4.322   1.522
 9707SOL    HW230021   6.412   4.460   1.599
 9708SOL     OW30022   1.538   2.605   3.225
 9708SOL    HW130023   1.559   2.522   3.275
 9708SOL    HW230024   1.552   2.590   3.127
 9709SOL     OW30025   6.544   5.432   3.304
 9709SOL    HW130026   6.525   5.414   3.208
 9709SOL    HW230027   6.501   5.519   3.331
 9710SOL     OW30028   0.438   1.679   2.194
 9710SOL    HW130029   0.469   1.702   2.286
 9710SOL    HW230030   0.360   1.737   2.169
 9711SOL     OW30031   1.771   3.381   5.808
 9711SOL    HW130032   1.855   3.329   5.794
 9711SOL    HW230033   1.693   3.319   5.810
 9712SOL     OW30034   5.435   3.795   4.821
 9712SOL    HW130035   5.440   3.779   4.920
 9712SOL    HW230036   5.473   3.716   4.773
 9713SOL     OW30037   0.543   4.815   3.340
 9713SOL    HW130038   0.490   4.740   3.302
 9713SOL    HW230039   0.486   4.897   3.347
 9714SOL     OW30040   2.089   0.999   2.041
 9714SOL    HW130041   2.156   0.985   2.113
 9714SOL    HW230042   2.134   0.993   1.952
 9715SOL     OW30043   6.245   5.280   5.042
 9715SOL    HW130044   6.321   5.300   4.980
 9715SOL    HW230045   6.274   5.290   5.136
 9716SOL     OW30046   4.489   2.734   6.726
 9716SOL    HW130047   4.408   2.678   6.742
 9716SOL    HW230048   4.491   2.761   6.630
 9717SOL     OW30049   6.162   5.425   5.754
 9717SOL    HW130050   6.218   5.506   5.735
 9717SOL    HW230051   6.067   5.453   5.767
 9718SOL     OW30052   4.607   3.114   1.605
 9718SOL    HW130053   4.584   3.087   1.698
 9718SOL    HW230054   4.562   3.053   1.540
 9719SOL     OW30055   0.768   2.313   6.930
 9719SOL    HW130056   0.746   2.253   6.853
 9719SOL    HW230057   0.692   2.312   6.995
 9720SOL     OW30058   0.766   5.885   1.690
 9720SOL    HW130059   0.721   5.958   1.742
 9720SOL    HW230060   0.722   5.798   1.712
 9721SOL     OW30061   0.885   2.805   0.707
 9721SOL    HW130062   0.801   2.848   0.674
 9721SOL    HW230063   0.898   2.828   0.803
 9722SOL     OW30064   0.620   6.553   3.596
 9722SOL    HW130065   0.614   6.553   3.695
 9722SOL    HW230066   0.699   6.608   3.567
 9723SOL     OW30067   1.840   6.166   3.180
 9723SOL    HW130068   1.914   6.229   3.155
 9723SOL    HW230069   1.772   6.164   3.107
 9724SOL     OW30070   2.849   2.895   0.730
 9724SOL    HW130071   2.857   2.946   0.816
 9724SOL    HW230072   2.913   2.818   0.731
 9725SOL     OW30073   4.206   3.694   6.547
 9725SOL    HW130074   4.198   3.788   6.578
 9725SOL    HW230075   4.214   3.633   6.625
 9726SOL     OW30076   4.333   6.766   4.533
 9726SOL    HW130077   4.396   6.709   4.586
 9726SOL    HW230078   4.374   6.789   4.445
 9727SOL     OW30079   1.030   3.707   5.264
 9727SOL    HW130080   0.975   3.666   5.336
 9727SOL    HW230081   1.106   3.758   5.305
 9728SOL     OW30082   0.980   6.688   6.557
 9728SOL    HW130083   0.928   6.625   6.500
 9728SOL    HW230084   1.077   6.684   6.531
 9729SOL     OW30085   0.786   4.462   2.263
 9729SOL    HW130086   0.720   4.509   2.321
 9729SOL    HW230087   0.754   4.369   2.246
 9730SOL     OW30088   0.679   3.628   2.335
 9730SOL    HW130089   0.660   3.709   2.280
 9730SOL    HW230090   0.759   3.645   2.393
 9731SOL     OW30091   4.228   4.563   0.817
 9731SOL    HW130092   4.150   4.525   0.866
 9731SOL    HW230093   4.223   4.537   0.721
 9732SOL     OW30094   5.245   5.681   2.845
 9732SOL    HW130095   5.214   5.602   2.898
 9732SOL    HW230096   5.315   5.652   2.780
 9733SOL     OW30097   5.565   4.794   5.247
 9733SOL    HW130098   5.512   4.821   5.167
 9733SOL    HW230099   5.629   4.721   5.222
 9734SOL     OW30100   5.304   1.938   3.767
 9734SOL    HW130101   5.370   1.985   3.825
 9734SOL    HW230102   5.324   1.957   3.671
 9735SOL     OW30103   1.445   4.447   2.549
 9735SOL    HW130104   1.539   4.483   2.546
 9735SOL    HW230105   1.417   4.420   2.457
 9736SOL     OW30106   6.134   1.908   6.218
 9736SOL    HW130107   6.087   1.825   6.246
 9736SOL    HW230108   6.071   1.968   6.169
 9737SOL     OW30109   6.043   3.311   4.931
 9737SOL    HW130110   5.972   3.359   4.982
 9737SOL    HW230111   6.097   3.255   4.994
 9738SOL     OW30112   1.402   7.000   3.279
 9738SOL    HW130113   1.389   0.076   3.311
 9738SOL    HW230114   1.424   7.001   3.182
 9739SOL     OW30115   0.168   5.570   1.972
 9739SOL    HW130116   0.242   5.579   2.039
 9739SOL    HW230117   0.106   5.498   2.001
 9740SOL     OW30118   6.254   3.165   3.269
 9740SOL    HW130119   6.219   3.148   3.177
 9740SOL    HW230120   6.240   3.261   3.293
 9741SOL     OW30121   4.677   1.441   2.416
 9741SOL    HW130122   4.586   1.399   2.410
 9741SOL    HW230123   4.733   1.409   2.339
 9742SOL     OW30124   4.507   6.997   3.071
 9742SOL    HW130125   4.489   0.078   3.069
 9742SOL    HW230126   4.583   6.976   3.010
 9743SOL     OW30127   1.995   2.447   4.719
 9743SOL    HW130128   2.010   2.533   4.767
 9743SOL    HW230129   2.021   2.457   4.623
 9744SOL     OW30130   0.229   0.280   2.964
 9744SOL    HW130131   0.129   0.285   2.964
 9744SOL    HW230132   0.257   0.188   2.991
 9745SOL     OW30133   0.404   2.640   5.873
 9745SOL    HW130134   0.399   2.667   5.969
 9745SOL    HW230135   0.313   2.642   5.833
 9746SOL     OW30136   5.820   1.682   5.806
 9746SOL    HW130137   5.732   1.650   5.770
 9746SOL    HW230138   5.805   1.730   5.892
 9747SOL     OW30139   1.413   1.163   1.616
 9747SOL    HW130140   1.458   1.196   1.699
 9747SOL    HW230141   1.469   1.091   1.574
 9748SOL     OW30142   1.341   0.895   4.569
 9748SOL    HW130143   1.272   0.957   4.607
 9748SOL    HW230144   1.397   0.858   4.643
 9749SOL     OW30145   2.070   2.213   4.981
 9749SOL    HW130146   2.119   2.179   5.062
 9749SOL    HW230147   2.136   2.245   4.913
 9750SOL     OW30148   4.990   5.293   3.649
 9750SOL    HW130149   4.971   5.344   3.733
 9750SOL    HW230150   4.907   5.248   3.617
 9751SOL     OW30151   2.174   2.361   0.782
 9751SOL    HW130152   2.212   2.386   0.693
 9751SOL    HW230153   2.075   2.354   0.776
 9752SOL     OW30154   4.500   0.648   0.049
 9752SOL    HW130155   4.415   0.668   0.097
 9752SOL    HW230156   4.486   0.571   7.004
 9753SOL     OW30157   6.053   5.922   4.673
 9753SOL    HW130158   6.116   5.943   4.747
 9753SOL    HW230159   5.965   5.894   4.711
 9754SOL     OW30160   1.130   1.663   0.152
 9754SOL    HW130161   1.200   1.599   0.183
 9754SOL    HW230162   1.049   1.655   0.210
 9755SOL     OW30163   4.406   3.211   5.512
 9755SOL    HW130164   4.370   3.291   5.561
 9755SOL    HW230165   4.335   3.173   5.454
 9756SOL     OW30166   6.054   2.980   0.419
 9756SOL    HW130167   6.139   2.967   0.367
 9756SOL    HW230168   5.976   2.947   0.364
 9757SOL     OW30169   5.373   3.126   3.182
 9757SOL    HW130170   5.311   3.110   3.259
 9757SOL    HW230171   5.341   3.205   3.129
 9758SOL     OW30172   1.865   6.701   6.455
 9758SOL    HW130173   1.910   6.657   6.377
 9758SOL    HW230174   1.915   6.783   6.482
 9759SOL     OW30175   2.051   7.017   0.821
 9759SOL    HW130176   2.091   6.926   0.822
 9759SOL    HW230177   1.955   7.011   0.850
 9760SOL     OW30178   4.746   3.674   5.421
 9760SOL    HW130179   4.734   3.643   5.327
 9760SOL    HW230180   4.671   3.735   5.446
 9761SOL     OW30181   6.036   6.259   2.474
 9761SOL    HW130182   5.995   6.295   2.558
 9761SOL    HW230183   6.127   6.300   2.461
 9762SOL     OW30184   2.883   2.130   4.507
 9762SOL    HW130185   2.949   2.055   4.509
 9762SOL    HW230186   2.823   2.123   4.586
 9763SOL     OW30187   4.328   2.526   1.760
 9763SOL    HW130188   4.234   2.516   1.728
 9763SOL    HW230189   4.349   2.455   1.827
 9764SOL     OW30190   0.604   2.503   3.209
 9764SOL    HW130191   0.572   2.597   3.202
 9764SOL    HW230192   0.629   2.484   3.304
 9765SOL     OW30193   6.598   2.200   4.689
 9765SOL    HW130194   6.602   2.119   4.747
 9765SOL    HW230195   6.639   2.278   4.738
 9766SOL     OW30196   2.508   0.519   3.088
 9766SOL    HW130197   2.541   0.485   3.176
 9766SOL    HW230198   2.558   0.603   3.064
 9767SOL     OW30199   5.563   2.315   5.332
 9767SOL    HW130200   5.640   2.257   5.305
 9767SOL    HW230201   5.534   2.370   5.254
 9768SOL     OW30202   4.912   1.723   2.195
 9768SOL    HW130203   4.912   1.814   2.236
 9768SOL    HW230204   4.995   1.675   2.221
 9769SOL     OW30205   2.010   1.459   2.017
 9769SOL    HW130206   2.065   1.516   1.957
 9769SOL    HW230207   2.022   1.488   2.112
 9770SOL     OW30208   5.994   6.648   6.658
 9770SOL    HW130209   6.062   6.719   6.675
 9770SOL    HW230210   6.011   6.570   6.719
 9771SOL     OW30211   3.977   4.647   1.667
 9771SOL    HW130212   3.908   4.579   1.640
 9771SOL    HW230213   3.999   4.705   1.589
 9772SOL     OW30214   0.878   6.799   1.852
 9772SOL    HW130215   0.926   6.711   1.850
 9772SOL    HW230216   0.779   6.783   1.855
 9773SOL     OW30217   5.153   6.379   4.264
 9773SOL    HW130218   5.113   6.291   4.290
 9773SOL    HW230219   5.250   6.379   4.287
 9774SOL     OW30220   6.262   5.279   2.309
 9774SOL    HW130221   6.184   5.324   2.354
 9774SOL    HW230222   6.264   5.183   2.336
 9775SOL     OW30223   2.501   1.693   4.065
 9775SOL    HW130224   2.482   1.701   4.163
 9775SOL    HW230225   2.593   1.728   4.046
 9776SOL     OW30226   6.828   5.801   4.364
 9776SOL    HW130227   6.733   5.817   4.336
 9776SOL    HW230228   6.856   5.871   4.429
 9777SOL     OW30229   5.546   4.848   6.292
 9777SOL    HW130230   5.636   4.853   6.335
 9777SOL    HW230231   5.475   4.847   6.363
 9778SOL     OW30232   5.910   0.363   3.790
 9778SOL    HW130233   5.978   0.370   3.863
 9778SOL    HW230234   5.859   0.450   3.784
 9779SOL     OW30235   2.733   2.046   4.722
 9779SOL    HW130236   2.723   2.064   4.820
 9779SOL    HW230237   2.646   2.013   4.686
 9780SOL     OW30238   1.901   2.200   0.930
 9780SOL    HW130239   1.832   2.147   0.881
 9780SOL    HW230240   1.948   2.261   0.866
 9781SOL     OW30241   2.031   4.155   3.769
 9781SOL    HW130242   2.025   4.243   3.722
 9781SOL    HW230243   2.102   4.099   3.727
 9782SOL     OW30244   6.676   0.704   1.567
 9782SOL    HW130245   6.739   0.735   1.496
 9782SOL    HW230246   6.625   0.782   1.603
 9783SOL     OW30247   5.872   1.344   2.008
 9783SOL    HW130248   5.792   1.287   2.026
 9783SOL    HW230249   5.936   1.337   2.084
 9784SOL     OW30250   4.972   1.124   3.870
 9784SOL    HW130251   5.008   1.108   3.778
 9784SOL    HW230252   4.941   1.219   3.878
 9785SOL     OW30253   0.165   4.184   4.040
 9785SOL    HW130254   0.119   4.106   4.085
 9785SOL    HW230255   0.261   4.186   4.067
 9786SOL     OW30256   1.778   5.146   5.879
 9786SOL    HW130257   1.706   5.082   5.906
 9786SOL    HW230258   1.781   5.221   5.946
 9787SOL     OW30259   5.188   4.016   1.530
 9787SOL    HW130260   5.272   4.040   1.481
 9787SOL    HW230261   5.173   4.080   1.605
 9788SOL     OW30262   0.473   0.550   3.855
 9788SOL    HW130263   0.443   0.585   3.766
 9788SOL    HW230264   0.398   0.558   3.920
 9789SOL     OW30265   2.320   5.628   6.842
 9789SOL    HW130266   2.383   5.620   6.765
 9789SOL    HW230267   2.357   5.692   6.909
 9790SOL     OW30268   5.708   3.333   5.110
 9790SOL    HW130269   5.717   3.301   5.015
 9790SOL    HW230270   5.645   3.411   5.113
 9791SOL     OW30271   0.764   0.969   2.696
 9791SOL    HW130272   0.718   1.037   2.639
 9791SOL    HW230273   0.849   0.941   2.651
 9792SOL     OW30274   4.591   5.094   1.659
 9792SOL    HW130275   4.543   5.098   1.572
 9792SOL    HW230276   4.632   5.003   1.671
 9793SOL     OW30277   5.785   5.731   2.987
 9793SOL    HW130278   5.836   5.743   2.902
 9793SOL    HW230279   5.695   5.774   2.977
 9794SOL     OW30280   6.099   3.528   6.644
 9794SOL    HW130281   6.168   3.457   6.658
 9794SOL    HW230282   6.015   3.504   6.692
 9795SOL     OW30283   1.225   2.838   3.973
 9795SOL    HW130284   1.263   2.803   4.059
 9795SOL    HW230285   1.157   2.909   3.994
 9796SOL     OW30286   3.202   4.143   1.003
 9796SOL    HW130287   3.144   4.202   1.060
 9796SOL    HW230288   3.267   4.094   1.062
 9797SOL     OW30289   4.078   3.794   0.571
 9797SOL    HW130290   4.144   3.869   0.580
 9797SOL    HW230291   4.089   3.751   0.481
 9798SOL     OW30292   2.397   0.812   0.652
 9798SOL    HW130293   2.364   0.880   0.587
 9798SOL    HW230294   2.449   0.857   0.725
 9799SOL     OW30295   3.378   3.459   2.767
 9799SOL    HW130296   3.316   3.480   2.692
 9799SOL    HW230297   3.371   3.362   2.791
 9800SOL     OW30298   3.763   5.976   5.867
 9800SOL    HW130299   3.821   5.943   5.793
 9800SOL    HW230300   3.694   6.038   5.830
 9801SOL     OW30301   4.038   4.880   6.836
 9801SOL    HW130302   4.110   4.919   6.778
 9801SOL    HW230303   4.078   4.848   6.922
 9802SOL     OW30304   6.791   2.963   2.188
 9802SOL    HW130305   6.880   3.009   2.183
 9802SOL    HW230306   6.770   2.941   2.283
 9803SOL     OW30307   6.222   0.377   6.677
 9803SOL    HW130308   6.228   0.461   6.623
 9803SOL    HW230309   6.168   0.309   6.627
 9804SOL     OW30310   0.088   5.515   3.665
 9804SOL    HW130311   0.067   5.514   3.763
 9804SOL    HW230312   0.136   5.600   3.643
 9805SOL     OW30313   1.388   5.668   6.805
 9805SOL    HW130314   1.474   5.704   6.768
 9805SOL    HW230315   1.350   5.733   6.871
 9806SOL     OW30316   0.385   2.057   1.366
 9806SOL    HW130317   0.403   1.965   1.399
 9806SOL    HW230318   0.463   2.116   1.385
 9807SOL     OW30319   2.933   1.665   6.480
 9807SOL    HW130320   2.944   1.601   6.404
 9807SOL    HW230321   2.978   1.629   6.562
 9808SOL     OW30322   5.598   0.725   5.591
 9808SOL    HW130323   5.600   0.674   5.506
 9808SOL    HW230324   5.692   0.743   5.621
 9809SOL     OW30325   0.692   1.566   6.118
 9809SOL    HW130326   0.678   1.468   6.133
 9809SOL    HW230327   0.687   1.586   6.021
 9810SOL     OW30328   2.389   2.060   3.349
 9810SOL    HW130329   2.437   2.147   3.358
 9810SOL    HW230330   2.330   2.063   3.269
 9811SOL     OW30331   6.128   5.675   3.550
 9811SOL    HW130332   6.149   5.767   3.516
 9811SOL    HW230333   6.058   5.633   3.492
 9812SOL     OW30334   3.759   2.186   6.687
 9812SOL    HW130335   3.816   2.247   6.742
 9812SOL    HW230336   3.680   2.157   6.741
 9813SOL     OW30337   6.312   5.766   6.939
 9813SOL    HW130338   6.308   5.678   6.985
 9813SOL    HW230339   6.358   5.833   6.998
 9814SOL     OW30340   6.493   0.698   6.182
 9814SOL    HW130341   6.555   0.693   6.261
 9814SOL    HW230342   6.545   0.678   6.098
 9815SOL     OW30343   6.482   1.916   1.170
 9815SOL    HW130344   6.471   1.995   1.110
 9815SOL    HW230345   6.578   1.891   1.177
 9816SOL     OW30346   6.571   1.061   6.179
 9816SOL    HW130347   6.498   1.130   6.185
 9816SOL    HW230348   6.627   1.079   6.099
 9817SOL     OW30349   3.113   5.695   1.701
 9817SOL    HW130350   3.018   5.727   1.695
 9817SOL    HW230351   3.174   5.766   1.665
 9818SOL     OW30352   2.026   1.484   3.212
 9818SOL    HW130353   2.108   1.512   3.262
 9818SOL    HW230354   1.972   1.565   3.189
 9819SOL     OW30355   5.609   4.448   4.719
 9819SOL    HW130356   5.709   4.451   4.720
 9819SOL    HW230357   5.577   4.371   4.774
 9820SOL     OW30358   2.975   2.324   6.158
 9820SOL    HW130359   2.964   2.411   6.206
 9820SOL    HW230360   3.048   2.332   6.089
 9821SOL     OW30361   4.328   2.043   1.519
 9821SOL    HW130362   4.238   2.000   1.519
 9821SOL    HW230363   4.377   2.018   1.602
 9822SOL     OW30364   3.764   5.753   4.361
 9822SOL    HW130365   3.756   5.701   4.276
 9822SOL    HW230366   3.857   5.790   4.368
 9823SOL     OW30367   1.301   0.508   2.279
 9823SOL    HW130368   1.386   0.560   2.269
 9823SOL    HW230369   1.290   0.448   2.199
 9824SOL     OW30370   2.724   5.985   5.400
 9824SOL    HW130371   2.711   5.886   5.395
 9824SOL    HW230372   2.744   6.011   5.494
 9825SOL     OW30373   5.262   6.200   5.008
 9825SOL    HW130374   5.361   6.199   4.990
 9825SOL    HW230375   5.246   6.245   5.096
 9826SOL     OW30376   3.696   6.983   5.510
 9826SOL    HW130377   3.671   0.059   5.487
 9826SOL    HW230378   3.625   6.942   5.567
 9827SOL     OW30379   1.970   5.449   2.817
 9827SOL    HW130380   1.984   5.352   2.798
 9827SOL    HW230381   2.031   5.504   2.760
 9828SOL     OW30382   3.645   2.056   5.023
 9828SOL    HW130383   3.565   2.053   4.964
 9828SOL    HW230384   3.710   1.985   4.994
 9829SOL     OW30385   5.198   6.267   5.966
 9829SOL    HW130386   5.172   6.341   6.028
 9829SOL    HW230387   5.133   6.192   5.974
 9830SOL     OW30388   5.777   1.140   2.516
 9830SOL    HW130389   5.734   1.167   2.430
 9830SOL    HW230390   5.744   1.199   2.590
 9831SOL     OW30391   0.263   4.533   1.859
 9831SOL    HW130392   0.266   4.439   1.826
 9831SOL    HW230393   0.280   4.534   1.958
 9832SOL     OW30394   4.920   4.808   4.514
 9832SOL    HW130395   4.927   4.736   4.583
 9832SOL    HW230396   4.844   4.869   4.537
 9833SOL     OW30397   3.532   4.100   3.353
 9833SOL    HW130398   3.527   4.121   3.451
 9833SOL    HW230399   3.449   4.052   3.324
 9834SOL     OW30400   2.574   5.629   5.673
 9834SOL    HW130401   2.566   5.529   5.678
 9834SOL    HW230402   2.630   5.654   5.594
 9835SOL     OW30403   3.598   4.075   4.184
 9835SOL    HW130404   3.640   3.985   4.188
 9835SOL    HW230405   3.664   4.143   4.218
 9836SOL     OW30406   0.986   4.154   5.752
 9836SOL    HW130407   1.002   4.176   5.849
 9836SOL    HW230408   0.921   4.079   5.745
 9837SOL     OW30409   5.318   1.912   1.836
 9837SOL    HW130410   5.347   1.825   1.876
 9837SOL    HW230411   5.395   1.953   1.786
 9838SOL     OW30412   1.457   6.199   1.558
 9838SOL    HW130413   1.489   6.135   1.488
 9838SOL    HW230414   1.383   6.255   1.522
 9839SOL     OW30415   4.805   1.146   4.200
 9839SOL    HW130416   4.845   1.206   4.130
 9839SOL    HW230417   4.870   1.073   4.221
 9840SOL     OW30418   5.247   1.078   6.790
 9840SOL    HW130419   5.153   1.078   6.824
 9840SOL    HW230420   5.311   1.076   6.868
 9841SOL     OW30421   6.815   5.579   3.600
 9841SOL    HW130422   6.782   5.607   3.690
 9841SOL    HW230423   6.914   5.566   3.603
 9842SOL     OW30424   3.705   3.209   0.600
 9842SOL    HW130425   3.639   3.186   0.529
 9842SOL    HW230426   3.672   3.175   0.688
 9843SOL     OW30427   6.282   0.484   1.303
 9843SOL    HW130428   6.312   0.405   1.250
 9843SOL    HW230429   6.192   0.464   1.343
 9844SOL     OW30430   5.637   0.618   4.337
 9844SOL    HW130431   5.612   0.522   4.323
 9844SOL    HW230432   5.641   0.665   4.249
 9845SOL     OW30433   1.187   2.141   2.582
 9845SOL    HW130434   1.115   2.200   2.619
 9845SOL    HW230435   1.188   2.148   2.482
 9846SOL     OW30436   5.191   1.348   0.760
 9846SOL    HW130437   5.101   1.365   0.800
 9846SOL    HW230438   5.247   1.297   0.825
 9847SOL     OW30439   3.718   2.836   1.878
 9847SOL    HW130440   3.650   2.909   1.876
 9847SOL    HW230441   3.801   2.870   1.922
 9848SOL     OW30442   3.202   4.001   5.280
 9848SOL    HW130443   3.106   4.021   5.262
 9848SOL    HW230444   3.209   3.945   5.363
 9849SOL     OW30445   1.327   0.579   6.606
 9849SOL    HW130446   1.244   0.562   6.552
 9849SOL    HW230447   1.407   0.546   6.556
 9850SOL     OW30448   0.397   0.333   4.082
 9850SOL    HW130449   0.419   0.236   4.094
 9850SOL    HW230450   0.481   0.387   4.085
 9851SOL     OW30451   3.369   5.166   4.774
 9851SOL    HW130452   3.412   5.092   4.724
 9851SOL    HW230453   3.438   5.232   4.804
 9852SOL     OW30454   1.202   1.640   6.332
 9852SOL    HW130455   1.163   1.554   6.366
 9852SOL    HW230456   1.265   1.621   6.257
 9853SOL     OW30457   0.186   4.192   4.414
 9853SOL    HW130458   0.276   4.189   4.457
 9853SOL    HW230459   0.193   4.163   4.318
 9854SOL     OW30460   1.423   5.728   5.998
 9854SOL    HW130461   1.426   5.628   5.986
 9854SOL    HW230462   1.486   5.771   5.934
 9855SOL     OW30463   0.889   3.398   0.497
 9855SOL    HW130464   0.911   3.323   0.434
 9855SOL    HW230465   0.932   3.482   0.465
 9856SOL     OW30466   5.545   4.994   4.021
 9856SOL    HW130467   5.617   4.976   4.087
 9856SOL    HW230468   5.503   4.907   3.993
 9857SOL     OW30469   5.554   2.670   3.508
 9857SOL    HW130470   5.555   2.745   3.574
 9857SOL    HW230471   5.631   2.679   3.445
 9858SOL     OW30472   1.060   6.662   2.089
 9858SOL    HW130473   1.068   6.566   2.116
 9858SOL    HW230474   1.041   6.717   2.170
 9859SOL     OW30475   6.867   4.753   5.117
 9859SOL    HW130476   6.774   4.741   5.153
 9859SOL    HW230477   6.929   4.690   5.162
 9860SOL     OW30478   1.830   2.617   5.231
 9860SOL    HW130479   1.751   2.653   5.181
 9860SOL    HW230480   1.824   2.517   5.233
 9861SOL     OW30481   3.146   1.419   3.992
 9861SOL    HW130482   3.111   1.425   3.899
 9861SOL    HW230483   3.240   1.453   3.995
 9862SOL     OW30484   2.193   4.525   1.121
 9862SOL    HW130485   2.228   4.596   1.060
 9862SOL    HW230486   2.263   4.503   1.190
 9863SOL     OW30487   3.155   5.950   0.842
 9863SOL    HW130488   3.196   5.887   0.908
 9863SOL    HW230489   3.215   5.961   0.763
 9864SOL     OW30490   2.957   6.598   5.187
 9864SOL    HW130491   3.046   6.630   5.219
 9864SOL    HW230492   2.954   6.498   5.193
 9865SOL     OW30493   0.534   0.017   5.385
 9865SOL    HW130494   0.465   0.088   5.388
 9865SOL    HW230495   0.490   6.945   5.395
 9866SOL     OW30496   5.894   4.429   4.649
 9866SOL    HW130497   5.908   4.465   4.557
 9866SOL    HW230498   5.928   4.496   4.716
 9867SOL     OW30499   4.973   1.986   2.263
 9867SOL    HW130500   5.042   1.966   2.333
 9867SOL    HW230501   4.967   2.084   2.249
 9868SOL     OW30502   1.148   4.392   3.379
 9868SOL    HW130503   1.232   4.340   3.362
 9868SOL    HW230504   1.085   4.337   3.432
 9869SOL     OW30505   0.201   2.397   0.693
 9869SOL    HW130506   0.257   2.329   0.739
 9869SOL    HW230507   0.123   2.352   0.649
 9870SOL     OW30508   3.906   1.596   1.978
 9870SOL    HW130509   3.851   1.632   2.054
 9870SOL    HW230510   4.000   1.583   2.008
 9871SOL     OW30511   6.727   3.231   5.535
 9871SOL    HW130512   6.816   3.201   5.569
 9871SOL    HW230513   6.686   3.159   5.480
 9872SOL     OW30514   2.420   5.687   4.932
 9872SOL    HW130515   2.349   5.683   5.001
 9872SOL    HW230516   2.386   5.736   4.851
 9873SOL     OW30517   1.871   2.119   5.775
 9873SOL    HW130518   1.797   2.173   5.816
 9873SOL    HW230519   1.958   2.143   5.818
 9874SOL     OW30520   0.831   2.953   4.327
 9874SOL    HW130521   0.786   2.890   4.390
 9874SOL    HW230522   0.875   2.901   4.254
 9875SOL     OW30523   0.278   6.262   0.708
 9875SOL    HW130524   0.217   6.330   0.666
 9875SOL    HW230525   0.373   6.288   0.692
 9876SOL     OW30526   3.351   0.095   3.426
 9876SOL    HW130527   3.336   0.193   3.410
 9876SOL    HW230528   3.429   0.083   3.488
 9877SOL     OW30529   6.967   4.531   4.620
 9877SOL    HW130530   7.005   4.552   4.530
 9877SOL    HW230531   6.979   4.434   4.639
 9878SOL     OW30532   1.759   2.923   0.113
 9878SOL    HW130533   1.845   2.938   0.162
 9878SOL    HW230534   1.706   3.007   0.110
 9879SOL     OW30535   1.517   4.574   6.134
 9879SOL    HW130536   1.493   4.494   6.189
 9879SOL    HW230537   1.485   4.657   6.180
 9880SOL     OW30538   2.552   1.124   0.360
 9880SOL    HW130539   2.571   1.037   0.407
 9880SOL    HW230540   2.483   1.108   0.289
 9881SOL     OW30541   5.277   0.502   4.277
 9881SOL    HW130542   5.248   0.515   4.372
 9881SOL    HW230543   5.364   0.452   4.275
 9882SOL     OW30544   3.899   3.150   4.838
 9882SOL    HW130545   3.849   3.223   4.792
 9882SOL    HW230546   3.864   3.062   4.809
 9883SOL     OW30547   1.744   5.779   1.953
 9883SOL    HW130548   1.819   5.798   2.017
 9883SOL    HW230549   1.660   5.761   2.004
 9884SOL     OW30550   1.681   3.173   6.883
 9884SOL    HW130551   1.656   3.265   6.852
 9884SOL    HW230552   1.658   3.163   6.980
 9885SOL     OW30553   6.711   3.222   4.324
 9885SOL    HW130554   6.641   3.232   4.253
 9885SOL    HW230555   6.697   3.135   4.372
 9886SOL     OW30556   5.763   6.185   1.810
 9886SOL    HW130557   5.759   6.254   1.883
 9886SOL    HW230558   5.859   6.162   1.792
 9887SOL     OW30559   4.419   6.605   0.480
 9887SOL    HW130560   4.433   6.550   0.398
 9887SOL    HW230561   4.322   6.605   0.505
 9888SOL     OW30562   5.466   5.475   2.330
 9888SOL    HW130563   5.426   5.460   2.240
 9888SOL    HW230564   5.506   5.389   2.364
 9889SOL     OW30565   6.800   5.004   2.924
 9889SOL    HW130566   6.782   4.910   2.894
 9889SOL    HW230567   6.869   5.003   2.996
 9890SOL     OW30568   6.651   2.648   0.641
 9890SOL    HW130569   6.677   2.736   0.600
 9890SOL    HW230570   6.725   2.582   0.627
 9891SOL     OW30571   4.863   5.542   0.670
 9891SOL    HW130572   4.878   5.583   0.760
 9891SOL    HW230573   4.952   5.516   0.630
 9892SOL     OW30574   2.204   5.184   3.846
 9892SOL    HW130575   2.281   5.209   3.788
 9892SOL    HW230576   2.119   5.216   3.805
 9893SOL     OW30577   5.851   5.354   2.765
 9893SOL    HW130578   5.898   5.288   2.824
 9893SOL    HW230579   5.910   5.433   2.750
 9894SOL     OW30580   3.912   1.900   6.095
 9894SOL    HW130581   3.851   1.963   6.143
 9894SOL    HW230582   4.000   1.896   6.143
 9895SOL     OW30583   5.363   2.393   6.674
 9895SOL    HW130584   5.414   2.478   6.667
 9895SOL    HW230585   5.335   2.379   6.770
 9896SOL     OW30586   3.337   3.464   0.689
 9896SOL    HW130587   3.377   3.489   0.600
 9896SOL    HW230588   3.246   3.505   0.698
 9897SOL     OW30589   4.782   1.447   3.179
 9897SOL    HW130590   4.780   1.441   3.279
 9897SOL    HW230591   4.842   1.376   3.142
 9898SOL     OW30592   1.183   5.197   5.612
 9898SOL    HW130593   1.100   5.242   5.647
 9898SOL    HW230594   1.261   5.221   5.670
 9899SOL     OW30595   5.437   4.423   2.248
 9899SOL    HW130596   5.387   4.503   2.213
 9899SOL    HW230597   5.418   4.345   2.189
 9900SOL     OW30598   1.403   2.181   3.583
 9900SOL    HW130599   1.311   2.215   3.562
 9900SOL    HW230600   1.457   2.255   3.624
 9901SOL     OW30601   1.887   2.023   6.606
 9901SOL    HW130602   1.953   2.026   6.681
 9901SOL    HW230603   1.893   1.935   6.560
 9902SOL     OW30604   3.520   3.771   0.960
 9902SOL    HW130605   3.446   3.820   0.914
 9902SOL    HW230606   3.504   3.672   0.953
 9903SOL     OW30607   4.494   1.235   2.368
 9903SOL    HW130608   4.441   1.224   2.452
 9903SOL    HW230609   4.575   1.177   2.372
 9904SOL     OW30610   6.353   3.097   0.364
 9904SOL    HW130611   6.284   3.068   0.298
 9904SOL    HW230612   6.427   3.030   0.368
 9905SOL     OW30613   1.413   6.111   6.778
 9905SOL    HW130614   1.353   6.147   6.707
 9905SOL    HW230615   1.498   6.078   6.736
 9906SOL     OW30616   1.683   2.214   5.926
 9906SOL    HW130617   1.689   2.258   6.015
 9906SOL    HW230618   1.598   2.161   5.920
 9907SOL     OW30619   2.646   5.783   3.289
 9907SOL    HW130620   2.600   5.859   3.243
 9907SOL    HW230621   2.602   5.766   3.377
 9908SOL     OW30622   0.618   3.594   6.414
 9908SOL    HW130623   0.714   3.623   6.408
 9908SOL    HW230624   0.581   3.585   6.322
 9909SOL     OW30625   2.857   1.795   2.765
 9909SOL    HW130626   2.934   1.790   2.829
 9909SOL    HW230627   2.816   1.705   2.754
 9910SOL     OW30628   0.060   4.759   1.092
 9910SOL    HW130629   0.133   4.744   1.025
 9910SOL    HW230630   0.058   4.856   1.118
 9911SOL     OW30631   4.616   4.752   2.915
 9911SOL    HW130632   4.615   4.812   2.835
 9911SOL    HW230633   4.596   4.806   2.997
 9912SOL     OW30634   4.391   0.933   2.107
 9912SOL    HW130635   4.318   0.987   2.149
 9912SOL    HW230636   4.475   0.988   2.101
 9913SOL     OW30637   5.471   3.056   2.562
 9913SOL    HW130638   5.469   2.987   2.635
 9913SOL    HW230639   5.485   3.011   2.474
 9914SOL     OW30640   1.774   0.119   5.517
 9914SOL    HW130641   1.798   0.216   5.515
 9914SOL    HW230642   1.857   0.064   5.508
 9915SOL     OW30643   5.215   3.320   4.249
 9915SOL    HW130644   5.268   3.300   4.331
 9915SOL    HW230645   5.118   3.319   4.270
 9916SOL     OW30646   2.151   3.181   2.636
 9916SOL    HW130647   2.106   3.195   2.724
 9916SOL    HW230648   2.207   3.099   2.640
 9917SOL     OW30649   3.543   3.874   5.111
 9917SOL    HW130650   3.450   3.861   5.075
 9917SOL    HW230651   3.551   3.966   5.150
 9918SOL     OW30652   2.208   1.489   6.227
 9918SOL    HW130653   2.308   1.481   6.235
 9918SOL    HW230654   2.174   1.419   6.164
 9919SOL     OW30655   1.430   5.711   2.467
 9919SOL    HW130656   1.371   5.752   2.397
 9919SOL    HW230657   1.508   5.667   2.423
 9920SOL     OW30658   3.930   0.259   1.933
 9920SOL    HW130659   3.914   0.239   1.837
 9920SOL    HW230660   3.980   0.182   1.975
 9921SOL     OW30661   5.747   0.301   3.341
 9921SOL    HW130662   5.788   0.355   3.268
 9921SOL    HW230663   5.817   0.243   3.383
 9922SOL     OW30664   4.419   4.786   1.023
 9922SOL    HW130665   4.470   4.798   1.108
 9922SOL    HW230666   4.372   4.872   1.000
 9923SOL     OW30667   6.483   2.116   6.518
 9923SOL    HW130668   6.474   2.190   6.451
 9923SOL    HW230669   6.441   2.033   6.482
 9924SOL     OW30670   5.572   1.263   2.705
 9924SOL    HW130671   5.490   1.208   2.691
 9924SOL    HW230672   5.586   1.276   2.803
 9925SOL     OW30673   2.580   3.694   5.683
 9925SOL    HW130674   2.481   3.694   5.671
 9925SOL    HW230675   2.624   3.719   5.597
 9926SOL     OW30676   1.710   1.428   0.895
 9926SOL    HW130677   1.764   1.461   0.972
 9926SOL    HW230678   1.626   1.386   0.929
 9927SOL     OW30679   1.120   1.723   2.326
 9927SOL    HW130680   1.153   1.717   2.421
 9927SOL    HW230681   1.139   1.815   2.291
 9928SOL     OW30682   0.528   4.893   1.867
 9928SOL    HW130683   0.576   4.944   1.796
 9928SOL    HW230684   0.593   4.868   1.939
 9929SOL     OW30685   3.437   4.246   5.557
 9929SOL    HW130686   3.375   4.233   5.635
 9929SOL    HW230687   3.385   4.243   5.472
 9930SOL     OW30688   0.297   0.801   6.153
 9930SOL    HW130689   0.264   0.851   6.072
 9930SOL    HW230690   0.298   0.863   6.232
 9931SOL     OW30691   1.305   6.603   4.474
 9931SOL    HW130692   1.268   6.696   4.476
 9931SOL    HW230693   1.404   6.606   4.468
 9932SOL     OW30694   1.427   2.056   0.502
 9932SOL    HW130695   1.410   2.042   0.600
 9932SOL    HW230696   1.465   1.972   0.463
 9933SOL     OW30697   2.638   0.472   3.371
 9933SOL    HW130698   2.706   0.399   3.375
 9933SOL    HW230699   2.638   0.523   3.457
 9934SOL     OW30700   5.890   1.337   6.394
 9934SOL    HW130701   5.942   1.410   6.438
 9934SOL    HW230702   5.827   1.296   6.459
 9935SOL     OW30703   2.934   2.053   0.322
 9935SOL    HW130704   2.984   1.966   0.328
 9935SOL    HW230705   2.848   2.038   0.273
 9936SOL     OW30706   5.040   4.884   5.743
 9936SOL    HW130707   5.042   4.946   5.821
 9936SOL    HW230708   5.091   4.801   5.764
 9937SOL     OW30709   6.979   0.189   2.922
 9937SOL    HW130710   7.000   0.156   2.830
 9937SOL    HW230711   6.948   0.113   2.979
 9938SOL     OW30712   6.568   1.301   4.366
 9938SOL    HW130713   6.665   1.312   4.388
 9938SOL    HW230714   6.512   1.338   4.440
 9939SOL     OW30715   1.976   3.676   1.410
 9939SOL    HW130716   2.001   3.580   1.400
 9939SOL    HW230717   1.955   3.714   1.320
 9940SOL     OW30718   0.314   0.167   3.252
 9940SOL    HW130719   0.301   0.263   3.279
 9940SOL    HW230720   0.279   0.154   3.159
 9941SOL     OW30721   3.945   5.454   5.607
 9941SOL    HW130722   4.014   5.483   5.673
 9941SOL    HW230723   3.884   5.387   5.649
 9942SOL     OW30724   4.618   4.747   3.275
 9942SOL    HW130725   4.710   4.713   3.256
 9942SOL    HW230726   4.556   4.669   3.288
 9943SOL     OW30727   1.731   3.802   7.016
 9943SOL    HW130728   1.698   3.724   0.052
 9943SOL    HW230729   1.804   3.772   6.955
 9944SOL     OW30730   1.540   4.992   0.015
 9944SOL    HW130731   1.635   5.021   0.024
 9944SOL    HW230732   1.520   4.972   6.937
 9945SOL     OW30733   6.295   4.213   0.144
 9945SOL    HW130734   6.226   4.213   0.071
 9945SOL    HW230735   6.250   4.206   0.233
 9946SOL     OW30736   6.132   0.776   2.791
 9946SOL    HW130737   6.092   0.755   2.880
 9946SOL    HW230738   6.065   0.822   2.734
 9947SOL     OW30739   1.060   2.573   4.184
 9947SOL    HW130740   1.154   2.601   4.160
 9947SOL    HW230741   0.997   2.648   4.161
 9948SOL     OW30742   6.307   0.104   3.744
 9948SOL    HW130743   6.315   0.015   3.699
 9948SOL    HW230744   6.280   0.092   3.839
 9949SOL     OW30745   6.627   4.316   5.255
 9949SOL    HW130746   6.577   4.389   5.302
 9949SOL    HW230747   6.695   4.357   5.193
 9950SOL     OW30748   6.668   4.618   6.342
 9950SOL    HW130749   6.728   4.541   6.366
 9950SOL    HW230750   6.610   4.592   6.265
 9951SOL     OW30751   0.948   3.027   2.488
 9951SOL    HW130752   1.046   3.013   2.473
 9951SOL    HW230753   0.902   2.939   2.495
 9952SOL     OW30754   0.824   3.429   1.194
 9952SOL    HW130755   0.790   3.499   1.132
 9952SOL    HW230756   0.893   3.469   1.254
 9953SOL     OW30757   6.622   2.486   3.450
 9953SOL    HW130758   6.668   2.574   3.436
 9953SOL    HW230759   6.532   2.502   3.490
 9954SOL     OW30760   2.849   1.563   5.311
 9954SOL    HW130761   2.905   1.509   5.249
 9954SOL    HW230762   2.888   1.560   5.403
 9955SOL     OW30763   4.238   3.420   0.779
 9955SOL    HW130764   4.214   3.350   0.845
 9955SOL    HW230765   4.218   3.388   0.686
 9956SOL     OW30766   1.149   4.372   2.823
 9956SOL    HW130767   1.145   4.386   2.922
 9956SOL    HW230768   1.116   4.454   2.776
 9957SOL     OW30769   5.346   0.152   1.817
 9957SOL    HW130770   5.364   0.147   1.718
 9957SOL    HW230771   5.419   0.204   1.861
 9958SOL     OW30772   3.660   4.586   6.501
 9958SOL    HW130773   3.667   4.648   6.423
 9958SOL    HW230774   3.659   4.638   6.586
 9959SOL     OW30775   4.381   4.153   1.448
 9959SOL    HW130776   4.373   4.058   1.420
 9959SOL    HW230777   4.358   4.162   1.545
 9960SOL     OW30778   6.370   6.438   1.338
 9960SOL    HW130779   6.352   6.401   1.430
 9960SOL    HW230780   6.469   6.439   1.321
 9961SOL     OW30781   1.528   3.888   1.728
 9961SOL    HW130782   1.618   3.924   1.751
 9961SOL    HW230783   1.463   3.914   1.800
 9962SOL     OW30784   3.588   6.094   1.698
 9962SOL    HW130785   3.676   6.134   1.724
 9962SOL    HW230786   3.603   6.002   1.661
 9963SOL     OW30787   2.376   1.823   0.583
 9963SOL    HW130788   2.384   1.829   0.484
 9963SOL    HW230789   2.361   1.915   0.621
 9964SOL     OW30790   4.685   4.474   5.421
 9964SOL    HW130791   4.754   4.531   5.466
 9964SOL    HW230792   4.637   4.528   5.352
 9965SOL     OW30793   2.898   6.326   4.885
 9965SOL    HW130794   2.995   6.329   4.859
 9965SOL    HW230795   2.890   6.329   4.985
 9966SOL     OW30796   2.924   4.778   2.168
 9966SOL    HW130797   2.912   4.716   2.090
 9966SOL    HW230798   2.836   4.794   2.212
 9967SOL     OW30799   6.157   6.621   2.674
 9967SOL    HW130800   6.229   6.645   2.609
 9967SOL    HW230801   6.078   6.682   2.659
 9968SOL     OW30802   4.574   5.761   6.900
 9968SOL    HW130803   4.491   5.714   6.869
 9968SOL    HW230804   4.561   5.793   6.994
 9969SOL     OW30805   0.764   4.450   4.761
 9969SOL    HW130806   0.762   4.358   4.722
 9969SOL    HW230807   0.728   4.516   4.694
 9970SOL     OW30808   5.235   5.395   1.482
 9970SOL    HW130809   5.166   5.379   1.411
 9970SOL    HW230810   5.211   5.341   1.563
 9971SOL     OW30811   1.303   2.942   1.344
 9971SOL    HW130812   1.241   2.907   1.414
 9971SOL    HW230813   1.392   2.962   1.385
 9972SOL     OW30814   3.250   3.928   0.845
 9972SOL    HW130815   3.222   3.908   0.751
 9972SOL    HW230816   3.229   4.023   0.867
 9973SOL     OW30817   4.011   2.160   4.308
 9973SOL    HW130818   4.030   2.071   4.266
 9973SOL    HW230819   4.064   2.231   4.259
 9974SOL     OW30820   6.878   2.409   3.422
 9974SOL    HW130821   6.778   2.410   3.421
 9974SOL    HW230822   6.913   2.426   3.330
 9975SOL     OW30823   1.035   5.326   0.082
 9975SOL    HW130824   1.084   5.362   0.162
 9975SOL    HW230825   1.006   5.401   0.024
 9976SOL     OW30826   1.662   5.438   5.813
 9976SOL    HW130827   1.731   5.426   5.884
 9976SOL    HW230828   1.702   5.417   5.723
 9977SOL     OW30829   5.392   4.884   5.002
 9977SOL    HW130830   5.357   4.804   4.954
 9977SOL    HW230831   5.315   4.945   5.024
 9978SOL     OW30832   0.060   2.047   5.825
 9978SOL    HW130833   0.097   2.033   5.917
 9978SOL    HW230834   0.052   2.145   5.807
 9979SOL     OW30835   5.130   3.318   6.147
 9979SOL    HW130836   5.071   3.302   6.226
 9979SOL    HW230837   5.110   3.408   6.107
 9980SOL     OW30838   1.746   0.924   0.207
 9980SOL    HW130839   1.811   0.931   0.131
 9980SOL    HW230840   1.795   0.937   0.294
 9981SOL     OW30841   1.375   2.360   1.133
 9981SOL    HW130842   1.394   2.279   1.188
 9981SOL    HW230843   1.432   2.436   1.164
 9982SOL     OW30844   1.963   1.159   4.700
 9982SOL    HW130845   1.969   1.258   4.709
 9982SOL    HW230846   1.866   1.132   4.700
 9983SOL     OW30847   5.942   2.714   2.680
 9983SOL    HW130848   5.935   2.617   2.702
 9983SOL    HW230849   5.881   2.767   2.739
 9984SOL     OW30850   0.235   6.077   1.308
 9984SOL    HW130851   0.281   5.990   1.289
 9984SOL    HW230852   0.170   6.065   1.383
 9985SOL     OW30853   3.530   5.027   0.775
 9985SOL    HW130854   3.433   5.035   0.797
 9985SOL    HW230855   3.560   5.109   0.725
 9986SOL     OW30856   5.398   4.437   0.761
 9986SOL    HW130857   5.456   4.356   0.768
 9986SOL    HW230858   5.436   4.500   0.693
 9987SOL     OW30859   5.048   3.323   1.626
 9987SOL    HW130860   4.976   3.306   1.559
 9987SOL    HW230861   5.008   3.322   1.718
 9988SOL     OW30862   6.770   5.141   4.161
 9988SOL    HW130863   6.730   5.124   4.251
 9988SOL    HW230864   6.743   5.233   4.130
 9989SOL     OW30865   5.905   3.396   1.984
 9989SOL    HW130866   5.875   3.475   1.931
 9989SOL    HW230867   5.980   3.351   1.936
 9990SOL     OW30868   0.462   6.595   3.253
 9990SOL    HW130869   0.532   6.666   3.255
 9990SOL    HW230870   0.390   6.616   3.319
 9991SOL     OW30871   1.676   3.762   3.645
 9991SOL    HW130872   1.656   3.798   3.735
 9991SOL    HW230873   1.632   3.673   3.634
 9992SOL     OW30874   3.281   3.956   1.191
 9992SOL    HW130875   3.365   3.981   1.143
 9992SOL    HW230876   3.240   3.876   1.147
 9993SOL     OW30877   3.137   6.132   3.903
 9993SOL    HW130878   3.162   6.054   3.846
 9993SOL    HW230879   3.122   6.212   3.846
 9994SOL     OW30880   6.896   4.191   3.389
 9994SOL    HW130881   6.934   4.112   3.341
 9994SOL    HW230882   6.863   4.258   3.322
 9995SOL     OW30883   3.547   1.208   3.851
 9995SOL    HW130884   3.456   1.195   3.891
 9995SOL    HW230885   3.589   1.118   3.835
 9996SOL     OW30886   2.997   4.150   0.438
 9996SOL    HW130887   2.916   4.139   0.381
 9996SOL    HW230888   3.079   4.135   0.383
 9997SOL     OW30889   5.223   1.692   3.386
 9997SOL    HW130890   5.160   1.683   3.308
 9997SOL    HW230891   5.183   1.648   3.466
 9998SOL     OW30892   4.922   3.985   2.569
 9998SOL    HW130893   4.916   4.085   2.569
 9998SOL    HW230894   4.888   3.949   2.483
 9999SOL     OW30895   0.791   0.167   4.089
 9999SOL    HW130896   0.890   0.154   4.087
 9999SOL    HW230897   0.759   0.165   4.183
10000SOL     OW30898   5.528   1.337   1.511
10000SOL    HW130899   5.537   1.432   1.542
10000SOL    HW230900   5.542   1.333   1.412
10001SOL     OW30901   3.458   6.551   2.314
10001SOL    HW130902   3.554   6.539   2.338
10001SOL    HW230903   3.402   6.533   2.395
10002SOL     OW30904   2.212   1.418   0.857
10002SOL    HW130905   2.121   1.396   0.822
10002SOL    HW230906   2.255   1.486   0.797
10003SOL     OW30907   2.798   1.810   2.403
10003SOL    HW130908   2.894   1.803   2.431
10003SOL    HW230909   2.766   1.720   2.373
10004SOL     OW30910   5.536   4.703   4.658
10004SOL    HW130911   5.483   4.707   4.743
10004SOL    HW230912   5.551   4.608   4.632
10005SOL     OW30913   3.187   5.274   2.996
10005SOL    HW130914   3.139   5.350   3.040
10005SOL    HW230915   3.284   5.280   3.018
10006SOL     OW30916   5.707   0.451   5.068
10006SOL    HW130917   5.744   0.528   5.017
10006SOL    HW230918   5.609   0.441   5.048
10007SOL     OW30919   0.475   3.471   4.301
10007SOL    HW130920   0.492   3.533   4.378
10007SOL    HW230921   0.562   3.443   4.261
10008SOL     OW30922   4.416   1.843   3.896
10008SOL    HW130923   4.465   1.906   3.956
10008SOL    HW230924   4.322   1.833   3.928
10009SOL     OW30925   1.748   3.944   1.467
10009SOL    HW130926   1.691   3.968   1.546
10009SOL    HW230927   1.811   3.871   1.493
10010SOL     OW30928   3.013   5.744   6.614
10010SOL    HW130929   3.020   5.644   6.619
10010SOL    HW230930   2.974   5.779   6.699
10011SOL     OW30931   0.351   4.477   6.729
10011SOL    HW130932   0.440   4.522   6.732
10011SOL    HW230933   0.335   4.441   6.637
10012SOL     OW30934   4.668   0.449   2.226
10012SOL    HW130935   4.636   0.354   2.227
10012SOL    HW230936   4.598   0.508   2.266
10013SOL     OW30937   1.142   4.577   4.316
10013SOL    HW130938   1.103   4.636   4.245
10013SOL    HW230939   1.209   4.516   4.275
10014SOL     OW30940   1.798   6.907   2.620
10014SOL    HW130941   1.860   6.985   2.612
10014SOL    HW230942   1.818   6.842   2.546
10015SOL     OW30943   3.743   5.036   0.040
10015SOL    HW130944   3.815   5.065   0.103
10015SOL    HW230945   3.763   5.072   6.966
10016SOL     OW30946   2.191   1.476   5.137
10016SOL    HW130947   2.291   1.482   5.143
10016SOL    HW230948   2.152   1.568   5.134
10017SOL     OW30949   2.239   1.486   3.044
10017SOL    HW130950   2.162   1.439   3.086
10017SOL    HW230951   2.240   1.466   2.946
10018SOL     OW30952   6.741   3.917   5.577
10018SOL    HW130953   6.752   3.978   5.499
10018SOL    HW230954   6.647   3.881   5.579
10019SOL     OW30955   0.345   1.234   3.177
10019SOL    HW130956   0.380   1.219   3.270
10019SOL    HW230957   0.245   1.229   3.178
10020SOL     OW30958   0.158   1.288   2.250
10020SOL    HW130959   0.105   1.229   2.311
10020SOL    HW230960   0.166   1.245   2.160
10021SOL     OW30961   1.119   3.119   2.054
10021SOL    HW130962   1.150   3.189   2.118
10021SOL    HW230963   1.019   3.115   2.054
10022SOL     OW30964   2.574   5.718   0.214
10022SOL    HW130965   2.508   5.766   0.158
10022SOL    HW230966   2.556   5.619   0.209
10023SOL     OW30967   2.707   6.099   5.655
10023SOL    HW130968   2.634   6.167   5.656
10023SOL    HW230969   2.690   6.033   5.729
10024SOL     OW30970   0.727   5.216   3.013
10024SOL    HW130971   0.711   5.121   3.041
10024SOL    HW230972   0.694   5.228   2.919
10025SOL     OW30973   1.506   2.916   2.211
10025SOL    HW130974   1.533   2.952   2.300
10025SOL    HW230975   1.451   2.984   2.162
10026SOL     OW30976   4.911   0.587   3.598
10026SOL    HW130977   4.839   0.527   3.563
10026SOL    HW230978   4.910   0.586   3.698
10027SOL     OW30979   0.803   2.836   5.076
10027SOL    HW130980   0.728   2.796   5.127
10027SOL    HW230981   0.887   2.785   5.092
10028SOL     OW30982   2.745   1.235   0.726
10028SOL    HW130983   2.769   1.235   0.823
10028SOL    HW230984   2.829   1.232   0.671
10029SOL     OW30985   0.918   3.584   3.688
10029SOL    HW130986   0.878   3.493   3.680
10029SOL    HW230987   0.850   3.653   3.665
10030SOL     OW30988   3.151   6.905   4.983
10030SOL    HW130989   3.146   6.988   4.927
10030SOL    HW230990   3.100   6.832   4.938
10031SOL     OW30991   4.445   5.084   4.969
10031SOL    HW130992   4.432   5.067   4.872
10031SOL    HW230993   4.527   5.036   5.001
10032SOL     OW30994   3.792   0.381   6.161
10032SOL    HW130995   3.808   0.454   6.229
10032SOL    HW230996   3.722   0.319   6.196
10033SOL     OW30997   4.270   1.926   4.630
10033SOL    HW130998   4.263   1.909   4.728
10033SOL    HW230999   4.182   1.959   4.595
10034SOL     OW31000   2.338   1.323   3.650
10034SOL    HW131001   2.304   1.327   3.744
10034SOL    HW231002   2.265   1.289   3.590
10035SOL     OW31003   5.834   4.108   0.922
10035SOL    HW131004   5.890   4.180   0.880
10035SOL    HW231005   5.740   4.117   0.890
10036SOL     OW31006   6.492   0.920   0.967
10036SOL    HW131007   6.530   0.886   1.053
10036SOL    HW231008   6.551   0.992   0.931
10037SOL     OW31009   6.324   6.600   6.395
10037SOL    HW131010   6.383   6.653   6.335
10037SOL    HW231011   6.333   6.633   6.489
10038SOL     OW31012   4.501   0.029   6.150
10038SOL    HW131013   4.528   0.007   6.056
10038SOL    HW231014   4.578   0.069   6.198
10039SOL     OW31015   5.817   6.587   5.258
10039SOL    HW131016   5.838   6.518   5.327
10039SOL    HW231017   5.848   6.676   5.290
10040SOL     OW31018   4.423   6.273   6.043
10040SOL    HW131019   4.493   6.292   6.112
10040SOL    HW231020   4.457   6.299   5.953
10041SOL     OW31021   5.539   5.055   6.104
10041SOL    HW131022   5.556   4.977   6.164
10041SOL    HW231023   5.466   5.111   6.143
10042SOL     OW31024   0.274   0.905   5.565
10042SOL    HW131025   0.275   0.903   5.465
10042SOL    HW231026   0.355   0.954   5.599
10043SOL     OW31027   0.622   0.859   3.819
10043SOL    HW131028   0.585   0.950   3.840
10043SOL    HW231029   0.600   0.836   3.724
10044SOL     OW31030   2.638   2.031   3.856
10044SOL    HW131031   2.633   2.060   3.952
10044SOL    HW231032   2.730   1.998   3.836
10045SOL     OW31033   5.041   0.136   4.038
10045SOL    HW131034   5.071   0.109   4.130
10045SOL    HW231035   5.121   0.156   3.981
10046SOL     OW31036   1.504   2.138   1.592
10046SOL    HW131037   1.468   2.045   1.582
10046SOL    HW231038   1.596   2.142   1.554
10047SOL     OW31039   6.010   3.644   5.029
10047SOL    HW131040   5.974   3.727   4.986
10047SOL    HW231041   6.101   3.625   4.992
10048SOL     OW31042   3.435   2.016   2.449
10048SOL    HW131043   3.350   2.024   2.396
10048SOL    HW231044   3.513   2.039   2.390
10049SOL     OW31045   0.612   1.057   6.903
10049SOL    HW131046   0.701   1.070   6.859
10049SOL    HW231047   0.553   1.003   6.843
10050SOL     OW31048   6.323   2.621   4.941
10050SOL    HW131049   6.308   2.527   4.912
10050SOL    HW231050   6.397   2.625   5.007
10051SOL     OW31051   6.407   2.799   4.760
10051SOL    HW131052   6.355   2.729   4.810
10051SOL    HW231053   6.457   2.856   4.825
10052SOL     OW31054   1.675   2.113   2.453
10052SOL    HW131055   1.760   2.141   2.497
10052SOL    HW231056   1.690   2.029   2.401
10053SOL     OW31057   3.151   5.217   1.914
10053SOL    HW131058   3.074   5.160   1.943
10053SOL    HW231059   3.187   5.183   1.827
10054SOL     OW31060   4.017   6.298   5.930
10054SOL    HW131061   3.997   6.208   5.969
10054SOL    HW231062   3.959   6.313   5.850
10055SOL     OW31063   5.635   2.474   5.773
10055SOL    HW131064   5.565   2.530   5.817
10055SOL    HW231065   5.592   2.403   5.718
10056SOL     OW31066   6.608   5.133   0.454
10056SOL    HW131067   6.636   5.229   0.445
10056SOL    HW231068   6.652   5.079   0.382
10057SOL     OW31069   4.179   1.242   4.142
10057SOL    HW131070   4.142   1.308   4.076
10057SOL    HW231071   4.105   1.211   4.203
10058SOL     OW31072   0.665   3.802   4.314
10058SOL    HW131073   0.754   3.760   4.295
10058SOL    HW231074   0.612   3.742   4.374
10059SOL     OW31075   5.701   6.152   0.108
10059SOL    HW131076   5.631   6.094   0.068
10059SOL    HW231077   5.671   6.184   0.198
10060SOL     OW31078   2.295   1.361   2.024
10060SOL    HW131079   2.285   1.424   1.947
10060SOL    HW231080   2.205   1.346   2.067
10061SOL     OW31081   5.173   1.464   4.572
10061SOL    HW131082   5.093   1.419   4.613
10061SOL    HW231083   5.229   1.397   4.525
10062SOL     OW31084   6.172   6.669   4.980
10062SOL    HW131085   6.119   6.585   4.988
10062SOL    HW231086   6.219   6.687   5.067
10063SOL     OW31087   1.898   2.015   3.366
10063SOL    HW131088   1.872   1.965   3.449
10063SOL    HW231089   1.837   1.989   3.291
10064SOL     OW31090   6.103   5.816   6.257
10064SOL    HW131091   6.003   5.825   6.255
10064SOL    HW231092   6.144   5.894   6.209
10065SOL     OW31093   2.075   0.737   1.781
10065SOL    HW131094   2.102   0.712   1.874
10065SOL    HW231095   2.104   0.831   1.762
10066SOL     OW31096   1.576   1.206   4.394
10066SOL    HW131097   1.485   1.242   4.415
10066SOL    HW231098   1.602   1.232   4.301
10067SOL     OW31099   5.536   3.819   5.595
10067SOL    HW131100   5.557   3.891   5.663
10067SOL    HW231101   5.617   3.803   5.539
10068SOL     OW31102   5.902   3.365   4.560
10068SOL    HW131103   5.992   3.341   4.596
10068SOL    HW231104   5.831   3.314   4.609
10069SOL     OW31105   1.933   5.291   3.499
10069SOL    HW131106   1.845   5.335   3.515
10069SOL    HW231107   2.006   5.351   3.533
10070SOL     OW31108   0.303   0.282   5.130
10070SOL    HW131109   0.286   0.184   5.122
10070SOL    HW231110   0.334   0.303   5.223
10071SOL     OW31111   5.044   5.703   3.786
10071SOL    HW131112   5.001   5.702   3.695
10071SOL    HW231113   5.091   5.790   3.799
10072SOL     OW31114   0.704   6.117   4.128
10072SOL    HW131115   0.768   6.088   4.199
10072SOL    HW231116   0.730   6.076   4.040
10073SOL     OW31117   6.411   3.958   4.367
10073SOL    HW131118   6.457   3.902   4.436
10073SOL    HW231119   6.464   4.040   4.349
10074SOL     OW31120   0.940   0.454   5.352
10074SOL    HW131121   0.852   0.413   5.326
10074SOL    HW231122   0.992   0.474   5.269
10075SOL     OW31123   1.318   2.555   2.602
10075SOL    HW131124   1.334   2.491   2.527
10075SOL    HW231125   1.406   2.595   2.631
10076SOL     OW31126   5.537   0.439   3.873
10076SOL    HW131127   5.452   0.436   3.925
10076SOL    HW231128   5.527   0.384   3.789
10077SOL     OW31129   3.118   2.067   6.341
10077SOL    HW131130   3.153   2.150   6.384
10077SOL    HW231131   3.185   1.993   6.352
10078SOL     OW31132   0.025   6.298   3.976
10078SOL    HW131133   0.009   6.212   4.023
10078SOL    HW231134   0.019   6.373   4.042
10079SOL     OW31135   0.881   3.423   1.784
10079SOL    HW131136   0.844   3.425   1.877
10079SOL    HW231137   0.807   3.407   1.719
10080SOL     OW31138   3.318   1.143   5.757
10080SOL    HW131139   3.239   1.084   5.743
10080SOL    HW231140   3.398   1.101   5.714
10081SOL     OW31141   0.487   0.611   0.118
10081SOL    HW131142   0.400   0.617   0.069
10081SOL    HW231143   0.560   0.648   0.061
10082SOL     OW31144   0.172   4.303   2.168
10082SOL    HW131145   0.270   4.318   2.180
10082SOL    HW231146   0.155   4.267   2.076
10083SOL     OW31147   4.988   0.787   2.650
10083SOL    HW131148   4.935   0.702   2.652
10083SOL    HW231149   4.949   0.848   2.581
10084SOL     OW31150   3.291   0.812   6.238
10084SOL    HW131151   3.324   0.844   6.149
10084SOL    HW231152   3.196   0.781   6.229
10085SOL     OW31153   0.479   6.323   2.117
10085SOL    HW131154   0.485   6.370   2.205
10085SOL    HW231155   0.548   6.358   2.055
10086SOL     OW31156   5.806   5.345   1.853
10086SOL    HW131157   5.837   5.324   1.760
10086SOL    HW231158   5.792   5.259   1.903
10087SOL     OW31159   0.333   0.018   4.114
10087SOL    HW131160   0.282   0.052   4.035
10087SOL    HW231161   0.292   6.949   4.144
10088SOL     OW31162   6.858   0.112   0.001
10088SOL    HW131163   6.762   0.086   7.009
10088SOL    HW231164   6.909   0.035   0.040
10089SOL     OW31165   2.483   2.541   2.945
10089SOL    HW131166   2.522   2.548   3.036
10089SOL    HW231167   2.394   2.497   2.950
10090SOL     OW31168   1.179   4.899   0.792
10090SOL    HW131169   1.145   4.817   0.746
10090SOL    HW231170   1.201   4.877   0.887
10091SOL     OW31171   1.401   3.385   5.499
10091SOL    HW131172   1.384   3.344   5.589
10091SOL    HW231173   1.315   3.390   5.449
10092SOL     OW31174   2.181   3.502   4.984
10092SOL    HW131175   2.210   3.596   5.001
10092SOL    HW231176   2.222   3.441   5.052
10093SOL     OW31177   0.721   4.645   4.957
10093SOL    HW131178   0.749   4.567   4.902
10093SOL    HW231179   0.645   4.692   4.912
10094SOL     OW31180   2.057   6.170   1.914
10094SOL    HW131181   2.129   6.156   1.983
10094SOL    HW231182   2.055   6.266   1.888
10095SOL     OW31183   6.273   2.113   5.752
10095SOL    HW131184   6.294   2.044   5.822
10095SOL    HW231185   6.346   2.181   5.750
10096SOL     OW31186   5.515   5.189   2.158
10096SOL    HW131187   5.415   5.191   2.157
10096SOL    HW231188   5.547   5.168   2.250
10097SOL     OW31189   0.931   1.059   0.135
10097SOL    HW131190   0.996   0.985   0.152
10097SOL    HW231191   0.946   1.133   0.201
10098SOL     OW31192   2.299   0.857   5.411
10098SOL    HW131193   2.226   0.794   5.435
10098SOL    HW231194   2.367   0.809   5.354
10099SOL     OW31195   6.866   5.053   0.295
10099SOL    HW131196   6.888   5.076   0.390
10099SOL    HW231197   6.922   4.977   0.265
10100SOL     OW31198   5.269   6.956   4.486
10100SOL    HW131199   5.243   6.866   4.521
10100SOL    HW231200   5.210   0.008   4.526
10101SOL     OW31201   5.588   4.209   1.685
10101SOL    HW131202   5.622   4.210   1.779
10101SOL    HW231203   5.564   4.115   1.659
10102SOL     OW31204   1.512   1.178   2.752
10102SOL    HW131205   1.574   1.147   2.680
10102SOL    HW231206   1.534   1.273   2.775
10103SOL     OW31207   2.414   1.620   5.945
10103SOL    HW131208   2.416   1.714   5.979
10103SOL    HW231209   2.355   1.614   5.865
10104SOL     OW31210   1.548   2.688   4.228
10104SOL    HW131211   1.589   2.613   4.174
10104SOL    HW231212   1.580   2.682   4.322
10105SOL     OW31213   1.091   0.816   0.217
10105SOL    HW131214   1.009   0.765   0.191
10105SOL    HW231215   1.168   0.786   0.162
10106SOL     OW31216   4.395   6.075   1.102
10106SOL    HW131217   4.466   6.095   1.035
10106SOL    HW231218   4.392   6.150   1.169
10107SOL     OW31219   0.446   2.291   6.698
10107SOL    HW131220   0.498   2.228   6.756
10107SOL    HW231221   0.471   2.385   6.720
10108SOL     OW31222   6.408   6.213   6.829
10108SOL    HW131223   6.392   6.265   6.745
10108SOL    HW231224   6.399   6.115   6.810
10109SOL     OW31225   3.747   6.645   1.214
10109SOL    HW131226   3.781   6.619   1.305
10109SOL    HW231227   3.819   6.697   1.166
10110SOL     OW31228   4.740   6.456   5.064
10110SOL    HW131229   4.721   6.527   5.132
10110SOL    HW231230   4.657   6.405   5.045
10111SOL     OW31231   5.637   3.233   3.987
10111SOL    HW131232   5.661   3.288   3.907
10111SOL    HW231233   5.538   3.224   3.994
10112SOL     OW31234   5.668   4.068   4.425
10112SOL    HW131235   5.626   4.068   4.515
10112SOL    HW231236   5.660   3.977   4.384
10113SOL     OW31237   4.369   0.211   5.281
10113SOL    HW131238   4.308   0.280   5.319
10113SOL    HW231239   4.430   0.253   5.213
10114SOL     OW31240   5.347   0.354   1.101
10114SOL    HW131241   5.363   0.300   1.183
10114SOL    HW231242   5.423   0.343   1.037
10115SOL     OW31243   3.227   1.860   3.716
10115SOL    HW131244   3.163   1.932   3.742
10115SOL    HW231245   3.219   1.784   3.781
10116SOL     OW31246   0.188   6.411   0.209
10116SOL    HW131247   0.204   6.333   0.270
10116SOL    HW231248   0.267   6.425   0.151
10117SOL     OW31249   6.839   6.404   4.816
10117SOL    HW131250   6.783   6.322   4.833
10117SOL    HW231251   6.909   6.383   4.748
10118SOL     OW31252   1.329   5.342   3.249
10118SOL    HW131253   1.294   5.432   3.276
10118SOL    HW231254   1.306   5.325   3.152
10119SOL     OW31255   0.749   6.580   4.301
10119SOL    HW131256   0.733   6.558   4.205
10119SOL    HW231257   0.665   6.564   4.353
10120SOL     OW31258   1.273   3.977   4.367
10120SOL    HW131259   1.272   3.959   4.269
10120SOL    HW231260   1.256   3.893   4.417
10121SOL     OW31261   6.312   4.326   6.355
10121SOL    HW131262   6.277   4.416   6.381
10121SOL    HW231263   6.279   4.257   6.420
10122SOL     OW31264   5.754   3.114   0.736
10122SOL    HW131265   5.844   3.097   0.696
10122SOL    HW231266   5.736   3.212   0.738
10123SOL     OW31267   6.644   6.920   0.189
10123SOL    HW131268   6.627   6.995   0.124
10123SOL    HW231269   6.692   6.846   0.143
10124SOL     OW31270   1.868   3.409   6.883
10124SOL    HW131271   1.910   3.322   6.860
10124SOL    HW231272   1.843   3.457   6.798
10125SOL     OW31273   1.519   0.361   2.728
10125SOL    HW131274   1.575   0.358   2.646
10125SOL    HW231275   1.456   0.439   2.723
10126SOL     OW31276   0.117   6.723   6.343
10126SOL    HW131277   0.091   6.806   6.294
10126SOL    HW231278   0.097   6.733   6.440
10127SOL     OW31279   2.172   4.789   5.892
10127SOL    HW131280   2.116   4.867   5.918
10127SOL    HW231281   2.265   4.819   5.872
10128SOL     OW31282   1.538   1.308   1.276
10128SOL    HW131283   1.504   1.320   1.182
10128SOL    HW231284   1.553   1.210   1.293
10129SOL     OW31285   5.238   2.931   3.852
10129SOL    HW131286   5.292   3.011   3.875
10129SOL    HW231287   5.256   2.905   3.757
10130SOL     OW31288   2.156   4.173   1.921
10130SOL    HW131289   2.114   4.165   2.012
10130SOL    HW231290   2.136   4.263   1.883
10131SOL     OW31291   0.801   0.397   3.407
10131SOL    HW131292   0.778   0.317   3.463
10131SOL    HW231293   0.732   0.410   3.336
10132SOL     OW31294   3.109   0.180   4.262
10132SOL    HW131295   3.104   0.084   4.288
10132SOL    HW231296   3.116   0.237   4.344
10133SOL     OW31297   4.859   6.054   1.536
10133SOL    HW131298   4.850   6.065   1.437
10133SOL    HW231299   4.776   6.088   1.580
10134SOL     OW31300   6.832   6.196   3.688
10134SOL    HW131301   6.780   6.268   3.733
10134SOL    HW231302   6.928   6.224   3.681
10135SOL     OW31303   4.919   3.543   3.431
10135SOL    HW131304   4.933   3.642   3.428
10135SOL    HW231305   4.917   3.513   3.527
10136SOL     OW31306   5.452   0.703   3.111
10136SOL    HW131307   5.514   0.625   3.103
10136SOL    HW231308   5.505   0.787   3.111
10137SOL     OW31309   5.863   4.322   3.987
10137SOL    HW131310   5.955   4.290   4.010
10137SOL    HW231311   5.802   4.307   4.065
10138SOL     OW31312   5.240   2.105   0.635
10138SOL    HW131313   5.202   2.130   0.724
10138SOL    HW231314   5.191   2.027   0.597
10139SOL     OW31315   3.841   3.986   3.292
10139SOL    HW131316   3.845   3.983   3.193
10139SOL    HW231317   3.762   4.040   3.321
10140SOL     OW31318   6.377   6.362   5.918
10140SOL    HW131319   6.432   6.281   5.938
10140SOL    HW231320   6.434   6.432   5.876
10141SOL     OW31321   3.339   1.779   4.466
10141SOL    HW131322   3.259   1.826   4.505
10141SOL    HW231323   3.311   1.726   4.386
10142SOL     OW31324   6.269   6.454   4.675
10142SOL    HW131325   6.180   6.410   4.676
10142SOL    HW231326   6.257   6.553   4.663
10143SOL     OW31327   4.039   1.000   0.106
10143SOL    HW131328   4.101   0.933   0.148
10143SOL    HW231329   4.093   1.077   0.070
10144SOL     OW31330   3.584   6.660   6.485
10144SOL    HW131331   3.653   6.670   6.413
10144SOL    HW231332   3.595   6.731   6.554
10145SOL     OW31333   3.072   5.401   5.508
10145SOL    HW131334   3.025   5.330   5.559
10145SOL    HW231335   3.123   5.361   5.432
10146SOL     OW31336   4.135   5.274   4.368
10146SOL    HW131337   4.118   5.231   4.280
10146SOL    HW231338   4.227   5.250   4.401
10147SOL     OW31339   5.636   4.025   4.952
10147SOL    HW131340   5.692   4.015   4.869
10147SOL    HW231341   5.629   3.937   4.998
10148SOL     OW31342   4.941   5.347   6.964
10148SOL    HW131343   4.964   5.292   0.027
10148SOL    HW231344   4.853   5.393   6.979
10149SOL     OW31345   5.644   2.602   0.773
10149SOL    HW131346   5.655   2.647   0.862
10149SOL    HW231347   5.672   2.663   0.700
10150SOL     OW31348   4.008   3.378   0.615
10150SOL    HW131349   4.035   3.286   0.586
10150SOL    HW231350   3.951   3.372   0.696
10151SOL     OW31351   1.013   6.884   0.316
10151SOL    HW131352   1.071   6.830   0.254
10151SOL    HW231353   1.001   6.836   0.402
10152SOL     OW31354   0.651   6.283   4.607
10152SOL    HW131355   0.610   6.327   4.687
10152SOL    HW231356   0.747   6.310   4.600
10153SOL     OW31357   4.626   6.197   3.827
10153SOL    HW131358   4.663   6.145   3.750
10153SOL    HW231359   4.528   6.182   3.833
10154SOL     OW31360   5.658   0.146   4.785
10154SOL    HW131361   5.749   0.125   4.822
10154SOL    HW231362   5.601   0.064   4.787
10155SOL     OW31363   3.518   2.104   5.799
10155SOL    HW131364   3.550   2.187   5.845
10155SOL    HW231365   3.554   2.101   5.706
10156SOL     OW31366   6.426   1.332   2.640
10156SOL    HW131367   6.331   1.362   2.629
10156SOL    HW231368   6.428   1.249   2.696
10157SOL     OW31369   6.092   2.072   6.912
10157SOL    HW131370   6.099   2.155   6.968
10157SOL    HW231371   6.005   2.072   6.863
10158SOL     OW31372   6.085   3.838   1.057
10158SOL    HW131373   6.178   3.841   1.022
10158SOL    HW231374   6.024   3.800   0.987
10159SOL     OW31375   2.526   2.689   6.346
10159SOL    HW131376   2.449   2.734   6.390
10159SOL    HW231377   2.579   2.639   6.415
10160SOL     OW31378   2.114   2.983   2.154
10160SOL    HW131379   2.058   3.065   2.139
10160SOL    HW231380   2.137   2.942   2.066
10161SOL     OW31381   3.022   2.867   6.302
10161SOL    HW131382   3.116   2.836   6.282
10161SOL    HW231383   2.957   2.799   6.267
10162SOL     OW31384   3.599   4.462   0.719
10162SOL    HW131385   3.511   4.430   0.686
10162SOL    HW231386   3.669   4.446   0.648
10163SOL     OW31387   5.978   4.903   6.175
10163SOL    HW131388   6.054   4.889   6.111
10163SOL    HW231389   5.916   4.825   6.172
10164SOL     OW31390   5.838   3.570   4.828
10164SOL    HW131391   5.871   3.607   4.741
10164SOL    HW231392   5.911   3.576   4.896
10165SOL     OW31393   0.313   2.188   3.249
10165SOL    HW131394   0.369   2.260   3.208
10165SOL    HW231395   0.232   2.172   3.192
10166SOL     OW31396   3.196   1.770   1.790
10166SOL    HW131397   3.255   1.846   1.817
10166SOL    HW231398   3.235   1.684   1.823
10167SOL     OW31399   2.416   3.310   0.295
10167SOL    HW131400   2.473   3.276   0.370
10167SOL    HW231401   2.336   3.251   0.284
10168SOL     OW31402   5.992   3.747   5.664
10168SOL    HW131403   5.984   3.847   5.666
10168SOL    HW231404   5.954   3.709   5.748
10169SOL     OW31405   6.762   4.547   3.717
10169SOL    HW131406   6.795   4.584   3.804
10169SOL    HW231407   6.764   4.447   3.720
10170SOL     OW31408   1.466   5.456   6.023
10170SOL    HW131409   1.529   5.450   5.945
10170SOL    HW231410   1.499   5.399   6.098
10171SOL     OW31411   6.398   2.931   5.683
10171SOL    HW131412   6.313   2.962   5.640
10171SOL    HW231413   6.437   3.007   5.736
10172SOL     OW31414   6.593   6.687   4.522
10172SOL    HW131415   6.681   6.717   4.561
10172SOL    HW231416   6.519   6.714   4.583
10173SOL     OW31417   0.603   2.425   1.202
10173SOL    HW131418   0.679   2.433   1.137
10173SOL    HW231419   0.518   2.451   1.158
10174SOL     OW31420   5.248   5.195   2.219
10174SOL    HW131421   5.155   5.221   2.247
10174SOL    HW231422   5.255   5.095   2.218
10175SOL     OW31423   5.090   2.232   4.125
10175SOL    HW131424   5.145   2.199   4.048
10175SOL    HW231425   5.149   2.278   4.191
10176SOL     OW31426   0.876   3.588   5.862
10176SOL    HW131427   0.909   3.612   5.953
10176SOL    HW231428   0.944   3.530   5.816
10177SOL     OW31429   2.650   0.758   0.504
10177SOL    HW131430   2.566   0.747   0.557
10177SOL    HW231431   2.705   0.832   0.544
10178SOL     OW31432   6.891   0.621   5.854
10178SOL    HW131433   6.967   0.686   5.851
10178SOL    HW231434   6.873   0.587   5.762
10179SOL     OW31435   0.999   1.810   6.421
10179SOL    HW131436   1.081   1.754   6.411
10179SOL    HW231437   0.918   1.750   6.420
10180SOL     OW31438   4.086   0.332   6.381
10180SOL    HW131439   4.013   0.341   6.314
10180SOL    HW231440   4.052   0.280   6.460
10181SOL     OW31441   5.726   2.706   1.855
10181SOL    HW131442   5.725   2.783   1.792
10181SOL    HW231443   5.731   2.739   1.949
10182SOL     OW31444   4.189   0.921   1.149
10182SOL    HW131445   4.092   0.901   1.162
10182SOL    HW231446   4.244   0.845   1.184
10183SOL     OW31447   0.134   2.429   6.724
10183SOL    HW131448   0.112   2.375   6.643
10183SOL    HW231449   0.206   2.383   6.776
10184SOL     OW31450   3.830   0.896   6.361
10184SOL    HW131451   3.772   0.963   6.409
10184SOL    HW231452   3.775   0.850   6.292
10185SOL     OW31453   5.711   5.941   2.217
10185SOL    HW131454   5.753   5.904   2.134
10185SOL    HW231455   5.783   5.964   2.283
10186SOL     OW31456   6.141   4.000   3.668
10186SOL    HW131457   6.101   4.088   3.691
10186SOL    HW231458   6.172   3.954   3.752
10187SOL     OW31459   0.282   3.198   0.489
10187SOL    HW131460   0.310   3.179   0.395
10187SOL    HW231461   0.293   3.116   0.545
10188SOL     OW31462   3.498   5.549   0.669
10188SOL    HW131463   3.467   5.632   0.715
10188SOL    HW231464   3.573   5.571   0.607
10189SOL     OW31465   0.917   0.912   6.132
10189SOL    HW131466   0.985   0.862   6.079
10189SOL    HW231467   0.889   0.858   6.211
10190SOL     OW31468   4.979   3.047   1.945
10190SOL    HW131469   4.885   3.015   1.957
10190SOL    HW231470   4.980   3.147   1.944
10191SOL     OW31471   5.848   5.374   5.339
10191SOL    HW131472   5.894   5.380   5.250
10191SOL    HW231473   5.782   5.299   5.337
10192SOL     OW31474   4.372   1.175   5.463
10192SOL    HW131475   4.355   1.235   5.541
10192SOL    HW231476   4.461   1.197   5.423
10193SOL     OW31477   4.100   3.312   1.963
10193SOL    HW131478   4.072   3.243   1.897
10193SOL    HW231479   4.068   3.287   2.054
10194SOL     OW31480   5.766   5.568   5.497
10194SOL    HW131481   5.824   5.507   5.442
10194SOL    HW231482   5.670   5.555   5.471
10195SOL     OW31483   6.300   5.620   0.615
10195SOL    HW131484   6.285   5.618   0.714
10195SOL    HW231485   6.398   5.620   0.596
10196SOL     OW31486   4.652   1.682   3.997
10196SOL    HW131487   4.571   1.633   3.965
10196SOL    HW231488   4.659   1.769   3.949
10197SOL     OW31489   5.816   2.081   5.657
10197SOL    HW131490   5.877   2.118   5.727
10197SOL    HW231491   5.730   2.054   5.700
10198SOL     OW31492   2.554   6.909   2.427
10198SOL    HW131493   2.549   6.838   2.357
10198SOL    HW231494   2.650   6.927   2.449
10199SOL     OW31495   2.557   2.426   6.818
10199SOL    HW131496   2.525   2.334   6.843
10199SOL    HW231497   2.639   2.448   6.871
10200SOL     OW31498   4.903   1.505   6.838
10200SOL    HW131499   4.889   1.406   6.849
10200SOL    HW231500   4.844   1.539   6.765
10201SOL     OW31501   1.429   4.195   0.689
10201SOL    HW131502   1.469   4.286   0.704
10201SOL    HW231503   1.468   4.131   0.755
10202SOL     OW31504   3.443   3.511   0.448
10202SOL    HW131505   3.543   3.515   0.455
10202SOL    HW231506   3.411   3.588   0.391
10203SOL     OW31507   6.304   2.996   3.481
10203SOL    HW131508   6.244   3.058   3.532
10203SOL    HW231509   6.330   3.038   3.395
10204SOL     OW31510   5.237   6.058   0.104
10204SOL    HW131511   5.221   6.122   0.179
10204SOL    HW231512   5.166   6.070   0.034
10205SOL     OW31513   1.743   0.849   1.440
10205SOL    HW131514   1.723   0.908   1.518
10205SOL    HW231515   1.841   0.851   1.421
10206SOL     OW31516   0.175   0.729   0.496
10206SOL    HW131517   0.247   0.788   0.460
10206SOL    HW231518   0.172   0.644   0.444
10207SOL     OW31519   1.122   2.027   6.907
10207SOL    HW131520   1.121   2.126   6.894
10207SOL    HW231521   1.199   1.987   6.858
10208SOL     OW31522   5.694   4.101   3.904
10208SOL    HW131523   5.771   4.164   3.914
10208SOL    HW231524   5.728   4.011   3.878
10209SOL     OW31525   0.434   0.228   6.975
10209SOL    HW131526   0.415   0.133   7.001
10209SOL    HW231527   0.356   0.285   6.999
10210SOL     OW31528   4.692   6.453   2.151
10210SOL    HW131529   4.612   6.429   2.207
10210SOL    HW231530   4.708   6.381   2.083
10211SOL     OW31531   3.949   6.487   4.754
10211SOL    HW131532   4.038   6.442   4.754
10211SOL    HW231533   3.877   6.418   4.748
10212SOL     OW31534   0.774   0.238   5.668
10212SOL    HW131535   0.788   0.198   5.758
10212SOL    HW231536   0.812   0.177   5.598
10213SOL     OW31537   5.574   3.057   1.125
10213SOL    HW131538   5.580   3.132   1.191
10213SOL    HW231539   5.523   2.981   1.166
10214SOL     OW31540   1.597   1.533   2.402
10214SOL    HW131541   1.657   1.479   2.343
10214SOL    HW231542   1.540   1.471   2.456
10215SOL     OW31543   3.993   3.823   3.438
10215SOL    HW131544   3.933   3.881   3.384
10215SOL    HW231545   3.945   3.792   3.521
10216SOL     OW31546   0.189   1.308   1.418
10216SOL    HW131547   0.150   1.378   1.477
10216SOL    HW231548   0.278   1.279   1.454
10217SOL     OW31549   3.167   2.122   3.179
10217SOL    HW131550   3.262   2.130   3.151
10217SOL    HW231551   3.110   2.103   3.100
10218SOL     OW31552   1.729   1.512   1.327
10218SOL    HW131553   1.676   1.429   1.343
10218SOL    HW231554   1.789   1.498   1.248
10219SOL     OW31555   6.943   2.189   2.622
10219SOL    HW131556   6.883   2.150   2.691
10219SOL    HW231557   6.891   2.205   2.538
10220SOL     OW31558   4.506   1.965   1.045
10220SOL    HW131559   4.584   2.011   1.088
10220SOL    HW231560   4.443   1.933   1.116
10221SOL     OW31561   0.474   5.024   2.905
10221SOL    HW131562   0.537   4.970   2.961
10221SOL    HW231563   0.523   5.060   2.825
10222SOL     OW31564   2.630   3.482   6.121
10222SOL    HW131565   2.655   3.549   6.051
10222SOL    HW231566   2.571   3.525   6.189
10223SOL     OW31567   0.723   4.870   1.504
10223SOL    HW131568   0.765   4.951   1.461
10223SOL    HW231569   0.756   4.862   1.598
10224SOL     OW31570   0.091   3.523   4.232
10224SOL    HW131571   0.050   3.448   4.179
10224SOL    HW231572   0.023   3.560   4.295
10225SOL     OW31573   1.533   4.843   5.740
10225SOL    HW131574   1.632   4.836   5.721
10225SOL    HW231575   1.519   4.881   5.831
10226SOL     OW31576   2.642   0.548   6.580
10226SOL    HW131577   2.650   0.533   6.679
10226SOL    HW231578   2.620   0.462   6.535
10227SOL     OW31579   5.542   4.575   0.583
10227SOL    HW131580   5.604   4.651   0.600
10227SOL    HW231581   5.536   4.557   0.485
10228SOL     OW31582   0.409   6.911   2.007
10228SOL    HW131583   0.485   6.968   1.975
10228SOL    HW231584   0.359   6.960   2.078
10229SOL     OW31585   0.960   3.192   4.401
10229SOL    HW131586   0.905   3.110   4.421
10229SOL    HW231587   0.915   3.272   4.441
10230SOL     OW31588   5.539   5.844   2.966
10230SOL    HW131589   5.475   5.795   2.906
10230SOL    HW231590   5.516   5.824   3.061
10231SOL     OW31591   0.021   5.581   5.137
10231SOL    HW131592   7.002   5.498   5.180
10231SOL    HW231593   0.054   5.559   5.045
10232SOL     OW31594   2.879   1.119   3.801
10232SOL    HW131595   2.869   1.197   3.864
10232SOL    HW231596   2.872   1.152   3.707
10233SOL     OW31597   3.963   4.002   4.624
10233SOL    HW131598   3.981   4.054   4.707
10233SOL    HW231599   3.884   4.041   4.577
10234SOL     OW31600   5.942   1.497   1.370
10234SOL    HW131601   5.883   1.512   1.449
10234SOL    HW231602   5.988   1.408   1.379
10235SOL     OW31603   2.014   2.701   2.042
10235SOL    HW131604   1.925   2.737   2.015
10235SOL    HW231605   2.073   2.693   1.962
10236SOL     OW31606   2.807   6.957   0.124
10236SOL    HW131607   2.838   6.873   0.081
10236SOL    HW231608   2.844   6.963   0.217
10237SOL     OW31609   0.004   3.362   0.144
10237SOL    HW131610   0.101   3.376   0.123
10237SOL    HW231611   6.990   3.278   0.100
10238SOL     OW31612   4.007   4.244   1.587
10238SOL    HW131613   3.956   4.166   1.623
10238SOL    HW231614   4.100   4.242   1.623
10239SOL     OW31615   1.184   2.934   4.420
10239SOL    HW131616   1.225   2.902   4.335
10239SOL    HW231617   1.109   2.997   4.398
10240SOL     OW31618   2.129   5.397   2.282
10240SOL    HW131619   2.222   5.377   2.312
10240SOL    HW231620   2.107   5.339   2.203
10241SOL     OW31621   5.131   0.437   2.473
10241SOL    HW131622   5.185   0.370   2.522
10241SOL    HW231623   5.190   0.513   2.444
10242SOL     OW31624   6.641   1.398   0.585
10242SOL    HW131625   6.669   1.389   0.490
10242SOL    HW231626   6.572   1.470   0.593
10243SOL     OW31627   2.498   4.367   1.700
10243SOL    HW131628   2.591   4.384   1.667
10243SOL    HW231629   2.495   4.277   1.743
10244SOL     OW31630   1.806   4.294   0.607
10244SOL    HW131631   1.823   4.226   0.536
10244SOL    HW231632   1.875   4.366   0.601
10245SOL     OW31633   3.222   3.734   1.062
10245SOL    HW131634   3.230   3.783   0.975
10245SOL    HW231635   3.135   3.683   1.063
10246SOL     OW31636   3.168   4.002   4.096
10246SOL    HW131637   3.213   3.919   4.132
10246SOL    HW231638   3.233   4.078   4.097
10247SOL     OW31639   6.684   4.208   6.076
10247SOL    HW131640   6.592   4.181   6.105
10247SOL    HW231641   6.750   4.182   6.147
10248SOL     OW31642   1.133   6.504   2.531
10248SOL    HW131643   1.049   6.546   2.567
10248SOL    HW231644   1.192   6.575   2.493
10249SOL     OW31645   3.290   5.904   6.620
10249SOL    HW131646   3.327   5.963   6.692
10249SOL    HW231647   3.222   5.954   6.567
10250SOL     OW31648   6.445   3.227   1.198
10250SOL    HW131649   6.392   3.192   1.275
10250SOL    HW231650   6.434   3.326   1.192
10251SOL     OW31651   2.092   1.663   4.466
10251SOL    HW131652   2.157   1.597   4.427
10251SOL    HW231653   1.999   1.629   4.455
10252SOL     OW31654   3.967   3.667   6.426
10252SOL    HW131655   4.064   3.663   6.450
10252SOL    HW231656   3.912   3.633   6.503
10253SOL     OW31657   2.863   5.801   0.663
10253SOL    HW131658   2.900   5.815   0.571
10253SOL    HW231659   2.864   5.704   0.685
10254SOL     OW31660   4.807   1.619   5.194
10254SOL    HW131661   4.789   1.522   5.176
10254SOL    HW231662   4.794   1.638   5.291
10255SOL     OW31663   2.447   6.920   1.040
10255SOL    HW131664   2.431   6.824   1.063
10255SOL    HW231665   2.501   6.925   0.956
10256SOL     OW31666   4.188   1.666   2.334
10256SOL    HW131667   4.286   1.675   2.316
10256SOL    HW231668   4.144   1.624   2.255
10257SOL     OW31669   1.666   5.613   3.853
10257SOL    HW131670   1.686   5.711   3.867
10257SOL    HW231671   1.567   5.600   3.848
10258SOL     OW31672   3.742   2.104   2.895
10258SOL    HW131673   3.735   2.098   2.796
10258SOL    HW231674   3.829   2.146   2.920
10259SOL     OW31675   0.939   4.188   3.428
10259SOL    HW131676   1.010   4.119   3.415
10259SOL    HW231677   0.865   4.149   3.482
10260SOL     OW31678   0.680   1.618   3.090
10260SOL    HW131679   0.616   1.553   3.049
10260SOL    HW231680   0.629   1.688   3.140
10261SOL     OW31681   6.982   5.135   0.929
10261SOL    HW131682   6.887   5.107   0.914
10261SOL    HW231683   0.003   5.082   1.004
10262SOL     OW31684   3.088   6.640   6.413
10262SOL    HW131685   3.004   6.587   6.404
10262SOL    HW231686   3.165   6.578   6.427
10263SOL     OW31687   5.664   0.068   0.577
10263SOL    HW131688   5.592   0.032   0.518
10263SOL    HW231689   5.654   0.029   0.668
10264SOL     OW31690   0.120   6.058   6.508
10264SOL    HW131691   0.047   6.125   6.525
10264SOL    HW231692   0.204   6.090   6.553
10265SOL     OW31693   3.247   2.599   0.615
10265SOL    HW131694   3.334   2.580   0.660
10265SOL    HW231695   3.172   2.566   0.672
10266SOL     OW31696   3.763   2.935   3.496
10266SOL    HW131697   3.835   2.975   3.440
10266SOL    HW231698   3.781   2.954   3.592
10267SOL     OW31699   5.195   1.514   0.559
10267SOL    HW131700   5.191   1.448   0.634
10267SOL    HW231701   5.250   1.476   0.484
10268SOL     OW31702   6.260   6.386   2.441
10268SOL    HW131703   6.301   6.475   2.424
10268SOL    HW231704   6.275   6.326   2.362
10269SOL     OW31705   0.901   3.143   5.954
10269SOL    HW131706   0.953   3.110   6.033
10269SOL    HW231707   0.824   3.081   5.937
10270SOL     OW31708   3.128   5.346   2.227
10270SOL    HW131709   3.163   5.385   2.141
10270SOL    HW231710   3.194   5.281   2.263
10271SOL     OW31711   3.702   2.448   0.513
10271SOL    HW131712   3.677   2.532   0.466
10271SOL    HW231713   3.800   2.448   0.532
10272SOL     OW31714   0.848   0.824   5.405
10272SOL    HW131715   0.886   0.908   5.444
10272SOL    HW231716   0.816   0.842   5.312
10273SOL     OW31717   3.495   5.983   2.861
10273SOL    HW131718   3.554   5.980   2.780
10273SOL    HW231719   3.419   6.046   2.845
10274SOL     OW31720   1.109   4.910   6.024
10274SOL    HW131721   1.017   4.926   6.058
10274SOL    HW231722   1.118   4.944   5.931
10275SOL     OW31723   0.370   0.725   2.408
10275SOL    HW131724   0.344   0.804   2.352
10275SOL    HW231725   0.465   0.701   2.388
10276SOL     OW31726   4.982   6.128   5.386
10276SOL    HW131727   4.894   6.142   5.342
10276SOL    HW231728   4.985   6.037   5.426
10277SOL     OW31729   1.620   6.233   4.919
10277SOL    HW131730   1.542   6.187   4.877
10277SOL    HW231731   1.697   6.235   4.855
10278SOL     OW31732   1.343   1.571   3.351
10278SOL    HW131733   1.434   1.530   3.355
10278SOL    HW231734   1.332   1.620   3.265
10279SOL     OW31735   1.696   5.005   4.521
10279SOL    HW131736   1.605   4.991   4.483
10279SOL    HW231737   1.695   4.985   4.619
10280SOL     OW31738   6.652   2.487   6.280
10280SOL    HW131739   6.626   2.491   6.184
10280SOL    HW231740   6.723   2.554   6.299
10281SOL     OW31741   5.988   1.860   4.001
10281SOL    HW131742   5.913   1.902   4.052
10281SOL    HW231743   6.062   1.927   3.990
10282SOL     OW31744   5.367   3.454   3.863
10282SOL    HW131745   5.311   3.453   3.780
10282SOL    HW231746   5.356   3.367   3.911
10283SOL     OW31747   1.801   3.154   0.989
10283SOL    HW131748   1.742   3.168   1.069
10283SOL    HW231749   1.786   3.227   0.924
10284SOL     OW31750   5.448   1.850   5.320
10284SOL    HW131751   5.421   1.866   5.225
10284SOL    HW231752   5.537   1.804   5.323
10285SOL     OW31753   5.014   6.351   3.188
10285SOL    HW131754   4.978   6.339   3.095
10285SOL    HW231755   4.941   6.385   3.247
10286SOL     OW31756   4.171   0.535   3.969
10286SOL    HW131757   4.156   0.601   4.043
10286SOL    HW231758   4.088   0.526   3.915
10287SOL     OW31759   2.596   5.362   1.791
10287SOL    HW131760   2.679   5.371   1.846
10287SOL    HW231761   2.515   5.366   1.850
10288SOL     OW31762   4.680   6.123   3.295
10288SOL    HW131763   4.759   6.067   3.270
10288SOL    HW231764   4.628   6.146   3.212
10289SOL     OW31765   3.106   6.217   0.324
10289SOL    HW131766   3.118   6.137   0.265
10289SOL    HW231767   3.195   6.249   0.356
10290SOL     OW31768   2.979   3.362   2.877
10290SOL    HW131769   2.983   3.396   2.971
10290SOL    HW231770   2.922   3.422   2.821
10291SOL     OW31771   3.966   1.839   2.790
10291SOL    HW131772   3.882   1.807   2.746
10291SOL    HW231773   3.946   1.860   2.886
10292SOL     OW31774   1.177   2.008   4.969
10292SOL    HW131775   1.199   2.019   4.872
10292SOL    HW231776   1.106   2.074   4.994
10293SOL     OW31777   1.423   2.931   2.557
10293SOL    HW131778   1.396   2.939   2.653
10293SOL    HW231779   1.352   2.971   2.499
10294SOL     OW31780   4.335   1.351   3.525
10294SOL    HW131781   4.309   1.299   3.444
10294SOL    HW231782   4.270   1.331   3.599
10295SOL     OW31783   0.716   2.956   5.907
10295SOL    HW131784   0.655   2.939   5.829
10295SOL    HW231785   0.800   2.903   5.896
10296SOL     OW31786   5.493   1.093   6.445
10296SOL    HW131787   5.455   1.174   6.490
10296SOL    HW231788   5.523   1.118   6.353
10297SOL     OW31789   1.755   0.717   6.168
10297SOL    HW131790   1.842   0.713   6.216
10297SOL    HW231791   1.748   0.804   6.118
10298SOL     OW31792   2.742   4.617   0.679
10298SOL    HW131793   2.706   4.702   0.638
10298SOL    HW231794   2.744   4.627   0.778
10299SOL     OW31795   3.820   4.923   2.796
10299SOL    HW131796   3.732   4.941   2.753
10299SOL    HW231797   3.893   4.929   2.727
10300SOL     OW31798   1.194   3.957   1.750
10300SOL    HW131799   1.196   4.039   1.693
10300SOL    HW231800   1.104   3.914   1.744
10301SOL     OW31801   4.667   2.193   5.323
10301SOL    HW131802   4.705   2.166   5.411
10301SOL    HW231803   4.722   2.268   5.284
10302SOL     OW31804   2.477   6.518   4.597
10302SOL    HW131805   2.468   6.452   4.522
10302SOL    HW231806   2.397   6.579   4.598
10303SOL     OW31807   1.471   5.806   3.514
10303SOL    HW131808   1.560   5.784   3.556
10303SOL    HW231809   1.461   5.905   3.509
10304SOL     OW31810   5.790   0.187   1.722
10304SOL    HW131811   5.802   0.089   1.734
10304SOL    HW231812   5.745   0.226   1.802
10305SOL     OW31813   1.500   3.863   5.673
10305SOL    HW131814   1.424   3.928   5.675
10305SOL    HW231815   1.489   3.801   5.595
10306SOL     OW31816   5.300   5.790   0.092
10306SOL    HW131817   5.273   5.768   7.015
10306SOL    HW231818   5.275   5.884   0.113
10307SOL     OW31819   3.044   1.917   5.408
10307SOL    HW131820   3.092   1.836   5.373
10307SOL    HW231821   2.945   1.901   5.405
10308SOL     OW31822   2.169   3.999   2.641
10308SOL    HW131823   2.132   4.055   2.567
10308SOL    HW231824   2.175   4.055   2.724
10309SOL     OW31825   0.182   2.080   0.253
10309SOL    HW131826   0.169   2.169   0.209
10309SOL    HW231827   0.227   2.093   0.342
10310SOL     OW31828   3.392   4.055   0.498
10310SOL    HW131829   3.467   4.063   0.564
10310SOL    HW231830   3.427   4.071   0.406
10311SOL     OW31831   6.676   5.417   0.484
10311SOL    HW131832   6.756   5.391   0.537
10311SOL    HW231833   6.655   5.513   0.500
10312SOL     OW31834   3.748   6.532   2.340
10312SOL    HW131835   3.771   6.591   2.262
10312SOL    HW231836   3.805   6.555   2.418
10313SOL     OW31837   4.157   5.696   1.971
10313SOL    HW131838   4.174   5.665   2.065
10313SOL    HW231839   4.071   5.657   1.938
10314SOL     OW31840   6.513   0.506   0.989
10314SOL    HW131841   6.444   0.545   1.050
10314SOL    HW231842   6.467   0.456   0.915
10315SOL     OW31843   5.650   5.876   4.690
10315SOL    HW131844   5.678   5.954   4.635
10315SOL    HW231845   5.559   5.893   4.728
10316SOL     OW31846   6.311   2.481   5.800
10316SOL    HW131847   6.275   2.393   5.769
10316SOL    HW231848   6.317   2.544   5.723
10317SOL     OW31849   4.406   5.941   6.304
10317SOL    HW131850   4.489   5.917   6.356
10317SOL    HW231851   4.339   5.867   6.313
10318SOL     OW31852   4.923   0.272   6.894
10318SOL    HW131853   4.849   0.212   6.863
10318SOL    HW231854   4.883   0.355   6.934
10319SOL     OW31855   0.427   3.510   5.550
10319SOL    HW131856   0.463   3.563   5.627
10319SOL    HW231857   0.330   3.494   5.564
10320SOL     OW31858   0.926   6.773   2.302
10320SOL    HW131859   0.829   6.766   2.323
10320SOL    HW231860   0.961   6.860   2.337
10321SOL     OW31861   4.693   2.043   2.078
10321SOL    HW131862   4.764   1.999   2.022
10321SOL    HW231863   4.607   1.994   2.069
10322SOL     OW31864   5.393   5.760   4.954
10322SOL    HW131865   5.330   5.816   4.901
10322SOL    HW231866   5.446   5.819   5.015
10323SOL     OW31867   5.832   4.613   5.354
10323SOL    HW131868   5.890   4.656   5.424
10323SOL    HW231869   5.887   4.594   5.273
10324SOL     OW31870   3.254   2.877   2.136
10324SOL    HW131871   3.179   2.943   2.135
10324SOL    HW231872   3.252   2.822   2.053
10325SOL     OW31873   6.225   4.571   1.781
10325SOL    HW131874   6.315   4.527   1.783
10325SOL    HW231875   6.160   4.510   1.735
10326SOL     OW31876   4.242   4.540   6.836
10326SOL    HW131877   4.204   4.556   6.745
10326SOL    HW231878   4.213   4.451   6.870
10327SOL     OW31879   2.616   2.381   0.810
10327SOL    HW131880   2.648   2.406   0.719
10327SOL    HW231881   2.552   2.304   0.803
10328SOL     OW31882   6.629   2.388   0.867
10328SOL    HW131883   6.571   2.455   0.913
10328SOL    HW231884   6.574   2.334   0.804
10329SOL     OW31885   3.294   0.653   3.939
10329SOL    HW131886   3.261   0.653   3.845
10329SOL    HW231887   3.391   0.677   3.941
10330SOL     OW31888   4.048   1.289   2.421
10330SOL    HW131889   4.111   1.276   2.345
10330SOL    HW231890   4.054   1.210   2.483
10331SOL     OW31891   6.607   6.959   6.063
10331SOL    HW131892   6.552   6.954   6.146
10331SOL    HW231893   6.655   0.029   6.060
10332SOL     OW31894   6.981   0.447   0.860
10332SOL    HW131895   6.888   0.473   0.833
10332SOL    HW231896   0.024   0.455   0.782
10333SOL     OW31897   0.400   4.626   5.276
10333SOL    HW131898   0.347   4.598   5.356
10333SOL    HW231899   0.495   4.640   5.303
10334SOL     OW31900   3.344   0.572   4.750
10334SOL    HW131901   3.329   0.649   4.812
10334SOL    HW231902   3.328   0.602   4.655
10335SOL     OW31903   2.896   4.036   6.599
10335SOL    HW131904   2.802   4.001   6.611
10335SOL    HW231905   2.912   4.055   6.502
10336SOL     OW31906   6.761   0.312   1.747
10336SOL    HW131907   6.748   0.239   1.813
10336SOL    HW231908   6.798   0.274   1.662
10337SOL     OW31909   0.126   5.951   6.272
10337SOL    HW131910   0.138   5.964   6.370
10337SOL    HW231911   0.198   6.000   6.223
10338SOL     OW31912   2.216   6.277   2.255
10338SOL    HW131913   2.237   6.212   2.328
10338SOL    HW231914   2.216   6.370   2.292
10339SOL     OW31915   4.460   3.876   6.780
10339SOL    HW131916   4.374   3.896   6.733
10339SOL    HW231917   4.536   3.892   6.717
10340SOL     OW31918   1.144   3.637   1.139
10340SOL    HW131919   1.080   3.638   1.063
10340SOL    HW231920   1.097   3.664   1.223
10341SOL     OW31921   2.125   3.272   2.361
10341SOL    HW131922   2.208   3.274   2.305
10341SOL    HW231923   2.151   3.273   2.457
10342SOL     OW31924   1.591   0.254   4.621
10342SOL    HW131925   1.498   0.238   4.590
10342SOL    HW231926   1.625   0.340   4.583
10343SOL     OW31927   3.507   5.453   6.778
10343SOL    HW131928   3.420   5.502   6.763
10343SOL    HW231929   3.498   5.359   6.745
10344SOL     OW31930   4.018   3.321   1.156
10344SOL    HW131931   4.093   3.306   1.090
10344SOL    HW231932   4.049   3.384   1.227
10345SOL     OW31933   1.554   1.363   6.025
10345SOL    HW131934   1.456   1.370   6.007
10345SOL    HW231935   1.570   1.291   6.093
10346SOL     OW31936   0.602   5.372   1.697
10346SOL    HW131937   0.611   5.413   1.607
10346SOL    HW231938   0.510   5.391   1.733
10347SOL     OW31939   3.816   1.918   3.503
10347SOL    HW131940   3.871   1.876   3.431
10347SOL    HW231941   3.769   1.846   3.554
10348SOL     OW31942   6.598   2.148   6.943
10348SOL    HW131943   6.525   2.160   6.876
10348SOL    HW231944   6.686   2.170   6.901
10349SOL     OW31945   1.303   0.785   0.054
10349SOL    HW131946   1.336   0.695   0.023
10349SOL    HW231947   1.260   0.833   6.995
10350SOL     OW31948   2.526   6.315   4.770
10350SOL    HW131949   2.578   6.231   4.757
10350SOL    HW231950   2.529   6.370   4.686
10351SOL     OW31951   4.482   4.503   6.197
10351SOL    HW131952   4.463   4.410   6.168
10351SOL    HW231953   4.442   4.567   6.131
10352SOL     OW31954   3.474   1.316   5.994
10352SOL    HW131955   3.388   1.264   5.992
10352SOL    HW231956   3.454   1.412   6.009
10353SOL     OW31957   6.349   3.275   5.547
10353SOL    HW131958   6.349   3.300   5.451
10353SOL    HW231959   6.443   3.279   5.582
10354SOL     OW31960   5.594   2.517   2.531
10354SOL    HW131961   5.675   2.475   2.571
10354SOL    HW231962   5.547   2.449   2.473
10355SOL     OW31963   2.361   6.797   1.731
10355SOL    HW131964   2.336   6.716   1.677
10355SOL    HW231965   2.455   6.788   1.763
10356SOL     OW31966   0.829   4.897   5.069
10356SOL    HW131967   0.802   4.817   5.016
10356SOL    HW231968   0.878   4.961   5.010
10357SOL     OW31969   1.538   2.782   6.203
10357SOL    HW131970   1.480   2.833   6.267
10357SOL    HW231971   1.596   2.719   6.254
10358SOL     OW31972   6.725   3.357   2.898
10358SOL    HW131973   6.723   3.422   2.822
10358SOL    HW231974   6.807   3.301   2.892
10359SOL     OW31975   1.008   2.139   1.120
10359SOL    HW131976   0.917   2.100   1.137
10359SOL    HW231977   1.067   2.120   1.198
10360SOL     OW31978   4.794   4.535   3.157
10360SOL    HW131979   4.853   4.584   3.093
10360SOL    HW231980   4.846   4.461   3.200
10361SOL     OW31981   2.906   6.320   3.408
10361SOL    HW131982   2.948   6.248   3.463
10361SOL    HW231983   2.833   6.281   3.352
10362SOL     OW31984   0.791   5.100   4.519
10362SOL    HW131985   0.831   5.018   4.479
10362SOL    HW231986   0.855   5.142   4.583
10363SOL     OW31987   4.638   0.973   1.576
10363SOL    HW131988   4.645   0.984   1.675
10363SOL    HW231989   4.729   0.986   1.535
10364SOL     OW31990   3.094   3.050   1.141
10364SOL    HW131991   3.133   3.024   1.229
10364SOL    HW231992   3.132   3.138   1.112
10365SOL     OW31993   4.162   4.359   6.421
10365SOL    HW131994   4.119   4.413   6.348
10365SOL    HW231995   4.132   4.393   6.510
10366SOL     OW31996   2.866   0.704   4.241
10366SOL    HW131997   2.774   0.666   4.247
10366SOL    HW231998   2.863   0.802   4.257
10367SOL     OW31999   6.381   2.280   2.805
10367SOL    HW132000   6.465   2.256   2.755
10367SOL    HW232001   6.302   2.243   2.756
10368SOL     OW32002   1.625   1.443   1.646
10368SOL    HW132003   1.600   1.429   1.742
10368SOL    HW232004   1.724   1.438   1.636
10369SOL     OW32005   4.299   0.472   5.430
10369SOL    HW132006   4.223   0.493   5.492
10369SOL    HW232007   4.352   0.555   5.415
10370SOL     OW32008   5.309   1.709   5.563
10370SOL    HW132009   5.364   1.627   5.578
10370SOL    HW232010   5.351   1.764   5.491
10371SOL     OW32011   3.172   5.663   4.721
10371SOL    HW132012   3.150   5.622   4.810
10371SOL    HW232013   3.192   5.761   4.734
10372SOL     OW32014   1.358   1.538   5.890
10372SOL    HW132015   1.264   1.533   5.858
10372SOL    HW232016   1.419   1.494   5.824
10373SOL     OW32017   2.226   6.340   4.785
10373SOL    HW132018   2.177   6.295   4.710
10373SOL    HW232019   2.324   6.321   4.778
10374SOL     OW32020   3.883   1.415   2.756
10374SOL    HW132021   3.950   1.445   2.689
10374SOL    HW232022   3.893   1.468   2.840
10375SOL     OW32023   3.923   2.159   6.452
10375SOL    HW132024   3.860   2.188   6.525
10375SOL    HW232025   3.975   2.079   6.482
10376SOL     OW32026   0.978   6.422   3.993
10376SOL    HW132027   1.069   6.456   4.016
10376SOL    HW232028   0.948   6.462   3.907
10377SOL     OW32029   6.814   0.660   3.933
10377SOL    HW132030   6.889   0.639   3.997
10377SOL    HW232031   6.727   0.657   3.982
10378SOL     OW32032   6.825   1.172   5.987
10378SOL    HW132033   6.890   1.211   6.053
10378SOL    HW232034   6.821   1.073   5.999
10379SOL     OW32035   3.963   0.322   5.244
10379SOL    HW132036   3.970   0.328   5.145
10379SOL    HW232037   3.978   0.228   5.273
10380SOL     OW32038   6.390   1.625   3.129
10380SOL    HW132039   6.388   1.543   3.071
10380SOL    HW232040   6.316   1.687   3.101
10381SOL     OW32041   4.601   5.296   6.178
10381SOL    HW132042   4.623   5.242   6.097
10381SOL    HW232043   4.518   5.349   6.161
10382SOL     OW32044   2.447   4.893   5.835
10382SOL    HW132045   2.434   4.990   5.814
10382SOL    HW232046   2.534   4.861   5.796
10383SOL     OW32047   0.621   3.258   1.058
10383SOL    HW132048   0.669   3.344   1.074
10383SOL    HW232049   0.595   3.252   0.961
10384SOL     OW32050   0.960   0.125   0.434
10384SOL    HW132051   0.965   0.026   0.444
10384SOL    HW232052   0.960   0.149   0.337
10385SOL     OW32053   4.887   0.015   6.637
10385SOL    HW132054   4.914   0.112   6.640
10385SOL    HW232055   4.872   7.006   6.542
10386SOL     OW32056   0.456   3.800   4.944
10386SOL    HW132057   0.482   3.756   5.030
10386SOL    HW232058   0.432   3.730   4.877
10387SOL     OW32059   4.072   1.907   2.471
10387SOL    HW132060   4.100   1.834   2.409
10387SOL    HW232061   4.130   1.904   2.553
10388SOL     OW32062   0.745   5.616   3.692
10388SOL    HW132063   0.693   5.696   3.723
10388SOL    HW232064   0.693   5.569   3.620
10389SOL     OW32065   0.461   6.034   2.198
10389SOL    HW132066   0.497   6.045   2.291
10389SOL    HW232067   0.475   6.118   2.146
10390SOL     OW32068   1.514   3.600   2.052
10390SOL    HW132069   1.611   3.623   2.059
10390SOL    HW232070   1.480   3.628   1.962
10391SOL     OW32071   1.445   5.736   5.670
10391SOL    HW132072   1.392   5.655   5.695
10391SOL    HW232073   1.492   5.720   5.583
10392SOL     OW32074   6.481   4.132   0.477
10392SOL    HW132075   6.537   4.054   0.506
10392SOL    HW232076   6.514   4.165   0.389
10393SOL     OW32077   0.851   1.561   2.902
10393SOL    HW132078   0.784   1.594   2.968
10393SOL    HW232079   0.942   1.564   2.944
10394SOL     OW32080   2.774   6.983   6.067
10394SOL    HW132081   2.868   0.002   6.071
10394SOL    HW232082   2.739   6.973   6.160
10395SOL     OW32083   6.457   0.986   4.962
10395SOL    HW132084   6.540   1.040   4.948
10395SOL    HW232085   6.431   0.942   4.877
10396SOL     OW32086   1.192   0.835   3.525
10396SOL    HW132087   1.220   0.929   3.546
10396SOL    HW232088   1.137   0.799   3.601
10397SOL     OW32089   3.836   1.576   3.862
10397SOL    HW132090   3.750   1.578   3.810
10397SOL    HW232091   3.911   1.605   3.803
10398SOL     OW32092   6.444   2.281   0.121
10398SOL    HW132093   6.508   2.218   0.077
10398SOL    HW232094   6.353   2.241   0.120
10399SOL     OW32095   4.809   1.689   5.455
10399SOL    HW132096   4.906   1.691   5.481
10399SOL    HW232097   4.759   1.631   5.520
10400SOL     OW32098   3.777   5.849   2.087
10400SOL    HW132099   3.704   5.855   2.018
10400SOL    HW232100   3.805   5.753   2.096
10401SOL     OW32101   6.960   6.886   2.206
10401SOL    HW132102   6.962   6.901   2.305
10401SOL    HW232103   7.002   6.798   2.184
10402SOL     OW32104   0.534   2.851   5.738
10402SOL    HW132105   0.613   2.799   5.704
10402SOL    HW232106   0.481   2.793   5.800
10403SOL     OW32107   5.209   1.316   2.981
10403SOL    HW132108   5.162   1.385   2.925
10403SOL    HW232109   5.169   1.226   2.963
10404SOL     OW32110   0.898   6.575   3.765
10404SOL    HW132111   0.807   6.587   3.806
10404SOL    HW232112   0.888   6.542   3.671
10405SOL     OW32113   1.816   5.513   5.203
10405SOL    HW132114   1.901   5.494   5.155
10405SOL    HW232115   1.747   5.543   5.137
10406SOL     OW32116   1.840   4.388   4.883
10406SOL    HW132117   1.871   4.346   4.798
10406SOL    HW232118   1.912   4.446   4.920
10407SOL     OW32119   1.485   0.644   6.213
10407SOL    HW132120   1.494   0.567   6.276
10407SOL    HW232121   1.576   0.678   6.189
10408SOL     OW32122   4.465   6.209   3.111
10408SOL    HW132123   4.416   6.270   3.173
10408SOL    HW232124   4.427   6.217   3.019
10409SOL     OW32125   0.279   4.889   1.588
10409SOL    HW132126   0.314   4.818   1.527
10409SOL    HW232127   0.223   4.847   1.659
10410SOL     OW32128   5.165   0.441   1.417
10410SOL    HW132129   5.099   0.436   1.342
10410SOL    HW232130   5.148   0.366   1.481
10411SOL     OW32131   2.249   4.792   4.142
10411SOL    HW132132   2.269   4.885   4.110
10411SOL    HW232133   2.212   4.796   4.234
10412SOL     OW32134   0.407   1.480   0.065
10412SOL    HW132135   0.417   1.439   0.156
10412SOL    HW232136   0.419   1.409   7.013
10413SOL     OW32137   1.125   2.247   0.764
10413SOL    HW132138   1.125   2.286   0.856
10413SOL    HW232139   1.099   2.151   0.768
10414SOL     OW32140   4.914   6.256   6.357
10414SOL    HW132141   4.844   6.229   6.424
10414SOL    HW232142   4.925   6.355   6.359
10415SOL     OW32143   1.221   5.266   3.726
10415SOL    HW132144   1.215   5.285   3.824
10415SOL    HW232145   1.142   5.212   3.697
10416SOL     OW32146   6.500   1.686   5.986
10416SOL    HW132147   6.408   1.683   6.025
10416SOL    HW232148   6.494   1.691   5.886
10417SOL     OW32149   4.165   4.711   3.075
10417SOL    HW132150   4.234   4.645   3.103
10417SOL    HW232151   4.176   4.795   3.127
10418SOL     OW32152   6.806   4.457   5.704
10418SOL    HW132153   6.896   4.449   5.661
10418SOL    HW232154   6.816   4.466   5.803
10419SOL     OW32155   3.060   1.413   5.187
10419SOL    HW132156   3.058   1.321   5.227
10419SOL    HW232157   3.154   1.437   5.163
10420SOL     OW32158   6.925   3.579   2.320
10420SOL    HW132159   6.898   3.598   2.415
10420SOL    HW232160   6.853   3.610   2.258
10421SOL     OW32161   1.497   4.354   3.877
10421SOL    HW132162   1.434   4.318   3.808
10421SOL    HW232163   1.445   4.386   3.956
10422SOL     OW32164   6.715   4.107   5.378
10422SOL    HW132165   6.692   4.185   5.319
10422SOL    HW232166   6.638   4.043   5.380
10423SOL     OW32167   3.519   4.917   4.123
10423SOL    HW132168   3.432   4.878   4.092
10423SOL    HW232169   3.502   5.000   4.176
10424SOL     OW32170   4.189   1.260   6.806
10424SOL    HW132171   4.116   1.327   6.820
10424SOL    HW232172   4.240   1.249   6.892
10425SOL     OW32173   0.938   6.776   1.592
10425SOL    HW132174   0.915   6.812   1.682
10425SOL    HW232175   1.037   6.777   1.579
10426SOL     OW32176   4.755   3.072   5.213
10426SOL    HW132177   4.676   3.049   5.269
10426SOL    HW232178   4.779   3.168   5.227
10427SOL     OW32179   5.207   5.739   5.296
10427SOL    HW132180   5.192   5.640   5.290
10427SOL    HW232181   5.304   5.759   5.287
10428SOL     OW32182   1.276   2.030   3.287
10428SOL    HW132183   1.364   1.983   3.295
10428SOL    HW232184   1.226   1.996   3.207
10429SOL     OW32185   1.077   3.516   2.293
10429SOL    HW132186   1.023   3.505   2.209
10429SOL    HW232187   1.160   3.569   2.272
10430SOL     OW32188   3.403   6.026   4.260
10430SOL    HW132189   3.420   6.124   4.253
10430SOL    HW232190   3.313   6.004   4.224
10431SOL     OW32191   2.488   1.875   4.629
10431SOL    HW132192   2.436   1.959   4.645
10431SOL    HW232193   2.428   1.796   4.644
10432SOL     OW32194   0.123   6.728   4.790
10432SOL    HW132195   0.029   6.713   4.819
10432SOL    HW232196   0.179   6.649   4.815
10433SOL     OW32197   2.035   0.141   1.690
10433SOL    HW132198   2.089   0.206   1.744
10433SOL    HW232199   2.014   0.180   1.601
10434SOL     OW32200   4.995   0.113   5.720
10434SOL    HW132201   4.902   0.133   5.689
10434SOL    HW232202   5.030   0.033   5.672
10435SOL     OW32203   1.018   2.271   6.167
10435SOL    HW132204   0.981   2.191   6.215
10435SOL    HW232205   1.042   2.245   6.073
10436SOL     OW32206   6.982   3.903   5.115
10436SOL    HW132207   6.947   3.813   5.090
10436SOL    HW232208   0.062   3.896   5.134
10437SOL     OW32209   4.737   5.094   4.983
10437SOL    HW132210   4.831   5.127   4.996
10437SOL    HW232211   4.673   5.167   5.007
10438SOL     OW32212   0.220   6.573   6.007
10438SOL    HW132213   0.148   6.639   6.028
10438SOL    HW232214   0.251   6.586   5.913
10439SOL     OW32215   6.522   0.923   4.659
10439SOL    HW132216   6.480   1.014   4.656
10439SOL    HW232217   6.504   0.875   4.574
10440SOL     OW32218   6.828   1.436   6.901
10440SOL    HW132219   6.818   1.530   6.868
10440SOL    HW232220   6.925   1.413   6.909
10441SOL     OW32221   3.623   1.540   1.380
10441SOL    HW132222   3.695   1.499   1.436
10441SOL    HW232223   3.577   1.612   1.431
10442SOL     OW32224   3.186   0.784   5.143
10442SOL    HW132225   3.137   0.840   5.077
10442SOL    HW232226   3.272   0.753   5.104
10443SOL     OW32227   0.237   2.035   2.869
10443SOL    HW132228   0.182   2.024   2.786
10443SOL    HW232229   0.285   2.123   2.865
10444SOL     OW32230   3.651   4.946   3.873
10444SOL    HW132231   3.609   4.953   3.964
10444SOL    HW232232   3.666   4.850   3.851
10445SOL     OW32233   0.424   3.830   2.104
10445SOL    HW132234   0.386   3.903   2.161
10445SOL    HW232235   0.524   3.832   2.110
10446SOL     OW32236   1.710   4.220   5.051
10446SOL    HW132237   1.752   4.242   5.139
10446SOL    HW232238   1.759   4.266   4.978
10447SOL     OW32239   6.116   2.062   2.906
10447SOL    HW132240   6.060   2.141   2.933
10447SOL    HW232241   6.106   2.046   2.808
10448SOL     OW32242   2.972   0.728   3.511
10448SOL    HW132243   3.008   0.795   3.576
10448SOL    HW232244   2.876   0.709   3.534
10449SOL     OW32245   3.409   5.765   6.866
10449SOL    HW132246   3.349   5.711   6.807
10449SOL    HW232247   3.482   5.806   6.812
10450SOL     OW32248   6.133   0.283   6.259
10450SOL    HW132249   6.076   0.278   6.177
10450SOL    HW232250   6.193   0.362   6.254
10451SOL     OW32251   2.030   0.682   3.935
10451SOL    HW132252   2.082   0.729   4.006
10451SOL    HW232253   1.989   0.599   3.973
10452SOL     OW32254   6.556   2.819   2.890
10452SOL    HW132255   6.617   2.891   2.922
10452SOL    HW232256   6.465   2.857   2.872
10453SOL     OW32257   4.261   6.654   2.646
10453SOL    HW132258   4.356   6.679   2.660
10453SOL    HW232259   4.210   6.667   2.731
10454SOL     OW32260   6.571   1.422   6.767
10454SOL    HW132261   6.666   1.408   6.795
10454SOL    HW232262   6.569   1.489   6.692
10455SOL     OW32263   6.170   6.395   4.101
10455SOL    HW132264   6.256   6.350   4.125
10455SOL    HW232265   6.098   6.364   4.163
10456SOL     OW32266   6.932   5.677   0.046
10456SOL    HW132267   6.929   5.587   0.090
10456SOL    HW232268   6.912   5.667   6.966
10457SOL     OW32269   4.504   3.318   0.152
10457SOL    HW132270   4.469   3.409   0.130
10457SOL    HW232271   4.427   3.255   0.168
10458SOL     OW32272   6.933   0.138   5.807
10458SOL    HW132273   6.873   0.058   5.803
10458SOL    HW232274   6.926   0.189   5.722
10459SOL     OW32275   0.074   5.355   0.783
10459SOL    HW132276   0.173   5.351   0.798
10459SOL    HW232277   0.029   5.290   0.844
10460SOL     OW32278   6.788   4.171   1.770
10460SOL    HW132279   6.694   4.170   1.735
10460SOL    HW232280   6.794   4.111   1.850
10461SOL     OW32281   6.301   4.587   5.175
10461SOL    HW132282   6.341   4.542   5.255
10461SOL    HW232283   6.327   4.683   5.174
10462SOL     OW32284   5.014   1.769   1.503
10462SOL    HW132285   4.919   1.758   1.530
10462SOL    HW232286   5.061   1.829   1.568
10463SOL     OW32287   5.007   2.082   6.084
10463SOL    HW132288   5.054   2.093   6.172
10463SOL    HW232289   4.914   2.048   6.100
10464SOL     OW32290   5.310   5.069   2.614
10464SOL    HW132291   5.318   4.979   2.572
10464SOL    HW232292   5.379   5.079   2.686
10465SOL     OW32293   5.308   3.891   2.835
10465SOL    HW132294   5.286   3.803   2.877
10465SOL    HW232295   5.272   3.895   2.742
10466SOL     OW32296   5.096   4.203   6.085
10466SOL    HW132297   5.103   4.105   6.103
10466SOL    HW232298   5.103   4.219   5.987
10467SOL     OW32299   2.010   2.518   6.762
10467SOL    HW132300   1.959   2.500   6.678
10467SOL    HW232301   1.949   2.556   6.831
10468SOL     OW32302   3.517   5.011   3.644
10468SOL    HW132303   3.418   5.003   3.647
10468SOL    HW232304   3.554   5.005   3.737
10469SOL     OW32305   5.068   3.699   5.720
10469SOL    HW132306   5.117   3.627   5.768
10469SOL    HW232307   5.133   3.752   5.664
10470SOL     OW32308   2.271   1.691   3.543
10470SOL    HW132309   2.279   1.729   3.635
10470SOL    HW232310   2.316   1.753   3.478
10471SOL     OW32311   2.552   0.708   6.905
10471SOL    HW132312   2.457   0.719   6.934
10471SOL    HW232313   2.612   0.747   6.974
10472SOL     OW32314   2.839   5.300   0.931
10472SOL    HW132315   2.882   5.269   0.847
10472SOL    HW232316   2.881   5.255   1.010
10473SOL     OW32317   5.292   5.638   6.258
10473SOL    HW132318   5.252   5.700   6.190
10473SOL    HW232319   5.379   5.676   6.289
10474SOL     OW32320   5.282   0.720   4.118
10474SOL    HW132321   5.267   0.649   4.186
10474SOL    HW232322   5.195   0.768   4.100
10475SOL     OW32323   2.554   6.184   1.876
10475SOL    HW132324   2.547   6.110   1.809
10475SOL    HW232325   2.640   6.175   1.927
10476SOL     OW32326   5.065   6.050   5.923
10476SOL    HW132327   4.969   6.059   5.899
10476SOL    HW232328   5.107   5.977   5.869
10477SOL     OW32329   0.096   6.266   3.724
10477SOL    HW132330   0.184   6.307   3.701
10477SOL    HW232331   0.078   6.277   3.821
10478SOL     OW32332   6.228   6.750   0.068
10478SOL    HW132333   6.161   6.822   0.090
10478SOL    HW232334   6.256   6.704   0.153
10479SOL     OW32335   6.816   2.474   2.155
10479SOL    HW132336   6.784   2.489   2.249
10479SOL    HW232337   6.907   2.515   2.145
10480SOL     OW32338   1.634   0.475   2.486
10480SOL    HW132339   1.632   0.571   2.459
10480SOL    HW232340   1.585   0.420   2.418
10481SOL     OW32341   0.787   6.337   3.305
10481SOL    HW132342   0.704   6.330   3.250
10481SOL    HW232343   0.851   6.264   3.279
10482SOL     OW32344   6.064   4.582   4.800
10482SOL    HW132345   6.069   4.674   4.763
10482SOL    HW232346   6.152   4.559   4.843
10483SOL     OW32347   5.728   5.348   0.577
10483SOL    HW132348   5.755   5.284   0.504
10483SOL    HW232349   5.628   5.351   0.584
10484SOL     OW32350   4.941   1.151   0.722
10484SOL    HW132351   4.937   1.228   0.787
10484SOL    HW232352   5.015   1.089   0.748
10485SOL     OW32353   3.578   4.134   6.531
10485SOL    HW132354   3.634   4.053   6.516
10485SOL    HW232355   3.499   4.110   6.587
10486SOL     OW32356   6.579   1.793   0.883
10486SOL    HW132357   6.619   1.795   0.792
10486SOL    HW232358   6.530   1.879   0.900
10487SOL     OW32359   5.069   6.438   2.041
10487SOL    HW132360   5.088   6.486   2.127
10487SOL    HW232361   5.081   6.501   1.965
10488SOL     OW32362   2.549   3.308   6.548
10488SOL    HW132363   2.511   3.292   6.639
10488SOL    HW232364   2.475   3.315   6.481
10489SOL     OW32365   0.713   6.812   5.614
10489SOL    HW132366   0.635   6.842   5.668
10489SOL    HW232367   0.770   6.891   5.591
10490SOL     OW32368   5.829   1.573   2.736
10490SOL    HW132369   5.914   1.571   2.682
10490SOL    HW232370   5.752   1.554   2.676
10491SOL     OW32371   1.526   3.373   6.712
10491SOL    HW132372   1.584   3.454   6.701
10491SOL    HW232373   1.543   3.309   6.637
10492SOL     OW32374   5.257   3.830   5.556
10492SOL    HW132375   5.356   3.819   5.559
10492SOL    HW232376   5.233   3.925   5.573
10493SOL     OW32377   3.311   0.868   1.746
10493SOL    HW132378   3.242   0.932   1.711
10493SOL    HW232379   3.362   0.829   1.669
10494SOL     OW32380   5.201   2.818   5.651
10494SOL    HW132381   5.190   2.828   5.750
10494SOL    HW232382   5.224   2.723   5.629
10495SOL     OW32383   2.171   0.191   0.721
10495SOL    HW132384   2.110   0.121   0.758
10495SOL    HW232385   2.120   0.277   0.712
10496SOL     OW32386   0.298   6.909   0.908
10496SOL    HW132387   0.241   6.974   0.958
10496SOL    HW232388   0.277   6.915   0.810
10497SOL     OW32389   2.109   6.456   1.949
10497SOL    HW132390   2.202   6.425   1.969
10497SOL    HW232391   2.102   6.554   1.968
10498SOL     OW32392   2.900   6.704   1.649
10498SOL    HW132393   2.916   6.611   1.616
10498SOL    HW232394   2.919   6.769   1.575
10499SOL     OW32395   2.654   6.548   2.468
10499SOL    HW132396   2.566   6.539   2.516
10499SOL    HW232397   2.661   6.476   2.399
10500SOL     OW32398   0.447   1.079   5.698
10500SOL    HW132399   0.543   1.053   5.698
10500SOL    HW232400   0.437   1.173   5.730
10501SOL     OW32401   1.773   5.815   3.530
10501SOL    HW132402   1.769   5.880   3.606
10501SOL    HW232403   1.849   5.839   3.470
10502SOL     OW32404   3.434   0.030   0.876
10502SOL    HW132405   3.415   0.023   0.973
10502SOL    HW232406   3.474   0.120   0.856
10503SOL     OW32407   4.502   2.616   0.798
10503SOL    HW132408   4.461   2.699   0.834
10503SOL    HW232409   4.442   2.538   0.815
10504SOL     OW32410   1.697   2.592   0.421
10504SOL    HW132411   1.667   2.605   0.515
10504SOL    HW232412   1.723   2.497   0.406
10505SOL     OW32413   6.178   5.605   0.367
10505SOL    HW132414   6.109   5.539   0.396
10505SOL    HW232415   6.249   5.612   0.438
10506SOL     OW32416   0.878   5.172   6.406
10506SOL    HW132417   0.935   5.172   6.324
10506SOL    HW232418   0.783   5.151   6.380
10507SOL     OW32419   2.259   6.208   0.213
10507SOL    HW132420   2.242   6.294   0.164
10507SOL    HW232421   2.236   6.131   0.153
10508SOL     OW32422   5.744   6.044   4.405
10508SOL    HW132423   5.713   5.952   4.425
10508SOL    HW232424   5.686   6.083   4.333
10509SOL     OW32425   1.063   6.732   5.632
10509SOL    HW132426   0.977   6.717   5.582
10509SOL    HW232427   1.093   6.646   5.673
10510SOL     OW32428   5.839   5.187   5.777
10510SOL    HW132429   5.853   5.180   5.678
10510SOL    HW232430   5.788   5.107   5.809
10511SOL     OW32431   4.622   2.736   1.064
10511SOL    HW132432   4.546   2.671   1.063
10511SOL    HW232433   4.665   2.737   1.154
10512SOL     OW32434   3.798   0.894   5.992
10512SOL    HW132435   3.788   0.858   5.899
10512SOL    HW232436   3.830   0.822   6.053
10513SOL     OW32437   0.140   2.840   5.726
10513SOL    HW132438   0.148   2.747   5.760
10513SOL    HW232439   0.212   2.897   5.767
10514SOL     OW32440   0.180   3.718   0.442
10514SOL    HW132441   0.088   3.680   0.452
10514SOL    HW232442   0.218   3.738   0.532
10515SOL     OW32443   5.671   3.239   3.146
10515SOL    HW132444   5.642   3.251   3.241
10515SOL    HW232445   5.624   3.160   3.106
10516SOL     OW32446   4.714   1.014   6.703
10516SOL    HW132447   4.810   1.013   6.731
10516SOL    HW232448   4.659   0.970   6.774
10517SOL     OW32449   0.812   2.204   2.466
10517SOL    HW132450   0.795   2.301   2.477
10517SOL    HW232451   0.883   2.175   2.531
10518SOL     OW32452   1.267   5.007   0.039
10518SOL    HW132453   1.366   5.016   0.052
10518SOL    HW232454   1.232   4.935   0.099
10519SOL     OW32455   3.116   2.656   6.098
10519SOL    HW132456   3.093   2.620   6.189
10519SOL    HW232457   3.062   2.608   6.029
10520SOL     OW32458   2.188   2.635   6.609
10520SOL    HW132459   2.143   2.716   6.572
10520SOL    HW232460   2.131   2.596   6.681
10521SOL     OW32461   6.317   5.302   1.605
10521SOL    HW132462   6.325   5.305   1.705
10521SOL    HW232463   6.349   5.388   1.566
10522SOL     OW32464   6.068   0.522   0.793
10522SOL    HW132465   6.086   0.607   0.842
10522SOL    HW232466   6.026   0.543   0.705
10523SOL     OW32467   0.012   6.371   4.599
10523SOL    HW132468   0.007   6.332   4.507
10523SOL    HW232469   0.048   6.464   4.594
10524SOL     OW32470   1.701   1.870   4.956
10524SOL    HW132471   1.725   1.781   4.993
10524SOL    HW232472   1.784   1.922   4.938
10525SOL     OW32473   3.287   6.669   5.664
10525SOL    HW132474   3.231   6.674   5.747
10525SOL    HW232475   3.282   6.576   5.627
10526SOL     OW32476   0.428   0.463   2.994
10526SOL    HW132477   0.496   0.434   2.926
10526SOL    HW232478   0.347   0.406   2.986
10527SOL     OW32479   0.434   2.598   4.184
10527SOL    HW132480   0.354   2.589   4.243
10527SOL    HW232481   0.435   2.525   4.116
10528SOL     OW32482   1.121   4.447   5.376
10528SOL    HW132483   1.044   4.434   5.438
10528SOL    HW232484   1.130   4.367   5.317
10529SOL     OW32485   1.165   6.385   3.170
10529SOL    HW132486   1.142   6.288   3.175
10529SOL    HW232487   1.182   6.420   3.262
10530SOL     OW32488   1.643   1.183   5.839
10530SOL    HW132489   1.571   1.114   5.849
10530SOL    HW232490   1.622   1.262   5.896
10531SOL     OW32491   0.866   3.611   4.676
10531SOL    HW132492   0.882   3.596   4.774
10531SOL    HW232493   0.832   3.704   4.663
10532SOL     OW32494   2.118   3.518   0.622
10532SOL    HW132495   2.042   3.456   0.602
10532SOL    HW232496   2.092   3.612   0.599
10533SOL     OW32497   3.137   1.340   4.268
10533SOL    HW132498   3.159   1.370   4.175
10533SOL    HW232499   3.056   1.282   4.266
10534SOL     OW32500   6.903   5.884   0.867
10534SOL    HW132501   6.840   5.899   0.943
10534SOL    HW232502   6.938   5.790   0.871
10535SOL     OW32503   0.379   2.725   2.268
10535SOL    HW132504   0.465   2.769   2.295
10535SOL    HW232505   0.373   2.635   2.311
10536SOL     OW32506   3.509   0.380   2.963
10536SOL    HW132507   3.592   0.383   3.019
10536SOL    HW232508   3.490   0.472   2.928
10537SOL     OW32509   3.063   5.886   2.737
10537SOL    HW132510   3.059   5.982   2.708
10537SOL    HW232511   2.973   5.857   2.770
10538SOL     OW32512   4.899   2.927   6.722
10538SOL    HW132513   4.814   2.885   6.753
10538SOL    HW232514   4.926   2.888   6.634
10539SOL     OW32515   0.741   4.298   6.538
10539SOL    HW132516   0.831   4.329   6.509
10539SOL    HW232517   0.696   4.251   6.462
10540SOL     OW32518   1.754   1.060   5.447
10540SOL    HW132519   1.701   1.137   5.413
10540SOL    HW232520   1.748   0.984   5.382
10541SOL     OW32521   3.485   3.490   1.945
10541SOL    HW132522   3.574   3.529   1.920
10541SOL    HW232523   3.446   3.543   2.020
10542SOL     OW32524   6.746   1.574   0.118
10542SOL    HW132525   6.792   1.663   0.109
10542SOL    HW232526   6.796   1.505   0.066
10543SOL     OW32527   0.543   0.843   4.954
10543SOL    HW132528   0.450   0.881   4.956
10543SOL    HW232529   0.594   0.886   4.879
10544SOL     OW32530   1.693   0.229   2.904
10544SOL    HW132531   1.696   0.258   3.000
10544SOL    HW232532   1.622   0.280   2.856
10545SOL     OW32533   6.450   0.801   2.889
10545SOL    HW132534   6.445   0.874   2.956
10545SOL    HW232535   6.361   0.755   2.884
10546SOL     OW32536   0.788   0.719   6.306
10546SOL    HW132537   0.841   0.636   6.294
10546SOL    HW232538   0.713   0.721   6.240
10547SOL     OW32539   4.822   1.554   1.408
10547SOL    HW132540   4.814   1.618   1.484
10547SOL    HW232541   4.843   1.605   1.324
10548SOL     OW32542   5.024   3.686   5.097
10548SOL    HW132543   5.103   3.638   5.058
10548SOL    HW232544   4.940   3.645   5.062
10549SOL     OW32545   6.716   0.636   2.201
10549SOL    HW132546   6.783   0.599   2.266
10549SOL    HW232547   6.624   0.625   2.239
10550SOL     OW32548   4.152   6.544   4.511
10550SOL    HW132549   4.215   6.620   4.494
10550SOL    HW232550   4.082   6.542   4.439
10551SOL     OW32551   1.179   2.995   5.093
10551SOL    HW132552   1.102   2.931   5.089
10551SOL    HW232553   1.263   2.948   5.068
10552SOL     OW32554   3.918   1.804   5.831
10552SOL    HW132555   3.824   1.792   5.799
10552SOL    HW232556   3.917   1.832   5.927
10553SOL     OW32557   1.186   4.599   1.965
10553SOL    HW132558   1.179   4.579   2.063
10553SOL    HW232559   1.219   4.693   1.953
10554SOL     OW32560   5.316   5.163   6.784
10554SOL    HW132561   5.284   5.069   6.776
10554SOL    HW232562   5.404   5.165   6.831
10555SOL     OW32563   3.090   1.874   1.204
10555SOL    HW132564   3.103   1.970   1.228
10555SOL    HW232565   3.140   1.853   1.120
10556SOL     OW32566   1.495   3.065   5.177
10556SOL    HW132567   1.480   3.014   5.092
10556SOL    HW232568   1.587   3.046   5.212
10557SOL     OW32569   1.063   2.853   3.121
10557SOL    HW132570   1.054   2.949   3.095
10557SOL    HW232571   1.157   2.823   3.107
10558SOL     OW32572   3.876   6.831   4.841
10558SOL    HW132573   3.928   6.864   4.762
10558SOL    HW232574   3.778   6.837   4.822
10559SOL     OW32575   3.639   1.019   0.619
10559SOL    HW132576   3.676   1.109   0.641
10559SOL    HW232577   3.693   0.977   0.546
10560SOL     OW32578   2.193   5.937   4.422
10560SOL    HW132579   2.274   5.971   4.374
10560SOL    HW232580   2.177   5.841   4.396
10561SOL     OW32581   2.824   4.831   0.253
10561SOL    HW132582   2.893   4.899   0.277
10561SOL    HW232583   2.842   4.746   0.303
10562SOL     OW32584   5.078   6.289   0.148
10562SOL    HW132585   5.024   6.268   0.230
10562SOL    HW232586   5.109   6.384   0.152
10563SOL     OW32587   1.432   0.894   3.724
10563SOL    HW132588   1.470   0.918   3.813
10563SOL    HW232589   1.369   0.966   3.695
10564SOL     OW32590   5.718   6.660   2.214
10564SOL    HW132591   5.735   6.573   2.260
10564SOL    HW232592   5.743   6.736   2.275
10565SOL     OW32593   0.573   0.727   6.109
10565SOL    HW132594   0.568   0.632   6.078
10565SOL    HW232595   0.487   0.774   6.089
10566SOL     OW32596   4.651   3.093   0.050
10566SOL    HW132597   4.623   3.021   0.112
10566SOL    HW232598   4.613   3.181   0.080
10567SOL     OW32599   2.310   2.887   3.712
10567SOL    HW132600   2.238   2.949   3.681
10567SOL    HW232601   2.329   2.819   3.641
10568SOL     OW32602   5.419   1.118   1.239
10568SOL    HW132603   5.505   1.076   1.209
10568SOL    HW232604   5.352   1.047   1.258
10569SOL     OW32605   6.549   3.049   2.075
10569SOL    HW132606   6.622   3.009   2.131
10569SOL    HW232607   6.589   3.097   1.997
10570SOL     OW32608   2.364   5.082   2.552
10570SOL    HW132609   2.363   4.984   2.574
10570SOL    HW232610   2.368   5.135   2.637
10571SOL     OW32611   6.621   5.224   4.413
10571SOL    HW132612   6.710   5.187   4.442
10571SOL    HW232613   6.591   5.292   4.479
10572SOL     OW32614   6.295   3.446   3.429
10572SOL    HW132615   6.258   3.396   3.508
10572SOL    HW232616   6.219   3.479   3.372
10573SOL     OW32617   5.648   5.843   3.733
10573SOL    HW132618   5.643   5.837   3.832
10573SOL    HW232619   5.710   5.918   3.707
10574SOL     OW32620   2.125   2.036   3.944
10574SOL    HW132621   2.213   2.004   3.980
10574SOL    HW232622   2.087   2.105   4.006
10575SOL     OW32623   0.399   0.987   3.649
10575SOL    HW132624   0.436   1.058   3.709
10575SOL    HW232625   0.299   0.985   3.657
10576SOL     OW32626   0.803   6.364   5.332
10576SOL    HW132627   0.864   6.320   5.266
10576SOL    HW232628   0.711   6.370   5.294
10577SOL     OW32629   1.468   2.540   6.536
10577SOL    HW132630   1.469   2.453   6.486
10577SOL    HW232631   1.509   2.527   6.626
10578SOL     OW32632   6.733   0.340   3.726
10578SOL    HW132633   6.716   0.289   3.641
10578SOL    HW232634   6.655   0.329   3.788
10579SOL     OW32635   3.659   1.872   0.249
10579SOL    HW132636   3.599   1.849   0.325
10579SOL    HW232637   3.744   1.820   0.257
10580SOL     OW32638   6.272   0.095   0.241
10580SOL    HW132639   6.307   0.162   0.175
10580SOL    HW232640   6.209   0.033   0.194
10581SOL     OW32641   5.832   0.167   3.010
10581SOL    HW132642   5.806   0.258   3.041
10581SOL    HW232643   5.834   0.165   2.910
10582SOL     OW32644   3.644   4.963   6.391
10582SOL    HW132645   3.553   4.953   6.432
10582SOL    HW232646   3.714   4.941   6.458
10583SOL     OW32647   4.417   0.935   5.575
10583SOL    HW132648   4.413   0.922   5.674
10583SOL    HW232649   4.390   1.029   5.552
10584SOL     OW32650   5.968   6.903   1.097
10584SOL    HW132651   5.931   6.824   1.049
10584SOL    HW232652   5.907   6.981   1.087
10585SOL     OW32653   1.534   3.216   5.801
10585SOL    HW132654   1.525   3.160   5.883
10585SOL    HW232655   1.554   3.158   5.723
10586SOL     OW32656   1.893   5.858   5.479
10586SOL    HW132657   1.952   5.848   5.558
10586SOL    HW232658   1.836   5.776   5.468
10587SOL     OW32659   5.886   4.069   0.187
10587SOL    HW132660   5.949   4.017   0.245
10587SOL    HW232661   5.936   4.142   0.140
10588SOL     OW32662   0.704   4.049   1.991
10588SOL    HW132663   0.759   3.996   1.925
10588SOL    HW232664   0.632   4.098   1.942
10589SOL     OW32665   5.359   1.322   4.410
10589SOL    HW132666   5.295   1.335   4.334
10589SOL    HW232667   5.447   1.291   4.375
10590SOL     OW32668   1.214   0.453   1.818
10590SOL    HW132669   1.128   0.468   1.769
10590SOL    HW232670   1.290   0.479   1.759
10591SOL     OW32671   1.523   1.515   5.426
10591SOL    HW132672   1.619   1.531   5.449
10591SOL    HW232673   1.517   1.453   5.348
10592SOL     OW32674   5.414   2.776   0.923
10592SOL    HW132675   5.451   2.774   1.016
10592SOL    HW232676   5.435   2.689   0.878
10593SOL     OW32677   3.057   5.197   0.745
10593SOL    HW132678   3.115   5.150   0.678
10593SOL    HW232679   3.053   5.295   0.723
10594SOL     OW32680   5.449   1.838   3.500
10594SOL    HW132681   5.360   1.793   3.491
10594SOL    HW232682   5.474   1.879   3.412
10595SOL     OW32683   3.235   0.315   6.002
10595SOL    HW132684   3.149   0.321   5.952
10595SOL    HW232685   3.303   0.373   5.958
10596SOL     OW32686   4.528   6.980   1.687
10596SOL    HW132687   4.601   0.004   1.632
10596SOL    HW232688   4.450   0.025   1.691
10597SOL     OW32689   2.826   1.235   4.572
10597SOL    HW132690   2.908   1.291   4.557
10597SOL    HW232691   2.759   1.254   4.501
10598SOL     OW32692   2.831   2.463   6.958
10598SOL    HW132693   2.862   2.402   0.014
10598SOL    HW232694   2.902   2.470   6.888
10599SOL     OW32695   5.539   1.740   0.516
10599SOL    HW132696   5.519   1.757   0.613
10599SOL    HW232697   5.474   1.792   0.460
10600SOL     OW32698   1.985   2.962   0.248
10600SOL    HW132699   1.984   2.870   0.286
10600SOL    HW232700   2.047   2.965   0.170
10601SOL     OW32701   2.453   5.356   5.645
10601SOL    HW132702   2.377   5.292   5.653
10601SOL    HW232703   2.510   5.330   5.567
10602SOL     OW32704   5.135   1.544   2.841
10602SOL    HW132705   5.046   1.574   2.807
10602SOL    HW232706   5.199   1.622   2.841
10603SOL     OW32707   2.463   5.970   3.202
10603SOL    HW132708   2.449   6.018   3.289
10603SOL    HW232709   2.377   5.964   3.152
10604SOL     OW32710   5.306   4.253   4.649
10604SOL    HW132711   5.207   4.269   4.644
10604SOL    HW232712   5.353   4.314   4.587
10605SOL     OW32713   1.021   5.084   0.195
10605SOL    HW132714   1.026   5.149   0.120
10605SOL    HW232715   1.090   5.013   0.182
10606SOL     OW32716   6.021   0.368   1.660
10606SOL    HW132717   6.104   0.387   1.711
10606SOL    HW232718   5.966   0.300   1.709
10607SOL     OW32719   4.202   3.329   5.814
10607SOL    HW132720   4.116   3.373   5.790
10607SOL    HW232721   4.266   3.396   5.851
10608SOL     OW32722   5.913   2.217   4.983
10608SOL    HW132723   5.888   2.293   5.043
10608SOL    HW232724   5.892   2.240   4.888
10609SOL     OW32725   3.193   5.555   1.455
10609SOL    HW132726   3.242   5.559   1.367
10609SOL    HW232727   3.167   5.648   1.482
10610SOL     OW32728   0.605   4.574   6.795
10610SOL    HW132729   0.592   4.671   6.815
10610SOL    HW232730   0.651   4.531   6.873
10611SOL     OW32731   5.555   3.562   6.894
10611SOL    HW132732   5.538   3.617   6.812
10611SOL    HW232733   5.476   3.503   6.912
10612SOL     OW32734   2.438   6.654   5.865
10612SOL    HW132735   2.415   6.586   5.795
10612SOL    HW232736   2.361   6.717   5.878
10613SOL     OW32737   0.340   6.655   5.777
10613SOL    HW132738   0.260   6.611   5.735
10613SOL    HW232739   0.316   6.749   5.802
10614SOL     OW32740   6.987   1.424   4.111
10614SOL    HW132741   6.952   1.474   4.191
10614SOL    HW232742   7.014   1.489   4.040
10615SOL     OW32743   4.422   5.666   5.346
10615SOL    HW132744   4.349   5.619   5.397
10615SOL    HW232745   4.416   5.641   5.250
10616SOL     OW32746   3.724   6.282   0.294
10616SOL    HW132747   3.688   6.285   0.387
10616SOL    HW232748   3.648   6.276   0.229
10617SOL     OW32749   2.207   2.405   0.527
10617SOL    HW132750   2.198   2.345   0.448
10617SOL    HW232751   2.233   2.496   0.496
10618SOL     OW32752   5.928   3.210   0.505
10618SOL    HW132753   5.948   3.297   0.460
10618SOL    HW232754   5.993   3.140   0.475
10619SOL     OW32755   0.301   3.560   2.119
10619SOL    HW132756   0.354   3.539   2.037
10619SOL    HW232757   0.316   3.656   2.146
10620SOL     OW32758   1.199   5.528   5.488
10620SOL    HW132759   1.241   5.490   5.405
10620SOL    HW232760   1.100   5.528   5.477
10621SOL     OW32761   1.145   6.359   0.691
10621SOL    HW132762   1.244   6.348   0.697
10621SOL    HW232763   1.101   6.269   0.699
10622SOL     OW32764   4.351   1.191   0.951
10622SOL    HW132765   4.408   1.130   1.006
10622SOL    HW232766   4.258   1.153   0.945
10623SOL     OW32767   5.700   3.115   4.231
10623SOL    HW132768   5.788   3.069   4.223
10623SOL    HW232769   5.676   3.156   4.143
10624SOL     OW32770   0.874   1.215   4.744
10624SOL    HW132771   0.910   1.239   4.654
10624SOL    HW232772   0.824   1.293   4.781
10625SOL     OW32773   0.667   4.178   6.785
10625SOL    HW132774   0.725   4.239   6.840
10625SOL    HW232775   0.672   4.205   6.689
10626SOL     OW32776   0.763   2.553   1.413
10626SOL    HW132777   0.859   2.526   1.424
10626SOL    HW232778   0.720   2.495   1.344
10627SOL     OW32779   5.718   6.136   2.550
10627SOL    HW132780   5.752   6.053   2.506
10627SOL    HW232781   5.638   6.113   2.606
10628SOL     OW32782   5.352   5.109   5.763
10628SOL    HW132783   5.348   5.158   5.676
10628SOL    HW232784   5.442   5.066   5.772
10629SOL     OW32785   2.563   4.608   5.396
10629SOL    HW132786   2.524   4.672   5.329
10629SOL    HW232787   2.663   4.607   5.387
10630SOL     OW32788   6.608   1.170   3.488
10630SOL    HW132789   6.613   1.073   3.463
10630SOL    HW232790   6.512   1.199   3.488
10631SOL     OW32791   1.054   6.060   4.597
10631SOL    HW132792   1.040   5.962   4.612
10631SOL    HW232793   1.147   6.075   4.565
10632SOL     OW32794   5.705   2.260   4.213
10632SOL    HW132795   5.790   2.210   4.230
10632SOL    HW232796   5.652   2.265   4.298
10633SOL     OW32797   2.599   4.091   1.171
10633SOL    HW132798   2.662   4.017   1.195
10633SOL    HW232799   2.509   4.072   1.211
10634SOL     OW32800   3.474   5.349   0.365
10634SOL    HW132801   3.540   5.423   0.382
10634SOL    HW232802   3.382   5.387   0.361
10635SOL     OW32803   2.792   1.231   1.014
10635SOL    HW132804   2.730   1.179   1.072
10635SOL    HW232805   2.886   1.203   1.033
10636SOL     OW32806   1.339   2.176   1.866
10636SOL    HW132807   1.409   2.134   1.809
10636SOL    HW232808   1.372   2.264   1.900
10637SOL     OW32809   3.827   4.037   5.637
10637SOL    HW132810   3.867   3.947   5.651
10637SOL    HW232811   3.895   4.099   5.597
10638SOL     OW32812   0.097   6.498   2.890
10638SOL    HW132813   0.010   6.458   2.919
10638SOL    HW232814   0.101   6.501   2.790
10639SOL     OW32815   0.635   1.926   3.505
10639SOL    HW132816   0.663   1.868   3.582
10639SOL    HW232817   0.707   1.993   3.486
10640SOL     OW32818   4.483   0.060   6.917
10640SOL    HW132819   4.554   0.018   6.862
10640SOL    HW232820   4.414   7.009   6.940
10641SOL     OW32821   3.931   1.774   0.233
10641SOL    HW132822   3.969   1.786   0.325
10641SOL    HW232823   3.999   1.731   0.174
10642SOL     OW32824   0.296   2.757   1.568
10642SOL    HW132825   0.363   2.785   1.637
10642SOL    HW232826   0.336   2.769   1.477
10643SOL     OW32827   2.226   4.125   5.722
10643SOL    HW132828   2.217   4.208   5.667
10643SOL    HW232829   2.137   4.102   5.762
10644SOL     OW32830   4.855   1.790   3.686
10644SOL    HW132831   4.938   1.767   3.737
10644SOL    HW232832   4.815   1.874   3.722
10645SOL     OW32833   0.936   0.948   4.436
10645SOL    HW132834   0.842   0.982   4.442
10645SOL    HW232835   0.949   0.900   4.349
10646SOL     OW32836   0.699   2.125   5.642
10646SOL    HW132837   0.757   2.158   5.717
10646SOL    HW232838   0.624   2.071   5.679
10647SOL     OW32839   5.368   5.503   6.011
10647SOL    HW132840   5.406   5.525   6.101
10647SOL    HW232841   5.436   5.525   5.940
10648SOL     OW32842   5.516   3.156   6.388
10648SOL    HW132843   5.451   3.220   6.346
10648SOL    HW232844   5.517   3.072   6.334
10649SOL     OW32845   0.136   4.542   3.835
10649SOL    HW132846   0.093   4.593   3.761
10649SOL    HW232847   0.163   4.452   3.803
10650SOL     OW32848   1.273   6.684   3.570
10650SOL    HW132849   1.370   6.709   3.576
10650SOL    HW232850   1.217   6.764   3.591
10651SOL     OW32851   4.483   6.860   5.946
10651SOL    HW132852   4.513   6.842   6.040
10651SOL    HW232853   4.482   6.775   5.894
10652SOL     OW32854   3.510   0.223   6.708
10652SOL    HW132855   3.512   0.303   6.648
10652SOL    HW232856   3.426   0.172   6.694
10653SOL     OW32857   5.064   4.729   4.831
10653SOL    HW132858   5.020   4.806   4.877
10653SOL    HW232859   5.022   4.643   4.862
10654SOL     OW32860   3.915   0.186   1.289
10654SOL    HW132861   3.859   0.200   1.208
10654SOL    HW232862   3.942   0.090   1.296
10655SOL     OW32863   2.995   5.445   1.645
10655SOL    HW132864   2.924   5.503   1.686
10655SOL    HW232865   3.078   5.500   1.630
10656SOL     OW32866   6.122   2.016   0.378
10656SOL    HW132867   6.176   2.047   0.300
10656SOL    HW232868   6.168   2.043   0.463
10657SOL     OW32869   6.166   6.640   1.063
10657SOL    HW132870   6.243   6.583   1.035
10657SOL    HW232871   6.198   6.711   1.126
10658SOL     OW32872   0.619   4.588   4.585
10658SOL    HW132873   0.634   4.684   4.606
10658SOL    HW232874   0.609   4.576   4.486
10659SOL     OW32875   6.636   6.862   1.018
10659SOL    HW132876   6.706   6.883   0.950
10659SOL    HW232877   6.676   6.809   1.093
10660SOL     OW32878   5.175   4.030   6.392
10660SOL    HW132879   5.123   4.004   6.310
10660SOL    HW232880   5.252   4.088   6.365
10661SOL     OW32881   6.664   6.802   2.635
10661SOL    HW132882   6.710   6.714   2.626
10661SOL    HW232883   6.620   6.807   2.725
10662SOL     OW32884   5.846   1.014   1.889
10662SOL    HW132885   5.857   0.917   1.869
10662SOL    HW232886   5.821   1.063   1.805
10663SOL     OW32887   1.089   0.447   0.984
10663SOL    HW132888   1.054   0.363   1.026
10663SOL    HW232889   1.108   0.431   0.887
10664SOL     OW32890   2.267   3.860   6.360
10664SOL    HW132891   2.354   3.901   6.386
10664SOL    HW232892   2.230   3.808   6.437
10665SOL     OW32893   1.301   1.080   6.933
10665SOL    HW132894   1.209   1.113   6.913
10665SOL    HW232895   1.319   1.090   0.013
10666SOL     OW32896   4.125   4.305   6.950
10666SOL    HW132897   4.048   4.323   7.012
10666SOL    HW232898   4.208   4.288   7.004
10667SOL     OW32899   4.309   1.801   5.777
10667SOL    HW132900   4.295   1.894   5.811
10667SOL    HW232901   4.228   1.771   5.727
10668SOL     OW32902   1.461   2.087   5.804
10668SOL    HW132903   1.493   1.996   5.829
10668SOL    HW232904   1.486   2.107   5.709
10669SOL     OW32905   0.572   0.238   0.976
10669SOL    HW132906   0.625   0.289   0.908
10669SOL    HW232907   0.476   0.265   0.970
10670SOL     OW32908   4.855   4.358   6.130
10670SOL    HW132909   4.938   4.302   6.125
10670SOL    HW232910   4.851   4.418   6.050
10671SOL     OW32911   2.107   3.749   2.574
10671SOL    HW132912   2.128   3.847   2.578
10671SOL    HW232913   2.115   3.718   2.480
10672SOL     OW32914   7.014   3.077   0.371
10672SOL    HW132915   6.999   3.060   0.273
10672SOL    HW232916   6.991   3.172   0.392
10673SOL     OW32917   2.603   2.613   5.784
10673SOL    HW132918   2.690   2.564   5.789
10673SOL    HW232919   2.528   2.549   5.803
10674SOL     OW32920   3.787   3.888   0.895
10674SOL    HW132921   3.779   3.886   0.795
10674SOL    HW232922   3.696   3.892   0.936
10675SOL     OW32923   0.641   0.616   5.432
10675SOL    HW132924   0.624   0.564   5.515
10675SOL    HW232925   0.740   0.630   5.421
10676SOL     OW32926   6.273   0.258   5.862
10676SOL    HW132927   6.347   0.301   5.914
10676SOL    HW232928   6.248   0.172   5.904
10677SOL     OW32929   0.843   0.902   2.281
10677SOL    HW132930   0.760   0.957   2.272
10677SOL    HW232931   0.905   0.946   2.347
10678SOL     OW32932   3.675   5.505   2.591
10678SOL    HW132933   3.734   5.570   2.542
10678SOL    HW232934   3.586   5.548   2.608
10679SOL     OW32935   5.676   5.671   4.917
10679SOL    HW132936   5.745   5.731   4.957
10679SOL    HW232937   5.591   5.722   4.904
10680SOL     OW32938   1.879   3.564   2.662
10680SOL    HW132939   1.968   3.582   2.622
10680SOL    HW232940   1.831   3.494   2.608
10681SOL     OW32941   6.529   4.531   6.962
10681SOL    HW132942   6.461   4.603   6.945
10681SOL    HW232943   6.555   4.533   0.041
10682SOL     OW32944   1.583   1.700   3.050
10682SOL    HW132945   1.652   1.709   2.978
10682SOL    HW232946   1.584   1.606   3.084
10683SOL     OW32947   2.381   2.691   3.976
10683SOL    HW132948   2.459   2.629   3.986
10683SOL    HW232949   2.415   2.781   3.948
10684SOL     OW32950   5.325   4.040   0.442
10684SOL    HW132951   5.389   4.016   0.515
10684SOL    HW232952   5.286   4.130   0.459
10685SOL     OW32953   0.847   3.773   3.263
10685SOL    HW132954   0.750   3.764   3.288
10685SOL    HW232955   0.864   3.726   3.177
10686SOL     OW32956   4.315   6.022   6.698
10686SOL    HW132957   4.325   5.931   6.657
10686SOL    HW232958   4.362   6.090   6.641
10687SOL     OW32959   6.878   5.155   2.112
10687SOL    HW132960   6.955   5.099   2.143
10687SOL    HW232961   6.802   5.146   2.175
10688SOL     OW32962   6.310   4.217   2.151
10688SOL    HW132963   6.238   4.285   2.166
10688SOL    HW232964   6.292   4.136   2.208
10689SOL     OW32965   6.735   0.051   2.856
10689SOL    HW132966   6.716   0.145   2.886
10689SOL    HW232967   6.760   0.051   2.759
10690SOL     OW32968   4.501   5.627   3.332
10690SOL    HW132969   4.535   5.720   3.345
10690SOL    HW232970   4.517   5.599   3.237
10691SOL     OW32971   6.425   1.195   1.589
10691SOL    HW132972   6.440   1.124   1.520
10691SOL    HW232973   6.347   1.169   1.647
10692SOL     OW32974   3.236   5.896   3.760
10692SOL    HW132975   3.238   5.820   3.695
10692SOL    HW232976   3.329   5.914   3.793
10693SOL     OW32977   1.119   1.111   0.743
10693SOL    HW132978   1.102   1.025   0.696
10693SOL    HW232979   1.048   1.127   0.812
10694SOL     OW32980   3.481   6.006   1.175
10694SOL    HW132981   3.579   6.011   1.152
10694SOL    HW232982   3.429   6.056   1.106
10695SOL     OW32983   0.111   2.543   4.226
10695SOL    HW132984   0.123   2.577   4.133
10695SOL    HW232985   0.047   2.466   4.226
10696SOL     OW32986   0.075   5.784   1.608
10696SOL    HW132987   0.163   5.814   1.643
10696SOL    HW232988   0.022   5.864   1.579
10697SOL     OW32989   0.180   6.374   3.302
10697SOL    HW132990   0.257   6.311   3.312
10697SOL    HW232991   0.150   6.404   3.393
10698SOL     OW32992   3.118   6.959   3.580
10698SOL    HW132993   3.112   0.041   3.586
10698SOL    HW232994   3.214   6.931   3.581
10699SOL     OW32995   4.338   1.674   2.993
10699SOL    HW132996   4.352   1.588   2.944
10699SOL    HW232997   4.427   1.715   3.013
10700SOL     OW32998   0.841   0.072   0.703
10700SOL    HW132999   0.918   0.054   0.763
10700SOL    HW233000   0.875   0.094   0.612
10701SOL     OW33001   4.637   5.825   6.413
10701SOL    HW133002   4.664   5.749   6.353
10701SOL    HW233003   4.673   5.809   6.505
10702SOL     OW33004   5.601   2.630   1.396
10702SOL    HW133005   5.654   2.606   1.477
10702SOL    HW233006   5.576   2.547   1.346
10703SOL     OW33007   3.651   3.535   3.181
10703SOL    HW133008   3.651   3.632   3.157
10703SOL    HW233009   3.630   3.524   3.278
10704SOL     OW33010   5.089   6.592   1.814
10704SOL    HW133011   5.173   6.635   1.783
10704SOL    HW233012   5.016   6.661   1.821
10705SOL     OW33013   1.192   3.838   6.418
10705SOL    HW133014   1.201   3.751   6.467
10705SOL    HW233015   1.208   3.914   6.481
10706SOL     OW33016   4.433   0.611   2.323
10706SOL    HW133017   4.336   0.588   2.327
10706SOL    HW233018   4.461   0.621   2.227
10707SOL     OW33019   7.012   6.877   5.929
10707SOL    HW133020   6.935   6.917   5.877
10707SOL    HW233021   6.984   6.790   5.968
10708SOL     OW33022   4.931   0.995   1.148
10708SOL    HW133023   4.977   1.080   1.172
10708SOL    HW233024   4.844   0.989   1.196
10709SOL     OW33025   6.594   0.500   5.035
10709SOL    HW133026   6.521   0.535   4.975
10709SOL    HW233027   6.627   0.574   5.093
10710SOL     OW33028   6.476   5.665   3.776
10710SOL    HW133029   6.401   5.723   3.743
10710SOL    HW233030   6.494   5.593   3.708
10711SOL     OW33031   1.662   0.610   4.013
10711SOL    HW133032   1.725   0.533   4.023
10711SOL    HW233033   1.625   0.610   3.920
10712SOL     OW33034   3.796   1.458   5.085
10712SOL    HW133035   3.840   1.504   5.162
10712SOL    HW233036   3.705   1.427   5.112
10713SOL     OW33037   2.279   5.752   2.445
10713SOL    HW133038   2.334   5.744   2.528
10713SOL    HW233039   2.323   5.699   2.372
10714SOL     OW33040   0.587   4.843   4.659
10714SOL    HW133041   0.576   4.938   4.691
10714SOL    HW233042   0.530   4.783   4.714
10715SOL     OW33043   4.818   2.123   4.139
10715SOL    HW133044   4.896   2.186   4.141
10715SOL    HW233045   4.749   2.158   4.075
10716SOL     OW33046   6.085   1.400   4.554
10716SOL    HW133047   6.048   1.492   4.569
10716SOL    HW233048   6.045   1.361   4.471
10717SOL     OW33049   6.815   1.231   1.726
10717SOL    HW133050   6.787   1.327   1.731
10717SOL    HW233051   6.883   1.213   1.797
10718SOL     OW33052   6.894   5.434   0.143
10718SOL    HW133053   6.950   5.352   0.135
10718SOL    HW233054   6.798   5.411   0.129
10719SOL     OW33055   5.340   0.913   2.128
10719SOL    HW133056   5.381   0.918   2.219
10719SOL    HW233057   5.278   0.834   2.124
10720SOL     OW33058   6.929   3.816   6.212
10720SOL    HW133059   6.958   3.840   6.120
10720SOL    HW233060   7.006   3.774   6.261
10721SOL     OW33061   6.103   2.143   4.701
10721SOL    HW133062   6.168   2.094   4.758
10721SOL    HW233063   6.014   2.098   4.705
10722SOL     OW33064   6.320   3.903   0.431
10722SOL    HW133065   6.321   3.862   0.523
10722SOL    HW233066   6.376   3.986   0.431
10723SOL     OW33067   5.394   4.054   6.813
10723SOL    HW133068   5.374   4.145   6.850
10723SOL    HW233069   5.402   3.988   6.888
10724SOL     OW33070   4.427   6.849   6.336
10724SOL    HW133071   4.401   6.907   6.414
10724SOL    HW233072   4.442   6.906   6.255
10725SOL     OW33073   0.411   6.205   4.066
10725SOL    HW133074   0.496   6.157   4.087
10725SOL    HW233075   0.345   6.139   4.029
10726SOL     OW33076   5.960   0.692   4.624
10726SOL    HW133077   6.026   0.686   4.549
10726SOL    HW233078   5.895   0.766   4.606
10727SOL     OW33079   2.186   5.135   5.239
10727SOL    HW133080   2.164   5.072   5.313
10727SOL    HW233081   2.102   5.165   5.194
10728SOL     OW33082   4.757   6.992   2.938
10728SOL    HW133083   4.812   6.928   2.992
10728SOL    HW233084   4.767   0.067   2.974
10729SOL     OW33085   5.986   2.303   2.893
10729SOL    HW133086   6.067   2.346   2.931
10729SOL    HW233087   5.904   2.346   2.931
10730SOL     OW33088   2.225   6.037   2.408
10730SOL    HW133089   2.127   6.054   2.395
10730SOL    HW233090   2.246   5.941   2.391
10731SOL     OW33091   3.494   5.806   0.537
10731SOL    HW133092   3.426   5.733   0.531
10731SOL    HW233093   3.532   5.823   0.446
10732SOL     OW33094   5.254   6.409   2.708
10732SOL    HW133095   5.184   6.339   2.692
10732SOL    HW233096   5.241   6.448   2.800
10733SOL     OW33097   5.983   1.074   6.489
10733SOL    HW133098   5.922   1.017   6.544
10733SOL    HW233099   6.065   1.021   6.464
10734SOL     OW33100   1.042   0.088   6.678
10734SOL    HW133101   1.068   0.179   6.712
10734SOL    HW233102   0.945   0.073   6.696
10735SOL     OW33103   0.936   5.303   1.934
10735SOL    HW133104   0.988   5.232   1.980
10735SOL    HW233105   0.839   5.280   1.936
10736SOL     OW33106   6.829   0.690   4.357
10736SOL    HW133107   6.835   0.609   4.416
10736SOL    HW233108   6.915   0.740   4.361
10737SOL     OW33109   0.154   1.877   0.957
10737SOL    HW133110   0.251   1.880   0.978
10737SOL    HW233111   0.129   1.786   0.924
10738SOL     OW33112   2.890   0.747   2.811
10738SOL    HW133113   2.976   0.798   2.817
10738SOL    HW233114   2.853   0.756   2.719
10739SOL     OW33115   6.216   1.833   2.565
10739SOL    HW133116   6.270   1.783   2.633
10739SOL    HW233117   6.273   1.905   2.524
10740SOL     OW33118   1.552   6.689   5.932
10740SOL    HW133119   1.547   6.779   5.890
10740SOL    HW233120   1.514   6.621   5.869
10741SOL     OW33121   1.599   2.810   3.435
10741SOL    HW133122   1.516   2.865   3.444
10741SOL    HW233123   1.592   2.753   3.353
10742SOL     OW33124   6.303   5.436   2.090
10742SOL    HW133125   6.273   5.396   2.177
10742SOL    HW233126   6.340   5.528   2.107
10743SOL     OW33127   3.563   1.512   5.454
10743SOL    HW133128   3.501   1.455   5.400
10743SOL    HW233129   3.514   1.549   5.533
10744SOL     OW33130   3.486   0.221   1.393
10744SOL    HW133131   3.564   0.283   1.397
10744SOL    HW233132   3.517   0.128   1.416
10745SOL     OW33133   1.928   4.477   1.095
10745SOL    HW133134   1.932   4.414   1.018
10745SOL    HW233135   2.018   4.487   1.136
10746SOL     OW33136   2.530   6.081   0.221
10746SOL    HW133137   2.466   6.156   0.203
10746SOL    HW233138   2.500   6.032   0.303
10747SOL     OW33139   6.164   2.757   4.375
10747SOL    HW133140   6.070   2.774   4.403
10747SOL    HW233141   6.189   2.662   4.398
10748SOL     OW33142   4.333   5.639   1.073
10748SOL    HW133143   4.277   5.558   1.086
10748SOL    HW233144   4.384   5.659   1.157
10749SOL     OW33145   6.078   4.388   3.062
10749SOL    HW133146   6.014   4.420   2.992
10749SOL    HW233147   6.049   4.423   3.151
10750SOL     OW33148   4.908   3.569   3.953
10750SOL    HW133149   5.008   3.575   3.958
10750SOL    HW233150   4.869   3.629   4.023
10751SOL     OW33151   1.176   3.649   4.974
10751SOL    HW133152   1.208   3.687   4.887
10751SOL    HW233153   1.084   3.611   4.961
10752SOL     OW33154   6.232   5.003   6.632
10752SOL    HW133155   6.258   4.930   6.568
10752SOL    HW233156   6.311   5.061   6.650
10753SOL     OW33157   4.495   6.359   4.267
10753SOL    HW133158   4.530   6.268   4.289
10753SOL    HW233159   4.571   6.425   4.270
10754SOL     OW33160   0.862   3.021   1.962
10754SOL    HW133161   0.873   2.926   1.992
10754SOL    HW233162   0.885   3.028   1.865
10755SOL     OW33163   6.936   2.526   1.742
10755SOL    HW133164   7.012   2.591   1.750
10755SOL    HW233165   6.966   2.446   1.689
10756SOL     OW33166   6.245   2.101   0.623
10756SOL    HW133167   6.343   2.119   0.635
10756SOL    HW233168   6.192   2.167   0.677
10757SOL     OW33169   6.689   3.674   0.250
10757SOL    HW133170   6.634   3.627   0.319
10757SOL    HW233171   6.631   3.739   0.200
10758SOL     OW33172   1.532   5.795   6.229
10758SOL    HW133173   1.469   5.783   6.152
10758SOL    HW233174   1.480   5.797   6.315
10759SOL     OW33175   1.523   2.115   6.306
10759SOL    HW133176   1.457   2.107   6.232
10759SOL    HW233177   1.550   2.024   6.337
10760SOL     OW33178   0.856   6.571   0.718
10760SOL    HW133179   0.886   6.573   0.814
10760SOL    HW233180   0.934   6.557   0.658
10761SOL     OW33181   0.821   1.905   6.050
10761SOL    HW133182   0.883   1.921   6.126
10761SOL    HW233183   0.833   1.811   6.016
10762SOL     OW33184   4.102   0.683   5.701
10762SOL    HW133185   4.096   0.584   5.699
10762SOL    HW233186   4.036   0.722   5.637
10763SOL     OW33187   6.014   0.712   3.011
10763SOL    HW133188   6.058   0.664   3.087
10763SOL    HW233189   5.996   0.806   3.037
10764SOL     OW33190   4.682   1.278   4.909
10764SOL    HW133191   4.683   1.361   4.852
10764SOL    HW233192   4.628   1.207   4.863
10765SOL     OW33193   5.888   2.179   2.438
10765SOL    HW133194   5.965   2.142   2.490
10765SOL    HW233195   5.834   2.103   2.402
10766SOL     OW33196   1.593   5.358   0.603
10766SOL    HW133197   1.523   5.289   0.620
10766SOL    HW233198   1.677   5.333   0.651
10767SOL     OW33199   1.895   6.285   0.573
10767SOL    HW133200   1.849   6.197   0.582
10767SOL    HW233201   1.982   6.272   0.525
10768SOL     OW33202   5.810   5.114   0.427
10768SOL    HW133203   5.880   5.134   0.495
10768SOL    HW233204   5.837   5.153   0.339
10769SOL     OW33205   2.610   4.193   5.346
10769SOL    HW133206   2.564   4.140   5.274
10769SOL    HW233207   2.606   4.142   5.432
10770SOL     OW33208   5.418   6.500   4.684
10770SOL    HW133209   5.326   6.465   4.662
10770SOL    HW233210   5.438   6.578   4.625
10771SOL     OW33211   4.712   0.237   5.533
10771SOL    HW133212   4.697   0.321   5.482
10771SOL    HW233213   4.752   0.168   5.473
10772SOL     OW33214   5.611   6.424   3.733
10772SOL    HW133215   5.594   6.347   3.670
10772SOL    HW233216   5.598   6.510   3.684
10773SOL     OW33217   0.063   4.087   0.703
10773SOL    HW133218   6.995   4.055   0.743
10773SOL    HW233219   0.063   4.069   0.604
10774SOL     OW33220   1.432   2.309   0.861
10774SOL    HW133221   1.359   2.272   0.802
10774SOL    HW233222   1.398   2.317   0.954
10775SOL     OW33223   1.622   4.409   0.770
10775SOL    HW133224   1.649   4.505   0.777
10775SOL    HW233225   1.690   4.359   0.715
10776SOL     OW33226   6.914   0.444   2.942
10776SOL    HW133227   6.923   0.345   2.945
10776SOL    HW233228   6.831   0.468   2.891
10777SOL     OW33229   2.687   0.670   3.597
10777SOL    HW133230   2.682   0.767   3.575
10777SOL    HW233231   2.594   0.634   3.609
10778SOL     OW33232   6.637   6.347   4.539
10778SOL    HW133233   6.623   6.446   4.542
10778SOL    HW233234   6.657   6.319   4.445
10779SOL     OW33235   5.544   4.861   3.297
10779SOL    HW133236   5.558   4.922   3.376
10779SOL    HW233237   5.452   4.823   3.301
10780SOL     OW33238   0.590   6.023   4.524
10780SOL    HW133239   0.683   5.987   4.532
10780SOL    HW233240   0.587   6.116   4.562
10781SOL     OW33241   5.976   2.282   5.291
10781SOL    HW133242   6.015   2.302   5.381
10781SOL    HW233243   5.945   2.368   5.249
10782SOL     OW33244   0.139   3.479   5.591
10782SOL    HW133245   0.115   3.502   5.497
10782SOL    HW233246   0.150   3.380   5.600
10783SOL     OW33247   1.462   2.263   2.566
10783SOL    HW133248   1.524   2.230   2.494
10783SOL    HW233249   1.372   2.223   2.553
10784SOL     OW33250   2.962   6.054   2.381
10784SOL    HW133251   2.981   6.133   2.323
10784SOL    HW233252   3.008   6.065   2.469
10785SOL     OW33253   1.623   5.195   1.483
10785SOL    HW133254   1.622   5.098   1.459
10785SOL    HW233255   1.616   5.205   1.582
10786SOL     OW33256   4.421   1.984   2.045
10786SOL    HW133257   4.339   1.956   1.996
10786SOL    HW233258   4.410   1.964   2.143
10787SOL     OW33259   3.404   1.521   4.041
10787SOL    HW133260   3.472   1.594   4.035
10787SOL    HW233261   3.446   1.440   4.080
10788SOL     OW33262   0.797   4.340   6.987
10788SOL    HW133263   0.800   4.288   0.055
10788SOL    HW233264   0.787   4.437   7.007
10789SOL     OW33265   6.309   1.101   6.950
10789SOL    HW133266   6.301   1.190   6.995
10789SOL    HW233267   6.362   1.111   6.865
10790SOL     OW33268   0.466   2.783   5.139
10790SOL    HW133269   0.481   2.810   5.235
10790SOL    HW233270   0.486   2.686   5.128
10791SOL     OW33271   2.264   1.903   2.521
10791SOL    HW133272   2.360   1.895   2.494
10791SOL    HW233273   2.252   1.867   2.613
10792SOL     OW33274   3.369   2.023   1.337
10792SOL    HW133275   3.295   2.073   1.382
10792SOL    HW233276   3.448   2.019   1.398
10793SOL     OW33277   5.151   1.691   4.734
10793SOL    HW133278   5.237   1.707   4.784
10793SOL    HW233279   5.162   1.614   4.672
10794SOL     OW33280   4.324   3.043   1.703
10794SOL    HW133281   4.387   3.036   1.780
10794SOL    HW233282   4.354   3.117   1.642
10795SOL     OW33283   0.109   3.979   2.418
10795SOL    HW133284   0.051   4.055   2.391
10795SOL    HW233285   0.086   3.899   2.363
10796SOL     OW33286   6.451   6.629   6.999
10796SOL    HW133287   6.366   6.680   7.008
10796SOL    HW233288   6.520   6.686   6.955
10797SOL     OW33289   4.007   2.909   0.671
10797SOL    HW133290   4.040   2.865   0.586
10797SOL    HW233291   3.912   2.883   0.686
10798SOL     OW33292   2.861   6.885   6.426
10798SOL    HW133293   2.940   6.906   6.483
10798SOL    HW233294   2.841   6.787   6.431
10799SOL     OW33295   3.063   1.517   2.621
10799SOL    HW133296   3.102   1.425   2.622
10799SOL    HW233297   3.136   1.585   2.623
10800SOL     OW33298   1.449   0.064   0.192
10800SOL    HW133299   1.476   0.160   0.199
10800SOL    HW233300   1.509   0.008   0.248
10801SOL     OW33301   2.135   6.369   5.676
10801SOL    HW133302   2.102   6.335   5.764
10801SOL    HW233303   2.223   6.415   5.689
10802SOL     OW33304   1.604   3.982   3.916
10802SOL    HW133305   1.679   3.920   3.938
10802SOL    HW233306   1.634   4.050   3.850
10803SOL     OW33307   5.678   4.573   5.147
10803SOL    HW133308   5.620   4.493   5.131
10803SOL    HW233309   5.729   4.561   5.231
10804SOL     OW33310   6.064   4.192   1.883
10804SOL    HW133311   6.052   4.285   1.847
10804SOL    HW233312   6.154   4.185   1.926
10805SOL     OW33313   4.199   6.646   0.631
10805SOL    HW133314   4.223   6.571   0.693
10805SOL    HW233315   4.208   6.733   0.680
10806SOL     OW33316   5.636   3.888   0.785
10806SOL    HW133317   5.600   3.816   0.844
10806SOL    HW233318   5.649   3.852   0.693
10807SOL     OW33319   3.164   6.088   3.424
10807SOL    HW133320   3.109   6.065   3.343
10807SOL    HW233321   3.240   6.024   3.432
10808SOL     OW33322   0.525   2.870   6.541
10808SOL    HW133323   0.593   2.943   6.548
10808SOL    HW233324   0.570   2.781   6.541
10809SOL     OW33325   3.233   1.062   4.251
10809SOL    HW133326   3.258   0.999   4.325
10809SOL    HW233327   3.139   1.094   4.265
10810SOL     OW33328   6.915   1.426   5.193
10810SOL    HW133329   6.924   1.470   5.103
10810SOL    HW233330   7.001   1.380   5.217
10811SOL     OW33331   4.323   5.583   5.099
10811SOL    HW133332   4.284   5.497   5.134
10811SOL    HW233333   4.329   5.578   4.999
10812SOL     OW33334   6.321   2.915   2.800
10812SOL    HW133335   6.266   2.870   2.731
10812SOL    HW233336   6.270   2.991   2.840
10813SOL     OW33337   3.009   5.971   2.045
10813SOL    HW133338   3.038   5.875   2.046
10813SOL    HW233339   3.083   6.028   2.081
10814SOL     OW33340   1.908   6.976   4.897
10814SOL    HW133341   1.814   6.964   4.865
10814SOL    HW233342   1.951   0.034   4.847
10815SOL     OW33343   5.544   3.872   2.953
10815SOL    HW133344   5.513   3.890   3.046
10815SOL    HW233345   5.470   3.890   2.888
10816SOL     OW33346   1.719   0.924   2.347
10816SOL    HW133347   1.741   0.867   2.426
10816SOL    HW233348   1.620   0.919   2.330
10817SOL     OW33349   5.270   0.244   2.597
10817SOL    HW133350   5.306   0.181   2.529
10817SOL    HW233351   5.287   0.208   2.689
10818SOL     OW33352   5.722   3.196   0.002
10818SOL    HW133353   5.787   3.266   6.989
10818SOL    HW233354   5.719   3.193   0.102
10819SOL     OW33355   0.417   4.784   6.128
10819SOL    HW133356   0.422   4.838   6.212
10819SOL    HW233357   0.341   4.817   6.072
10820SOL     OW33358   0.346   6.415   3.875
10820SOL    HW133359   0.357   6.334   3.932
10820SOL    HW233360   0.338   6.388   3.779
10821SOL     OW33361   6.872   0.397   1.479
10821SOL    HW133362   6.774   0.377   1.488
10821SOL    HW233363   6.912   0.335   1.412
10822SOL     OW33364   0.893   3.625   2.490
10822SOL    HW133365   0.929   3.627   2.584
10822SOL    HW233366   0.952   3.569   2.433
10823SOL     OW33367   2.615   6.307   1.179
10823SOL    HW133368   2.687   6.238   1.191
10823SOL    HW233369   2.526   6.263   1.189
10824SOL     OW33370   4.675   0.812   2.188
10824SOL    HW133371   4.666   0.791   2.285
10824SOL    HW233372   4.593   0.781   2.140
10825SOL     OW33373   3.282   1.086   1.098
10825SOL    HW133374   3.315   1.082   1.004
10825SOL    HW233375   3.187   1.120   1.098
10826SOL     OW33376   0.217   3.937   1.887
10826SOL    HW133377   0.280   3.906   1.958
10826SOL    HW233378   0.229   3.881   1.805
10827SOL     OW33379   6.921   3.676   4.411
10827SOL    HW133380   6.939   3.775   4.415
10827SOL    HW233381   6.926   3.638   4.503
10828SOL     OW33382   1.161   5.854   0.646
10828SOL    HW133383   1.136   5.949   0.663
10828SOL    HW233384   1.125   5.796   0.720
10829SOL     OW33385   2.990   3.873   2.050
10829SOL    HW133386   2.996   3.945   1.981
10829SOL    HW233387   2.999   3.783   2.007
10830SOL     OW33388   5.687   3.321   4.829
10830SOL    HW133389   5.603   3.353   4.873
10830SOL    HW233390   5.750   3.398   4.819
10831SOL     OW33391   5.372   0.968   2.879
10831SOL    HW133392   5.377   1.025   2.796
10831SOL    HW233393   5.292   0.995   2.932
10832SOL     OW33394   0.775   1.848   0.095
10832SOL    HW133395   0.691   1.843   0.149
10832SOL    HW233396   0.847   1.890   0.151
10833SOL     OW33397   2.559   0.839   4.493
10833SOL    HW133398   2.524   0.930   4.517
10833SOL    HW233399   2.659   0.840   4.500
10834SOL     OW33400   0.627   1.481   5.417
10834SOL    HW133401   0.540   1.448   5.381
10834SOL    HW233402   0.613   1.523   5.507
10835SOL     OW33403   6.029   2.065   2.186
10835SOL    HW133404   5.937   2.057   2.224
10835SOL    HW233405   6.061   2.159   2.198
10836SOL     OW33406   0.476   1.782   5.199
10836SOL    HW133407   0.467   1.801   5.297
10836SOL    HW233408   0.449   1.863   5.147
10837SOL     OW33409   6.993   4.573   0.300
10837SOL    HW133410   0.016   4.621   0.378
10837SOL    HW233411   7.000   4.474   0.315
10838SOL     OW33412   5.769   6.891   6.751
10838SOL    HW133413   5.690   6.875   6.691
10838SOL    HW233414   5.827   6.810   6.751
10839SOL     OW33415   2.300   1.743   0.020
10839SOL    HW133416   2.271   1.712   0.110
10839SOL    HW233417   2.329   1.839   0.026
10840SOL     OW33418   3.579   5.876   1.540
10840SOL    HW133419   3.589   5.788   1.494
10840SOL    HW233420   3.612   5.949   1.479
10841SOL     OW33421   4.182   5.892   6.060
10841SOL    HW133422   4.234   5.974   6.084
10841SOL    HW233423   4.164   5.838   6.142
10842SOL     OW33424   6.491   2.741   0.885
10842SOL    HW133425   6.509   2.839   0.879
10842SOL    HW233426   6.556   2.692   0.826
10843SOL     OW33427   1.150   1.805   1.729
10843SOL    HW133428   1.114   1.713   1.714
10843SOL    HW233429   1.152   1.824   1.827
10844SOL     OW33430   5.995   6.996   3.690
10844SOL    HW133431   6.000   6.986   3.790
10844SOL    HW233432   5.985   6.907   3.647
10845SOL     OW33433   1.081   1.146   1.535
10845SOL    HW133434   1.049   1.194   1.453
10845SOL    HW233435   1.101   1.212   1.607
10846SOL     OW33436   3.985   2.263   0.921
10846SOL    HW133437   3.945   2.186   0.872
10846SOL    HW233438   3.917   2.300   0.984
10847SOL     OW33439   3.537   1.925   6.015
10847SOL    HW133440   3.535   1.970   6.104
10847SOL    HW233441   3.561   1.991   5.944
10848SOL     OW33442   2.152   0.920   0.020
10848SOL    HW133443   2.186   0.828   0.004
10848SOL    HW233444   2.053   0.922   0.005
10849SOL     OW33445   2.882   5.065   4.442
10849SOL    HW133446   2.890   5.063   4.541
10849SOL    HW233447   2.921   5.151   4.408
10850SOL     OW33448   5.440   6.581   7.013
10850SOL    HW133449   5.518   6.611   0.051
10850SOL    HW233450   5.466   6.499   6.962
10851SOL     OW33451   2.493   2.353   5.940
10851SOL    HW133452   2.430   2.395   6.005
10851SOL    HW233453   2.444   2.332   5.855
10852SOL     OW33454   0.220   1.205   6.548
10852SOL    HW133455   0.154   1.236   6.481
10852SOL    HW233456   0.196   1.240   6.639
10853SOL     OW33457   2.878   1.785   4.759
10853SOL    HW133458   2.801   1.724   4.743
10853SOL    HW233459   2.847   1.866   4.810
10854SOL     OW33460   6.088   6.986   0.079
10854SOL    HW133461   5.996   7.004   0.045
10854SOL    HW233462   6.152   6.979   0.002
10855SOL     OW33463   1.907   6.286   2.644
10855SOL    HW133464   1.905   6.227   2.725
10855SOL    HW233465   1.824   6.341   2.640
10856SOL     OW33466   6.287   6.380   7.011
10856SOL    HW133467   6.312   6.477   7.014
10856SOL    HW233468   6.325   6.339   6.929
10857SOL     OW33469   6.260   2.310   3.597
10857SOL    HW133470   6.214   2.335   3.511
10857SOL    HW233471   6.200   2.251   3.651
10858SOL     OW33472   1.343   3.603   0.133
10858SOL    HW133473   1.250   3.628   0.159
10858SOL    HW233474   1.340   3.525   0.070
10859SOL     OW33475   1.006   4.685   3.319
10859SOL    HW133476   0.928   4.741   3.348
10859SOL    HW233477   1.009   4.601   3.374
10860SOL     OW33478   6.267   1.363   0.067
10860SOL    HW133479   6.230   1.320   0.149
10860SOL    HW233480   6.362   1.391   0.083
10861SOL     OW33481   3.056   2.618   1.701
10861SOL    HW133482   3.086   2.565   1.621
10861SOL    HW233483   3.024   2.556   1.772
10862SOL     OW33484   3.235   2.160   6.065
10862SOL    HW133485   3.267   2.239   6.117
10862SOL    HW233486   3.161   2.114   6.115
10863SOL     OW33487   2.322   0.330   3.450
10863SOL    HW133488   2.365   0.392   3.515
10863SOL    HW233489   2.245   0.377   3.405
10864SOL     OW33490   2.403   4.588   1.536
10864SOL    HW133491   2.308   4.562   1.521
10864SOL    HW233492   2.451   4.514   1.583
10865SOL     OW33493   5.033   2.875   3.263
10865SOL    HW133494   5.078   2.792   3.230
10865SOL    HW233495   5.038   2.879   3.362
10866SOL     OW33496   6.704   3.360   1.354
10866SOL    HW133497   6.714   3.274   1.304
10866SOL    HW233498   6.732   3.347   1.449
10867SOL     OW33499   3.316   2.202   0.266
10867SOL    HW133500   3.372   2.172   0.189
10867SOL    HW233501   3.373   2.205   0.349
10868SOL     OW33502   0.593   2.241   3.593
10868SOL    HW133503   0.521   2.202   3.535
10868SOL    HW233504   0.641   2.168   3.641
10869NA      NA33505   0.044   1.889   5.669
10870NA      NA33506   4.441   4.415   5.311
10871NA      NA33507   1.516   5.264   2.769
10872NA      NA33508   5.320   4.269   3.613
10873NA      NA33509   4.412   2.564   5.169
10874NA      NA33510   2.416   5.274   1.107
10875NA      NA33511   1.207   5.542   0.354
10876NA      NA33512   3.292   4.001   1.416
10877NA      NA33513   4.433   4.664   0.809
10878NA      NA33514   3.446   0.959   6.346
10879NA      NA33515   5.488   5.987   2.184
10880NA      NA33516   1.239   6.831   5.137
10881NA      NA33517   4.447   5.049   1.848
10882NA      NA33518   2.777   3.094   6.850
   7.01756   7.01756   7.01756
