Generated by trjconv : CNT in water t= 568.00000
33518
    1C        C    1   2.847   2.772   4.748
    1C        C    2   2.899   2.721   4.869
    1C        C    3   2.842   2.771   4.986
    1C        C    4   2.848   2.777   4.261
    1C        C    5   2.901   2.731   4.383
    1C        C    6   2.844   2.772   4.506
    1C        C    7   3.011   2.639   4.624
    1C        C    8   2.897   2.722   4.626
    1C        C    9   3.076   2.607   4.746
    1C        C   10   3.009   2.631   4.867
    1C        C   11   3.183   2.494   4.974
    1C        C   12   3.059   2.560   4.976
    1C        C   13   2.847   2.770   3.772
    1C        C   14   2.901   2.724   3.894
    1C        C   15   2.849   2.773   4.016
    1C        C   16   3.017   2.649   4.140
    1C        C   17   2.901   2.728   4.139
    1C        C   18   3.081   2.617   4.262
    1C        C   19   3.022   2.658   4.383
    1C        C   20   3.212   2.563   4.504
    1C        C   21   3.079   2.611   4.504
    1C        C   22   3.281   2.542   4.626
    1C        C   23   3.210   2.558   4.747
    1C        C   24   3.415   2.487   4.865
    1C        C   25   3.273   2.506   4.863
    1C        C   26   3.493   2.476   4.980
    1C        C   27   2.849   2.768   3.284
    1C        C   28   2.908   2.728   3.406
    1C        C   29   2.853   2.773   3.528
    1C        C   30   3.021   2.646   3.651
    1C        C   31   2.905   2.726   3.651
    1C        C   32   3.079   2.608   3.774
    1C        C   33   3.017   2.643   3.896
    1C        C   34   3.210   2.557   4.016
    1C        C   35   3.080   2.612   4.019
    1C        C   36   3.279   2.539   4.138
    1C        C   37   3.213   2.566   4.260
    1C        C   38   3.419   2.514   4.384
    1C        C   39   3.280   2.541   4.382
    1C        C   40   3.492   2.505   4.504
    1C        C   41   3.418   2.507   4.624
    1C        C   42   3.632   2.482   4.744
    1C        C   43   3.490   2.487   4.744
    1C        C   44   3.705   2.488   4.864
    1C        C   45   3.632   2.478   4.983
    1C        C   46   2.839   2.758   2.795
    1C        C   47   2.896   2.715   2.916
    1C        C   48   2.845   2.762   3.039
    1C        C   49   3.016   2.640   3.162
    1C        C   50   2.897   2.716   3.162
    1C        C   51   3.078   2.605   3.285
    1C        C   52   3.018   2.640   3.408
    1C        C   53   3.211   2.550   3.528
    1C        C   54   3.082   2.608   3.530
    1C        C   55   3.279   2.532   3.650
    1C        C   56   3.211   2.556   3.771
    1C        C   57   3.417   2.511   3.895
    1C        C   58   3.279   2.539   3.894
    1C        C   59   3.486   2.504   4.018
    1C        C   60   3.416   2.506   4.141
    1C        C   61   3.629   2.498   4.259
    1C        C   62   3.488   2.500   4.262
    1C        C   63   3.704   2.505   4.379
    1C        C   64   3.633   2.504   4.501
    1C        C   65   3.840   2.537   4.625
    1C        C   66   3.704   2.498   4.624
    1C        C   67   3.909   2.559   4.746
    1C        C   68   3.844   2.515   4.864
    1C        C   69   4.049   2.586   4.983
    1C        C   70   3.921   2.529   4.980
    1C        C   71   2.824   2.736   2.310
    1C        C   72   2.885   2.695   2.430
    1C        C   73   2.832   2.743   2.552
    1C        C   74   3.011   2.631   2.675
    1C        C   75   2.892   2.708   2.674
    1C        C   76   3.078   2.600   2.795
    1C        C   77   3.015   2.638   2.916
    1C        C   78   3.207   2.551   3.038
    1C        C   79   3.076   2.606   3.039
    1C        C   80   3.276   2.534   3.160
    1C        C   81   3.209   2.553   3.283
    1C        C   82   3.416   2.504   3.406
    1C        C   83   3.276   2.528   3.404
    1C        C   84   3.488   2.497   3.527
    1C        C   85   3.418   2.507   3.650
    1C        C   86   3.629   2.498   3.771
    1C        C   87   3.488   2.501   3.773
    1C        C   88   3.696   2.512   3.894
    1C        C   89   3.628   2.505   4.018
    1C        C   90   3.839   2.543   4.139
    1C        C   91   3.702   2.509   4.138
    1C        C   92   3.909   2.563   4.260
    1C        C   93   3.841   2.535   4.381
    1C        C   94   4.032   2.628   4.501
    1C        C   95   3.907   2.563   4.503
    1C        C   96   4.092   2.670   4.622
    1C        C   97   4.036   2.622   4.743
    1C        C   98   4.190   2.763   4.865
    1C        C   99   4.099   2.652   4.867
    1C        C  100   4.209   2.844   4.977
    1C        C  101   2.822   2.730   2.073
    1C        C  102   2.991   2.591   2.194
    1C        C  103   2.878   2.679   2.191
    1C        C  104   3.063   2.573   2.315
    1C        C  105   3.004   2.618   2.435
    1C        C  106   3.203   2.533   2.553
    1C        C  107   3.072   2.588   2.555
    1C        C  108   3.273   2.518   2.674
    1C        C  109   3.207   2.542   2.796
    1C        C  110   3.415   2.497   2.918
    1C        C  111   3.276   2.523   2.918
    1C        C  112   3.487   2.498   3.039
    1C        C  113   3.415   2.510   3.161
    1C        C  114   3.626   2.508   3.282
    1C        C  115   3.485   2.503   3.283
    1C        C  116   3.695   2.511   3.405
    1C        C  117   3.629   2.499   3.530
    1C        C  118   3.839   2.540   3.648
    1C        C  119   3.702   2.506   3.650
    1C        C  120   3.901   2.567   3.772
    1C        C  121   3.833   2.547   3.894
    1C        C  122   4.027   2.636   4.015
    1C        C  123   3.901   2.573   4.015
    1C        C  124   4.090   2.668   4.137
    1C        C  125   4.034   2.629   4.260
    1C        C  126   4.200   2.763   4.378
    1C        C  127   4.095   2.668   4.381
    1C        C  128   4.243   2.820   4.500
    1C        C  129   4.195   2.766   4.621
    1C        C  130   4.326   2.932   4.744
    1C        C  131   4.239   2.820   4.744
    1C        C  132   4.360   3.001   4.862
    1C        C  133   4.288   2.958   4.975
    1C        C  134   3.169   2.466   2.084
    1C        C  135   3.036   2.510   2.085
    1C        C  136   3.261   2.482   2.189
    1C        C  137   3.195   2.520   2.308
    1C        C  138   3.404   2.481   2.429
    1C        C  139   3.265   2.504   2.430
    1C        C  140   3.482   2.486   2.547
    1C        C  141   3.413   2.499   2.670
    1C        C  142   3.623   2.500   2.793
    1C        C  143   3.482   2.492   2.793
    1C        C  144   3.698   2.506   2.913
    1C        C  145   3.628   2.503   3.035
    1C        C  146   3.835   2.535   3.156
    1C        C  147   3.696   2.511   3.159
    1C        C  148   3.900   2.562   3.279
    1C        C  149   3.832   2.545   3.402
    1C        C  150   4.029   2.625   3.522
    1C        C  151   3.901   2.564   3.523
    1C        C  152   4.086   2.664   3.645
    1C        C  153   4.026   2.634   3.769
    1C        C  154   4.198   2.759   3.890
    1C        C  155   4.085   2.674   3.891
    1C        C  156   4.248   2.808   4.013
    1C        C  157   4.201   2.757   4.136
    1C        C  158   4.341   2.919   4.256
    1C        C  159   4.255   2.807   4.256
    1C        C  160   4.372   2.985   4.377
    1C        C  161   4.329   2.933   4.500
    1C        C  162   4.433   3.116   4.618
    1C        C  163   4.370   2.990   4.623
    1C        C  164   4.459   3.186   4.738
    1C        C  165   4.426   3.126   4.861
    1C        C  166   4.515   3.319   4.977
    1C        C  167   4.479   3.185   4.977
    1C        C  168   3.479   2.431   2.077
    1C        C  169   3.400   2.457   2.190
    1C        C  170   3.618   2.467   2.307
    1C        C  171   3.476   2.463   2.309
    1C        C  172   3.693   2.486   2.426
    1C        C  173   3.623   2.488   2.548
    1C        C  174   3.830   2.539   2.668
    1C        C  175   3.692   2.506   2.670
    1C        C  176   3.901   2.554   2.789
    1C        C  177   3.836   2.535   2.913
    1C        C  178   4.031   2.619   3.032
    1C        C  179   3.904   2.557   3.035
    1C        C  180   4.088   2.657   3.156
    1C        C  181   4.028   2.621   3.279
    1C        C  182   4.200   2.748   3.400
    1C        C  183   4.093   2.657   3.400
    1C        C  184   4.249   2.801   3.522
    1C        C  185   4.197   2.751   3.643
    1C        C  186   4.336   2.912   3.766
    1C        C  187   4.249   2.801   3.765
    1C        C  188   4.374   2.975   3.887
    1C        C  189   4.335   2.919   4.011
    1C        C  190   4.441   3.103   4.128
    1C        C  191   4.375   2.979   4.132
    1C        C  192   4.462   3.172   4.250
    1C        C  193   4.439   3.110   4.374
    1C        C  194   4.499   3.315   4.493
    1C        C  195   4.461   3.179   4.495
    1C        C  196   4.516   3.388   4.614
    1C        C  197   4.506   3.320   4.737
    1C        C  198   4.552   3.533   4.852
    1C        C  199   4.531   3.391   4.858
    1C        C  200   4.580   3.619   4.962
    1C        C  201   3.619   2.416   2.073
    1C        C  202   3.829   2.505   2.184
    1C        C  203   3.693   2.459   2.187
    1C        C  204   3.901   2.536   2.303
    1C        C  205   3.831   2.517   2.425
    1C        C  206   4.021   2.621   2.543
    1C        C  207   3.898   2.552   2.545
    1C        C  208   4.084   2.657   2.664
    1C        C  209   4.024   2.623   2.787
    1C        C  210   4.200   2.743   2.908
    1C        C  211   4.088   2.657   2.909
    1C        C  212   4.246   2.797   3.030
    1C        C  213   4.195   2.749   3.153
    1C        C  214   4.330   2.911   3.275
    1C        C  215   4.245   2.798   3.276
    1C        C  216   4.369   2.972   3.396
    1C        C  217   4.330   2.917   3.520
    1C        C  218   4.429   3.102   3.639
    1C        C  219   4.368   2.975   3.643
    1C        C  220   4.453   3.168   3.762
    1C        C  221   4.432   3.103   3.885
    1C        C  222   4.494   3.308   4.007
    1C        C  223   4.464   3.170   4.006
    1C        C  224   4.506   3.381   4.127
    1C        C  225   4.495   3.310   4.248
    1C        C  226   4.514   3.523   4.369
    1C        C  227   4.510   3.382   4.369
    1C        C  228   4.517   3.598   4.489
    1C        C  229   4.528   3.528   4.611
    1C        C  230   4.505   3.743   4.728
    1C        C  231   4.535   3.604   4.730
    1C        C  232   4.497   3.819   4.846
    1C        C  233   4.545   3.755   4.961
    1C        C  234   4.018   2.604   2.064
    1C        C  235   3.895   2.539   2.066
    1C        C  236   4.083   2.649   2.180
    1C        C  237   4.023   2.608   2.301
    1C        C  238   4.198   2.736   2.419
    1C        C  239   4.083   2.652   2.420
    1C        C  240   4.252   2.784   2.540
    1C        C  241   4.198   2.741   2.663
    1C        C  242   4.338   2.902   2.785
    1C        C  243   4.249   2.792   2.784
    1C        C  244   4.379   2.961   2.907
    1C        C  245   4.336   2.906   3.030
    1C        C  246   4.434   3.094   3.149
    1C        C  247   4.373   2.966   3.152
    1C        C  248   4.456   3.163   3.270
    1C        C  249   4.426   3.101   3.394
    1C        C  250   4.485   3.305   3.516
    1C        C  251   4.451   3.168   3.516
    1C        C  252   4.495   3.373   3.639
    1C        C  253   4.487   3.306   3.763
    1C        C  254   4.512   3.518   3.879
    1C        C  255   4.501   3.378   3.884
    1C        C  256   4.513   3.590   4.001
    1C        C  257   4.512   3.523   4.125
    1C        C  258   4.489   3.733   4.242
    1C        C  259   4.511   3.594   4.247
    1C        C  260   4.473   3.804   4.363
    1C        C  261   4.489   3.736   4.486
    1C        C  262   4.431   3.943   4.603
    1C        C  263   4.475   3.809   4.606
    1C        C  264   4.404   4.011   4.724
    1C        C  265   4.434   3.946   4.845
    1C        C  266   4.318   4.133   4.958
    1C        C  267   4.388   4.012   4.959
    1C        C  268   4.264   2.777   2.064
    1C        C  269   4.197   2.733   2.179
    1C        C  270   4.346   2.891   2.300
    1C        C  271   4.255   2.782   2.298
    1C        C  272   4.381   2.955   2.421
    1C        C  273   4.342   2.893   2.542
    1C        C  274   4.437   3.087   2.662
    1C        C  275   4.374   2.961   2.662
    1C        C  276   4.467   3.155   2.782
    1C        C  277   4.440   3.088   2.903
    1C        C  278   4.498   3.292   3.025
    1C        C  279   4.463   3.155   3.025
    1C        C  280   4.505   3.366   3.146
    1C        C  281   4.491   3.300   3.270
    1C        C  282   4.512   3.511   3.391
    1C        C  283   4.503   3.370   3.392
    1C        C  284   4.511   3.582   3.512
    1C        C  285   4.508   3.514   3.636
    1C        C  286   4.497   3.729   3.755
    1C        C  287   4.513   3.588   3.756
    1C        C  288   4.482   3.798   3.877
    1C        C  289   4.497   3.730   4.000
    1C        C  290   4.436   3.937   4.117
    1C        C  291   4.481   3.803   4.119
    1C        C  292   4.407   4.004   4.238
    1C        C  293   4.428   3.938   4.360
    1C        C  294   4.327   4.128   4.483
    1C        C  295   4.396   4.004   4.481
    1C        C  296   4.284   4.192   4.601
    1C        C  297   4.333   4.134   4.720
    1C        C  298   4.209   4.318   4.837
    1C        C  299   4.286   4.198   4.838
    1C        C  300   4.168   4.399   4.948
    1C        C  301   4.355   2.881   2.062
    1C        C  302   4.469   3.070   2.178
    1C        C  303   4.396   2.947   2.179
    1C        C  304   4.474   3.147   2.298
    1C        C  305   4.442   3.083   2.420
    1C        C  306   4.510   3.286   2.538
    1C        C  307   4.469   3.151   2.540
    1C        C  308   4.514   3.359   2.658
    1C        C  309   4.495   3.294   2.782
    1C        C  310   4.522   3.504   2.900
    1C        C  311   4.513   3.363   2.904
    1C        C  312   4.515   3.575   3.021
    1C        C  313   4.511   3.507   3.145
    1C        C  314   4.487   3.718   3.264
    1C        C  315   4.507   3.579   3.266
    1C        C  316   4.478   3.790   3.385
    1C        C  317   4.496   3.723   3.508
    1C        C  318   4.426   3.923   3.630
    1C        C  319   4.477   3.792   3.630
    1C        C  320   4.398   3.990   3.752
    1C        C  321   4.427   3.929   3.876
    1C        C  322   4.328   4.120   3.993
    1C        C  323   4.403   4.000   3.995
    1C        C  324   4.283   4.176   4.114
    1C        C  325   4.330   4.123   4.236
    1C        C  326   4.194   4.286   4.354
    1C        C  327   4.291   4.183   4.358
    1C        C  328   4.138   4.339   4.472
    1C        C  329   4.188   4.295   4.596
    1C        C  330   4.025   4.434   4.715
    1C        C  331   4.141   4.353   4.717
    1C        C  332   3.968   4.488   4.832
    1C        C  333   4.051   4.474   4.944
    1C        C  334   4.555   3.268   2.063
    1C        C  335   4.535   3.129   2.066
    1C        C  336   4.539   3.352   2.175
    1C        C  337   4.508   3.285   2.295
    1C        C  338   4.519   3.499   2.414
    1C        C  339   4.516   3.358   2.416
    1C        C  340   4.516   3.573   2.534
    1C        C  341   4.524   3.500   2.655
    1C        C  342   4.493   3.711   2.775
    1C        C  343   4.519   3.572   2.776
    1C        C  344   4.472   3.782   2.896
    1C        C  345   4.490   3.714   3.018
    1C        C  346   4.427   3.918   3.140
    1C        C  347   4.471   3.784   3.140
    1C        C  348   4.396   3.985   3.261
    1C        C  349   4.426   3.922   3.384
    1C        C  350   4.320   4.104   3.506
    1C        C  351   4.396   3.985   3.507
    1C        C  352   4.280   4.168   3.626
    1C        C  353   4.327   4.112   3.747
    1C        C  354   4.187   4.272   3.869
    1C        C  355   4.286   4.172   3.868
    1C        C  356   4.126   4.319   3.988
    1C        C  357   4.180   4.273   4.110
    1C        C  358   4.012   4.398   4.233
    1C        C  359   4.134   4.327   4.232
    1C        C  360   3.954   4.445   4.353
    1C        C  361   4.018   4.415   4.475
    1C        C  362   3.825   4.512   4.595
    1C        C  363   3.955   4.456   4.594
    1C        C  364   3.759   4.548   4.714
    1C        C  365   3.836   4.539   4.832
    1C        C  366   3.627   4.592   4.951
    1C        C  367   3.765   4.570   4.949
    1C        C  368   4.514   3.565   2.053
    1C        C  369   4.526   3.492   2.172
    1C        C  370   4.500   3.708   2.286
    1C        C  371   4.519   3.568   2.291
    1C        C  372   4.486   3.779   2.408
    1C        C  373   4.494   3.713   2.532
    1C        C  374   4.427   3.914   2.651
    1C        C  375   4.480   3.783   2.654
    1C        C  376   4.402   3.981   2.772
    1C        C  377   4.431   3.917   2.895
    1C        C  378   4.323   4.100   3.014
    1C        C  379   4.399   3.981   3.017
    1C        C  380   4.280   4.159   3.136
    1C        C  381   4.314   4.100   3.260
    1C        C  382   4.180   4.261   3.378
    1C        C  383   4.273   4.155   3.383
    1C        C  384   4.129   4.311   3.500
    1C        C  385   4.181   4.269   3.624
    1C        C  386   4.009   4.389   3.743
    1C        C  387   4.130   4.316   3.748
    1C        C  388   3.945   4.428   3.863
    1C        C  389   4.006   4.394   3.986
    1C        C  390   3.821   4.488   4.110
    1C        C  391   3.949   4.428   4.111
    1C        C  392   3.751   4.512   4.231
    1C        C  393   3.824   4.500   4.351
    1C        C  394   3.617   4.551   4.474
    1C        C  395   3.756   4.528   4.472
    1C        C  396   3.545   4.568   4.594
    1C        C  397   3.619   4.569   4.714
    1C        C  398   3.411   4.546   4.838
    1C        C  399   3.549   4.574   4.836
    1C        C  400   3.342   4.513   4.955
    1C        C  401   4.499   3.704   2.052
    1C        C  402   4.453   3.920   2.166
    1C        C  403   4.489   3.783   2.167
    1C        C  404   4.416   3.983   2.287
    1C        C  405   4.435   3.911   2.407
    1C        C  406   4.332   4.099   2.526
    1C        C  407   4.401   3.977   2.527
    1C        C  408   4.284   4.156   2.646
    1C        C  409   4.322   4.098   2.769
    1C        C  410   4.179   4.254   2.888
    1C        C  411   4.278   4.153   2.891
    1C        C  412   4.121   4.293   3.010
    1C        C  413   4.179   4.258   3.134
    1C        C  414   4.005   4.379   3.254
    1C        C  415   4.125   4.305   3.255
    1C        C  416   3.943   4.416   3.376
    1C        C  417   4.009   4.385   3.497
    1C        C  418   3.817   4.473   3.620
    1C        C  419   3.948   4.420   3.620
    1C        C  420   3.748   4.500   3.741
    1C        C  421   3.814   4.480   3.864
    1C        C  422   3.613   4.531   3.988
    1C        C  423   3.753   4.507   3.988
    1C        C  424   3.542   4.540   4.110
    1C        C  425   3.613   4.539   4.232
    1C        C  426   3.401   4.545   4.357
    1C        C  427   3.542   4.552   4.354
    1C        C  428   3.330   4.544   4.480
    1C        C  429   3.404   4.556   4.599
    1C        C  430   3.192   4.517   4.721
    1C        C  431   3.332   4.542   4.720
    1C        C  432   3.124   4.492   4.843
    1C        C  433   3.204   4.496   4.958
    1C        C  434   4.388   4.129   2.051
    1C        C  435   4.441   4.000   2.052
    1C        C  436   4.305   4.166   2.162
    1C        C  437   4.337   4.101   2.285
    1C        C  438   4.189   4.258   2.403
    1C        C  439   4.286   4.156   2.404
    1C        C  440   4.131   4.305   2.523
    1C        C  441   4.182   4.254   2.644
    1C        C  442   4.006   4.374   2.767
    1C        C  443   4.127   4.301   2.765
    1C        C  444   3.943   4.409   2.889
    1C        C  445   4.006   4.375   3.011
    1C        C  446   3.812   4.465   3.130
    1C        C  447   3.943   4.413   3.131
    1C        C  448   3.747   4.491   3.253
    1C        C  449   3.813   4.471   3.376
    1C        C  450   3.609   4.525   3.500
    1C        C  451   3.747   4.495   3.499
    1C        C  452   3.543   4.539   3.624
    1C        C  453   3.611   4.535   3.747
    1C        C  454   3.398   4.538   3.866
    1C        C  455   3.539   4.544   3.868
    1C        C  456   3.331   4.523   3.989
    1C        C  457   3.401   4.537   4.111
    1C        C  458   3.194   4.506   4.236
    1C        C  459   3.332   4.535   4.234
    1C        C  460   3.125   4.489   4.359
    1C        C  461   3.192   4.515   4.480
    1C        C  462   2.994   4.435   4.605
    1C        C  463   3.121   4.496   4.601
    1C        C  464   2.927   4.402   4.725
    1C        C  465   2.988   4.446   4.846
    1C        C  466   2.806   4.334   4.961
    1C        C  467   2.907   4.431   4.962
    1C        C  468   4.123   4.285   2.040
    1C        C  469   4.188   4.248   2.159
    1C        C  470   4.010   4.370   2.278
    1C        C  471   4.133   4.298   2.280
    1C        C  472   3.944   4.401   2.399
    1C        C  473   4.007   4.372   2.522
    1C        C  474   3.813   4.459   2.644
    1C        C  475   3.944   4.407   2.644
    1C        C  476   3.746   4.484   2.766
    1C        C  477   3.815   4.468   2.888
    1C        C  478   3.607   4.520   3.009
    1C        C  479   3.745   4.491   3.008
    1C        C  480   3.538   4.526   3.132
    1C        C  481   3.609   4.522   3.255
    1C        C  482   3.398   4.529   3.378
    1C        C  483   3.540   4.530   3.377
    1C        C  484   3.329   4.528   3.501
    1C        C  485   3.401   4.539   3.622
    1C        C  486   3.191   4.500   3.744
    1C        C  487   3.329   4.534   3.743
    1C        C  488   3.128   4.471   3.867
    1C        C  489   3.193   4.492   3.990
    1C        C  490   3.000   4.419   4.117
    1C        C  491   3.128   4.479   4.115
    1C        C  492   2.937   4.387   4.240
    1C        C  493   2.998   4.427   4.361
    1C        C  494   2.827   4.303   4.482
    1C        C  495   2.934   4.396   4.483
    1C        C  496   2.772   4.257   4.603
    1C        C  497   2.814   4.316   4.725
    1C        C  498   2.666   4.162   4.846
    1C        C  499   2.757   4.270   4.846
    1C        C  500   2.594   4.117   4.957
    1C        C  501   4.000   4.349   2.039
    1C        C  502   3.817   4.459   2.159
    1C        C  503   3.946   4.401   2.157
    1C        C  504   3.745   4.477   2.280
    1C        C  505   3.811   4.449   2.402
    1C        C  506   3.604   4.500   2.521
    1C        C  507   3.743   4.475   2.523
    1C        C  508   3.535   4.511   2.644
    1C        C  509   3.606   4.507   2.765
    1C        C  510   3.394   4.522   2.888
    1C        C  511   3.535   4.522   2.887
    1C        C  512   3.324   4.517   3.011
    1C        C  513   3.397   4.525   3.131
    1C        C  514   3.192   4.490   3.258
    1C        C  515   3.329   4.521   3.255
    1C        C  516   3.124   4.469   3.380
    1C        C  517   3.191   4.495   3.501
    1C        C  518   2.995   4.413   3.625
    1C        C  519   3.123   4.475   3.623
    1C        C  520   2.935   4.377   3.748
    1C        C  521   3.001   4.408   3.869
    1C        C  522   2.839   4.282   3.995
    1C        C  523   2.947   4.374   3.994
    1C        C  524   2.784   4.241   4.118
    1C        C  525   2.829   4.296   4.240
    1C        C  526   2.690   4.136   4.363
    1C        C  527   2.778   4.247   4.362
    1C        C  528   2.649   4.080   4.486
    1C        C  529   2.685   4.146   4.605
    1C        C  530   2.583   3.960   4.732
    1C        C  531   2.641   4.090   4.727
    1C        C  532   2.539   3.901   4.853
    1C        C  533   2.526   3.995   4.961
    1C        C  534   3.618   4.553   2.042
    1C        C  535   3.753   4.516   2.048
    1C        C  536   3.537   4.537   2.158
    1C        C  537   3.606   4.507   2.278
    1C        C  538   3.392   4.510   2.402
    1C        C  539   3.533   4.511   2.399
    1C        C  540   3.322   4.506   2.525
    1C        C  541   3.394   4.511   2.646
    1C        C  542   3.183   4.486   2.768
    1C        C  543   3.321   4.514   2.768
    1C        C  544   3.117   4.466   2.892
    1C        C  545   3.185   4.489   3.014
    1C        C  546   2.995   4.403   3.136
    1C        C  547   3.121   4.468   3.138
    1C        C  548   2.935   4.369   3.259
    1C        C  549   2.997   4.406   3.381
    1C        C  550   2.826   4.284   3.504
    1C        C  551   2.936   4.372   3.504
    1C        C  552   2.775   4.236   3.627
    1C        C  553   2.826   4.287   3.748
    1C        C  554   2.700   4.123   3.875
    1C        C  555   2.784   4.236   3.873
    1C        C  556   2.663   4.064   3.998
    1C        C  557   2.698   4.129   4.119
    1C        C  558   2.594   3.945   4.246
    1C        C  559   2.661   4.070   4.242
    1C        C  560   2.570   3.880   4.369
    1C        C  561   2.595   3.949   4.489
    1C        C  562   2.533   3.750   4.617
    1C        C  563   2.564   3.888   4.612
    1C        C  564   2.520   3.682   4.740
    1C        C  565   2.519   3.760   4.860
    1C        C  566   2.525   3.546   4.975
    1C        C  567   2.523   3.685   4.978
    1C        C  568   3.329   4.473   2.046
    1C        C  569   3.396   4.516   2.160
    1C        C  570   3.183   4.470   2.283
    1C        C  571   3.320   4.507   2.280
    1C        C  572   3.114   4.449   2.404
    1C        C  573   3.184   4.477   2.524
    1C        C  574   2.987   4.402   2.648
    1C        C  575   3.115   4.462   2.646
    1C        C  576   2.929   4.365   2.771
    1C        C  577   2.991   4.402   2.892
    1C        C  578   2.824   4.275   3.016
    1C        C  579   2.933   4.365   3.015
    1C        C  580   2.775   4.225   3.139
    1C        C  581   2.827   4.278   3.259
    1C        C  582   2.701   4.112   3.385
    1C        C  583   2.780   4.229   3.383
    1C        C  584   2.662   4.054   3.508
    1C        C  585   2.695   4.120   3.629
    1C        C  586   2.600   3.935   3.757
    1C        C  587   2.661   4.062   3.754
    1C        C  588   2.571   3.872   3.880
    1C        C  589   2.606   3.935   4.002
    1C        C  590   2.538   3.737   4.126
    1C        C  591   2.576   3.873   4.125
    1C        C  592   2.524   3.673   4.251
    1C        C  593   2.531   3.744   4.372
    1C        C  594   2.514   3.536   4.498
    1C        C  595   2.520   3.678   4.496
    1C        C  596   2.516   3.466   4.620
    1C        C  597   2.515   3.540   4.740
    1C        C  598   2.530   3.325   4.865
    1C        C  599   2.520   3.466   4.860
    1C        C  600   2.535   3.249   4.982
    1C        C  601   3.195   4.438   2.043
    1C        C  602   2.983   4.393   2.158
    1C        C  603   3.118   4.441   2.160
    1C        C  604   2.923   4.357   2.282
    1C        C  605   2.984   4.395   2.403
    1C        C  606   2.815   4.275   2.530
    1C        C  607   2.923   4.367   2.527
    1C        C  608   2.770   4.221   2.652
    1C        C  609   2.823   4.272   2.773
    1C        C  610   2.687   4.111   2.898
    1C        C  611   2.772   4.224   2.895
    1C        C  612   2.653   4.050   3.021
    1C        C  613   2.690   4.111   3.142
    1C        C  614   2.588   3.928   3.267
    1C        C  615   2.653   4.054   3.266
    1C        C  616   2.566   3.865   3.391
    1C        C  617   2.600   3.927   3.513
    1C        C  618   2.538   3.728   3.638
    1C        C  619   2.579   3.863   3.637
    1C        C  620   2.521   3.662   3.761
    1C        C  621   2.532   3.736   3.881
    1C        C  622   2.510   3.527   4.010
    1C        C  623   2.521   3.667   4.004
    1C        C  624   2.513   3.458   4.134
    1C        C  625   2.510   3.532   4.254
    1C        C  626   2.536   3.324   4.379
    1C        C  627   2.515   3.463   4.377
    1C        C  628   2.548   3.253   4.500
    1C        C  629   2.534   3.325   4.620
    1C        C  630   2.596   3.123   4.746
    1C        C  631   2.547   3.256   4.743
    1C        C  632   2.615   3.050   4.867
    1C        C  633   2.562   3.112   4.984
    1C        C  634   2.781   4.302   2.051
    1C        C  635   2.890   4.390   2.049
    1C        C  636   2.752   4.229   2.166
    1C        C  637   2.809   4.273   2.288
    1C        C  638   2.680   4.107   2.411
    1C        C  639   2.760   4.223   2.411
    1C        C  640   2.644   4.045   2.533
    1C        C  641   2.684   4.109   2.653
    1C        C  642   2.593   3.920   2.777
    1C        C  643   2.651   4.048   2.776
    1C        C  644   2.563   3.858   2.900
    1C        C  645   2.588   3.924   3.022
    1C        C  646   2.531   3.722   3.150
    1C        C  647   2.563   3.860   3.146
    1C        C  648   2.513   3.656   3.273
    1C        C  649   2.527   3.729   3.394
    1C        C  650   2.511   3.517   3.519
    1C        C  651   2.521   3.658   3.516
    1C        C  652   2.511   3.449   3.643
    1C        C  653   2.510   3.521   3.765
    1C        C  654   2.534   3.314   3.891
    1C        C  655   2.511   3.454   3.889
    1C        C  656   2.550   3.248   4.015
    1C        C  657   2.535   3.319   4.136
    1C        C  658   2.608   3.121   4.259
    1C        C  659   2.554   3.252   4.259
    1C        C  660   2.637   3.061   4.383
    1C        C  661   2.599   3.121   4.505
    1C        C  662   2.711   2.940   4.626
    1C        C  663   2.629   3.055   4.627
    1C        C  664   2.754   2.880   4.746
    1C        C  665   2.698   2.933   4.866
    1C        C  666   2.746   2.871   4.983
    1C        C  667   2.676   4.027   2.052
    1C        C  668   2.686   4.104   2.168
    1C        C  669   2.594   3.911   2.289
    1C        C  670   2.648   4.043   2.290
    1C        C  671   2.562   3.849   2.412
    1C        C  672   2.582   3.918   2.534
    1C        C  673   2.523   3.716   2.659
    1C        C  674   2.561   3.852   2.657
    1C        C  675   2.515   3.650   2.784
    1C        C  676   2.531   3.720   2.906
    1C        C  677   2.503   3.511   3.029
    1C        C  678   2.519   3.651   3.028
    1C        C  679   2.507   3.443   3.153
    1C        C  680   2.505   3.515   3.275
    1C        C  681   2.531   3.305   3.399
    1C        C  682   2.513   3.445   3.397
    1C        C  683   2.546   3.241   3.524
    1C        C  684   2.535   3.310   3.647
    1C        C  685   2.601   3.111   3.773
    1C        C  686   2.551   3.243   3.770
    1C        C  687   2.634   3.050   3.896
    1C        C  688   2.603   3.117   4.017
    1C        C  689   2.709   2.932   4.139
    1C        C  690   2.635   3.053   4.138
    1C        C  691   2.752   2.881   4.263
    1C        C  692   2.713   2.942   4.384
    1C        C  693   2.752   2.880   4.505
    1C        C  694   2.636   3.893   2.055
    1C        C  695   2.533   3.703   2.175
    1C        C  696   2.581   3.836   2.171
    1C        C  697   2.509   3.638   2.297
    1C        C  698   2.523   3.714   2.415
    1C        C  699   2.490   3.505   2.541
    1C        C  700   2.507   3.645   2.538
    1C        C  701   2.500   3.438   2.665
    1C        C  702   2.500   3.510   2.786
    1C        C  703   2.529   3.298   2.909
    1C        C  704   2.508   3.438   2.908
    1C        C  705   2.547   3.232   3.033
    1C        C  706   2.531   3.304   3.153
    1C        C  707   2.595   3.104   3.278
    1C        C  708   2.548   3.237   3.277
    1C        C  709   2.629   3.048   3.403
    1C        C  710   2.599   3.110   3.526
    1C        C  711   2.712   2.933   3.649
    1C        C  712   2.631   3.050   3.649
    1C        C  713   2.752   2.875   3.771
    1C        C  714   2.712   2.932   3.893
    1C        C  715   2.753   2.876   4.017
    1C        C  716   2.453   3.497   2.060
    1C        C  717   2.490   3.633   2.061
    1C        C  718   2.472   3.421   2.180
    1C        C  719   2.489   3.497   2.299
    1C        C  720   2.516   3.291   2.424
    1C        C  721   2.485   3.428   2.422
    1C        C  722   2.538   3.225   2.547
    1C        C  723   2.522   3.298   2.667
    1C        C  724   2.591   3.096   2.790
    1C        C  725   2.539   3.227   2.788
    1C        C  726   2.616   3.032   2.913
    1C        C  727   2.597   3.100   3.036
    1C        C  728   2.712   2.923   3.161
    1C        C  729   2.629   3.038   3.158
    1C        C  730   2.758   2.876   3.286
    1C        C  731   2.712   2.933   3.407
    1C        C  732   2.755   2.875   3.528
    1C        C  733   2.496   3.200   2.066
    1C        C  734   2.486   3.279   2.182
    1C        C  735   2.589   3.090   2.307
    1C        C  736   2.527   3.217   2.303
    1C        C  737   2.617   3.021   2.428
    1C        C  738   2.587   3.093   2.545
    1C        C  739   2.701   2.915   2.671
    1C        C  740   2.621   3.031   2.668
    1C        C  741   2.743   2.862   2.794
    1C        C  742   2.698   2.917   2.917
    1C        C  743   2.749   2.865   3.038
    1C        C  744   2.547   3.071   2.072
    1C        C  745   2.686   2.901   2.186
    1C        C  746   2.612   3.020   2.186
    1C        C  747   2.728   2.840   2.306
    1C        C  748   2.690   2.900   2.428
    1C        C  749   2.740   2.851   2.551
    1C        C  750   2.738   2.841   2.070
    1C        C  751   3.665   2.309   1.981
    1C        O  752   3.667   2.188   2.017
    1C        O  753   3.663   2.335   1.844
    1C        C  754   4.644   3.060   1.993
    1C        O  755   4.646   3.049   1.867
    1C        O  756   4.762   3.025   2.059
    1C        C  757   4.446   4.228   1.958
    1C        O  758   4.549   4.289   1.995
    1C        O  759   4.446   4.198   1.821
    1C        C  760   3.580   4.651   1.938
    1C        O  761   3.629   4.767   1.932
    1C        O  762   3.599   4.622   1.802
    1C        C  763   2.869   4.506   1.959
    1C        O  764   2.910   4.489   1.841
    1C        O  765   2.873   4.637   2.008
    1C        C  766   2.329   3.467   1.985
    1C        O  767   2.318   3.418   1.870
    1C        O  768   2.201   3.485   2.040
    1C        C  769   4.694   3.590   5.052
    1C        O  770   4.669   3.574   5.174
    1C        O  771   4.812   3.665   5.055
    1C        C  772   4.279   4.465   5.020
    1C        O  773   4.324   4.405   5.122
    1C        O  774   4.291   4.604   5.036
    1C        C  775   4.154   2.523   5.066
    1C        O  776   4.163   2.399   5.049
    1C        O  777   4.200   2.573   5.189
    1C        C  778   2.889   4.545   5.055
    1C        O  779   2.842   4.656   5.017
    1C        O  780   2.920   4.544   5.191
    1C        C  781   2.466   3.041   5.072
    1C        O  782   2.361   3.001   5.015
    1C        O  783   2.486   3.024   5.209
    1C        C  784   2.400   4.003   5.038
    1C        O  785   2.286   4.020   4.985
    1C        O  786   2.383   3.957   5.169
    1C        C  787   2.945   2.421   2.011
    1C        O  788   2.925   2.441   1.888
    1C        O  789   2.861   2.320   2.058
    1C        C  790   3.183   2.361   5.040
    1C        O  791   3.137   2.257   4.986
    1C        O  792   3.170   2.352   5.179
    1C        H  793   4.297   3.010   5.068
    1C        H  794   4.203   2.797   5.073
    1C        H  795   4.479   3.131   5.069
    1C        H  796   4.587   3.341   5.053
    1C        H  797   4.587   3.816   5.039
    1C        H  798   4.419   3.976   5.055
    1C        H  799   4.336   4.198   5.041
    1C        H  800   4.037   4.541   5.027
    1C        H  801   3.807   4.539   5.042
    1C        H  802   3.593   4.665   5.021
    1C        H  803   3.395   4.527   5.047
    1C        H  804   3.157   4.521   5.051
    1C        H  805   3.891   2.478   5.069
    1C        H  806   3.675   2.431   5.069
    1C        H  807   2.983   2.513   5.034
    1C        H  808   3.446   2.514   5.068
    1C        H  809   2.864   2.736   5.085
    1C        H  810   2.717   2.906   5.080
    1C        H  811   2.525   3.296   5.078
    1C        H  812   2.519   3.501   5.072
    1C        H  813   2.565   3.729   5.066
    1C        H  814   2.570   4.187   5.034
    1C        H  815   2.750   4.320   5.051
    1C        H  816   2.747   2.896   1.978
    1C        H  817   2.805   2.665   1.990
    1C        H  818   3.204   2.402   2.006
    1C        H  819   3.422   2.426   1.987
    1C        H  820   3.843   2.526   1.973
    1C        H  821   4.061   2.613   1.966
    1C        H  822   4.246   2.721   1.974
    1C        H  823   4.425   2.882   1.981
    1C        H  824   4.556   3.312   1.966
    1C        H  825   4.464   3.514   1.973
    1C        H  826   4.538   3.749   1.963
    1C        H  827   3.818   4.562   1.976
    1C        H  828   3.944   4.346   1.948
    1C        H  829   4.171   4.267   1.946
    1C        H  830   4.444   3.951   1.957
    1C        H  831   2.665   3.826   1.976
    1C        H  832   2.667   4.079   1.959
    1C        H  833   2.716   4.294   1.966
    1C        H  834   3.382   4.436   1.960
    1C        H  835   3.145   4.432   1.949
    1C        H  836   2.566   3.017   1.982
    1C        H  837   2.457   3.231   1.972
    1C        H  838   2.445   3.689   1.982
    2V3OU   H29  839   2.803   3.552   6.165
    2V3OU   C27  840   2.782   3.500   6.262
    2V3OU   H27  841   2.723   3.569   6.328
    2V3OU   H28  842   2.726   3.403   6.253
    2V3OU   O11  843   2.906   3.474   6.327
    2V3OU   C15  844   2.913   3.400   6.443
    2V3OU   C13  845   3.044   3.380   6.490
    2V3OU   C14  846   3.074   3.268   6.569
    2V3OU   C16  847   2.971   3.189   6.619
    2V3OU    H6  848   2.986   3.102   6.685
    2V3OU   C12  849   3.214   3.229   6.596
    2V3OU    O2  850   3.237   3.127   6.665
    2V3OU   C10  851   3.327   3.308   6.547
    2V3OU    C8  852   3.460   3.272   6.569
    2V3OU   O10  853   3.491   3.146   6.611
    2V3OU   H26  854   3.408   3.112   6.646
    2V3OU    C6  855   3.565   3.352   6.515
    2V3OU    C5  856   3.540   3.472   6.451
    2V3OU    C4  857   3.704   3.296   6.522
    2V3OU    H4  858   3.724   3.230   6.612
    2V3OU    H5  859   3.715   3.228   6.433
    2V3OU    C2  860   3.816   3.399   6.516
    2V3OU    O6  861   3.813   3.477   6.635
    2V3OU   H21  862   3.764   3.558   6.612
    2V3OU    C3  863   3.787   3.499   6.403
    2V3OU    H2  864   3.865   3.580   6.402
    2V3OU    H3  865   3.786   3.442   6.307
    2V3OU   C25  866   3.951   3.330   6.493
    2V3OU    O7  867   3.995   3.298   6.383
    2V3OU   C26  868   4.034   3.293   6.615
    2V3OU   H22  869   4.074   3.381   6.671
    2V3OU   H23  870   4.118   3.226   6.584
    2V3OU    O8  871   3.964   3.215   6.709
    2V3OU   H24  872   3.927   3.268   6.781
    2V3OU    C1  873   3.652   3.566   6.419
    2V3OU    H1  874   3.629   3.625   6.325
    2V3OU    O3  875   3.661   3.654   6.531
    2V3OU   C19  876   3.617   3.788   6.507
    2V3OU    H9  877   3.516   3.789   6.457
    2V3OU    O4  878   3.711   3.847   6.421
    2V3OU   C20  879   3.839   3.879   6.475
    2V3OU   H10  880   3.896   3.782   6.488
    2V3OU   C24  881   3.612   3.857   6.644
    2V3OU   H16  882   3.546   3.799   6.713
    2V3OU   H17  883   3.559   3.953   6.620
    2V3OU   C23  884   3.752   3.874   6.703
    2V3OU   H15  885   3.791   3.772   6.735
    2V3OU    N1  886   3.735   3.956   6.822
    2V3OU   H19  887   3.803   3.924   6.888
    2V3OU   H20  888   3.648   3.926   6.861
    2V3OU   C21  889   3.853   3.948   6.611
    2V3OU   H11  890   3.949   3.926   6.667
    2V3OU    O5  891   3.830   4.087   6.602
    2V3OU   H18  892   3.780   4.111   6.682
    2V3OU   C22  893   3.918   3.953   6.368
    2V3OU   H12  894   3.864   4.045   6.335
    2V3OU   H13  895   3.912   3.893   6.273
    2V3OU   H14  896   4.027   3.955   6.394
    2V3OU   C11  897   3.158   3.466   6.454
    2V3OU    O1  898   3.132   3.582   6.416
    2V3OU    C9  899   3.299   3.425   6.471
    2V3OU    C7  900   3.403   3.503   6.423
    2V3OU    O9  901   3.388   3.615   6.344
    2V3OU   H25  902   3.293   3.635   6.331
    2V3OU   C17  903   2.811   3.315   6.491
    2V3OU    H7  904   2.709   3.346   6.467
    2V3OU   C18  905   2.840   3.211   6.577
    2V3OU    H8  906   2.762   3.151   6.626
    3SOL     OW  907   2.835   3.845   4.981
    3SOL    HW1  908   2.741   3.842   4.947
    3SOL    HW2  909   2.888   3.908   4.925
    4SOL     OW  910   1.069   0.268   0.819
    4SOL    HW1  911   1.151   0.318   0.790
    4SOL    HW2  912   1.086   0.222   0.906
    5SOL     OW  913   4.037   1.951   0.985
    5SOL    HW1  914   4.125   1.995   0.970
    5SOL    HW2  915   4.022   1.881   0.915
    6SOL     OW  916   3.611   1.754   2.552
    6SOL    HW1  917   3.601   1.655   2.547
    6SOL    HW2  918   3.655   1.787   2.468
    7SOL     OW  919   2.313   2.765   4.882
    7SOL    HW1  920   2.213   2.759   4.881
    7SOL    HW2  921   2.340   2.859   4.900
    8SOL     OW  922   1.408   1.775   6.238
    8SOL    HW1  923   1.358   1.689   6.249
    8SOL    HW2  924   1.397   1.809   6.144
    9SOL     OW  925   2.116   2.059   5.934
    9SOL    HW1  926   2.151   2.095   6.020
    9SOL    HW2  927   2.066   1.974   5.950
   10SOL     OW  928   5.569   5.332   0.910
   10SOL    HW1  929   5.487   5.381   0.883
   10SOL    HW2  930   5.586   5.347   1.008
   11SOL     OW  931   3.606   1.691   0.457
   11SOL    HW1  932   3.546   1.656   0.385
   11SOL    HW2  933   3.618   1.790   0.445
   12SOL     OW  934   5.586   4.494   1.112
   12SOL    HW1  935   5.537   4.432   1.175
   12SOL    HW2  936   5.555   4.476   1.018
   13SOL     OW  937   4.725   5.609   1.697
   13SOL    HW1  938   4.665   5.675   1.654
   13SOL    HW2  939   4.671   5.536   1.738
   14SOL     OW  940   4.293   5.676   1.113
   14SOL    HW1  941   4.275   5.583   1.080
   14SOL    HW2  942   4.327   5.733   1.039
   15SOL     OW  943   0.822   6.878   6.813
   15SOL    HW1  944   0.854   6.893   6.719
   15SOL    HW2  945   0.880   6.929   6.876
   16SOL     OW  946   2.056   5.395   5.601
   16SOL    HW1  947   2.144   5.371   5.641
   16SOL    HW2  948   2.022   5.318   5.546
   17SOL     OW  949   6.937   1.933   3.928
   17SOL    HW1  950   6.999   1.994   3.879
   17SOL    HW2  951   6.845   1.941   3.890
   18SOL     OW  952   2.812   0.534   5.627
   18SOL    HW1  953   2.910   0.525   5.644
   18SOL    HW2  954   2.793   0.522   5.530
   19SOL     OW  955   3.730   5.886   3.134
   19SOL    HW1  956   3.658   5.844   3.190
   19SOL    HW2  957   3.819   5.866   3.173
   20SOL     OW  958   0.177   1.839   5.080
   20SOL    HW1  959   0.136   1.862   4.992
   20SOL    HW2  960   0.205   1.923   5.127
   21SOL     OW  961   1.303   3.439   1.694
   21SOL    HW1  962   1.214   3.407   1.726
   21SOL    HW2  963   1.328   3.523   1.742
   22SOL     OW  964   0.643   1.021   0.262
   22SOL    HW1  965   0.709   0.945   0.262
   22SOL    HW2  966   0.664   1.083   0.338
   23SOL     OW  967   0.219   5.089   0.238
   23SOL    HW1  968   0.214   5.099   0.337
   23SOL    HW2  969   0.173   5.166   0.194
   24SOL     OW  970   5.264   0.662   0.567
   24SOL    HW1  971   5.273   0.731   0.639
   24SOL    HW2  972   5.322   0.583   0.588
   25SOL     OW  973   1.027   0.988   4.955
   25SOL    HW1  974   1.066   1.073   4.990
   25SOL    HW2  975   0.932   1.004   4.927
   26SOL     OW  976   2.133   6.823   5.677
   26SOL    HW1  977   2.047   6.792   5.719
   26SOL    HW2  978   2.207   6.816   5.743
   27SOL     OW  979   6.913   6.790   2.342
   27SOL    HW1  980   6.971   6.833   2.273
   27SOL    HW2  981   6.827   6.762   2.299
   28SOL     OW  982   1.695   0.589   5.078
   28SOL    HW1  983   1.660   0.499   5.104
   28SOL    HW2  984   1.782   0.606   5.124
   29SOL     OW  985   5.707   0.776   1.343
   29SOL    HW1  986   5.783   0.710   1.347
   29SOL    HW2  987   5.666   0.783   1.434
   30SOL     OW  988   4.671   6.916   4.554
   30SOL    HW1  989   4.754   6.928   4.608
   30SOL    HW2  990   4.591   6.915   4.614
   31SOL     OW  991   6.191   4.580   4.347
   31SOL    HW1  992   6.171   4.602   4.442
   31SOL    HW2  993   6.242   4.655   4.305
   32SOL     OW  994   3.456   1.138   0.963
   32SOL    HW1  995   3.497   1.145   1.053
   32SOL    HW2  996   3.525   1.108   0.897
   33SOL     OW  997   1.981   4.364   5.853
   33SOL    HW1  998   2.033   4.298   5.907
   33SOL    HW2  999   2.039   4.442   5.829
   34SOL     OW 1000   2.628   6.372   4.919
   34SOL    HW1 1001   2.695   6.406   4.853
   34SOL    HW2 1002   2.591   6.448   4.972
   35SOL     OW 1003   1.997   2.706   4.601
   35SOL    HW1 1004   2.060   2.782   4.583
   35SOL    HW2 1005   1.933   2.697   4.525
   36SOL     OW 1006   5.504   1.353   4.270
   36SOL    HW1 1007   5.600   1.355   4.300
   36SOL    HW2 1008   5.500   1.362   4.170
   37SOL     OW 1009   1.390   6.638   4.261
   37SOL    HW1 1010   1.369   6.723   4.309
   37SOL    HW2 1011   1.306   6.597   4.227
   38SOL     OW 1012   1.072   3.522   1.546
   38SOL    HW1 1013   1.057   3.448   1.611
   38SOL    HW2 1014   1.143   3.495   1.481
   39SOL     OW 1015   6.622   5.457   1.482
   39SOL    HW1 1016   6.664   5.421   1.399
   39SOL    HW2 1017   6.646   5.554   1.491
   40SOL     OW 1018   3.921   0.580   6.599
   40SOL    HW1 1019   4.014   0.582   6.562
   40SOL    HW2 1020   3.898   0.670   6.636
   41SOL     OW 1021   6.676   3.348   1.596
   41SOL    HW1 1022   6.654   3.285   1.671
   41SOL    HW2 1023   6.772   3.339   1.572
   42SOL     OW 1024   2.726   3.775   0.674
   42SOL    HW1 1025   2.764   3.705   0.735
   42SOL    HW2 1026   2.799   3.834   0.640
   43SOL     OW 1027   4.928   0.864   3.659
   43SOL    HW1 1028   4.996   0.813   3.606
   43SOL    HW2 1029   4.930   0.833   3.754
   44SOL     OW 1030   0.001   0.713   0.029
   44SOL    HW1 1031   0.030   0.633   0.080
   44SOL    HW2 1032   7.001   0.686   6.960
   45SOL     OW 1033   2.285   3.591   5.731
   45SOL    HW1 1034   2.352   3.621   5.662
   45SOL    HW2 1035   2.315   3.504   5.771
   46SOL     OW 1036   1.307   4.459   4.445
   46SOL    HW1 1037   1.350   4.390   4.502
   46SOL    HW2 1038   1.345   4.455   4.352
   47SOL     OW 1039   6.807   4.330   6.466
   47SOL    HW1 1040   6.860   4.347   6.549
   47SOL    HW2 1041   6.714   4.366   6.478
   48SOL     OW 1042   0.755   4.193   0.193
   48SOL    HW1 1043   0.825   4.128   0.220
   48SOL    HW2 1044   0.669   4.170   0.239
   49SOL     OW 1045   3.036   0.962   0.093
   49SOL    HW1 1046   3.116   0.938   0.038
   49SOL    HW2 1047   3.062   1.028   0.163
   50SOL     OW 1048   4.798   1.820   5.737
   50SOL    HW1 1049   4.864   1.887   5.772
   50SOL    HW2 1050   4.847   1.739   5.705
   51SOL     OW 1051   1.633   6.328   2.207
   51SOL    HW1 1052   1.702   6.259   2.227
   51SOL    HW2 1053   1.636   6.400   2.277
   52SOL     OW 1054   5.563   3.235   2.795
   52SOL    HW1 1055   5.618   3.300   2.846
   52SOL    HW2 1056   5.586   3.142   2.825
   53SOL     OW 1057   4.424   0.111   0.741
   53SOL    HW1 1058   4.416   0.197   0.793
   53SOL    HW2 1059   4.484   0.048   0.791
   54SOL     OW 1060   0.468   1.519   6.077
   54SOL    HW1 1061   0.515   1.494   6.162
   54SOL    HW2 1062   0.488   1.451   6.007
   55SOL     OW 1063   1.932   3.228   6.735
   55SOL    HW1 1064   1.844   3.235   6.781
   55SOL    HW2 1065   1.937   3.295   6.661
   56SOL     OW 1066   1.088   2.107   6.569
   56SOL    HW1 1067   1.131   2.115   6.659
   56SOL    HW2 1068   1.025   2.184   6.556
   57SOL     OW 1069   3.969   5.485   1.377
   57SOL    HW1 1070   4.001   5.556   1.315
   57SOL    HW2 1071   4.026   5.486   1.460
   58SOL     OW 1072   0.576   1.011   6.853
   58SOL    HW1 1073   0.530   0.924   6.867
   58SOL    HW2 1074   0.651   1.020   6.919
   59SOL     OW 1075   4.154   2.905   6.983
   59SOL    HW1 1076   4.162   2.817   6.936
   59SOL    HW2 1077   4.245   2.934   7.013
   60SOL     OW 1078   6.339   2.408   2.863
   60SOL    HW1 1079   6.334   2.324   2.809
   60SOL    HW2 1080   6.258   2.465   2.843
   61SOL     OW 1081   1.937   5.461   2.684
   61SOL    HW1 1082   1.869   5.408   2.735
   61SOL    HW2 1083   1.895   5.543   2.648
   62SOL     OW 1084   4.916   3.061   3.405
   62SOL    HW1 1085   4.884   2.966   3.411
   62SOL    HW2 1086   4.857   3.119   3.462
   63SOL     OW 1087   3.787   6.759   6.056
   63SOL    HW1 1088   3.755   6.673   6.095
   63SOL    HW2 1089   3.709   6.814   6.026
   64SOL     OW 1090   1.983   1.998   6.819
   64SOL    HW1 1091   2.048   2.034   6.753
   64SOL    HW2 1092   2.024   1.998   6.911
   65SOL     OW 1093   0.834   5.311   5.059
   65SOL    HW1 1094   0.806   5.406   5.042
   65SOL    HW2 1095   0.870   5.271   4.975
   66SOL     OW 1096   4.212   1.130   1.365
   66SOL    HW1 1097   4.183   1.168   1.453
   66SOL    HW2 1098   4.132   1.115   1.307
   67SOL     OW 1099   0.043   3.180   2.197
   67SOL    HW1 1100   0.076   3.196   2.290
   67SOL    HW2 1101   0.060   3.261   2.141
   68SOL     OW 1102   0.872   1.206   6.208
   68SOL    HW1 1103   0.803   1.137   6.183
   68SOL    HW2 1104   0.873   1.278   6.139
   69SOL     OW 1105   1.588   0.341   6.283
   69SOL    HW1 1106   1.606   0.421   6.341
   69SOL    HW2 1107   1.661   0.274   6.296
   70SOL     OW 1108   4.741   4.846   3.430
   70SOL    HW1 1109   4.675   4.876   3.362
   70SOL    HW2 1110   4.798   4.773   3.392
   71SOL     OW 1111   5.201   0.443   5.233
   71SOL    HW1 1112   5.274   0.402   5.179
   71SOL    HW2 1113   5.113   0.425   5.189
   72SOL     OW 1114   6.555   1.266   2.594
   72SOL    HW1 1115   6.581   1.301   2.684
   72SOL    HW2 1116   6.528   1.170   2.602
   73SOL     OW 1117   2.940   0.950   0.880
   73SOL    HW1 1118   2.887   0.929   0.962
   73SOL    HW2 1119   2.880   0.993   0.812
   74SOL     OW 1120   2.443   0.738   0.420
   74SOL    HW1 1121   2.473   0.830   0.395
   74SOL    HW2 1122   2.491   0.671   0.363
   75SOL     OW 1123   2.730   2.758   1.618
   75SOL    HW1 1124   2.760   2.810   1.537
   75SOL    HW2 1125   2.807   2.706   1.654
   76SOL     OW 1126   3.167   5.050   6.620
   76SOL    HW1 1127   3.221   5.128   6.589
   76SOL    HW2 1128   3.221   4.966   6.607
   77SOL     OW 1129   0.008   4.860   4.874
   77SOL    HW1 1130   0.075   4.912   4.927
   77SOL    HW2 1131   0.033   4.763   4.873
   78SOL     OW 1132   5.142   1.465   1.556
   78SOL    HW1 1133   5.130   1.365   1.553
   78SOL    HW2 1134   5.229   1.489   1.513
   79SOL     OW 1135   1.774   4.125   3.986
   79SOL    HW1 1136   1.777   4.171   4.075
   79SOL    HW2 1137   1.754   4.028   3.998
   80SOL     OW 1138   3.913   2.257   5.307
   80SOL    HW1 1139   3.915   2.157   5.314
   80SOL    HW2 1140   3.821   2.287   5.281
   81SOL     OW 1141   2.927   4.877   3.337
   81SOL    HW1 1142   2.899   4.971   3.315
   81SOL    HW2 1143   2.855   4.832   3.391
   82SOL     OW 1144   2.635   0.801   1.359
   82SOL    HW1 1145   2.590   0.796   1.448
   82SOL    HW2 1146   2.567   0.814   1.287
   83SOL     OW 1147   5.770   2.536   3.829
   83SOL    HW1 1148   5.790   2.576   3.919
   83SOL    HW2 1149   5.806   2.443   3.826
   84SOL     OW 1150   5.220   2.550   2.775
   84SOL    HW1 1151   5.157   2.537   2.852
   84SOL    HW2 1152   5.168   2.560   2.690
   85SOL     OW 1153   2.821   5.597   3.229
   85SOL    HW1 1154   2.743   5.636   3.277
   85SOL    HW2 1155   2.872   5.670   3.183
   86SOL     OW 1156   4.962   0.801   6.880
   86SOL    HW1 1157   4.990   0.712   6.916
   86SOL    HW2 1158   5.025   0.872   6.911
   87SOL     OW 1159   2.941   2.829   6.461
   87SOL    HW1 1160   2.898   2.773   6.531
   87SOL    HW2 1161   3.026   2.867   6.497
   88SOL     OW 1162   1.545   2.160   1.140
   88SOL    HW1 1163   1.535   2.237   1.203
   88SOL    HW2 1164   1.493   2.082   1.175
   89SOL     OW 1165   4.196   3.437   5.015
   89SOL    HW1 1166   4.234   3.365   5.075
   89SOL    HW2 1167   4.251   3.442   4.932
   90SOL     OW 1168   6.742   3.986   2.014
   90SOL    HW1 1169   6.685   3.929   2.073
   90SOL    HW2 1170   6.720   3.967   1.919
   91SOL     OW 1171   5.080   5.176   0.268
   91SOL    HW1 1172   5.111   5.137   0.355
   91SOL    HW2 1173   5.066   5.274   0.279
   92SOL     OW 1174   5.948   6.145   6.706
   92SOL    HW1 1175   5.944   6.117   6.802
   92SOL    HW2 1176   6.003   6.080   6.654
   93SOL     OW 1177   2.819   3.723   1.768
   93SOL    HW1 1178   2.725   3.688   1.774
   93SOL    HW2 1179   2.867   3.677   1.693
   94SOL     OW 1180   3.414   1.188   4.440
   94SOL    HW1 1181   3.317   1.174   4.460
   94SOL    HW2 1182   3.423   1.240   4.355
   95SOL     OW 1183   1.043   6.475   4.670
   95SOL    HW1 1184   1.030   6.512   4.762
   95SOL    HW2 1185   1.091   6.387   4.676
   96SOL     OW 1186   6.990   6.398   6.777
   96SOL    HW1 1187   0.055   6.379   6.820
   96SOL    HW2 1188   6.984   6.495   6.754
   97SOL     OW 1189   3.624   5.411   4.616
   97SOL    HW1 1190   3.707   5.443   4.569
   97SOL    HW2 1191   3.573   5.350   4.555
   98SOL     OW 1192   0.140   2.664   4.703
   98SOL    HW1 1193   0.062   2.708   4.749
   98SOL    HW2 1194   0.219   2.665   4.764
   99SOL     OW 1195   4.559   4.522   4.702
   99SOL    HW1 1196   4.491   4.557   4.766
   99SOL    HW2 1197   4.517   4.507   4.613
  100SOL     OW 1198   1.735   1.858   4.936
  100SOL    HW1 1199   1.760   1.888   4.844
  100SOL    HW2 1200   1.811   1.808   4.976
  101SOL     OW 1201   5.134   3.177   2.729
  101SOL    HW1 1202   5.085   3.217   2.652
  101SOL    HW2 1203   5.140   3.078   2.717
  102SOL     OW 1204   4.445   6.305   0.667
  102SOL    HW1 1205   4.369   6.348   0.620
  102SOL    HW2 1206   4.452   6.341   0.760
  103SOL     OW 1207   2.041   2.217   1.159
  103SOL    HW1 1208   2.062   2.137   1.215
  103SOL    HW2 1209   2.015   2.188   1.068
  104SOL     OW 1210   0.617   4.085   1.551
  104SOL    HW1 1211   0.620   4.183   1.571
  104SOL    HW2 1212   0.686   4.064   1.482
  105SOL     OW 1213   6.539   2.175   5.029
  105SOL    HW1 1214   6.638   2.160   5.028
  105SOL    HW2 1215   6.513   2.217   5.117
  106SOL     OW 1216   4.717   3.698   1.694
  106SOL    HW1 1217   4.672   3.621   1.649
  106SOL    HW2 1218   4.798   3.724   1.642
  107SOL     OW 1219   4.336   0.598   1.997
  107SOL    HW1 1220   4.399   0.675   2.003
  107SOL    HW2 1221   4.243   0.632   1.979
  108SOL     OW 1222   3.412   1.406   5.003
  108SOL    HW1 1223   3.457   1.335   5.056
  108SOL    HW2 1224   3.448   1.495   5.029
  109SOL     OW 1225   2.301   1.682   5.137
  109SOL    HW1 1226   2.308   1.584   5.120
  109SOL    HW2 1227   2.268   1.728   5.054
  110SOL     OW 1228   4.006   4.688   5.244
  110SOL    HW1 1229   3.914   4.722   5.221
  110SOL    HW2 1230   3.999   4.616   5.313
  111SOL     OW 1231   6.713   3.437   0.943
  111SOL    HW1 1232   6.731   3.530   0.976
  111SOL    HW2 1233   6.737   3.371   1.015
  112SOL     OW 1234   4.145   6.698   4.762
  112SOL    HW1 1235   4.132   6.714   4.860
  112SOL    HW2 1236   4.088   6.763   4.710
  113SOL     OW 1237   1.533   5.096   2.384
  113SOL    HW1 1238   1.553   5.045   2.301
  113SOL    HW2 1239   1.571   5.188   2.378
  114SOL     OW 1240   6.861   2.182   1.617
  114SOL    HW1 1241   6.811   2.111   1.667
  114SOL    HW2 1242   6.807   2.266   1.617
  115SOL     OW 1243   4.181   1.381   2.964
  115SOL    HW1 1244   4.230   1.421   3.041
  115SOL    HW2 1245   4.202   1.283   2.958
  116SOL     OW 1246   5.924   5.787   6.963
  116SOL    HW1 1247   5.912   5.782   6.864
  116SOL    HW2 1248   5.837   5.809   7.007
  117SOL     OW 1249   2.375   1.213   0.550
  117SOL    HW1 1250   2.421   1.143   0.495
  117SOL    HW2 1251   2.279   1.188   0.564
  118SOL     OW 1252   1.088   2.418   1.817
  118SOL    HW1 1253   1.018   2.415   1.888
  118SOL    HW2 1254   1.158   2.485   1.842
  119SOL     OW 1255   5.415   5.381   5.228
  119SOL    HW1 1256   5.438   5.392   5.131
  119SOL    HW2 1257   5.489   5.419   5.284
  120SOL     OW 1258   4.591   1.882   4.413
  120SOL    HW1 1259   4.514   1.820   4.427
  120SOL    HW2 1260   4.630   1.907   4.501
  121SOL     OW 1261   0.223   4.945   6.030
  121SOL    HW1 1262   0.185   4.977   6.117
  121SOL    HW2 1263   0.314   4.907   6.046
  122SOL     OW 1264   0.377   4.364   5.951
  122SOL    HW1 1265   0.471   4.343   5.923
  122SOL    HW2 1266   0.374   4.374   6.050
  123SOL     OW 1267   0.827   2.582   1.026
  123SOL    HW1 1268   0.853   2.594   1.121
  123SOL    HW2 1269   0.732   2.550   1.021
  124SOL     OW 1270   2.040   3.671   0.220
  124SOL    HW1 1271   2.041   3.756   0.168
  124SOL    HW2 1272   2.099   3.604   0.175
  125SOL     OW 1273   4.017   2.755   0.302
  125SOL    HW1 1274   3.980   2.746   0.210
  125SOL    HW2 1275   4.024   2.851   0.326
  126SOL     OW 1276   3.669   3.204   5.247
  126SOL    HW1 1277   3.640   3.135   5.180
  126SOL    HW2 1278   3.625   3.185   5.335
  127SOL     OW 1279   0.382   4.598   5.807
  127SOL    HW1 1280   0.292   4.609   5.766
  127SOL    HW2 1281   0.393   4.504   5.839
  128SOL     OW 1282   4.799   4.130   6.081
  128SOL    HW1 1283   4.818   4.225   6.103
  128SOL    HW2 1284   4.872   4.071   6.117
  129SOL     OW 1285   1.288   5.701   2.016
  129SOL    HW1 1286   1.332   5.619   2.054
  129SOL    HW2 1287   1.292   5.698   1.917
  130SOL     OW 1288   6.473   3.245   4.766
  130SOL    HW1 1289   6.513   3.336   4.766
  130SOL    HW2 1290   6.414   3.234   4.686
  131SOL     OW 1291   0.631   3.624   2.641
  131SOL    HW1 1292   0.643   3.525   2.650
  131SOL    HW2 1293   0.538   3.649   2.667
  132SOL     OW 1294   4.082   3.300   2.065
  132SOL    HW1 1295   4.159   3.251   2.024
  132SOL    HW2 1296   4.008   3.308   1.997
  133SOL     OW 1297   4.056   4.456   5.374
  133SOL    HW1 1298   4.065   4.454   5.474
  133SOL    HW2 1299   4.092   4.372   5.336
  134SOL     OW 1300   6.830   1.729   6.874
  134SOL    HW1 1301   6.820   1.660   6.946
  134SOL    HW2 1302   6.754   1.793   6.878
  135SOL     OW 1303   4.637   5.594   3.817
  135SOL    HW1 1304   4.719   5.550   3.853
  135SOL    HW2 1305   4.654   5.626   3.724
  136SOL     OW 1306   3.773   6.113   5.960
  136SOL    HW1 1307   3.688   6.163   5.981
  136SOL    HW2 1308   3.759   6.016   5.977
  137SOL     OW 1309   2.070   4.439   0.453
  137SOL    HW1 1310   2.169   4.438   0.438
  137SOL    HW2 1311   2.037   4.346   0.468
  138SOL     OW 1312   0.719   5.150   1.104
  138SOL    HW1 1313   0.811   5.143   1.141
  138SOL    HW2 1314   0.689   5.246   1.105
  139SOL     OW 1315   0.868   0.741   1.191
  139SOL    HW1 1316   0.883   0.672   1.119
  139SOL    HW2 1317   0.939   0.732   1.260
  140SOL     OW 1318   2.498   6.982   1.968
  140SOL    HW1 1319   2.434   6.917   2.009
  140SOL    HW2 1320   2.510   0.036   2.030
  141SOL     OW 1321   2.273   1.905   6.976
  141SOL    HW1 1322   2.240   1.958   6.898
  141SOL    HW2 1323   2.373   1.912   6.981
  142SOL     OW 1324   2.139   4.265   6.239
  142SOL    HW1 1325   2.073   4.204   6.283
  142SOL    HW2 1326   2.196   4.308   6.309
  143SOL     OW 1327   5.791   5.873   2.083
  143SOL    HW1 1328   5.874   5.873   2.138
  143SOL    HW2 1329   5.774   5.781   2.047
  144SOL     OW 1330   1.926   5.208   3.272
  144SOL    HW1 1331   1.999   5.145   3.246
  144SOL    HW2 1332   1.841   5.156   3.284
  145SOL     OW 1333   6.694   6.287   3.228
  145SOL    HW1 1334   6.791   6.303   3.245
  145SOL    HW2 1335   6.684   6.216   3.158
  146SOL     OW 1336   6.755   0.627   4.824
  146SOL    HW1 1337   6.755   0.578   4.912
  146SOL    HW2 1338   6.753   0.725   4.840
  147SOL     OW 1339   5.964   0.280   4.841
  147SOL    HW1 1340   5.933   0.281   4.746
  147SOL    HW2 1341   6.000   0.189   4.864
  148SOL     OW 1342   1.526   6.673   2.875
  148SOL    HW1 1343   1.607   6.731   2.890
  148SOL    HW2 1344   1.449   6.710   2.927
  149SOL     OW 1345   2.007   2.015   5.105
  149SOL    HW1 1346   1.985   1.918   5.099
  149SOL    HW2 1347   2.098   2.026   5.144
  150SOL     OW 1348   5.268   2.751   4.714
  150SOL    HW1 1349   5.172   2.777   4.699
  150SOL    HW2 1350   5.271   2.671   4.775
  151SOL     OW 1351   5.734   2.978   1.687
  151SOL    HW1 1352   5.704   3.062   1.733
  151SOL    HW2 1353   5.805   2.934   1.742
  152SOL     OW 1354   6.845   2.495   0.509
  152SOL    HW1 1355   6.796   2.543   0.436
  152SOL    HW2 1356   6.944   2.498   0.490
  153SOL     OW 1357   2.304   1.735   3.966
  153SOL    HW1 1358   2.323   1.637   3.959
  153SOL    HW2 1359   2.308   1.776   3.874
  154SOL     OW 1360   0.157   0.841   3.994
  154SOL    HW1 1361   0.065   0.879   3.982
  154SOL    HW2 1362   0.150   0.748   4.030
  155SOL     OW 1363   5.908   5.103   3.345
  155SOL    HW1 1364   5.977   5.088   3.274
  155SOL    HW2 1365   5.949   5.088   3.435
  156SOL     OW 1366   4.436   0.528   1.127
  156SOL    HW1 1367   4.484   0.596   1.181
  156SOL    HW2 1368   4.363   0.573   1.075
  157SOL     OW 1369   5.352   0.376   1.054
  157SOL    HW1 1370   5.325   0.280   1.048
  157SOL    HW2 1371   5.296   0.422   1.123
  158SOL     OW 1372   1.309   2.343   5.472
  158SOL    HW1 1373   1.264   2.335   5.561
  158SOL    HW2 1374   1.279   2.428   5.428
  159SOL     OW 1375   6.980   4.860   6.602
  159SOL    HW1 1376   0.025   4.827   6.538
  159SOL    HW2 1377   7.024   4.881   6.690
  160SOL     OW 1378   4.152   0.378   1.851
  160SOL    HW1 1379   4.151   0.478   1.853
  160SOL    HW2 1380   4.090   0.343   1.921
  161SOL     OW 1381   6.092   6.993   0.859
  161SOL    HW1 1382   6.191   6.998   0.874
  161SOL    HW2 1383   6.072   7.002   0.762
  162SOL     OW 1384   4.517   0.270   5.277
  162SOL    HW1 1385   4.553   0.230   5.193
  162SOL    HW2 1386   4.573   0.349   5.303
  163SOL     OW 1387   1.026   3.687   2.935
  163SOL    HW1 1388   0.966   3.608   2.921
  163SOL    HW2 1389   0.972   3.771   2.931
  164SOL     OW 1390   1.942   2.376   2.971
  164SOL    HW1 1391   2.039   2.392   2.985
  164SOL    HW2 1392   1.930   2.304   2.902
  165SOL     OW 1393   0.328   6.051   5.019
  165SOL    HW1 1394   0.284   6.141   5.024
  165SOL    HW2 1395   0.276   5.985   5.073
  166SOL     OW 1396   0.730   4.988   4.284
  166SOL    HW1 1397   0.780   5.026   4.206
  166SOL    HW2 1398   0.708   4.892   4.265
  167SOL     OW 1399   6.859   1.513   3.242
  167SOL    HW1 1400   6.950   1.471   3.241
  167SOL    HW2 1401   6.809   1.486   3.160
  168SOL     OW 1402   3.693   4.087   4.102
  168SOL    HW1 1403   3.708   3.991   4.082
  168SOL    HW2 1404   3.672   4.098   4.200
  169SOL     OW 1405   4.953   2.776   6.106
  169SOL    HW1 1406   4.880   2.716   6.139
  169SOL    HW2 1407   4.929   2.871   6.125
  170SOL     OW 1408   0.063   5.466   2.821
  170SOL    HW1 1409   0.146   5.415   2.800
  170SOL    HW2 1410   7.020   5.450   2.749
  171SOL     OW 1411   3.544   2.755   0.973
  171SOL    HW1 1412   3.610   2.784   0.903
  171SOL    HW2 1413   3.575   2.670   1.015
  172SOL     OW 1414   1.531   1.124   0.243
  172SOL    HW1 1415   1.525   1.039   0.294
  172SOL    HW2 1416   1.469   1.121   0.164
  173SOL     OW 1417   5.840   0.472   4.984
  173SOL    HW1 1418   5.903   0.416   4.931
  173SOL    HW2 1419   5.893   0.532   5.045
  174SOL     OW 1420   6.757   3.885   4.891
  174SOL    HW1 1421   6.666   3.901   4.929
  174SOL    HW2 1422   6.750   3.862   4.794
  175SOL     OW 1423   0.849   5.215   2.594
  175SOL    HW1 1424   0.879   5.160   2.516
  175SOL    HW2 1425   0.887   5.307   2.586
  176SOL     OW 1426   6.050   4.239   0.809
  176SOL    HW1 1427   6.023   4.209   0.718
  176SOL    HW2 1428   6.001   4.186   0.878
  177SOL     OW 1429   5.676   2.888   3.414
  177SOL    HW1 1430   5.730   2.946   3.353
  177SOL    HW2 1431   5.627   2.819   3.361
  178SOL     OW 1432   1.643   5.456   4.975
  178SOL    HW1 1433   1.545   5.448   4.956
  178SOL    HW2 1434   1.658   5.449   5.073
  179SOL     OW 1435   3.586   4.142   2.205
  179SOL    HW1 1436   3.636   4.202   2.142
  179SOL    HW2 1437   3.496   4.122   2.166
  180SOL     OW 1438   4.499   0.816   6.327
  180SOL    HW1 1439   4.545   0.787   6.411
  180SOL    HW2 1440   4.425   0.879   6.350
  181SOL     OW 1441   3.563   0.437   5.516
  181SOL    HW1 1442   3.509   0.362   5.554
  181SOL    HW2 1443   3.504   0.516   5.501
  182SOL     OW 1444   2.976   2.998   5.652
  182SOL    HW1 1445   2.891   2.968   5.696
  182SOL    HW2 1446   2.958   3.025   5.558
  183SOL     OW 1447   2.377   1.348   3.069
  183SOL    HW1 1448   2.354   1.269   3.011
  183SOL    HW2 1449   2.466   1.332   3.112
  184SOL     OW 1450   5.500   6.446   3.410
  184SOL    HW1 1451   5.560   6.486   3.480
  184SOL    HW2 1452   5.473   6.354   3.438
  185SOL     OW 1453   0.225   5.876   5.722
  185SOL    HW1 1454   0.297   5.833   5.668
  185SOL    HW2 1455   0.217   5.829   5.810
  186SOL     OW 1456   3.340   5.628   6.707
  186SOL    HW1 1457   3.296   5.539   6.700
  186SOL    HW2 1458   3.439   5.618   6.700
  187SOL     OW 1459   3.225   5.230   0.484
  187SOL    HW1 1460   3.293   5.166   0.448
  187SOL    HW2 1461   3.191   5.288   0.410
  188SOL     OW 1462   1.734   4.223   4.248
  188SOL    HW1 1463   1.799   4.237   4.323
  188SOL    HW2 1464   1.651   4.180   4.284
  189SOL     OW 1465   6.237   4.109   6.097
  189SOL    HW1 1466   6.248   4.028   6.155
  189SOL    HW2 1467   6.316   4.117   6.036
  190SOL     OW 1468   6.058   6.432   6.874
  190SOL    HW1 1469   6.039   6.346   6.826
  190SOL    HW2 1470   6.110   6.492   6.814
  191SOL     OW 1471   2.207   3.489   6.223
  191SOL    HW1 1472   2.194   3.548   6.143
  191SOL    HW2 1473   2.140   3.415   6.222
  192SOL     OW 1474   0.808   0.165   1.219
  192SOL    HW1 1475   0.767   0.250   1.188
  192SOL    HW2 1476   0.906   0.165   1.199
  193SOL     OW 1477   3.326   6.849   1.466
  193SOL    HW1 1478   3.418   6.871   1.434
  193SOL    HW2 1479   3.300   6.759   1.432
  194SOL     OW 1480   4.226   6.293   3.262
  194SOL    HW1 1481   4.135   6.251   3.259
  194SOL    HW2 1482   4.247   6.321   3.356
  195SOL     OW 1483   3.191   0.958   1.162
  195SOL    HW1 1484   3.156   0.873   1.122
  195SOL    HW2 1485   3.261   0.937   1.230
  196SOL     OW 1486   3.848   2.860   1.090
  196SOL    HW1 1487   3.852   2.841   1.188
  196SOL    HW2 1488   3.905   2.794   1.041
  197SOL     OW 1489   0.976   5.922   1.285
  197SOL    HW1 1490   0.911   5.931   1.210
  197SOL    HW2 1491   1.068   5.904   1.249
  198SOL     OW 1492   6.273   0.261   5.638
  198SOL    HW1 1493   6.194   0.320   5.621
  198SOL    HW2 1494   6.271   0.229   5.733
  199SOL     OW 1495   1.589   1.167   3.090
  199SOL    HW1 1496   1.611   1.264   3.099
  199SOL    HW2 1497   1.503   1.149   3.138
  200SOL     OW 1498   1.600   3.801   3.689
  200SOL    HW1 1499   1.626   3.718   3.640
  200SOL    HW2 1500   1.590   3.780   3.786
  201SOL     OW 1501   5.123   0.793   0.109
  201SOL    HW1 1502   5.202   0.849   0.083
  201SOL    HW2 1503   5.149   0.697   0.112
  202SOL     OW 1504   4.370   0.782   2.661
  202SOL    HW1 1505   4.455   0.818   2.699
  202SOL    HW2 1506   4.389   0.700   2.607
  203SOL     OW 1507   5.850   3.162   0.412
  203SOL    HW1 1508   5.759   3.167   0.454
  203SOL    HW2 1509   5.918   3.137   0.482
  204SOL     OW 1510   2.345   6.003   0.788
  204SOL    HW1 1511   2.426   6.021   0.732
  204SOL    HW2 1512   2.370   5.943   0.865
  205SOL     OW 1513   5.629   0.450   1.414
  205SOL    HW1 1514   5.711   0.413   1.456
  205SOL    HW2 1515   5.638   0.446   1.314
  206SOL     OW 1516   0.103   5.937   1.119
  206SOL    HW1 1517   0.062   6.006   1.179
  206SOL    HW2 1518   0.096   5.847   1.162
  207SOL     OW 1519   6.453   2.460   5.978
  207SOL    HW1 1520   6.374   2.511   6.010
  207SOL    HW2 1521   6.536   2.498   6.019
  208SOL     OW 1522   4.282   4.011   0.841
  208SOL    HW1 1523   4.311   4.027   0.935
  208SOL    HW2 1524   4.213   3.939   0.839
  209SOL     OW 1525   6.488   0.087   4.377
  209SOL    HW1 1526   6.546   0.006   4.389
  209SOL    HW2 1527   6.456   0.118   4.467
  210SOL     OW 1528   4.455   1.776   0.262
  210SOL    HW1 1529   4.441   1.874   0.251
  210SOL    HW2 1530   4.513   1.759   0.342
  211SOL     OW 1531   0.131   3.988   2.741
  211SOL    HW1 1532   0.116   3.974   2.839
  211SOL    HW2 1533   0.117   4.085   2.719
  212SOL     OW 1534   1.584   5.187   5.428
  212SOL    HW1 1535   1.528   5.104   5.418
  212SOL    HW2 1536   1.671   5.174   5.379
  213SOL     OW 1537   4.461   2.738   0.890
  213SOL    HW1 1538   4.428   2.824   0.930
  213SOL    HW2 1539   4.402   2.713   0.814
  214SOL     OW 1540   0.320   6.241   3.976
  214SOL    HW1 1541   0.263   6.168   3.938
  214SOL    HW2 1542   0.397   6.201   4.026
  215SOL     OW 1543   3.993   3.896   3.648
  215SOL    HW1 1544   3.915   3.867   3.594
  215SOL    HW2 1545   3.961   3.943   3.731
  216SOL     OW 1546   3.368   0.053   5.635
  216SOL    HW1 1547   3.311   0.133   5.613
  216SOL    HW2 1548   3.464   0.081   5.639
  217SOL     OW 1549   6.523   2.525   5.530
  217SOL    HW1 1550   6.516   2.602   5.466
  217SOL    HW2 1551   6.617   2.518   5.564
  218SOL     OW 1552   2.832   4.426   6.023
  218SOL    HW1 1553   2.791   4.506   5.977
  218SOL    HW2 1554   2.760   4.361   6.045
  219SOL     OW 1555   3.282   5.898   6.558
  219SOL    HW1 1556   3.285   5.812   6.609
  219SOL    HW2 1557   3.349   5.962   6.597
  220SOL     OW 1558   1.581   4.885   0.218
  220SOL    HW1 1559   1.555   4.789   0.209
  220SOL    HW2 1560   1.533   4.939   0.149
  221SOL     OW 1561   6.173   3.456   4.783
  221SOL    HW1 1562   6.103   3.526   4.797
  221SOL    HW2 1563   6.149   3.400   4.704
  222SOL     OW 1564   1.743   6.931   4.009
  222SOL    HW1 1565   1.842   6.929   3.996
  222SOL    HW2 1566   1.718   6.872   4.086
  223SOL     OW 1567   5.261   5.052   2.586
  223SOL    HW1 1568   5.226   5.077   2.676
  223SOL    HW2 1569   5.279   5.135   2.533
  224SOL     OW 1570   5.178   4.127   2.946
  224SOL    HW1 1571   5.234   4.205   2.918
  224SOL    HW2 1572   5.088   4.134   2.903
  225SOL     OW 1573   4.581   5.780   1.977
  225SOL    HW1 1574   4.662   5.727   2.004
  225SOL    HW2 1575   4.550   5.835   2.054
  226SOL     OW 1576   1.529   5.600   2.633
  226SOL    HW1 1577   1.500   5.640   2.720
  226SOL    HW2 1578   1.475   5.640   2.559
  227SOL     OW 1579   0.768   4.087   3.315
  227SOL    HW1 1580   0.727   3.996   3.310
  227SOL    HW2 1581   0.768   4.129   3.224
  228SOL     OW 1582   4.024   6.107   3.286
  228SOL    HW1 1583   3.940   6.080   3.332
  228SOL    HW2 1584   4.016   6.091   3.188
  229SOL     OW 1585   6.101   5.949   2.473
  229SOL    HW1 1586   6.050   5.882   2.526
  229SOL    HW2 1587   6.059   6.039   2.482
  230SOL     OW 1588   1.327   4.706   5.966
  230SOL    HW1 1589   1.420   4.681   5.992
  230SOL    HW2 1590   1.310   4.802   5.990
  231SOL     OW 1591   0.585   1.770   6.271
  231SOL    HW1 1592   0.626   1.682   6.249
  231SOL    HW2 1593   0.508   1.787   6.210
  232SOL     OW 1594   1.510   3.647   5.968
  232SOL    HW1 1595   1.477   3.613   5.880
  232SOL    HW2 1596   1.540   3.742   5.957
  233SOL     OW 1597   3.731   0.067   6.950
  233SOL    HW1 1598   3.656   0.074   6.884
  233SOL    HW2 1599   3.782   7.007   6.933
  234SOL     OW 1600   1.589   4.770   6.684
  234SOL    HW1 1601   1.594   4.779   6.784
  234SOL    HW2 1602   1.672   4.727   6.650
  235SOL     OW 1603   3.879   3.337   6.129
  235SOL    HW1 1604   3.932   3.345   6.214
  235SOL    HW2 1605   3.911   3.405   6.063
  236SOL     OW 1606   6.984   0.916   6.060
  236SOL    HW1 1607   6.990   0.938   5.963
  236SOL    HW2 1608   7.015   0.995   6.113
  237SOL     OW 1609   6.703   6.685   2.223
  237SOL    HW1 1610   6.691   6.629   2.140
  237SOL    HW2 1611   6.617   6.729   2.247
  238SOL     OW 1612   1.089   2.327   3.328
  238SOL    HW1 1613   1.096   2.326   3.428
  238SOL    HW2 1614   1.131   2.410   3.292
  239SOL     OW 1615   6.346   4.973   0.367
  239SOL    HW1 1616   6.426   4.917   0.344
  239SOL    HW2 1617   6.321   5.028   0.287
  240SOL     OW 1618   0.325   2.138   4.437
  240SOL    HW1 1619   0.341   2.185   4.350
  240SOL    HW2 1620   0.400   2.073   4.454
  241SOL     OW 1621   6.256   2.258   4.985
  241SOL    HW1 1622   6.262   2.173   4.933
  241SOL    HW2 1623   6.252   2.335   4.921
  242SOL     OW 1624   2.762   2.304   3.400
  242SOL    HW1 1625   2.839   2.250   3.367
  242SOL    HW2 1626   2.776   2.327   3.497
  243SOL     OW 1627   4.970   1.461   6.751
  243SOL    HW1 1628   4.928   1.539   6.703
  243SOL    HW2 1629   4.950   1.377   6.701
  244SOL     OW 1630   0.892   1.458   6.079
  244SOL    HW1 1631   0.874   1.555   6.063
  244SOL    HW2 1632   0.889   1.408   5.992
  245SOL     OW 1633   5.607   1.723   3.957
  245SOL    HW1 1634   5.530   1.765   4.004
  245SOL    HW2 1635   5.575   1.683   3.870
  246SOL     OW 1636   5.348   3.784   4.177
  246SOL    HW1 1637   5.363   3.879   4.206
  246SOL    HW2 1638   5.405   3.723   4.232
  247SOL     OW 1639   2.475   0.632   3.123
  247SOL    HW1 1640   2.394   0.574   3.117
  247SOL    HW2 1641   2.447   0.727   3.133
  248SOL     OW 1642   0.130   2.570   3.583
  248SOL    HW1 1643   0.103   2.509   3.509
  248SOL    HW2 1644   0.226   2.594   3.574
  249SOL     OW 1645   2.341   5.813   5.001
  249SOL    HW1 1646   2.437   5.840   5.007
  249SOL    HW2 1647   2.295   5.833   5.088
  250SOL     OW 1648   5.310   2.435   6.620
  250SOL    HW1 1649   5.291   2.524   6.579
  250SOL    HW2 1650   5.300   2.441   6.720
  251SOL     OW 1651   1.894   0.271   1.717
  251SOL    HW1 1652   1.982   0.309   1.745
  251SOL    HW2 1653   1.832   0.345   1.691
  252SOL     OW 1654   7.016   2.349   0.168
  252SOL    HW1 1655   0.038   2.405   0.236
  252SOL    HW2 1656   6.943   2.403   0.125
  253SOL     OW 1657   2.148   4.979   5.784
  253SOL    HW1 1658   2.076   5.038   5.820
  253SOL    HW2 1659   2.155   4.992   5.685
  254SOL     OW 1660   4.650   3.211   6.134
  254SOL    HW1 1661   4.626   3.261   6.051
  254SOL    HW2 1662   4.591   3.240   6.209
  255SOL     OW 1663   4.438   2.314   2.273
  255SOL    HW1 1664   4.342   2.289   2.280
  255SOL    HW2 1665   4.461   2.382   2.343
  256SOL     OW 1666   0.343   6.462   1.335
  256SOL    HW1 1667   0.350   6.363   1.325
  256SOL    HW2 1668   0.364   6.488   1.429
  257SOL     OW 1669   3.085   5.855   6.385
  257SOL    HW1 1670   3.165   5.882   6.439
  257SOL    HW2 1671   3.114   5.828   6.294
  258SOL     OW 1672   4.837   5.168   4.751
  258SOL    HW1 1673   4.835   5.250   4.694
  258SOL    HW2 1674   4.781   5.096   4.710
  259SOL     OW 1675   0.507   1.514   2.233
  259SOL    HW1 1676   0.474   1.608   2.239
  259SOL    HW2 1677   0.603   1.514   2.203
  260SOL     OW 1678   6.786   6.442   5.932
  260SOL    HW1 1679   6.693   6.477   5.927
  260SOL    HW2 1680   6.821   6.430   5.839
  261SOL     OW 1681   0.702   0.937   4.046
  261SOL    HW1 1682   0.670   0.879   3.971
  261SOL    HW2 1683   0.679   0.894   4.133
  262SOL     OW 1684   1.929   5.352   1.147
  262SOL    HW1 1685   1.938   5.435   1.092
  262SOL    HW2 1686   1.921   5.273   1.086
  263SOL     OW 1687   0.755   4.800   4.615
  263SOL    HW1 1688   0.683   4.806   4.546
  263SOL    HW2 1689   0.717   4.824   4.705
  264SOL     OW 1690   3.579   3.620   1.397
  264SOL    HW1 1691   3.666   3.655   1.431
  264SOL    HW2 1692   3.593   3.527   1.362
  265SOL     OW 1693   4.344   5.701   4.033
  265SOL    HW1 1694   4.388   5.633   3.975
  265SOL    HW2 1695   4.304   5.656   4.113
  266SOL     OW 1696   4.604   3.562   0.061
  266SOL    HW1 1697   4.658   3.505   7.023
  266SOL    HW2 1698   4.533   3.609   0.010
  267SOL     OW 1699   2.569   2.495   5.968
  267SOL    HW1 1700   2.575   2.413   5.911
  267SOL    HW2 1701   2.475   2.528   5.970
  268SOL     OW 1702   1.474   3.804   3.412
  268SOL    HW1 1703   1.505   3.898   3.424
  268SOL    HW2 1704   1.416   3.778   3.489
  269SOL     OW 1705   3.349   1.472   6.127
  269SOL    HW1 1706   3.274   1.455   6.063
  269SOL    HW2 1707   3.339   1.563   6.167
  270SOL     OW 1708   5.596   5.705   4.757
  270SOL    HW1 1709   5.695   5.695   4.762
  270SOL    HW2 1710   5.574   5.776   4.690
  271SOL     OW 1711   2.856   1.365   6.989
  271SOL    HW1 1712   2.893   1.457   7.006
  271SOL    HW2 1713   2.902   1.326   6.910
  272SOL     OW 1714   5.399   4.915   6.664
  272SOL    HW1 1715   5.489   4.942   6.629
  272SOL    HW2 1716   5.392   4.941   6.760
  273SOL     OW 1717   0.687   6.279   3.737
  273SOL    HW1 1718   0.692   6.263   3.836
  273SOL    HW2 1719   0.600   6.244   3.702
  274SOL     OW 1720   5.394   3.164   2.588
  274SOL    HW1 1721   5.473   3.199   2.640
  274SOL    HW2 1722   5.310   3.204   2.624
  275SOL     OW 1723   6.058   5.140   5.374
  275SOL    HW1 1724   5.979   5.177   5.326
  275SOL    HW2 1725   6.113   5.086   5.311
  276SOL     OW 1726   0.940   0.105   4.369
  276SOL    HW1 1727   0.939   0.157   4.283
  276SOL    HW2 1728   0.876   0.029   4.362
  277SOL     OW 1729   3.935   3.272   5.598
  277SOL    HW1 1730   3.946   3.244   5.502
  277SOL    HW2 1731   4.020   3.254   5.648
  278SOL     OW 1732   5.967   4.660   2.242
  278SOL    HW1 1733   6.065   4.669   2.260
  278SOL    HW2 1734   5.952   4.583   2.180
  279SOL     OW 1735   0.487   3.542   4.508
  279SOL    HW1 1736   0.531   3.570   4.594
  279SOL    HW2 1737   0.544   3.474   4.462
  280SOL     OW 1738   4.873   1.885   2.886
  280SOL    HW1 1739   4.889   1.924   2.795
  280SOL    HW2 1740   4.937   1.925   2.952
  281SOL     OW 1741   4.960   5.169   5.413
  281SOL    HW1 1742   4.873   5.125   5.390
  281SOL    HW2 1743   5.009   5.193   5.330
  282SOL     OW 1744   0.493   2.304   0.110
  282SOL    HW1 1745   0.410   2.333   0.062
  282SOL    HW2 1746   0.524   2.216   0.074
  283SOL     OW 1747   5.858   3.872   2.582
  283SOL    HW1 1748   5.871   3.810   2.505
  283SOL    HW2 1749   5.940   3.875   2.638
  284SOL     OW 1750   5.646   6.762   3.113
  284SOL    HW1 1751   5.700   6.739   3.033
  284SOL    HW2 1752   5.593   6.683   3.142
  285SOL     OW 1753   4.492   6.229   6.512
  285SOL    HW1 1754   4.515   6.300   6.579
  285SOL    HW2 1755   4.484   6.141   6.559
  286SOL     OW 1756   3.402   4.974   5.385
  286SOL    HW1 1757   3.426   4.887   5.343
  286SOL    HW2 1758   3.305   4.973   5.410
  287SOL     OW 1759   3.853   6.313   0.747
  287SOL    HW1 1760   3.816   6.243   0.807
  287SOL    HW2 1761   3.937   6.280   0.704
  288SOL     OW 1762   4.266   0.839   0.305
  288SOL    HW1 1763   4.340   0.811   0.243
  288SOL    HW2 1764   4.212   0.759   0.329
  289SOL     OW 1765   5.183   4.992   5.080
  289SOL    HW1 1766   5.223   5.008   5.170
  289SOL    HW2 1767   5.173   5.079   5.032
  290SOL     OW 1768   3.053   0.589   5.451
  290SOL    HW1 1769   3.085   0.554   5.363
  290SOL    HW2 1770   3.071   0.521   5.522
  291SOL     OW 1771   5.829   1.263   4.906
  291SOL    HW1 1772   5.788   1.181   4.947
  291SOL    HW2 1773   5.921   1.241   4.874
  292SOL     OW 1774   2.493   0.924   3.590
  292SOL    HW1 1775   2.400   0.933   3.553
  292SOL    HW2 1776   2.557   0.909   3.515
  293SOL     OW 1777   5.358   1.102   3.028
  293SOL    HW1 1778   5.361   1.191   2.983
  293SOL    HW2 1779   5.429   1.098   3.098
  294SOL     OW 1780   6.580   1.359   6.801
  294SOL    HW1 1781   6.665   1.377   6.851
  294SOL    HW2 1782   6.506   1.415   6.840
  295SOL     OW 1783   6.766   0.241   4.741
  295SOL    HW1 1784   6.669   0.241   4.764
  295SOL    HW2 1785   6.819   0.212   4.821
  296SOL     OW 1786   6.815   1.646   0.549
  296SOL    HW1 1787   6.842   1.724   0.604
  296SOL    HW2 1788   6.810   1.564   0.606
  297SOL     OW 1789   4.965   3.435   3.694
  297SOL    HW1 1790   4.922   3.354   3.654
  297SOL    HW2 1791   4.969   3.424   3.794
  298SOL     OW 1792   4.139   0.021   5.388
  298SOL    HW1 1793   4.208   6.973   5.382
  298SOL    HW2 1794   4.065   0.001   5.324
  299SOL     OW 1795   0.336   1.057   6.023
  299SOL    HW1 1796   0.249   1.106   6.027
  299SOL    HW2 1797   0.323   0.970   5.975
  300SOL     OW 1798   4.668   6.244   4.374
  300SOL    HW1 1799   4.591   6.305   4.391
  300SOL    HW2 1800   4.693   6.246   4.277
  301SOL     OW 1801   6.738   6.200   5.264
  301SOL    HW1 1802   6.741   6.296   5.235
  301SOL    HW2 1803   6.813   6.150   5.222
  302SOL     OW 1804   6.688   7.000   1.720
  302SOL    HW1 1805   6.607   0.033   1.704
  302SOL    HW2 1806   6.758   7.021   1.651
  303SOL     OW 1807   5.139   5.101   2.831
  303SOL    HW1 1808   5.090   5.014   2.834
  303SOL    HW2 1809   5.075   5.176   2.850
  304SOL     OW 1810   0.902   0.978   3.796
  304SOL    HW1 1811   0.908   1.035   3.878
  304SOL    HW2 1812   0.992   0.942   3.774
  305SOL     OW 1813   2.752   1.744   1.211
  305SOL    HW1 1814   2.765   1.755   1.113
  305SOL    HW2 1815   2.664   1.698   1.227
  306SOL     OW 1816   0.221   6.567   2.482
  306SOL    HW1 1817   0.179   6.542   2.569
  306SOL    HW2 1818   0.321   6.561   2.491
  307SOL     OW 1819   4.020   3.826   4.708
  307SOL    HW1 1820   4.007   3.770   4.790
  307SOL    HW2 1821   4.107   3.800   4.664
  308SOL     OW 1822   6.271   2.445   1.481
  308SOL    HW1 1823   6.263   2.370   1.546
  308SOL    HW2 1824   6.209   2.519   1.508
  309SOL     OW 1825   2.003   4.657   0.223
  309SOL    HW1 1826   1.951   4.602   0.289
  309SOL    HW2 1827   2.026   4.601   0.144
  310SOL     OW 1828   4.784   6.401   5.021
  310SOL    HW1 1829   4.861   6.362   4.971
  310SOL    HW2 1830   4.792   6.501   5.023
  311SOL     OW 1831   2.089   6.132   2.371
  311SOL    HW1 1832   2.077   6.113   2.469
  311SOL    HW2 1833   2.141   6.217   2.359
  312SOL     OW 1834   3.466   0.815   4.402
  312SOL    HW1 1835   3.515   0.891   4.445
  312SOL    HW2 1836   3.400   0.852   4.336
  313SOL     OW 1837   3.600   3.463   3.331
  313SOL    HW1 1838   3.603   3.563   3.332
  313SOL    HW2 1839   3.661   3.427   3.402
  314SOL     OW 1840   2.388   4.689   6.029
  314SOL    HW1 1841   2.329   4.609   6.018
  314SOL    HW2 1842   2.378   4.724   6.122
  315SOL     OW 1843   6.290   6.763   4.934
  315SOL    HW1 1844   6.271   6.730   4.842
  315SOL    HW2 1845   6.389   6.760   4.951
  316SOL     OW 1846   3.989   1.164   4.853
  316SOL    HW1 1847   3.957   1.197   4.942
  316SOL    HW2 1848   4.088   1.180   4.846
  317SOL     OW 1849   0.867   1.867   1.602
  317SOL    HW1 1850   0.946   1.921   1.631
  317SOL    HW2 1851   0.826   1.823   1.682
  318SOL     OW 1852   0.788   0.994   3.531
  318SOL    HW1 1853   0.827   0.989   3.624
  318SOL    HW2 1854   0.740   1.081   3.520
  319SOL     OW 1855   0.840   1.778   2.164
  319SOL    HW1 1856   0.883   1.806   2.249
  319SOL    HW2 1857   0.796   1.689   2.176
  320SOL     OW 1858   5.384   0.799   0.303
  320SOL    HW1 1859   5.446   0.724   0.280
  320SOL    HW2 1860   5.291   0.764   0.307
  321SOL     OW 1861   4.332   3.152   1.290
  321SOL    HW1 1862   4.268   3.183   1.360
  321SOL    HW2 1863   4.327   3.214   1.211
  322SOL     OW 1864   2.782   1.958   6.575
  322SOL    HW1 1865   2.732   2.042   6.598
  322SOL    HW2 1866   2.721   1.879   6.588
  323SOL     OW 1867   0.889   4.198   2.566
  323SOL    HW1 1868   0.895   4.143   2.649
  323SOL    HW2 1869   0.980   4.217   2.531
  324SOL     OW 1870   5.845   0.278   3.884
  324SOL    HW1 1871   5.888   0.273   3.794
  324SOL    HW2 1872   5.914   0.298   3.954
  325SOL     OW 1873   6.314   3.466   0.623
  325SOL    HW1 1874   6.365   3.442   0.540
  325SOL    HW2 1875   6.216   3.465   0.603
  326SOL     OW 1876   6.306   5.939   6.341
  326SOL    HW1 1877   6.252   5.877   6.285
  326SOL    HW2 1878   6.354   6.004   6.282
  327SOL     OW 1879   4.276   6.242   6.155
  327SOL    HW1 1880   4.212   6.170   6.132
  327SOL    HW2 1881   4.226   6.322   6.188
  328SOL     OW 1882   2.137   4.465   3.754
  328SOL    HW1 1883   2.123   4.486   3.851
  328SOL    HW2 1884   2.197   4.386   3.746
  329SOL     OW 1885   3.158   3.342   2.656
  329SOL    HW1 1886   3.115   3.265   2.609
  329SOL    HW2 1887   3.252   3.319   2.681
  330SOL     OW 1888   2.535   3.870   6.674
  330SOL    HW1 1889   2.530   3.938   6.747
  330SOL    HW2 1890   2.444   3.854   6.637
  331SOL     OW 1891   5.209   5.569   3.333
  331SOL    HW1 1892   5.151   5.487   3.337
  331SOL    HW2 1893   5.156   5.644   3.294
  332SOL     OW 1894   6.018   2.093   2.669
  332SOL    HW1 1895   6.048   2.085   2.764
  332SOL    HW2 1896   6.047   2.011   2.618
  333SOL     OW 1897   3.268   6.740   3.673
  333SOL    HW1 1898   3.324   6.803   3.619
  333SOL    HW2 1899   3.326   6.693   3.740
  334SOL     OW 1900   4.126   3.278   4.304
  334SOL    HW1 1901   4.084   3.190   4.283
  334SOL    HW2 1902   4.099   3.307   4.395
  335SOL     OW 1903   4.598   1.418   0.791
  335SOL    HW1 1904   4.570   1.427   0.887
  335SOL    HW2 1905   4.627   1.507   0.757
  336SOL     OW 1906   4.002   2.002   4.757
  336SOL    HW1 1907   4.053   2.049   4.829
  336SOL    HW2 1908   3.904   2.019   4.768
  337SOL     OW 1909   0.386   1.893   5.438
  337SOL    HW1 1910   0.307   1.853   5.391
  337SOL    HW2 1911   0.388   1.991   5.422
  338SOL     OW 1912   4.938   1.052   1.720
  338SOL    HW1 1913   4.855   1.032   1.667
  338SOL    HW2 1914   4.913   1.068   1.815
  339SOL     OW 1915   3.414   5.120   5.991
  339SOL    HW1 1916   3.323   5.134   6.032
  339SOL    HW2 1917   3.420   5.026   5.957
  340SOL     OW 1918   5.166   3.701   4.861
  340SOL    HW1 1919   5.097   3.727   4.794
  340SOL    HW2 1920   5.232   3.775   4.872
  341SOL     OW 1921   6.452   0.426   1.604
  341SOL    HW1 1922   6.530   0.488   1.597
  341SOL    HW2 1923   6.369   0.478   1.622
  342SOL     OW 1924   4.489   1.161   2.217
  342SOL    HW1 1925   4.428   1.231   2.181
  342SOL    HW2 1926   4.528   1.192   2.303
  343SOL     OW 1927   6.229   0.218   1.748
  343SOL    HW1 1928   6.229   0.302   1.694
  343SOL    HW2 1929   6.183   0.236   1.835
  344SOL     OW 1930   0.022   2.591   1.642
  344SOL    HW1 1931   0.015   2.537   1.559
  344SOL    HW2 1932   6.962   2.642   1.657
  345SOL     OW 1933   6.877   3.044   4.226
  345SOL    HW1 1934   6.795   3.034   4.171
  345SOL    HW2 1935   6.864   2.997   4.314
  346SOL     OW 1936   1.146   6.296   2.402
  346SOL    HW1 1937   1.092   6.380   2.412
  346SOL    HW2 1938   1.232   6.317   2.355
  347SOL     OW 1939   1.705   4.456   1.482
  347SOL    HW1 1940   1.781   4.442   1.419
  347SOL    HW2 1941   1.695   4.376   1.541
  348SOL     OW 1942   5.552   4.353   1.366
  348SOL    HW1 1943   5.642   4.322   1.398
  348SOL    HW2 1944   5.485   4.342   1.439
  349SOL     OW 1945   6.124   5.120   0.475
  349SOL    HW1 1946   6.062   5.115   0.553
  349SOL    HW2 1947   6.180   5.037   0.471
  350SOL     OW 1948   2.436   0.900   1.173
  350SOL    HW1 1949   2.403   0.850   1.092
  350SOL    HW2 1950   2.499   0.972   1.144
  351SOL     OW 1951   3.495   4.200   1.126
  351SOL    HW1 1952   3.459   4.111   1.157
  351SOL    HW2 1953   3.545   4.187   1.041
  352SOL     OW 1954   4.037   0.541   2.175
  352SOL    HW1 1955   4.067   0.549   2.270
  352SOL    HW2 1956   4.009   0.631   2.141
  353SOL     OW 1957   2.619   5.975   0.343
  353SOL    HW1 1958   2.679   6.003   0.418
  353SOL    HW2 1959   2.524   5.977   0.373
  354SOL     OW 1960   2.166   1.952   0.550
  354SOL    HW1 1961   2.084   2.008   0.563
  354SOL    HW2 1962   2.218   1.949   0.635
  355SOL     OW 1963   0.218   2.631   3.229
  355SOL    HW1 1964   0.286   2.686   3.179
  355SOL    HW2 1965   0.164   2.578   3.164
  356SOL     OW 1966   2.727   0.316   5.804
  356SOL    HW1 1967   2.690   0.266   5.726
  356SOL    HW2 1968   2.763   0.404   5.773
  357SOL     OW 1969   5.872   5.382   4.353
  357SOL    HW1 1970   5.946   5.331   4.309
  357SOL    HW2 1971   5.831   5.445   4.287
  358SOL     OW 1972   3.251   6.359   6.869
  358SOL    HW1 1973   3.196   6.381   6.950
  358SOL    HW2 1974   3.270   6.261   6.867
  359SOL     OW 1975   1.972   2.921   1.508
  359SOL    HW1 1976   2.017   2.991   1.563
  359SOL    HW2 1977   1.906   2.965   1.447
  360SOL     OW 1978   2.092   4.085   3.220
  360SOL    HW1 1979   2.184   4.122   3.210
  360SOL    HW2 1980   2.061   4.050   3.132
  361SOL     OW 1981   6.827   2.916   2.915
  361SOL    HW1 1982   6.820   2.827   2.961
  361SOL    HW2 1983   6.812   2.989   2.981
  362SOL     OW 1984   4.046   3.260   2.914
  362SOL    HW1 1985   3.969   3.322   2.901
  362SOL    HW2 1986   4.067   3.215   2.827
  363SOL     OW 1987   4.766   4.678   0.431
  363SOL    HW1 1988   4.850   4.725   0.404
  363SOL    HW2 1989   4.720   4.642   0.350
  364SOL     OW 1990   0.963   0.446   6.937
  364SOL    HW1 1991   0.965   0.530   6.883
  364SOL    HW2 1992   1.052   0.400   6.931
  365SOL     OW 1993   4.883   0.549   4.160
  365SOL    HW1 1994   4.958   0.483   4.157
  365SOL    HW2 1995   4.800   0.507   4.124
  366SOL     OW 1996   5.075   2.256   0.448
  366SOL    HW1 1997   5.168   2.245   0.413
  366SOL    HW2 1998   5.058   2.188   0.519
  367SOL     OW 1999   5.878   0.913   0.409
  367SOL    HW1 2000   5.849   0.967   0.329
  367SOL    HW2 2001   5.802   0.859   0.442
  368SOL     OW 2002   3.263   1.438   5.658
  368SOL    HW1 2003   3.283   1.485   5.745
  368SOL    HW2 2004   3.241   1.506   5.588
  369SOL     OW 2005   5.134   4.099   0.105
  369SOL    HW1 2006   5.107   4.147   0.021
  369SOL    HW2 2007   5.233   4.086   0.106
  370SOL     OW 2008   1.934   2.400   3.775
  370SOL    HW1 2009   1.963   2.383   3.869
  370SOL    HW2 2010   1.981   2.481   3.739
  371SOL     OW 2011   2.456   5.125   0.386
  371SOL    HW1 2012   2.359   5.151   0.395
  371SOL    HW2 2013   2.500   5.128   0.476
  372SOL     OW 2014   2.622   6.016   6.134
  372SOL    HW1 2015   2.638   6.012   6.035
  372SOL    HW2 2016   2.524   6.004   6.152
  373SOL     OW 2017   5.478   4.952   2.714
  373SOL    HW1 2018   5.460   4.981   2.809
  373SOL    HW2 2019   5.407   4.990   2.654
  374SOL     OW 2020   2.621   2.367   1.965
  374SOL    HW1 2021   2.593   2.431   1.893
  374SOL    HW2 2022   2.721   2.369   1.974
  375SOL     OW 2023   6.812   5.981   3.993
  375SOL    HW1 2024   6.731   6.036   4.014
  375SOL    HW2 2025   6.883   6.039   3.954
  376SOL     OW 2026   4.190   0.450   3.743
  376SOL    HW1 2027   4.098   0.441   3.781
  376SOL    HW2 2028   4.210   0.370   3.686
  377SOL     OW 2029   2.988   2.951   5.999
  377SOL    HW1 2030   3.045   3.017   5.950
  377SOL    HW2 2031   2.901   2.940   5.952
  378SOL     OW 2032   4.009   1.183   1.891
  378SOL    HW1 2033   4.086   1.247   1.889
  378SOL    HW2 2034   3.961   1.191   1.978
  379SOL     OW 2035   3.667   3.117   6.813
  379SOL    HW1 2036   3.696   3.035   6.864
  379SOL    HW2 2037   3.618   3.089   6.731
  380SOL     OW 2038   4.805   2.052   0.528
  380SOL    HW1 2039   4.804   2.121   0.456
  380SOL    HW2 2040   4.897   2.045   0.567
  381SOL     OW 2041   1.314   3.334   2.384
  381SOL    HW1 2042   1.226   3.340   2.430
  381SOL    HW2 2043   1.300   3.335   2.285
  382SOL     OW 2044   6.589   0.119   0.084
  382SOL    HW1 2045   6.580   0.203   0.138
  382SOL    HW2 2046   6.599   0.143   7.011
  383SOL     OW 2047   4.912   3.196   0.539
  383SOL    HW1 2048   4.960   3.191   0.451
  383SOL    HW2 2049   4.840   3.265   0.533
  384SOL     OW 2050   1.012   2.652   4.964
  384SOL    HW1 2051   1.090   2.621   5.018
  384SOL    HW2 2052   0.985   2.580   4.900
  385SOL     OW 2053   4.677   2.651   6.148
  385SOL    HW1 2054   4.693   2.666   6.246
  385SOL    HW2 2055   4.642   2.735   6.107
  386SOL     OW 2056   3.508   6.279   4.978
  386SOL    HW1 2057   3.428   6.339   4.985
  386SOL    HW2 2058   3.590   6.334   4.960
  387SOL     OW 2059   2.437   6.553   3.900
  387SOL    HW1 2060   2.456   6.543   3.997
  387SOL    HW2 2061   2.349   6.511   3.878
  388SOL     OW 2062   1.472   5.196   5.974
  388SOL    HW1 2063   1.506   5.190   5.880
  388SOL    HW2 2064   1.431   5.286   5.988
  389SOL     OW 2065   2.819   2.358   0.601
  389SOL    HW1 2066   2.814   2.418   0.521
  389SOL    HW2 2067   2.770   2.400   0.677
  390SOL     OW 2068   2.877   1.817   3.983
  390SOL    HW1 2069   2.807   1.745   3.986
  390SOL    HW2 2070   2.840   1.897   3.937
  391SOL     OW 2071   0.741   1.949   0.402
  391SOL    HW1 2072   0.682   1.933   0.323
  391SOL    HW2 2073   0.764   2.047   0.407
  392SOL     OW 2074   3.752   5.247   4.812
  392SOL    HW1 2075   3.706   5.298   4.740
  392SOL    HW2 2076   3.704   5.260   4.899
  393SOL     OW 2077   6.029   3.358   5.318
  393SOL    HW1 2078   5.968   3.305   5.377
  393SOL    HW2 2079   5.997   3.452   5.312
  394SOL     OW 2080   1.794   0.984   6.298
  394SOL    HW1 2081   1.745   1.034   6.370
  394SOL    HW2 2082   1.762   1.014   6.208
  395SOL     OW 2083   0.011   3.041   1.653
  395SOL    HW1 2084   0.072   3.121   1.651
  395SOL    HW2 2085   0.056   2.966   1.701
  396SOL     OW 2086   3.546   2.405   5.541
  396SOL    HW1 2087   3.608   2.465   5.592
  396SOL    HW2 2088   3.453   2.418   5.573
  397SOL     OW 2089   4.468   0.402   6.202
  397SOL    HW1 2090   4.394   0.336   6.188
  397SOL    HW2 2091   4.486   0.450   6.116
  398SOL     OW 2092   6.850   4.772   2.610
  398SOL    HW1 2093   6.881   4.712   2.536
  398SOL    HW2 2094   6.755   4.749   2.633
  399SOL     OW 2095   4.385   5.209   1.948
  399SOL    HW1 2096   4.334   5.127   1.975
  399SOL    HW2 2097   4.321   5.276   1.909
  400SOL     OW 2098   2.268   5.195   5.368
  400SOL    HW1 2099   2.338   5.243   5.420
  400SOL    HW2 2100   2.305   5.167   5.280
  401SOL     OW 2101   6.363   1.567   1.508
  401SOL    HW1 2102   6.426   1.609   1.574
  401SOL    HW2 2103   6.311   1.639   1.462
  402SOL     OW 2104   0.487   5.424   0.876
  402SOL    HW1 2105   0.422   5.456   0.807
  402SOL    HW2 2106   0.579   5.424   0.837
  403SOL     OW 2107   4.783   4.404   0.672
  403SOL    HW1 2108   4.807   4.487   0.723
  403SOL    HW2 2109   4.692   4.372   0.700
  404SOL     OW 2110   0.042   5.957   4.949
  404SOL    HW1 2111   0.112   5.917   4.889
  404SOL    HW2 2112   7.004   5.885   4.979
  405SOL     OW 2113   1.423   1.871   1.207
  405SOL    HW1 2114   1.458   1.782   1.238
  405SOL    HW2 2115   1.348   1.900   1.266
  406SOL     OW 2116   0.570   2.683   3.360
  406SOL    HW1 2117   0.583   2.623   3.281
  406SOL    HW2 2118   0.537   2.772   3.329
  407SOL     OW 2119   3.650   2.096   3.759
  407SOL    HW1 2120   3.563   2.109   3.712
  407SOL    HW2 2121   3.639   2.116   3.857
  408SOL     OW 2122   2.864   0.294   4.055
  408SOL    HW1 2123   2.771   0.322   4.079
  408SOL    HW2 2124   2.890   0.333   3.967
  409SOL     OW 2125   7.003   4.387   4.011
  409SOL    HW1 2126   7.009   4.433   3.923
  409SOL    HW2 2127   0.070   4.375   4.049
  410SOL     OW 2128   2.741   6.787   6.128
  410SOL    HW1 2129   2.812   6.781   6.198
  410SOL    HW2 2130   2.732   6.883   6.099
  411SOL     OW 2131   0.231   4.110   5.433
  411SOL    HW1 2132   0.324   4.109   5.469
  411SOL    HW2 2133   0.167   4.087   5.507
  412SOL     OW 2134   3.684   6.517   2.126
  412SOL    HW1 2135   3.671   6.424   2.092
  412SOL    HW2 2136   3.731   6.571   2.057
  413SOL     OW 2137   2.163   0.899   2.455
  413SOL    HW1 2138   2.083   0.934   2.503
  413SOL    HW2 2139   2.137   0.816   2.405
  414SOL     OW 2140   5.046   4.822   0.997
  414SOL    HW1 2141   5.001   4.740   0.960
  414SOL    HW2 2142   5.131   4.795   1.043
  415SOL     OW 2143   4.157   0.323   2.565
  415SOL    HW1 2144   4.228   0.285   2.506
  415SOL    HW2 2145   4.201   0.369   2.643
  416SOL     OW 2146   4.118   5.886   0.106
  416SOL    HW1 2147   4.145   5.799   0.148
  416SOL    HW2 2148   4.101   5.953   0.178
  417SOL     OW 2149   5.435   5.091   1.164
  417SOL    HW1 2150   5.460   5.119   1.071
  417SOL    HW2 2151   5.419   5.172   1.220
  418SOL     OW 2152   6.854   5.064   6.501
  418SOL    HW1 2153   6.894   4.986   6.550
  418SOL    HW2 2154   6.825   5.034   6.410
  419SOL     OW 2155   5.061   5.491   0.067
  419SOL    HW1 2156   5.041   5.464   0.161
  419SOL    HW2 2157   5.156   5.520   0.060
  420SOL     OW 2158   4.822   3.869   6.335
  420SOL    HW1 2159   4.749   3.834   6.393
  420SOL    HW2 2160   4.815   3.828   6.244
  421SOL     OW 2161   1.772   6.065   6.824
  421SOL    HW1 2162   1.785   6.030   6.732
  421SOL    HW2 2163   1.713   6.146   6.821
  422SOL     OW 2164   6.392   3.926   6.711
  422SOL    HW1 2165   6.381   3.986   6.632
  422SOL    HW2 2166   6.430   3.838   6.680
  423SOL     OW 2167   0.981   3.730   6.468
  423SOL    HW1 2168   0.991   3.748   6.565
  423SOL    HW2 2169   0.910   3.790   6.430
  424SOL     OW 2170   1.727   4.279   6.221
  424SOL    HW1 2171   1.685   4.259   6.132
  424SOL    HW2 2172   1.779   4.364   6.215
  425SOL     OW 2173   3.432   0.434   0.660
  425SOL    HW1 2174   3.409   0.337   0.654
  425SOL    HW2 2175   3.487   0.450   0.742
  426SOL     OW 2176   0.275   4.019   6.841
  426SOL    HW1 2177   0.369   4.009   6.874
  426SOL    HW2 2178   0.240   4.109   6.865
  427SOL     OW 2179   3.597   3.442   6.826
  427SOL    HW1 2180   3.687   3.457   6.786
  427SOL    HW2 2181   3.572   3.346   6.819
  428SOL     OW 2182   4.238   1.448   4.843
  428SOL    HW1 2183   4.324   1.497   4.855
  428SOL    HW2 2184   4.165   1.514   4.821
  429SOL     OW 2185   3.061   6.676   0.334
  429SOL    HW1 2186   3.102   6.741   0.270
  429SOL    HW2 2187   2.961   6.676   0.324
  430SOL     OW 2188   3.123   0.659   4.609
  430SOL    HW1 2189   3.104   0.714   4.528
  430SOL    HW2 2190   3.082   0.569   4.600
  431SOL     OW 2191   4.021   0.886   0.171
  431SOL    HW1 2192   4.091   0.879   0.243
  431SOL    HW2 2193   4.026   0.975   0.127
  432SOL     OW 2194   6.715   1.367   0.903
  432SOL    HW1 2195   6.662   1.381   0.987
  432SOL    HW2 2196   6.754   1.275   0.903
  433SOL     OW 2197   3.287   6.445   4.990
  433SOL    HW1 2198   3.301   6.477   5.083
  433SOL    HW2 2199   3.213   6.378   4.988
  434SOL     OW 2200   6.328   3.704   0.777
  434SOL    HW1 2201   6.300   3.679   0.870
  434SOL    HW2 2202   6.304   3.630   0.714
  435SOL     OW 2203   3.780   3.709   0.828
  435SOL    HW1 2204   3.737   3.771   0.762
  435SOL    HW2 2205   3.723   3.703   0.910
  436SOL     OW 2206   3.514   1.049   0.514
  436SOL    HW1 2207   3.568   1.120   0.470
  436SOL    HW2 2208   3.511   0.968   0.456
  437SOL     OW 2209   6.961   6.592   6.139
  437SOL    HW1 2210   6.944   6.688   6.164
  437SOL    HW2 2211   6.881   6.555   6.093
  438SOL     OW 2212   1.246   3.144   0.917
  438SOL    HW1 2213   1.165   3.148   0.974
  438SOL    HW2 2214   1.278   3.237   0.898
  439SOL     OW 2215   6.411   5.374   1.615
  439SOL    HW1 2216   6.485   5.396   1.551
  439SOL    HW2 2217   6.416   5.277   1.640
  440SOL     OW 2218   1.643   2.855   3.004
  440SOL    HW1 2219   1.707   2.927   2.978
  440SOL    HW2 2220   1.670   2.816   3.092
  441SOL     OW 2221   0.093   1.414   3.188
  441SOL    HW1 2222   0.135   1.489   3.136
  441SOL    HW2 2223   0.150   1.332   3.180
  442SOL     OW 2224   0.417   5.148   6.183
  442SOL    HW1 2225   0.331   5.195   6.164
  442SOL    HW2 2226   0.473   5.148   6.100
  443SOL     OW 2227   0.579   4.731   5.673
  443SOL    HW1 2228   0.512   4.688   5.733
  443SOL    HW2 2229   0.665   4.681   5.678
  444SOL     OW 2230   5.156   2.869   6.722
  444SOL    HW1 2231   5.194   2.945   6.775
  444SOL    HW2 2232   5.107   2.904   6.643
  445SOL     OW 2233   0.878   3.829   3.500
  445SOL    HW1 2234   0.933   3.888   3.558
  445SOL    HW2 2235   0.906   3.839   3.405
  446SOL     OW 2236   2.165   5.088   4.177
  446SOL    HW1 2237   2.124   5.003   4.146
  446SOL    HW2 2238   2.168   5.153   4.100
  447SOL     OW 2239   0.155   5.853   0.640
  447SOL    HW1 2240   0.108   5.793   0.575
  447SOL    HW2 2241   0.232   5.804   0.680
  448SOL     OW 2242   4.427   0.259   5.827
  448SOL    HW1 2243   4.462   0.262   5.734
  448SOL    HW2 2244   4.414   0.164   5.855
  449SOL     OW 2245   5.106   0.518   4.407
  449SOL    HW1 2246   5.104   0.475   4.317
  449SOL    HW2 2247   5.030   0.482   4.462
  450SOL     OW 2248   6.713   6.783   2.622
  450SOL    HW1 2249   6.623   6.739   2.617
  450SOL    HW2 2250   6.782   6.723   2.583
  451SOL     OW 2251   6.512   3.615   4.079
  451SOL    HW1 2252   6.515   3.712   4.103
  451SOL    HW2 2253   6.482   3.562   4.158
  452SOL     OW 2254   6.714   5.328   5.921
  452SOL    HW1 2255   6.673   5.301   6.008
  452SOL    HW2 2256   6.811   5.304   5.921
  453SOL     OW 2257   3.597   1.730   6.153
  453SOL    HW1 2258   3.635   1.729   6.245
  453SOL    HW2 2259   3.632   1.651   6.101
  454SOL     OW 2260   1.056   6.237   0.594
  454SOL    HW1 2261   0.977   6.187   0.560
  454SOL    HW2 2262   1.030   6.287   0.677
  455SOL     OW 2263   5.384   0.705   5.171
  455SOL    HW1 2264   5.402   0.647   5.092
  455SOL    HW2 2265   5.288   0.736   5.168
  456SOL     OW 2266   4.016   4.659   0.053
  456SOL    HW1 2267   3.992   4.667   6.980
  456SOL    HW2 2268   3.933   4.664   0.108
  457SOL     OW 2269   0.774   4.669   1.847
  457SOL    HW1 2270   0.790   4.574   1.873
  457SOL    HW2 2271   0.858   4.722   1.859
  458SOL     OW 2272   0.543   5.749   5.224
  458SOL    HW1 2273   0.554   5.694   5.142
  458SOL    HW2 2274   0.601   5.830   5.219
  459SOL     OW 2275   1.714   0.515   3.298
  459SOL    HW1 2276   1.667   0.597   3.265
  459SOL    HW2 2277   1.653   0.436   3.289
  460SOL     OW 2278   6.507   2.272   3.711
  460SOL    HW1 2279   6.569   2.332   3.661
  460SOL    HW2 2280   6.466   2.205   3.649
  461SOL     OW 2281   5.687   5.020   5.550
  461SOL    HW1 2282   5.733   4.938   5.584
  461SOL    HW2 2283   5.631   4.996   5.471
  462SOL     OW 2284   3.149   1.901   0.042
  462SOL    HW1 2285   3.070   1.921   7.009
  462SOL    HW2 2286   3.211   1.979   0.041
  463SOL     OW 2287   6.486   5.993   2.252
  463SOL    HW1 2288   6.434   6.065   2.207
  463SOL    HW2 2289   6.464   5.904   2.211
  464SOL     OW 2290   1.725   1.209   5.977
  464SOL    HW1 2291   1.720   1.223   5.878
  464SOL    HW2 2292   1.781   1.128   5.997
  465SOL     OW 2293   0.107   3.374   6.263
  465SOL    HW1 2294   0.029   3.312   6.269
  465SOL    HW2 2295   0.192   3.321   6.273
  466SOL     OW 2296   2.252   0.476   3.118
  466SOL    HW1 2297   2.261   0.378   3.138
  466SOL    HW2 2298   2.197   0.519   3.190
  467SOL     OW 2299   1.816   1.596   5.536
  467SOL    HW1 2300   1.882   1.534   5.578
  467SOL    HW2 2301   1.852   1.689   5.538
  468SOL     OW 2302   3.210   3.639   2.671
  468SOL    HW1 2303   3.165   3.549   2.674
  468SOL    HW2 2304   3.220   3.667   2.575
  469SOL     OW 2305   3.559   6.659   0.111
  469SOL    HW1 2306   3.515   6.570   0.107
  469SOL    HW2 2307   3.642   6.654   0.166
  470SOL     OW 2308   4.558   6.898   3.374
  470SOL    HW1 2309   4.620   6.972   3.346
  470SOL    HW2 2310   4.544   6.835   3.298
  471SOL     OW 2311   2.748   2.309   4.166
  471SOL    HW1 2312   2.761   2.369   4.245
  471SOL    HW2 2313   2.818   2.238   4.166
  472SOL     OW 2314   3.775   4.406   5.573
  472SOL    HW1 2315   3.734   4.318   5.596
  472SOL    HW2 2316   3.874   4.401   5.586
  473SOL     OW 2317   0.661   4.517   3.928
  473SOL    HW1 2318   0.737   4.537   3.989
  473SOL    HW2 2319   0.578   4.560   3.962
  474SOL     OW 2320   4.929   4.306   5.162
  474SOL    HW1 2321   4.965   4.329   5.252
  474SOL    HW2 2322   4.900   4.390   5.116
  475SOL     OW 2323   2.192   6.203   6.901
  475SOL    HW1 2324   2.218   6.298   6.917
  475SOL    HW2 2325   2.167   6.159   6.988
  476SOL     OW 2326   0.004   5.786   2.841
  476SOL    HW1 2327   0.050   5.837   2.914
  476SOL    HW2 2328   0.048   5.697   2.830
  477SOL     OW 2329   2.296   4.747   4.023
  477SOL    HW1 2330   2.204   4.786   4.032
  477SOL    HW2 2331   2.361   4.821   4.006
  478SOL     OW 2332   1.188   5.535   3.093
  478SOL    HW1 2333   1.176   5.635   3.097
  478SOL    HW2 2334   1.260   5.513   3.028
  479SOL     OW 2335   3.967   1.811   1.356
  479SOL    HW1 2336   4.041   1.795   1.422
  479SOL    HW2 2337   3.919   1.895   1.380
  480SOL     OW 2338   1.527   6.648   3.426
  480SOL    HW1 2339   1.546   6.689   3.337
  480SOL    HW2 2340   1.605   6.661   3.486
  481SOL     OW 2341   2.319   6.908   0.965
  481SOL    HW1 2342   2.282   6.981   0.907
  481SOL    HW2 2343   2.403   6.872   0.923
  482SOL     OW 2344   5.704   5.328   0.531
  482SOL    HW1 2345   5.735   5.251   0.587
  482SOL    HW2 2346   5.714   5.413   0.583
  483SOL     OW 2347   5.917   2.352   2.712
  483SOL    HW1 2348   5.941   2.270   2.660
  483SOL    HW2 2349   5.819   2.353   2.730
  484SOL     OW 2350   6.401   2.062   4.241
  484SOL    HW1 2351   6.326   2.029   4.183
  484SOL    HW2 2352   6.476   2.094   4.183
  485SOL     OW 2353   3.375   6.423   1.348
  485SOL    HW1 2354   3.412   6.413   1.441
  485SOL    HW2 2355   3.366   6.332   1.306
  486SOL     OW 2356   0.296   0.821   5.815
  486SOL    HW1 2357   0.285   0.739   5.759
  486SOL    HW2 2358   0.378   0.812   5.873
  487SOL     OW 2359   6.573   3.042   6.371
  487SOL    HW1 2360   6.641   3.064   6.441
  487SOL    HW2 2361   6.482   3.050   6.411
  488SOL     OW 2362   0.992   4.515   2.264
  488SOL    HW1 2363   0.966   4.419   2.250
  488SOL    HW2 2364   1.088   4.527   2.241
  489SOL     OW 2365   3.625   5.754   6.425
  489SOL    HW1 2366   3.639   5.788   6.518
  489SOL    HW2 2367   3.540   5.791   6.388
  490SOL     OW 2368   4.911   0.348   4.543
  490SOL    HW1 2369   4.880   0.385   4.630
  490SOL    HW2 2370   4.836   0.350   4.477
  491SOL     OW 2371   0.599   2.290   3.421
  491SOL    HW1 2372   0.681   2.331   3.381
  491SOL    HW2 2373   0.518   2.344   3.395
  492SOL     OW 2374   1.433   1.449   4.554
  492SOL    HW1 2375   1.497   1.376   4.530
  492SOL    HW2 2376   1.482   1.536   4.563
  493SOL     OW 2377   6.870   4.013   4.460
  493SOL    HW1 2378   6.832   4.029   4.369
  493SOL    HW2 2379   6.847   3.919   4.489
  494SOL     OW 2380   6.249   1.278   6.698
  494SOL    HW1 2381   6.312   1.224   6.754
  494SOL    HW2 2382   6.281   1.279   6.604
  495SOL     OW 2383   4.941   4.557   0.180
  495SOL    HW1 2384   5.003   4.636   0.190
  495SOL    HW2 2385   4.987   4.475   0.215
  496SOL     OW 2386   5.342   3.729   3.017
  496SOL    HW1 2387   5.293   3.643   3.006
  496SOL    HW2 2388   5.390   3.728   3.105
  497SOL     OW 2389   4.089   6.762   3.826
  497SOL    HW1 2390   4.034   6.835   3.865
  497SOL    HW2 2391   4.085   6.681   3.885
  498SOL     OW 2392   1.410   2.534   1.720
  498SOL    HW1 2393   1.431   2.619   1.767
  498SOL    HW2 2394   1.389   2.553   1.624
  499SOL     OW 2395   3.482   1.199   5.208
  499SOL    HW1 2396   3.387   1.231   5.218
  499SOL    HW2 2397   3.496   1.119   5.266
  500SOL     OW 2398   1.754   4.352   2.747
  500SOL    HW1 2399   1.741   4.394   2.657
  500SOL    HW2 2400   1.671   4.362   2.801
  501SOL     OW 2401   0.932   5.383   6.787
  501SOL    HW1 2402   0.855   5.438   6.820
  501SOL    HW2 2403   0.968   5.327   6.862
  502SOL     OW 2404   2.731   5.088   6.507
  502SOL    HW1 2405   2.818   5.066   6.464
  502SOL    HW2 2406   2.734   5.182   6.542
  503SOL     OW 2407   6.303   5.347   4.595
  503SOL    HW1 2408   6.301   5.272   4.661
  503SOL    HW2 2409   6.331   5.431   4.641
  504SOL     OW 2410   1.735   5.721   4.949
  504SOL    HW1 2411   1.702   5.627   4.936
  504SOL    HW2 2412   1.831   5.727   4.923
  505SOL     OW 2413   3.551   6.710   5.042
  505SOL    HW1 2414   3.561   6.650   5.121
  505SOL    HW2 2415   3.510   6.796   5.070
  506SOL     OW 2416   1.780   3.330   0.501
  506SOL    HW1 2417   1.693   3.282   0.487
  506SOL    HW2 2418   1.854   3.263   0.504
  507SOL     OW 2419   3.949   2.162   4.071
  507SOL    HW1 2420   3.899   2.098   4.130
  507SOL    HW2 2421   4.005   2.223   4.127
  508SOL     OW 2422   6.368   5.165   4.149
  508SOL    HW1 2423   6.410   5.229   4.085
  508SOL    HW2 2424   6.321   5.093   4.098
  509SOL     OW 2425   4.285   3.244   0.852
  509SOL    HW1 2426   4.366   3.271   0.801
  509SOL    HW2 2427   4.204   3.256   0.795
  510SOL     OW 2428   1.007   4.171   4.634
  510SOL    HW1 2429   1.032   4.235   4.561
  510SOL    HW2 2430   0.920   4.128   4.613
  511SOL     OW 2431   0.637   6.564   1.263
  511SOL    HW1 2432   0.685   6.595   1.180
  511SOL    HW2 2433   0.553   6.517   1.237
  512SOL     OW 2434   1.206   3.640   6.357
  512SOL    HW1 2435   1.229   3.720   6.302
  512SOL    HW2 2436   1.115   3.652   6.396
  513SOL     OW 2437   1.181   5.085   4.110
  513SOL    HW1 2438   1.263   5.125   4.152
  513SOL    HW2 2439   1.161   5.133   4.025
  514SOL     OW 2440   5.731   1.933   3.041
  514SOL    HW1 2441   5.782   1.990   3.105
  514SOL    HW2 2442   5.795   1.890   2.977
  515SOL     OW 2443   2.374   5.480   0.111
  515SOL    HW1 2444   2.338   5.557   0.163
  515SOL    HW2 2445   2.471   5.467   0.132
  516SOL     OW 2446   1.193   4.828   3.625
  516SOL    HW1 2447   1.205   4.838   3.526
  516SOL    HW2 2448   1.096   4.830   3.647
  517SOL     OW 2449   4.647   0.752   6.574
  517SOL    HW1 2450   4.744   0.772   6.590
  517SOL    HW2 2451   4.617   0.680   6.636
  518SOL     OW 2452   2.625   1.680   0.555
  518SOL    HW1 2453   2.599   1.656   0.648
  518SOL    HW2 2454   2.569   1.628   0.491
  519SOL     OW 2455   0.780   6.757   0.621
  519SOL    HW1 2456   0.838   6.701   0.682
  519SOL    HW2 2457   0.693   6.775   0.666
  520SOL     OW 2458   5.797   4.530   4.281
  520SOL    HW1 2459   5.706   4.540   4.242
  520SOL    HW2 2460   5.840   4.620   4.289
  521SOL     OW 2461   6.675   0.403   0.386
  521SOL    HW1 2462   6.637   0.472   0.448
  521SOL    HW2 2463   6.752   0.357   0.429
  522SOL     OW 2464   3.405   3.757   5.714
  522SOL    HW1 2465   3.419   3.784   5.809
  522SOL    HW2 2466   3.340   3.681   5.710
  523SOL     OW 2467   6.375   6.788   3.748
  523SOL    HW1 2468   6.340   6.702   3.712
  523SOL    HW2 2469   6.331   6.864   3.700
  524SOL     OW 2470   4.049   0.594   5.432
  524SOL    HW1 2471   3.964   0.646   5.438
  524SOL    HW2 2472   4.030   0.497   5.451
  525SOL     OW 2473   2.702   2.417   0.303
  525SOL    HW1 2474   2.737   2.331   0.267
  525SOL    HW2 2475   2.604   2.424   0.284
  526SOL     OW 2476   4.795   5.687   4.434
  526SOL    HW1 2477   4.728   5.758   4.412
  526SOL    HW2 2478   4.868   5.727   4.489
  527SOL     OW 2479   6.903   1.855   0.176
  527SOL    HW1 2480   6.937   1.863   0.270
  527SOL    HW2 2481   6.967   1.898   0.113
  528SOL     OW 2482   1.706   1.230   5.708
  528SOL    HW1 2483   1.801   1.241   5.679
  528SOL    HW2 2484   1.678   1.135   5.694
  529SOL     OW 2485   6.908   5.177   4.093
  529SOL    HW1 2486   6.993   5.229   4.083
  529SOL    HW2 2487   6.846   5.226   4.154
  530SOL     OW 2488   0.141   3.058   5.232
  530SOL    HW1 2489   0.059   3.076   5.178
  530SOL    HW2 2490   0.138   2.965   5.267
  531SOL     OW 2491   6.887   0.926   0.200
  531SOL    HW1 2492   6.940   0.903   0.119
  531SOL    HW2 2493   6.816   0.993   0.176
  532SOL     OW 2494   2.087   0.621   5.843
  532SOL    HW1 2495   2.089   0.521   5.837
  532SOL    HW2 2496   2.180   0.656   5.842
  533SOL     OW 2497   4.721   0.410   4.990
  533SOL    HW1 2498   4.629   0.449   5.000
  533SOL    HW2 2499   4.724   0.352   4.908
  534SOL     OW 2500   3.306   5.373   3.067
  534SOL    HW1 2501   3.225   5.394   3.123
  534SOL    HW2 2502   3.278   5.316   2.989
  535SOL     OW 2503   5.931   3.776   1.993
  535SOL    HW1 2504   5.998   3.821   1.934
  535SOL    HW2 2505   5.931   3.678   1.975
  536SOL     OW 2506   1.359   6.266   1.181
  536SOL    HW1 2507   1.330   6.315   1.098
  536SOL    HW2 2508   1.335   6.320   1.261
  537SOL     OW 2509   2.058   6.966   3.460
  537SOL    HW1 2510   2.134   6.913   3.499
  537SOL    HW2 2511   1.972   6.934   3.500
  538SOL     OW 2512   1.786   4.882   4.234
  538SOL    HW1 2513   1.708   4.905   4.293
  538SOL    HW2 2514   1.760   4.896   4.138
  539SOL     OW 2515   1.276   5.497   1.128
  539SOL    HW1 2516   1.235   5.456   1.046
  539SOL    HW2 2517   1.223   5.471   1.208
  540SOL     OW 2518   1.875   3.062   1.057
  540SOL    HW1 2519   1.892   3.141   0.999
  540SOL    HW2 2520   1.892   2.978   1.006
  541SOL     OW 2521   4.264   5.368   5.067
  541SOL    HW1 2522   4.168   5.341   5.073
  541SOL    HW2 2523   4.302   5.379   5.159
  542SOL     OW 2524   5.910   6.738   6.290
  542SOL    HW1 2525   5.817   6.762   6.259
  542SOL    HW2 2526   5.930   6.785   6.376
  543SOL     OW 2527   5.942   6.969   1.218
  543SOL    HW1 2528   5.991   6.922   1.144
  543SOL    HW2 2529   5.993   0.027   1.244
  544SOL     OW 2530   0.641   5.494   0.389
  544SOL    HW1 2531   0.611   5.430   0.460
  544SOL    HW2 2532   0.681   5.443   0.313
  545SOL     OW 2533   3.403   1.656   3.607
  545SOL    HW1 2534   3.404   1.578   3.670
  545SOL    HW2 2535   3.387   1.623   3.514
  546SOL     OW 2536   2.206   2.014   0.282
  546SOL    HW1 2537   2.223   2.027   0.379
  546SOL    HW2 2538   2.286   1.972   0.239
  547SOL     OW 2539   3.164   1.433   0.178
  547SOL    HW1 2540   3.148   1.529   0.201
  547SOL    HW2 2541   3.190   1.425   0.082
  548SOL     OW 2542   3.381   3.600   5.302
  548SOL    HW1 2543   3.446   3.593   5.378
  548SOL    HW2 2544   3.312   3.669   5.322
  549SOL     OW 2545   0.457   4.155   0.935
  549SOL    HW1 2546   0.359   4.174   0.940
  549SOL    HW2 2547   0.507   4.223   0.989
  550SOL     OW 2548   6.757   3.565   0.395
  550SOL    HW1 2549   6.835   3.546   0.336
  550SOL    HW2 2550   6.772   3.522   0.484
  551SOL     OW 2551   0.001   1.239   0.157
  551SOL    HW1 2552   6.926   1.231   0.167
  551SOL    HW2 2553   0.044   1.236   0.247
  552SOL     OW 2554   4.879   4.635   0.825
  552SOL    HW1 2555   4.813   4.681   0.766
  552SOL    HW2 2556   4.855   4.650   0.921
  553SOL     OW 2557   1.090   2.352   1.536
  553SOL    HW1 2558   1.000   2.311   1.524
  553SOL    HW2 2559   1.099   2.386   1.629
  554SOL     OW 2560   4.260   5.024   4.491
  554SOL    HW1 2561   4.170   4.999   4.525
  554SOL    HW2 2562   4.262   5.018   4.391
  555SOL     OW 2563   1.595   4.575   5.435
  555SOL    HW1 2564   1.678   4.539   5.392
  555SOL    HW2 2565   1.515   4.535   5.391
  556SOL     OW 2566   6.071   4.117   2.811
  556SOL    HW1 2567   5.979   4.131   2.772
  556SOL    HW2 2568   6.084   4.178   2.889
  557SOL     OW 2569   6.520   5.716   5.646
  557SOL    HW1 2570   6.466   5.632   5.646
  557SOL    HW2 2571   6.494   5.772   5.724
  558SOL     OW 2572   4.225   3.579   5.638
  558SOL    HW1 2573   4.226   3.491   5.685
  558SOL    HW2 2574   4.174   3.645   5.693
  559SOL     OW 2575   5.782   5.090   6.304
  559SOL    HW1 2576   5.855   5.029   6.273
  559SOL    HW2 2577   5.815   5.184   6.302
  560SOL     OW 2578   3.962   6.484   0.402
  560SOL    HW1 2579   4.042   6.504   0.344
  560SOL    HW2 2580   3.900   6.562   0.400
  561SOL     OW 2581   5.858   6.889   1.972
  561SOL    HW1 2582   5.763   6.921   1.978
  561SOL    HW2 2583   5.886   6.854   2.062
  562SOL     OW 2584   6.641   0.614   0.617
  562SOL    HW1 2585   6.712   0.679   0.643
  562SOL    HW2 2586   6.591   0.586   0.699
  563SOL     OW 2587   2.763   0.781   5.343
  563SOL    HW1 2588   2.794   0.705   5.401
  563SOL    HW2 2589   2.841   0.818   5.293
  564SOL     OW 2590   0.814   1.684   5.578
  564SOL    HW1 2591   0.732   1.633   5.607
  564SOL    HW2 2592   0.787   1.775   5.548
  565SOL     OW 2593   4.488   3.859   5.838
  565SOL    HW1 2594   4.561   3.925   5.824
  565SOL    HW2 2595   4.407   3.886   5.787
  566SOL     OW 2596   6.679   4.900   2.183
  566SOL    HW1 2597   6.670   4.875   2.086
  566SOL    HW2 2598   6.774   4.891   2.212
  567SOL     OW 2599   3.650   3.949   5.314
  567SOL    HW1 2600   3.743   3.980   5.335
  567SOL    HW2 2601   3.592   3.964   5.394
  568SOL     OW 2602   2.018   0.903   6.469
  568SOL    HW1 2603   1.965   0.947   6.397
  568SOL    HW2 2604   2.001   0.949   6.556
  569SOL     OW 2605   1.918   4.097   6.699
  569SOL    HW1 2606   1.944   4.005   6.668
  569SOL    HW2 2607   1.818   4.105   6.698
  570SOL     OW 2608   0.017   6.137   0.019
  570SOL    HW1 2609   0.065   6.217   7.008
  570SOL    HW2 2610   6.954   6.165   0.059
  571SOL     OW 2611   4.028   6.411   2.184
  571SOL    HW1 2612   3.954   6.412   2.252
  571SOL    HW2 2613   4.082   6.328   2.196
  572SOL     OW 2614   1.201   4.237   4.252
  572SOL    HW1 2615   1.301   4.243   4.260
  572SOL    HW2 2616   1.159   4.285   4.329
  573SOL     OW 2617   3.331   2.397   6.772
  573SOL    HW1 2618   3.236   2.420   6.750
  573SOL    HW2 2619   3.386   2.397   6.689
  574SOL     OW 2620   2.670   2.275   3.764
  574SOL    HW1 2621   2.642   2.230   3.679
  574SOL    HW2 2622   2.770   2.281   3.767
  575SOL     OW 2623   4.658   2.492   6.540
  575SOL    HW1 2624   4.623   2.532   6.455
  575SOL    HW2 2625   4.736   2.433   6.520
  576SOL     OW 2626   1.221   3.297   3.035
  576SOL    HW1 2627   1.134   3.254   3.062
  576SOL    HW2 2628   1.211   3.337   2.944
  577SOL     OW 2629   4.393   1.819   3.963
  577SOL    HW1 2630   4.385   1.728   4.005
  577SOL    HW2 2631   4.489   1.841   3.950
  578SOL     OW 2632   6.984   4.060   4.032
  578SOL    HW1 2633   6.893   4.100   4.027
  578SOL    HW2 2634   7.019   4.068   4.125
  579SOL     OW 2635   3.705   3.568   0.462
  579SOL    HW1 2636   3.747   3.651   0.427
  579SOL    HW2 2637   3.605   3.578   0.463
  580SOL     OW 2638   0.364   6.528   0.050
  580SOL    HW1 2639   0.439   6.594   0.045
  580SOL    HW2 2640   0.389   6.454   0.112
  581SOL     OW 2641   4.095   3.337   3.170
  581SOL    HW1 2642   4.097   3.295   3.080
  581SOL    HW2 2643   4.117   3.434   3.162
  582SOL     OW 2644   6.722   4.307   0.548
  582SOL    HW1 2645   6.792   4.365   0.505
  582SOL    HW2 2646   6.640   4.307   0.491
  583SOL     OW 2647   2.444   6.282   6.541
  583SOL    HW1 2648   2.530   6.246   6.504
  583SOL    HW2 2649   2.419   6.365   6.492
  584SOL     OW 2650   1.515   4.899   4.361
  584SOL    HW1 2651   1.532   4.827   4.428
  584SOL    HW2 2652   1.433   4.951   4.389
  585SOL     OW 2653   5.591   0.727   5.344
  585SOL    HW1 2654   5.500   0.721   5.304
  585SOL    HW2 2655   5.657   0.753   5.273
  586SOL     OW 2656   2.877   5.892   1.069
  586SOL    HW1 2657   2.897   5.927   1.160
  586SOL    HW2 2658   2.944   5.823   1.044
  587SOL     OW 2659   2.010   2.972   6.588
  587SOL    HW1 2660   2.018   2.888   6.642
  587SOL    HW2 2661   1.979   3.047   6.647
  588SOL     OW 2662   2.098   0.028   1.843
  588SOL    HW1 2663   2.087   6.965   1.795
  588SOL    HW2 2664   2.101   0.102   1.777
  589SOL     OW 2665   4.530   4.698   1.182
  589SOL    HW1 2666   4.482   4.785   1.171
  589SOL    HW2 2667   4.518   4.665   1.276
  590SOL     OW 2668   6.786   3.579   1.691
  590SOL    HW1 2669   6.726   3.509   1.652
  590SOL    HW2 2670   6.732   3.652   1.731
  591SOL     OW 2671   2.968   0.269   3.075
  591SOL    HW1 2672   2.939   0.365   3.079
  591SOL    HW2 2673   2.938   0.229   2.988
  592SOL     OW 2674   5.711   0.001   6.076
  592SOL    HW1 2675   5.666   0.086   6.105
  592SOL    HW2 2676   5.678   6.949   6.132
  593SOL     OW 2677   6.882   0.658   4.495
  593SOL    HW1 2678   6.963   0.678   4.441
  593SOL    HW2 2679   6.908   0.606   4.576
  594SOL     OW 2680   5.831   2.120   1.589
  594SOL    HW1 2681   5.766   2.089   1.658
  594SOL    HW2 2682   5.838   2.219   1.592
  595SOL     OW 2683   3.490   0.220   3.602
  595SOL    HW1 2684   3.487   0.123   3.626
  595SOL    HW2 2685   3.482   0.275   3.686
  596SOL     OW 2686   1.046   4.523   1.738
  596SOL    HW1 2687   1.105   4.481   1.808
  596SOL    HW2 2688   1.084   4.612   1.712
  597SOL     OW 2689   4.532   2.110   5.998
  597SOL    HW1 2690   4.460   2.147   6.058
  597SOL    HW2 2691   4.600   2.181   5.981
  598SOL     OW 2692   2.918   3.642   1.509
  598SOL    HW1 2693   2.882   3.550   1.521
  598SOL    HW2 2694   2.987   3.642   1.436
  599SOL     OW 2695   6.151   6.180   3.813
  599SOL    HW1 2696   6.210   6.099   3.812
  599SOL    HW2 2697   6.184   6.246   3.745
  600SOL     OW 2698   2.854   1.236   1.425
  600SOL    HW1 2699   2.889   1.166   1.363
  600SOL    HW2 2700   2.786   1.291   1.378
  601SOL     OW 2701   2.169   5.021   3.205
  601SOL    HW1 2702   2.211   4.931   3.189
  601SOL    HW2 2703   2.179   5.045   3.301
  602SOL     OW 2704   6.712   0.438   2.344
  602SOL    HW1 2705   6.726   0.367   2.274
  602SOL    HW2 2706   6.642   0.503   2.312
  603SOL     OW 2707   4.208   1.817   3.045
  603SOL    HW1 2708   4.200   1.803   2.946
  603SOL    HW2 2709   4.117   1.810   3.087
  604SOL     OW 2710   1.333   3.259   5.738
  604SOL    HW1 2711   1.351   3.357   5.742
  604SOL    HW2 2712   1.420   3.209   5.742
  605SOL     OW 2713   5.394   0.092   4.386
  605SOL    HW1 2714   5.295   0.106   4.376
  605SOL    HW2 2715   5.431   0.159   4.451
  606SOL     OW 2716   2.705   6.447   2.202
  606SOL    HW1 2717   2.712   6.362   2.151
  606SOL    HW2 2718   2.659   6.431   2.289
  607SOL     OW 2719   3.875   0.756   4.436
  607SOL    HW1 2720   3.961   0.720   4.471
  607SOL    HW2 2721   3.807   0.683   4.431
  608SOL     OW 2722   5.753   2.934   1.103
  608SOL    HW1 2723   5.762   2.884   1.189
  608SOL    HW2 2724   5.843   2.947   1.062
  609SOL     OW 2725   3.519   3.892   4.945
  609SOL    HW1 2726   3.493   3.974   4.894
  609SOL    HW2 2727   3.494   3.904   5.042
  610SOL     OW 2728   6.455   1.835   4.749
  610SOL    HW1 2729   6.455   1.932   4.773
  610SOL    HW2 2730   6.361   1.801   4.749
  611SOL     OW 2731   5.908   0.141   0.318
  611SOL    HW1 2732   5.966   0.136   0.400
  611SOL    HW2 2733   5.964   0.171   0.241
  612SOL     OW 2734   1.966   4.505   6.574
  612SOL    HW1 2735   1.929   4.495   6.667
  612SOL    HW2 2736   2.048   4.449   6.564
  613SOL     OW 2737   4.088   1.278   6.731
  613SOL    HW1 2738   4.056   1.288   6.637
  613SOL    HW2 2739   4.084   1.366   6.777
  614SOL     OW 2740   5.056   3.026   1.074
  614SOL    HW1 2741   5.046   3.125   1.084
  614SOL    HW2 2742   5.143   2.997   1.113
  615SOL     OW 2743   6.201   6.253   0.251
  615SOL    HW1 2744   6.122   6.300   0.210
  615SOL    HW2 2745   6.233   6.183   0.189
  616SOL     OW 2746   4.850   1.695   4.462
  616SOL    HW1 2747   4.939   1.666   4.496
  616SOL    HW2 2748   4.858   1.720   4.365
  617SOL     OW 2749   6.726   6.385   4.931
  617SOL    HW1 2750   6.695   6.435   5.012
  617SOL    HW2 2751   6.706   6.438   4.849
  618SOL     OW 2752   5.651   4.942   0.465
  618SOL    HW1 2753   5.712   4.875   0.509
  618SOL    HW2 2754   5.698   4.982   0.386
  619SOL     OW 2755   2.091   6.967   6.671
  619SOL    HW1 2756   2.152   7.022   6.730
  619SOL    HW2 2757   2.027   0.004   6.624
  620SOL     OW 2758   4.891   2.204   1.962
  620SOL    HW1 2759   4.801   2.176   1.930
  620SOL    HW2 2760   4.887   2.222   2.060
  621SOL     OW 2761   2.634   0.297   6.062
  621SOL    HW1 2762   2.673   0.310   5.971
  621SOL    HW2 2763   2.560   0.229   6.057
  622SOL     OW 2764   0.166   3.351   5.727
  622SOL    HW1 2765   0.114   3.436   5.722
  622SOL    HW2 2766   0.128   3.293   5.799
  623SOL     OW 2767   6.626   1.394   2.841
  623SOL    HW1 2768   6.599   1.472   2.898
  623SOL    HW2 2769   6.622   1.310   2.895
  624SOL     OW 2770   6.864   0.902   6.577
  624SOL    HW1 2771   6.884   0.966   6.503
  624SOL    HW2 2772   6.800   0.833   6.545
  625SOL     OW 2773   3.339   0.863   1.381
  625SOL    HW1 2774   3.437   0.867   1.363
  625SOL    HW2 2775   3.320   0.905   1.470
  626SOL     OW 2776   0.462   5.899   3.720
  626SOL    HW1 2777   0.534   5.854   3.668
  626SOL    HW2 2778   0.418   5.832   3.781
  627SOL     OW 2779   6.511   5.209   6.360
  627SOL    HW1 2780   6.435   5.273   6.375
  627SOL    HW2 2781   6.547   5.180   6.449
  628SOL     OW 2782   3.908   4.293   6.430
  628SOL    HW1 2783   3.889   4.228   6.503
  628SOL    HW2 2784   3.990   4.346   6.453
  629SOL     OW 2785   1.918   0.246   0.064
  629SOL    HW1 2786   1.836   0.240   0.006
  629SOL    HW2 2787   1.954   0.154   0.079
  630SOL     OW 2788   6.113   2.579   0.902
  630SOL    HW1 2789   6.191   2.636   0.876
  630SOL    HW2 2790   6.144   2.486   0.920
  631SOL     OW 2791   1.748   3.447   2.807
  631SOL    HW1 2792   1.803   3.474   2.729
  631SOL    HW2 2793   1.786   3.486   2.891
  632SOL     OW 2794   3.489   4.653   1.329
  632SOL    HW1 2795   3.405   4.707   1.340
  632SOL    HW2 2796   3.543   4.657   1.413
  633SOL     OW 2797   0.568   6.058   0.363
  633SOL    HW1 2798   0.531   5.965   0.358
  633SOL    HW2 2799   0.566   6.100   0.272
  634SOL     OW 2800   2.723   3.263   5.628
  634SOL    HW1 2801   2.634   3.219   5.640
  634SOL    HW2 2802   2.736   3.286   5.532
  635SOL     OW 2803   6.219   6.822   6.384
  635SOL    HW1 2804   6.281   6.769   6.443
  635SOL    HW2 2805   6.131   6.833   6.430
  636SOL     OW 2806   2.212   1.576   4.275
  636SOL    HW1 2807   2.244   1.669   4.262
  636SOL    HW2 2808   2.119   1.577   4.314
  637SOL     OW 2809   6.908   1.576   2.140
  637SOL    HW1 2810   6.825   1.586   2.196
  637SOL    HW2 2811   6.910   1.648   2.070
  638SOL     OW 2812   6.821   3.428   5.250
  638SOL    HW1 2813   6.918   3.406   5.249
  638SOL    HW2 2814   6.809   3.527   5.261
  639SOL     OW 2815   5.773   3.257   1.669
  639SOL    HW1 2816   5.781   3.338   1.727
  639SOL    HW2 2817   5.752   3.284   1.575
  640SOL     OW 2818   6.334   3.411   2.869
  640SOL    HW1 2819   6.371   3.476   2.802
  640SOL    HW2 2820   6.234   3.408   2.860
  641SOL     OW 2821   2.423   5.451   4.375
  641SOL    HW1 2822   2.426   5.458   4.276
  641SOL    HW2 2823   2.462   5.534   4.415
  642SOL     OW 2824   1.034   5.206   4.337
  642SOL    HW1 2825   0.971   5.255   4.277
  642SOL    HW2 2826   1.084   5.137   4.284
  643SOL     OW 2827   4.396   5.099   0.608
  643SOL    HW1 2828   4.365   5.052   0.691
  643SOL    HW2 2829   4.475   5.156   0.630
  644SOL     OW 2830   6.196   0.590   4.784
  644SOL    HW1 2831   6.295   0.594   4.773
  644SOL    HW2 2832   6.159   0.510   4.736
  645SOL     OW 2833   4.141   6.666   1.749
  645SOL    HW1 2834   4.124   6.651   1.846
  645SOL    HW2 2835   4.062   6.637   1.696
  646SOL     OW 2836   3.696   2.056   4.847
  646SOL    HW1 2837   3.707   2.103   4.935
  646SOL    HW2 2838   3.662   1.964   4.862
  647SOL     OW 2839   2.931   2.137   0.153
  647SOL    HW1 2840   2.976   2.074   0.216
  647SOL    HW2 2841   2.929   2.095   0.062
  648SOL     OW 2842   5.321   1.651   4.090
  648SOL    HW1 2843   5.313   1.743   4.129
  648SOL    HW2 2844   5.231   1.619   4.060
  649SOL     OW 2845   3.233   5.899   0.574
  649SOL    HW1 2846   3.233   5.802   0.547
  649SOL    HW2 2847   3.303   5.913   0.644
  650SOL     OW 2848   2.237   3.315   1.418
  650SOL    HW1 2849   2.141   3.287   1.418
  650SOL    HW2 2850   2.278   3.295   1.507
  651SOL     OW 2851   0.131   1.530   2.817
  651SOL    HW1 2852   0.056   1.571   2.869
  651SOL    HW2 2853   0.102   1.515   2.723
  652SOL     OW 2854   4.074   6.222   0.606
  652SOL    HW1 2855   4.159   6.176   0.581
  652SOL    HW2 2856   4.006   6.209   0.533
  653SOL     OW 2857   1.425   0.047   2.750
  653SOL    HW1 2858   1.435   0.049   2.850
  653SOL    HW2 2859   1.510   0.076   2.707
  654SOL     OW 2860   1.308   0.017   6.102
  654SOL    HW1 2861   1.376   6.970   6.119
  654SOL    HW2 2862   1.328   0.063   6.016
  655SOL     OW 2863   1.625   3.767   1.116
  655SOL    HW1 2864   1.640   3.672   1.091
  655SOL    HW2 2865   1.705   3.803   1.163
  656SOL     OW 2866   2.347   0.479   6.854
  656SOL    HW1 2867   2.353   0.484   6.754
  656SOL    HW2 2868   2.317   0.387   6.880
  657SOL     OW 2869   3.662   3.208   4.190
  657SOL    HW1 2870   3.722   3.248   4.121
  657SOL    HW2 2871   3.643   3.113   4.167
  658SOL     OW 2872   1.810   0.804   4.548
  658SOL    HW1 2873   1.765   0.893   4.561
  658SOL    HW2 2874   1.836   0.767   4.637
  659SOL     OW 2875   2.088   5.700   6.777
  659SOL    HW1 2876   2.062   5.609   6.809
  659SOL    HW2 2877   2.010   5.742   6.730
  660SOL     OW 2878   5.596   4.232   2.524
  660SOL    HW1 2879   5.610   4.223   2.426
  660SOL    HW2 2880   5.552   4.149   2.560
  661SOL     OW 2881   4.862   5.906   4.167
  661SOL    HW1 2882   4.778   5.855   4.150
  661SOL    HW2 2883   4.941   5.848   4.152
  662SOL     OW 2884   6.126   3.821   6.819
  662SOL    HW1 2885   6.220   3.851   6.803
  662SOL    HW2 2886   6.124   3.759   6.898
  663SOL     OW 2887   1.265   4.155   5.660
  663SOL    HW1 2888   1.363   4.173   5.664
  663SOL    HW2 2889   1.245   4.068   5.705
  664SOL     OW 2890   1.527   0.360   5.453
  664SOL    HW1 2891   1.524   0.261   5.444
  664SOL    HW2 2892   1.473   0.403   5.381
  665SOL     OW 2893   2.242   4.381   3.248
  665SOL    HW1 2894   2.220   4.331   3.331
  665SOL    HW2 2895   2.257   4.478   3.270
  666SOL     OW 2896   3.329   0.481   0.073
  666SOL    HW1 2897   3.307   0.396   0.119
  666SOL    HW2 2898   3.245   0.531   0.052
  667SOL     OW 2899   1.106   3.060   2.317
  667SOL    HW1 2900   1.056   2.989   2.268
  667SOL    HW2 2901   1.052   3.092   2.394
  668SOL     OW 2902   5.343   6.692   0.193
  668SOL    HW1 2903   5.441   6.710   0.184
  668SOL    HW2 2904   5.301   6.764   0.248
  669SOL     OW 2905   6.984   5.484   2.512
  669SOL    HW1 2906   0.029   5.555   2.500
  669SOL    HW2 2907   6.916   5.491   2.439
  670SOL     OW 2908   3.984   3.912   3.197
  670SOL    HW1 2909   4.054   3.957   3.251
  670SOL    HW2 2910   3.906   3.974   3.185
  671SOL     OW 2911   1.679   7.020   6.545
  671SOL    HW1 2912   1.629   6.988   6.626
  671SOL    HW2 2913   1.718   6.942   6.497
  672SOL     OW 2914   1.126   2.599   3.134
  672SOL    HW1 2915   1.221   2.587   3.106
  672SOL    HW2 2916   1.119   2.676   3.197
  673SOL     OW 2917   5.305   0.213   6.728
  673SOL    HW1 2918   5.396   0.212   6.686
  673SOL    HW2 2919   5.253   0.291   6.693
  674SOL     OW 2920   6.994   2.465   4.267
  674SOL    HW1 2921   6.925   2.394   4.282
  674SOL    HW2 2922   0.061   2.426   4.281
  675SOL     OW 2923   5.430   6.204   3.621
  675SOL    HW1 2924   5.435   6.208   3.522
  675SOL    HW2 2925   5.491   6.131   3.654
  676SOL     OW 2926   3.195   4.931   4.378
  676SOL    HW1 2927   3.246   4.914   4.462
  676SOL    HW2 2928   3.102   4.896   4.388
  677SOL     OW 2929   4.765   6.670   0.613
  677SOL    HW1 2930   4.702   6.741   0.582
  677SOL    HW2 2931   4.717   6.606   0.674
  678SOL     OW 2932   2.321   1.117   6.071
  678SOL    HW1 2933   2.317   1.113   6.171
  678SOL    HW2 2934   2.359   1.032   6.036
  679SOL     OW 2935   6.468   0.524   2.520
  679SOL    HW1 2936   6.380   0.522   2.568
  679SOL    HW2 2937   6.502   0.431   2.507
  680SOL     OW 2938   6.351   4.154   4.149
  680SOL    HW1 2939   6.405   4.236   4.167
  680SOL    HW2 2940   6.266   4.159   4.201
  681SOL     OW 2941   1.429   5.711   2.388
  681SOL    HW1 2942   1.449   5.804   2.417
  681SOL    HW2 2943   1.367   5.713   2.309
  682SOL     OW 2944   0.509   0.188   6.003
  682SOL    HW1 2945   0.485   0.094   5.978
  682SOL    HW2 2946   0.429   0.246   5.995
  683SOL     OW 2947   5.424   1.493   1.912
  683SOL    HW1 2948   5.496   1.562   1.914
  683SOL    HW2 2949   5.343   1.530   1.866
  684SOL     OW 2950   0.193   5.886   6.740
  684SOL    HW1 2951   0.109   5.936   6.761
  684SOL    HW2 2952   0.190   5.796   6.783
  685SOL     OW 2953   5.991   0.359   5.683
  685SOL    HW1 2954   6.042   0.313   5.755
  685SOL    HW2 2955   5.960   0.292   5.615
  686SOL     OW 2956   5.460   4.523   1.865
  686SOL    HW1 2957   5.476   4.425   1.871
  686SOL    HW2 2958   5.469   4.553   1.770
  687SOL     OW 2959   5.568   1.770   6.791
  687SOL    HW1 2960   5.650   1.784   6.735
  687SOL    HW2 2961   5.490   1.814   6.748
  688SOL     OW 2962   6.289   3.271   5.250
  688SOL    HW1 2963   6.268   3.257   5.153
  688SOL    HW2 2964   6.206   3.299   5.298
  689SOL     OW 2965   5.510   4.312   4.331
  689SOL    HW1 2966   5.492   4.350   4.422
  689SOL    HW2 2967   5.501   4.384   4.262
  690SOL     OW 2968   0.191   2.813   4.986
  690SOL    HW1 2969   0.178   2.900   4.938
  690SOL    HW2 2970   0.285   2.809   5.021
  691SOL     OW 2971   0.378   3.181   6.886
  691SOL    HW1 2972   0.350   3.106   6.825
  691SOL    HW2 2973   0.471   3.166   6.918
  692SOL     OW 2974   2.721   0.359   3.639
  692SOL    HW1 2975   2.664   0.433   3.603
  692SOL    HW2 2976   2.720   0.282   3.576
  693SOL     OW 2977   6.277   1.653   3.954
  693SOL    HW1 2978   6.371   1.638   3.985
  693SOL    HW2 2979   6.214   1.634   4.030
  694SOL     OW 2980   1.350   0.527   2.948
  694SOL    HW1 2981   1.443   0.546   2.917
  694SOL    HW2 2982   1.312   0.609   2.990
  695SOL     OW 2983   4.626   5.541   6.614
  695SOL    HW1 2984   4.658   5.447   6.625
  695SOL    HW2 2985   4.646   5.573   6.522
  696SOL     OW 2986   5.261   5.360   2.572
  696SOL    HW1 2987   5.170   5.394   2.597
  696SOL    HW2 2988   5.325   5.379   2.646
  697SOL     OW 2989   1.168   3.982   3.320
  697SOL    HW1 2990   1.104   4.003   3.394
  697SOL    HW2 2991   1.175   3.883   3.310
  698SOL     OW 2992   4.911   6.163   3.668
  698SOL    HW1 2993   4.950   6.117   3.749
  698SOL    HW2 2994   4.812   6.168   3.677
  699SOL     OW 2995   1.443   4.807   6.235
  699SOL    HW1 2996   1.487   4.864   6.167
  699SOL    HW2 2997   1.497   4.724   6.250
  700SOL     OW 2998   1.538   1.697   4.858
  700SOL    HW1 2999   1.608   1.766   4.872
  700SOL    HW2 3000   1.452   1.727   4.899
  701SOL     OW 3001   1.269   4.916   5.140
  701SOL    HW1 3002   1.296   4.914   5.236
  701SOL    HW2 3003   1.339   4.870   5.085
  702SOL     OW 3004   5.944   6.080   5.352
  702SOL    HW1 3005   6.009   6.028   5.297
  702SOL    HW2 3006   5.882   6.130   5.292
  703SOL     OW 3007   5.755   3.757   6.278
  703SOL    HW1 3008   5.724   3.840   6.325
  703SOL    HW2 3009   5.718   3.756   6.185
  704SOL     OW 3010   2.379   6.602   1.601
  704SOL    HW1 3011   2.462   6.576   1.649
  704SOL    HW2 3012   2.319   6.522   1.592
  705SOL     OW 3013   0.958   1.980   3.707
  705SOL    HW1 3014   1.023   2.056   3.700
  705SOL    HW2 3015   0.868   2.016   3.732
  706SOL     OW 3016   5.352   3.567   3.931
  706SOL    HW1 3017   5.451   3.555   3.922
  706SOL    HW2 3018   5.332   3.628   4.007
  707SOL     OW 3019   5.072   2.860   2.962
  707SOL    HW1 3020   4.995   2.922   2.975
  707SOL    HW2 3021   5.104   2.866   2.867
  708SOL     OW 3022   4.931   1.771   1.657
  708SOL    HW1 3023   4.904   1.749   1.564
  708SOL    HW2 3024   5.000   1.706   1.689
  709SOL     OW 3025   1.223   5.085   6.512
  709SOL    HW1 3026   1.132   5.123   6.497
  709SOL    HW2 3027   1.246   5.023   6.436
  710SOL     OW 3028   2.906   3.584   3.115
  710SOL    HW1 3029   2.953   3.498   3.133
  710SOL    HW2 3030   2.933   3.651   3.184
  711SOL     OW 3031   0.367   0.827   4.737
  711SOL    HW1 3032   0.313   0.744   4.752
  711SOL    HW2 3033   0.425   0.815   4.657
  712SOL     OW 3034   6.859   4.087   3.349
  712SOL    HW1 3035   6.938   4.142   3.320
  712SOL    HW2 3036   6.835   4.023   3.277
  713SOL     OW 3037   2.918   4.099   5.525
  713SOL    HW1 3038   2.959   4.097   5.433
  713SOL    HW2 3039   2.990   4.085   5.593
  714SOL     OW 3040   4.289   4.959   5.024
  714SOL    HW1 3041   4.250   5.022   4.957
  714SOL    HW2 3042   4.388   4.952   5.010
  715SOL     OW 3043   6.486   0.223   6.411
  715SOL    HW1 3044   6.391   0.199   6.396
  715SOL    HW2 3045   6.539   0.141   6.433
  716SOL     OW 3046   6.110   5.607   0.076
  716SOL    HW1 3047   6.079   5.689   0.027
  716SOL    HW2 3048   6.059   5.598   0.161
  717SOL     OW 3049   6.079   3.187   6.024
  717SOL    HW1 3050   6.158   3.145   5.979
  717SOL    HW2 3051   6.110   3.253   6.092
  718SOL     OW 3052   3.246   2.470   0.013
  718SOL    HW1 3053   3.311   2.546   0.020
  718SOL    HW2 3054   3.271   2.413   6.959
  719SOL     OW 3055   5.965   4.732   6.778
  719SOL    HW1 3056   6.053   4.739   6.824
  719SOL    HW2 3057   5.926   4.823   6.767
  720SOL     OW 3058   4.210   1.463   5.985
  720SOL    HW1 3059   4.250   1.494   6.071
  720SOL    HW2 3060   4.228   1.365   5.974
  721SOL     OW 3061   1.141   7.017   5.083
  721SOL    HW1 3062   1.109   6.935   5.132
  721SOL    HW2 3063   1.161   6.993   4.988
  722SOL     OW 3064   4.668   0.503   5.318
  722SOL    HW1 3065   4.677   0.476   5.414
  722SOL    HW2 3066   4.759   0.518   5.279
  723SOL     OW 3067   0.744   3.323   2.030
  723SOL    HW1 3068   0.660   3.327   2.084
  723SOL    HW2 3069   0.813   3.381   2.072
  724SOL     OW 3070   0.259   2.071   4.706
  724SOL    HW1 3071   0.274   2.110   4.616
  724SOL    HW2 3072   0.288   1.975   4.706
  725SOL     OW 3073   2.649   4.895   2.805
  725SOL    HW1 3074   2.578   4.930   2.744
  725SOL    HW2 3075   2.630   4.799   2.827
  726SOL     OW 3076   5.147   5.753   5.698
  726SOL    HW1 3077   5.196   5.715   5.777
  726SOL    HW2 3078   5.213   5.794   5.635
  727SOL     OW 3079   2.034   4.612   4.289
  727SOL    HW1 3080   2.077   4.622   4.378
  727SOL    HW2 3081   1.942   4.572   4.301
  728SOL     OW 3082   6.536   2.811   5.919
  728SOL    HW1 3083   6.619   2.760   5.898
  728SOL    HW2 3084   6.559   2.890   5.976
  729SOL     OW 3085   4.377   1.714   0.558
  729SOL    HW1 3086   4.383   1.617   0.583
  729SOL    HW2 3087   4.318   1.724   0.478
  730SOL     OW 3088   6.391   1.446   4.718
  730SOL    HW1 3089   6.430   1.476   4.805
  730SOL    HW2 3090   6.295   1.474   4.712
  731SOL     OW 3091   6.799   2.265   3.737
  731SOL    HW1 3092   6.843   2.308   3.816
  731SOL    HW2 3093   6.767   2.174   3.763
  732SOL     OW 3094   0.651   3.423   3.419
  732SOL    HW1 3095   0.569   3.478   3.433
  732SOL    HW2 3096   0.634   3.356   3.347
  733SOL     OW 3097   4.764   4.821   4.124
  733SOL    HW1 3098   4.808   4.849   4.038
  733SOL    HW2 3099   4.832   4.819   4.197
  734SOL     OW 3100   0.810   6.147   0.489
  734SOL    HW1 3101   0.715   6.120   0.474
  734SOL    HW2 3102   0.829   6.230   0.436
  735SOL     OW 3103   3.386   4.682   6.437
  735SOL    HW1 3104   3.432   4.595   6.455
  735SOL    HW2 3105   3.287   4.667   6.431
  736SOL     OW 3106   5.863   1.163   2.534
  736SOL    HW1 3107   5.782   1.110   2.509
  736SOL    HW2 3108   5.840   1.260   2.538
  737SOL     OW 3109   5.539   3.667   0.056
  737SOL    HW1 3110   5.594   3.606   7.023
  737SOL    HW2 3111   5.513   3.748   0.002
  738SOL     OW 3112   0.548   4.256   3.469
  738SOL    HW1 3113   0.576   4.193   3.396
  738SOL    HW2 3114   0.590   4.345   3.453
  739SOL     OW 3115   4.750   6.408   6.050
  739SOL    HW1 3116   4.797   6.321   6.034
  739SOL    HW2 3117   4.676   6.419   5.983
  740SOL     OW 3118   5.580   6.606   0.552
  740SOL    HW1 3119   5.545   6.578   0.463
  740SOL    HW2 3120   5.671   6.567   0.566
  741SOL     OW 3121   2.580   0.311   4.080
  741SOL    HW1 3122   2.499   0.257   4.104
  741SOL    HW2 3123   2.575   0.401   4.122
  742SOL     OW 3124   1.487   6.512   2.650
  742SOL    HW1 3125   1.553   6.540   2.581
  742SOL    HW2 3126   1.488   6.577   2.726
  743SOL     OW 3127   1.706   3.782   3.095
  743SOL    HW1 3128   1.616   3.758   3.130
  743SOL    HW2 3129   1.741   3.862   3.145
  744SOL     OW 3130   6.547   4.949   0.963
  744SOL    HW1 3131   6.519   4.876   1.025
  744SOL    HW2 3132   6.496   4.942   0.878
  745SOL     OW 3133   1.868   5.804   2.307
  745SOL    HW1 3134   1.837   5.848   2.391
  745SOL    HW2 3135   1.791   5.794   2.244
  746SOL     OW 3136   3.007   6.863   3.350
  746SOL    HW1 3137   2.988   6.892   3.444
  746SOL    HW2 3138   2.967   6.928   3.287
  747SOL     OW 3139   6.617   3.680   0.736
  747SOL    HW1 3140   6.656   3.734   0.810
  747SOL    HW2 3141   6.523   3.709   0.719
  748SOL     OW 3142   3.166   3.072   3.009
  748SOL    HW1 3143   3.070   3.088   3.033
  748SOL    HW2 3144   3.171   3.018   2.925
  749SOL     OW 3145   5.661   2.224   5.152
  749SOL    HW1 3146   5.726   2.190   5.084
  749SOL    HW2 3147   5.653   2.323   5.143
  750SOL     OW 3148   3.383   3.635   2.162
  750SOL    HW1 3149   3.467   3.689   2.172
  750SOL    HW2 3150   3.305   3.689   2.194
  751SOL     OW 3151   5.706   1.752   0.145
  751SOL    HW1 3152   5.735   1.838   0.188
  751SOL    HW2 3153   5.747   1.745   0.054
  752SOL     OW 3154   4.501   0.809   2.151
  752SOL    HW1 3155   4.425   0.841   2.207
  752SOL    HW2 3156   4.543   0.888   2.105
  753SOL     OW 3157   3.889   1.724   2.296
  753SOL    HW1 3158   3.927   1.809   2.334
  753SOL    HW2 3159   3.793   1.739   2.270
  754SOL     OW 3160   5.267   5.692   6.879
  754SOL    HW1 3161   5.361   5.680   6.845
  754SOL    HW2 3162   5.268   5.693   6.979
  755SOL     OW 3163   6.186   5.608   1.986
  755SOL    HW1 3164   6.185   5.583   2.083
  755SOL    HW2 3165   6.280   5.605   1.952
  756SOL     OW 3166   2.526   6.796   3.866
  756SOL    HW1 3167   2.625   6.794   3.849
  756SOL    HW2 3168   2.492   6.702   3.875
  757SOL     OW 3169   6.776   0.580   3.939
  757SOL    HW1 3170   6.793   0.595   3.841
  757SOL    HW2 3171   6.843   0.633   3.992
  758SOL     OW 3172   4.483   1.826   0.994
  758SOL    HW1 3173   4.424   1.809   0.916
  758SOL    HW2 3174   4.468   1.919   1.028
  759SOL     OW 3175   2.188   0.585   1.715
  759SOL    HW1 3176   2.208   0.551   1.623
  759SOL    HW2 3177   2.265   0.565   1.775
  760SOL     OW 3178   4.524   1.850   6.322
  760SOL    HW1 3179   4.605   1.909   6.321
  760SOL    HW2 3180   4.552   1.757   6.347
  761SOL     OW 3181   5.317   0.774   6.833
  761SOL    HW1 3182   5.247   0.704   6.850
  761SOL    HW2 3183   5.277   0.849   6.781
  762SOL     OW 3184   2.256   4.662   4.888
  762SOL    HW1 3185   2.157   4.651   4.902
  762SOL    HW2 3186   2.273   4.747   4.839
  763SOL     OW 3187   6.752   5.047   0.383
  763SOL    HW1 3188   6.835   5.026   0.435
  763SOL    HW2 3189   6.751   5.145   0.361
  764SOL     OW 3190   6.076   1.378   2.707
  764SOL    HW1 3191   6.058   1.282   2.730
  764SOL    HW2 3192   6.096   1.429   2.791
  765SOL     OW 3193   0.896   6.792   3.046
  765SOL    HW1 3194   0.812   6.739   3.056
  765SOL    HW2 3195   0.877   6.875   2.993
  766SOL     OW 3196   6.846   6.175   0.242
  766SOL    HW1 3197   6.926   6.162   0.300
  766SOL    HW2 3198   6.815   6.270   0.250
  767SOL     OW 3199   5.911   6.071   1.174
  767SOL    HW1 3200   5.884   6.069   1.270
  767SOL    HW2 3201   5.911   5.978   1.137
  768SOL     OW 3202   3.126   6.937   4.177
  768SOL    HW1 3203   3.122   6.848   4.132
  768SOL    HW2 3204   3.075   6.934   4.262
  769SOL     OW 3205   4.440   0.782   0.080
  769SOL    HW1 3206   4.380   0.851   0.041
  769SOL    HW2 3207   4.517   0.765   0.018
  770SOL     OW 3208   3.327   4.926   4.621
  770SOL    HW1 3209   3.253   4.967   4.675
  770SOL    HW2 3210   3.413   4.938   4.669
  771SOL     OW 3211   0.659   6.287   4.497
  771SOL    HW1 3212   0.663   6.191   4.521
  771SOL    HW2 3213   0.565   6.313   4.475
  772SOL     OW 3214   0.290   3.678   6.192
  772SOL    HW1 3215   0.248   3.692   6.282
  772SOL    HW2 3216   0.218   3.658   6.125
  773SOL     OW 3217   6.861   3.077   2.319
  773SOL    HW1 3218   6.828   3.148   2.380
  773SOL    HW2 3219   6.933   3.113   2.260
  774SOL     OW 3220   1.340   1.161   2.077
  774SOL    HW1 3221   1.376   1.070   2.058
  774SOL    HW2 3222   1.416   1.226   2.086
  775SOL     OW 3223   1.874   2.873   4.007
  775SOL    HW1 3224   1.855   2.911   4.097
  775SOL    HW2 3225   1.846   2.777   4.004
  776SOL     OW 3226   1.815   0.701   4.792
  776SOL    HW1 3227   1.861   0.658   4.869
  776SOL    HW2 3228   1.716   0.703   4.808
  777SOL     OW 3229   4.347   6.931   6.479
  777SOL    HW1 3230   4.394   7.019   6.486
  777SOL    HW2 3231   4.383   6.868   6.548
  778SOL     OW 3232   4.656   5.440   4.837
  778SOL    HW1 3233   4.561   5.468   4.853
  778SOL    HW2 3234   4.676   5.443   4.739
  779SOL     OW 3235   0.483   0.323   2.126
  779SOL    HW1 3236   0.421   0.284   2.194
  779SOL    HW2 3237   0.578   0.314   2.158
  780SOL     OW 3238   5.591   2.583   4.916
  780SOL    HW1 3239   5.674   2.580   4.860
  780SOL    HW2 3240   5.559   2.490   4.934
  781SOL     OW 3241   0.914   3.130   6.460
  781SOL    HW1 3242   0.980   3.180   6.404
  781SOL    HW2 3243   0.876   3.192   6.529
  782SOL     OW 3244   0.000   4.910   1.042
  782SOL    HW1 3245   0.100   4.907   1.054
  782SOL    HW2 3246   6.981   4.849   1.108
  783SOL     OW 3247   1.762   5.567   0.214
  783SOL    HW1 3248   1.812   5.626   0.277
  783SOL    HW2 3249   1.665   5.593   0.214
  784SOL     OW 3250   5.631   5.400   3.540
  784SOL    HW1 3251   5.619   5.495   3.513
  784SOL    HW2 3252   5.546   5.350   3.525
  785SOL     OW 3253   6.578   2.451   3.504
  785SOL    HW1 3254   6.488   2.495   3.497
  785SOL    HW2 3255   6.649   2.521   3.508
  786SOL     OW 3256   6.140   6.539   0.618
  786SOL    HW1 3257   6.102   6.459   0.572
  786SOL    HW2 3258   6.099   6.548   0.709
  787SOL     OW 3259   4.782   1.075   0.199
  787SOL    HW1 3260   4.877   1.078   0.230
  787SOL    HW2 3261   4.779   1.077   0.099
  788SOL     OW 3262   0.123   4.178   3.264
  788SOL    HW1 3263   0.071   4.259   3.291
  788SOL    HW2 3264   0.195   4.161   3.332
  789SOL     OW 3265   5.426   3.002   0.979
  789SOL    HW1 3266   5.523   2.993   1.004
  789SOL    HW2 3267   5.369   2.978   1.058
  790SOL     OW 3268   3.196   0.683   4.134
  790SOL    HW1 3269   3.125   0.680   4.063
  790SOL    HW2 3270   3.180   0.609   4.199
  791SOL     OW 3271   4.120   1.474   4.430
  791SOL    HW1 3272   4.104   1.383   4.467
  791SOL    HW2 3273   4.049   1.536   4.463
  792SOL     OW 3274   5.337   0.827   3.483
  792SOL    HW1 3275   5.307   0.858   3.573
  792SOL    HW2 3276   5.345   0.906   3.422
  793SOL     OW 3277   0.148   0.015   6.590
  793SOL    HW1 3278   0.209   0.094   6.587
  793SOL    HW2 3279   0.181   6.969   6.528
  794SOL     OW 3280   3.498   4.751   5.236
  794SOL    HW1 3281   3.586   4.762   5.189
  794SOL    HW2 3282   3.503   4.673   5.298
  795SOL     OW 3283   5.301   5.135   0.121
  795SOL    HW1 3284   5.286   5.129   0.023
  795SOL    HW2 3285   5.213   5.144   0.168
  796SOL     OW 3286   0.392   1.679   5.618
  796SOL    HW1 3287   0.301   1.638   5.626
  796SOL    HW2 3288   0.383   1.774   5.589
  797SOL     OW 3289   5.638   3.190   5.694
  797SOL    HW1 3290   5.669   3.284   5.682
  797SOL    HW2 3291   5.672   3.134   5.618
  798SOL     OW 3292   6.815   0.934   4.467
  798SOL    HW1 3293   6.848   0.841   4.485
  798SOL    HW2 3294   6.753   0.963   4.540
  799SOL     OW 3295   6.578   4.074   3.608
  799SOL    HW1 3296   6.516   3.998   3.594
  799SOL    HW2 3297   6.653   4.045   3.668
  800SOL     OW 3298   0.346   2.094   2.382
  800SOL    HW1 3299   0.325   2.034   2.305
  800SOL    HW2 3300   0.314   2.186   2.363
  801SOL     OW 3301   0.402   2.635   3.576
  801SOL    HW1 3302   0.447   2.631   3.665
  801SOL    HW2 3303   0.471   2.643   3.504
  802SOL     OW 3304   6.531   1.082   1.158
  802SOL    HW1 3305   6.589   1.048   1.232
  802SOL    HW2 3306   6.553   1.178   1.141
  803SOL     OW 3307   1.799   0.118   4.544
  803SOL    HW1 3308   1.803   0.044   4.478
  803SOL    HW2 3309   1.738   0.190   4.510
  804SOL     OW 3310   6.320   6.739   0.514
  804SOL    HW1 3311   6.410   6.697   0.529
  804SOL    HW2 3312   6.249   6.677   0.546
  805SOL     OW 3313   2.004   3.049   6.323
  805SOL    HW1 3314   1.987   3.043   6.422
  805SOL    HW2 3315   2.022   2.957   6.287
  806SOL     OW 3316   4.174   6.525   0.227
  806SOL    HW1 3317   4.143   6.527   0.132
  806SOL    HW2 3318   4.274   6.527   0.230
  807SOL     OW 3319   0.631   6.790   3.163
  807SOL    HW1 3320   0.683   6.835   3.236
  807SOL    HW2 3321   0.537   6.772   3.195
  808SOL     OW 3322   5.574   4.049   4.932
  808SOL    HW1 3323   5.610   4.054   4.839
  808SOL    HW2 3324   5.492   4.106   4.939
  809SOL     OW 3325   0.465   6.308   5.767
  809SOL    HW1 3326   0.557   6.328   5.734
  809SOL    HW2 3327   0.460   6.211   5.794
  810SOL     OW 3328   6.164   5.590   6.299
  810SOL    HW1 3329   6.196   5.617   6.389
  810SOL    HW2 3330   6.155   5.490   6.295
  811SOL     OW 3331   3.251   4.957   3.093
  811SOL    HW1 3332   3.202   4.908   3.021
  811SOL    HW2 3333   3.235   4.911   3.181
  812SOL     OW 3334   6.913   0.630   2.760
  812SOL    HW1 3335   6.912   0.564   2.835
  812SOL    HW2 3336   6.820   0.646   2.728
  813SOL     OW 3337   5.258   5.201   1.902
  813SOL    HW1 3338   5.250   5.231   1.997
  813SOL    HW2 3339   5.187   5.245   1.846
  814SOL     OW 3340   5.082   5.290   1.704
  814SOL    HW1 3341   5.121   5.251   1.621
  814SOL    HW2 3342   5.000   5.342   1.680
  815SOL     OW 3343   1.322   0.970   0.686
  815SOL    HW1 3344   1.347   0.899   0.753
  815SOL    HW2 3345   1.251   1.029   0.726
  816SOL     OW 3346   5.914   0.845   1.859
  816SOL    HW1 3347   6.008   0.879   1.858
  816SOL    HW2 3348   5.907   0.768   1.923
  817SOL     OW 3349   0.841   2.371   2.369
  817SOL    HW1 3350   0.867   2.309   2.295
  817SOL    HW2 3351   0.743   2.360   2.389
  818SOL     OW 3352   5.677   1.373   2.617
  818SOL    HW1 3353   5.660   1.441   2.546
  818SOL    HW2 3354   5.702   1.419   2.702
  819SOL     OW 3355   0.504   5.292   2.127
  819SOL    HW1 3356   0.594   5.306   2.168
  819SOL    HW2 3357   0.464   5.208   2.162
  820SOL     OW 3358   2.046   3.022   5.710
  820SOL    HW1 3359   2.093   3.082   5.775
  820SOL    HW2 3360   2.113   2.985   5.646
  821SOL     OW 3361   0.747   4.432   0.574
  821SOL    HW1 3362   0.809   4.451   0.650
  821SOL    HW2 3363   0.794   4.447   0.488
  822SOL     OW 3364   1.142   3.164   4.871
  822SOL    HW1 3365   1.103   3.077   4.900
  822SOL    HW2 3366   1.229   3.149   4.824
  823SOL     OW 3367   3.893   3.989   1.915
  823SOL    HW1 3368   3.854   3.969   2.005
  823SOL    HW2 3369   3.983   3.947   1.907
  824SOL     OW 3370   6.366   2.537   6.376
  824SOL    HW1 3371   6.428   2.473   6.420
  824SOL    HW2 3372   6.373   2.627   6.420
  825SOL     OW 3373   1.522   3.259   1.543
  825SOL    HW1 3374   1.455   3.330   1.564
  825SOL    HW2 3375   1.586   3.292   1.473
  826SOL     OW 3376   1.219   2.978   6.514
  826SOL    HW1 3377   1.209   2.895   6.459
  826SOL    HW2 3378   1.257   3.051   6.458
  827SOL     OW 3379   3.474   4.531   1.011
  827SOL    HW1 3380   3.458   4.627   0.992
  827SOL    HW2 3381   3.467   4.478   0.927
  828SOL     OW 3382   5.995   0.502   5.426
  828SOL    HW1 3383   5.899   0.497   5.452
  828SOL    HW2 3384   6.052   0.497   5.509
  829SOL     OW 3385   3.474   3.958   5.517
  829SOL    HW1 3386   3.437   3.889   5.579
  829SOL    HW2 3387   3.403   4.025   5.495
  830SOL     OW 3388   4.598   3.522   5.803
  830SOL    HW1 3389   4.596   3.540   5.705
  830SOL    HW2 3390   4.515   3.560   5.845
  831SOL     OW 3391   5.347   0.192   5.100
  831SOL    HW1 3392   5.419   0.195   5.030
  831SOL    HW2 3393   5.384   0.152   5.184
  832SOL     OW 3394   2.641   1.573   5.945
  832SOL    HW1 3395   2.675   1.605   6.034
  832SOL    HW2 3396   2.675   1.632   5.873
  833SOL     OW 3397   1.140   0.527   4.856
  833SOL    HW1 3398   1.095   0.528   4.945
  833SOL    HW2 3399   1.165   0.434   4.832
  834SOL     OW 3400   3.355   4.583   5.745
  834SOL    HW1 3401   3.303   4.574   5.661
  834SOL    HW2 3402   3.426   4.513   5.748
  835SOL     OW 3403   3.922   1.439   2.261
  835SOL    HW1 3404   3.901   1.375   2.336
  835SOL    HW2 3405   3.913   1.533   2.294
  836SOL     OW 3406   2.170   0.735   6.291
  836SOL    HW1 3407   2.101   0.784   6.344
  836SOL    HW2 3408   2.194   0.650   6.338
  837SOL     OW 3409   4.147   1.714   4.746
  837SOL    HW1 3410   4.054   1.733   4.777
  837SOL    HW2 3411   4.204   1.795   4.762
  838SOL     OW 3412   1.339   6.187   1.949
  838SOL    HW1 3413   1.296   6.252   1.886
  838SOL    HW2 3414   1.434   6.172   1.921
  839SOL     OW 3415   2.357   1.539   1.810
  839SOL    HW1 3416   2.452   1.516   1.789
  839SOL    HW2 3417   2.352   1.577   1.902
  840SOL     OW 3418   1.335   0.691   5.757
  840SOL    HW1 3419   1.323   0.780   5.713
  840SOL    HW2 3420   1.339   0.703   5.856
  841SOL     OW 3421   0.249   3.541   1.289
  841SOL    HW1 3422   0.204   3.630   1.285
  841SOL    HW2 3423   0.182   3.471   1.314
  842SOL     OW 3424   4.159   4.742   4.121
  842SOL    HW1 3425   4.199   4.709   4.036
  842SOL    HW2 3426   4.062   4.762   4.107
  843SOL     OW 3427   0.012   3.658   1.720
  843SOL    HW1 3428   0.098   3.648   1.670
  843SOL    HW2 3429   6.966   3.601   1.676
  844SOL     OW 3430   5.994   4.717   6.390
  844SOL    HW1 3431   6.018   4.621   6.375
  844SOL    HW2 3432   5.908   4.723   6.440
  845SOL     OW 3433   2.088   4.998   5.516
  845SOL    HW1 3434   1.994   5.006   5.484
  845SOL    HW2 3435   2.149   5.049   5.456
  846SOL     OW 3436   4.037   2.209   7.007
  846SOL    HW1 3437   4.135   2.218   0.004
  846SOL    HW2 3438   3.985   2.204   0.068
  847SOL     OW 3439   5.033   4.347   2.005
  847SOL    HW1 3440   4.951   4.326   1.952
  847SOL    HW2 3441   5.097   4.400   1.950
  848SOL     OW 3442   5.654   6.995   5.596
  848SOL    HW1 3443   5.572   0.027   5.593
  848SOL    HW2 3444   5.643   6.917   5.535
  849SOL     OW 3445   0.608   5.850   4.312
  849SOL    HW1 3446   0.666   5.819   4.236
  849SOL    HW2 3447   0.666   5.890   4.383
  850SOL     OW 3448   3.093   0.708   3.241
  850SOL    HW1 3449   3.066   0.800   3.213
  850SOL    HW2 3450   3.187   0.690   3.214
  851SOL     OW 3451   6.982   1.108   5.781
  851SOL    HW1 3452   6.969   1.206   5.764
  851SOL    HW2 3453   0.055   1.086   5.779
  852SOL     OW 3454   2.811   5.036   5.261
  852SOL    HW1 3455   2.807   5.055   5.162
  852SOL    HW2 3456   2.870   4.957   5.277
  853SOL     OW 3457   0.494   4.375   0.575
  853SOL    HW1 3458   0.584   4.415   0.561
  853SOL    HW2 3459   0.503   4.277   0.590
  854SOL     OW 3460   5.754   4.936   1.136
  854SOL    HW1 3461   5.751   4.842   1.169
  854SOL    HW2 3462   5.842   4.977   1.161
  855SOL     OW 3463   5.251   0.187   0.669
  855SOL    HW1 3464   5.260   0.161   0.573
  855SOL    HW2 3465   5.202   0.274   0.675
  856SOL     OW 3466   1.405   0.097   4.537
  856SOL    HW1 3467   1.459   0.044   4.603
  856SOL    HW2 3468   1.438   0.191   4.535
  857SOL     OW 3469   5.489   3.970   1.292
  857SOL    HW1 3470   5.491   4.056   1.240
  857SOL    HW2 3471   5.395   3.946   1.314
  858SOL     OW 3472   3.737   4.092   2.583
  858SOL    HW1 3473   3.645   4.124   2.606
  858SOL    HW2 3474   3.772   4.037   2.659
  859SOL     OW 3475   0.471   4.407   0.274
  859SOL    HW1 3476   0.491   4.402   0.372
  859SOL    HW2 3477   0.554   4.429   0.224
  860SOL     OW 3478   1.667   3.848   6.528
  860SOL    HW1 3479   1.665   3.761   6.577
  860SOL    HW2 3480   1.610   3.842   6.447
  861SOL     OW 3481   4.163   4.679   6.400
  861SOL    HW1 3482   4.092   4.673   6.330
  861SOL    HW2 3483   4.186   4.588   6.432
  862SOL     OW 3484   4.761   4.229   3.704
  862SOL    HW1 3485   4.800   4.146   3.741
  862SOL    HW2 3486   4.768   4.303   3.771
  863SOL     OW 3487   5.787   2.659   1.636
  863SOL    HW1 3488   5.691   2.688   1.641
  863SOL    HW2 3489   5.838   2.704   1.710
  864SOL     OW 3490   0.190   5.704   2.437
  864SOL    HW1 3491   0.144   5.699   2.349
  864SOL    HW2 3492   0.141   5.768   2.497
  865SOL     OW 3493   2.114   0.751   3.683
  865SOL    HW1 3494   2.038   0.756   3.618
  865SOL    HW2 3495   2.086   0.793   3.769
  866SOL     OW 3496   4.377   0.898   1.392
  866SOL    HW1 3497   4.320   0.978   1.378
  866SOL    HW2 3498   4.321   0.815   1.389
  867SOL     OW 3499   2.586   1.610   6.376
  867SOL    HW1 3500   2.618   1.676   6.444
  867SOL    HW2 3501   2.655   1.539   6.363
  868SOL     OW 3502   5.369   2.044   3.669
  868SOL    HW1 3503   5.306   2.056   3.592
  868SOL    HW2 3504   5.318   2.044   3.755
  869SOL     OW 3505   6.632   3.838   0.965
  869SOL    HW1 3506   6.552   3.802   1.012
  869SOL    HW2 3507   6.606   3.919   0.911
  870SOL     OW 3508   5.994   1.623   0.495
  870SOL    HW1 3509   6.049   1.626   0.579
  870SOL    HW2 3510   5.897   1.618   0.519
  871SOL     OW 3511   6.992   4.498   0.692
  871SOL    HW1 3512   6.932   4.512   0.770
  871SOL    HW2 3513   0.018   4.412   0.703
  872SOL     OW 3514   7.006   2.104   1.923
  872SOL    HW1 3515   7.021   2.168   1.999
  872SOL    HW2 3516   6.977   2.155   1.842
  873SOL     OW 3517   4.097   6.966   4.633
  873SOL    HW1 3518   4.153   6.946   4.552
  873SOL    HW2 3519   4.089   0.041   4.644
  874SOL     OW 3520   0.909   4.148   6.441
  874SOL    HW1 3521   0.865   4.228   6.402
  874SOL    HW2 3522   0.919   4.077   6.370
  875SOL     OW 3523   6.413   5.980   6.588
  875SOL    HW1 3524   6.383   5.980   6.493
  875SOL    HW2 3525   6.454   6.069   6.610
  876SOL     OW 3526   2.564   1.945   1.375
  876SOL    HW1 3527   2.544   1.994   1.290
  876SOL    HW2 3528   2.613   1.860   1.353
  877SOL     OW 3529   5.789   5.768   6.455
  877SOL    HW1 3530   5.815   5.856   6.417
  877SOL    HW2 3531   5.708   5.778   6.512
  878SOL     OW 3532   3.834   3.123   0.977
  878SOL    HW1 3533   3.861   3.199   1.037
  878SOL    HW2 3534   3.846   3.037   1.025
  879SOL     OW 3535   5.116   2.973   3.878
  879SOL    HW1 3536   5.016   2.964   3.879
  879SOL    HW2 3537   5.147   2.986   3.784
  880SOL     OW 3538   4.267   5.924   1.594
  880SOL    HW1 3539   4.308   6.015   1.595
  880SOL    HW2 3540   4.235   5.903   1.501
  881SOL     OW 3541   5.435   5.166   3.324
  881SOL    HW1 3542   5.456   5.157   3.422
  881SOL    HW2 3543   5.410   5.077   3.287
  882SOL     OW 3544   0.520   2.354   4.565
  882SOL    HW1 3545   0.480   2.442   4.539
  882SOL    HW2 3546   0.468   2.280   4.523
  883SOL     OW 3547   3.066   4.937   0.393
  883SOL    HW1 3548   2.997   5.009   0.404
  883SOL    HW2 3549   3.136   4.969   0.329
  884SOL     OW 3550   3.873   4.420   1.652
  884SOL    HW1 3551   3.784   4.387   1.681
  884SOL    HW2 3552   3.922   4.347   1.605
  885SOL     OW 3553   4.435   6.015   5.707
  885SOL    HW1 3554   4.380   5.981   5.784
  885SOL    HW2 3555   4.476   5.937   5.659
  886SOL     OW 3556   4.083   2.501   6.144
  886SOL    HW1 3557   4.092   2.471   6.239
  886SOL    HW2 3558   4.166   2.548   6.116
  887SOL     OW 3559   6.191   6.051   4.840
  887SOL    HW1 3560   6.133   6.133   4.846
  887SOL    HW2 3561   6.275   6.066   4.893
  888SOL     OW 3562   6.183   1.154   3.465
  888SOL    HW1 3563   6.266   1.104   3.439
  888SOL    HW2 3564   6.191   1.183   3.560
  889SOL     OW 3565   0.375   0.445   4.842
  889SOL    HW1 3566   0.458   0.500   4.847
  889SOL    HW2 3567   0.367   0.403   4.752
  890SOL     OW 3568   1.764   3.459   1.263
  890SOL    HW1 3569   1.856   3.424   1.245
  890SOL    HW2 3570   1.713   3.466   1.177
  891SOL     OW 3571   6.365   3.579   5.890
  891SOL    HW1 3572   6.351   3.673   5.861
  891SOL    HW2 3573   6.292   3.521   5.854
  892SOL     OW 3574   2.468   4.529   1.886
  892SOL    HW1 3575   2.386   4.521   1.829
  892SOL    HW2 3576   2.446   4.581   1.969
  893SOL     OW 3577   1.997   6.942   2.232
  893SOL    HW1 3578   1.925   6.921   2.298
  893SOL    HW2 3579   1.965   7.014   2.170
  894SOL     OW 3580   1.541   5.438   4.458
  894SOL    HW1 3581   1.598   5.464   4.379
  894SOL    HW2 3582   1.597   5.436   4.540
  895SOL     OW 3583   2.650   0.927   4.679
  895SOL    HW1 3584   2.614   0.951   4.588
  895SOL    HW2 3585   2.743   0.962   4.688
  896SOL     OW 3586   4.620   0.117   3.223
  896SOL    HW1 3587   4.548   0.078   3.166
  896SOL    HW2 3588   4.652   0.202   3.182
  897SOL     OW 3589   5.951   1.112   6.134
  897SOL    HW1 3590   5.975   1.015   6.131
  897SOL    HW2 3591   5.983   1.152   6.220
  898SOL     OW 3592   5.261   6.435   3.637
  898SOL    HW1 3593   5.332   6.365   3.635
  898SOL    HW2 3594   5.220   6.444   3.546
  899SOL     OW 3595   1.351   5.077   0.151
  899SOL    HW1 3596   1.397   5.096   0.237
  899SOL    HW2 3597   1.274   5.140   0.140
  900SOL     OW 3598   0.600   5.025   3.229
  900SOL    HW1 3599   0.562   4.960   3.163
  900SOL    HW2 3600   0.527   5.057   3.290
  901SOL     OW 3601   6.477   1.826   3.469
  901SOL    HW1 3602   6.447   1.779   3.552
  901SOL    HW2 3603   6.575   1.847   3.477
  902SOL     OW 3604   1.520   6.003   0.174
  902SOL    HW1 3605   1.538   5.911   0.139
  902SOL    HW2 3606   1.422   6.023   0.165
  903SOL     OW 3607   0.818   4.828   6.362
  903SOL    HW1 3608   0.833   4.774   6.445
  903SOL    HW2 3609   0.738   4.887   6.375
  904SOL     OW 3610   2.036   1.681   4.017
  904SOL    HW1 3611   2.000   1.669   4.110
  904SOL    HW2 3612   2.126   1.723   4.022
  905SOL     OW 3613   6.099   3.373   3.839
  905SOL    HW1 3614   6.169   3.440   3.863
  905SOL    HW2 3615   6.014   3.420   3.815
  906SOL     OW 3616   6.342   3.363   5.497
  906SOL    HW1 3617   6.340   3.346   5.398
  906SOL    HW2 3618   6.273   3.431   5.520
  907SOL     OW 3619   6.813   3.766   2.496
  907SOL    HW1 3620   6.779   3.677   2.526
  907SOL    HW2 3621   6.736   3.828   2.481
  908SOL     OW 3622   2.624   1.298   3.810
  908SOL    HW1 3623   2.623   1.207   3.852
  908SOL    HW2 3624   2.679   1.360   3.867
  909SOL     OW 3625   3.926   7.011   1.996
  909SOL    HW1 3626   3.901   0.017   1.904
  909SOL    HW2 3627   3.848   6.966   2.039
  910SOL     OW 3628   1.304   0.770   1.686
  910SOL    HW1 3629   1.299   0.777   1.786
  910SOL    HW2 3630   1.393   0.804   1.656
  911SOL     OW 3631   1.090   2.861   0.996
  911SOL    HW1 3632   0.994   2.888   1.005
  911SOL    HW2 3633   1.128   2.841   1.087
  912SOL     OW 3634   1.988   1.284   0.237
  912SOL    HW1 3635   1.896   1.307   0.204
  912SOL    HW2 3636   1.994   1.185   0.253
  913SOL     OW 3637   2.024   1.716   2.359
  913SOL    HW1 3638   1.991   1.778   2.287
  913SOL    HW2 3639   2.031   1.765   2.445
  914SOL     OW 3640   2.699   4.685   2.469
  914SOL    HW1 3641   2.601   4.702   2.469
  914SOL    HW2 3642   2.744   4.746   2.534
  915SOL     OW 3643   2.509   2.192   0.792
  915SOL    HW1 3644   2.417   2.210   0.826
  915SOL    HW2 3645   2.544   2.108   0.834
  916SOL     OW 3646   0.907   3.543   2.151
  916SOL    HW1 3647   0.956   3.626   2.128
  916SOL    HW2 3648   0.971   3.467   2.161
  917SOL     OW 3649   3.757   0.566   6.217
  917SOL    HW1 3650   3.659   0.587   6.219
  917SOL    HW2 3651   3.792   0.559   6.310
  918SOL     OW 3652   6.951   2.429   5.035
  918SOL    HW1 3653   6.872   2.429   4.973
  918SOL    HW2 3654   0.005   2.389   4.989
  919SOL     OW 3655   1.149   0.966   1.045
  919SOL    HW1 3656   1.196   0.885   1.080
  919SOL    HW2 3657   1.057   0.970   1.083
  920SOL     OW 3658   1.467   1.811   2.241
  920SOL    HW1 3659   1.374   1.796   2.210
  920SOL    HW2 3660   1.526   1.831   2.163
  921SOL     OW 3661   4.343   4.397   0.344
  921SOL    HW1 3662   4.304   4.488   0.334
  921SOL    HW2 3663   4.438   4.397   0.314
  922SOL     OW 3664   2.248   5.782   6.973
  922SOL    HW1 3665   2.220   5.730   0.029
  922SOL    HW2 3666   2.198   5.749   6.892
  923SOL     OW 3667   4.010   1.126   7.018
  923SOL    HW1 3668   4.024   1.195   6.946
  923SOL    HW2 3669   3.974   1.171   0.076
  924SOL     OW 3670   5.909   4.860   1.819
  924SOL    HW1 3671   5.907   4.941   1.879
  924SOL    HW2 3672   5.839   4.796   1.848
  925SOL     OW 3673   6.200   2.514   2.004
  925SOL    HW1 3674   6.229   2.609   2.011
  925SOL    HW2 3675   6.263   2.464   1.945
  926SOL     OW 3676   4.101   5.495   1.602
  926SOL    HW1 3677   4.188   5.446   1.603
  926SOL    HW2 3678   4.102   5.566   1.672
  927SOL     OW 3679   4.669   5.324   5.124
  927SOL    HW1 3680   4.697   5.379   5.046
  927SOL    HW2 3681   4.698   5.229   5.111
  928SOL     OW 3682   0.371   1.711   1.471
  928SOL    HW1 3683   0.453   1.756   1.436
  928SOL    HW2 3684   0.341   1.756   1.555
  929SOL     OW 3685   0.352   2.769   2.265
  929SOL    HW1 3686   0.328   2.686   2.215
  929SOL    HW2 3687   0.306   2.770   2.354
  930SOL     OW 3688   5.884   5.024   2.078
  930SOL    HW1 3689   5.853   4.960   2.149
  930SOL    HW2 3690   5.959   5.079   2.114
  931SOL     OW 3691   0.788   2.638   1.608
  931SOL    HW1 3692   0.738   2.565   1.563
  931SOL    HW2 3693   0.878   2.649   1.566
  932SOL     OW 3694   4.493   6.202   1.171
  932SOL    HW1 3695   4.429   6.132   1.203
  932SOL    HW2 3696   4.522   6.259   1.248
  933SOL     OW 3697   1.099   6.470   3.622
  933SOL    HW1 3698   1.142   6.535   3.559
  933SOL    HW2 3699   1.000   6.480   3.616
  934SOL     OW 3700   3.703   1.816   5.455
  934SOL    HW1 3701   3.651   1.731   5.462
  934SOL    HW2 3702   3.654   1.882   5.399
  935SOL     OW 3703   0.998   3.456   4.312
  935SOL    HW1 3704   0.949   3.394   4.252
  935SOL    HW2 3705   1.035   3.532   4.259
  936SOL     OW 3706   1.022   1.373   1.668
  936SOL    HW1 3707   1.014   1.381   1.767
  936SOL    HW2 3708   0.978   1.452   1.625
  937SOL     OW 3709   4.800   2.092   3.167
  937SOL    HW1 3710   4.782   2.165   3.101
  937SOL    HW2 3711   4.879   2.038   3.136
  938SOL     OW 3712   0.631   0.802   6.279
  938SOL    HW1 3713   0.616   0.703   6.277
  938SOL    HW2 3714   0.719   0.822   6.321
  939SOL     OW 3715   6.274   0.828   4.680
  939SOL    HW1 3716   6.354   0.822   4.740
  939SOL    HW2 3717   6.203   0.766   4.714
  940SOL     OW 3718   5.999   0.089   3.634
  940SOL    HW1 3719   5.900   0.093   3.627
  940SOL    HW2 3720   6.036   0.181   3.646
  941SOL     OW 3721   5.693   3.082   5.441
  941SOL    HW1 3722   5.617   3.105   5.380
  941SOL    HW2 3723   5.754   3.017   5.394
  942SOL     OW 3724   4.288   6.828   5.378
  942SOL    HW1 3725   4.277   6.748   5.320
  942SOL    HW2 3726   4.378   6.868   5.363
  943SOL     OW 3727   5.402   2.554   0.103
  943SOL    HW1 3728   5.365   2.565   0.195
  943SOL    HW2 3729   5.496   2.521   0.109
  944SOL     OW 3730   5.018   4.617   4.282
  944SOL    HW1 3731   5.106   4.570   4.289
  944SOL    HW2 3732   4.954   4.560   4.230
  945SOL     OW 3733   5.592   2.818   6.775
  945SOL    HW1 3734   5.541   2.775   6.850
  945SOL    HW2 3735   5.597   2.755   6.698
  946SOL     OW 3736   6.215   3.588   6.397
  946SOL    HW1 3737   6.180   3.510   6.343
  946SOL    HW2 3738   6.144   3.619   6.459
  947SOL     OW 3739   1.092   2.713   5.774
  947SOL    HW1 3740   1.160   2.725   5.847
  947SOL    HW2 3741   1.002   2.694   5.815
  948SOL     OW 3742   3.723   2.200   0.256
  948SOL    HW1 3743   3.675   2.287   0.260
  948SOL    HW2 3744   3.704   2.156   0.168
  949SOL     OW 3745   5.295   5.686   6.050
  949SOL    HW1 3746   5.321   5.628   5.973
  949SOL    HW2 3747   5.334   5.650   6.134
  950SOL     OW 3748   3.364   5.415   0.681
  950SOL    HW1 3749   3.423   5.359   0.738
  950SOL    HW2 3750   3.301   5.356   0.630
  951SOL     OW 3751   1.456   2.991   3.902
  951SOL    HW1 3752   1.365   3.020   3.929
  951SOL    HW2 3753   1.513   3.071   3.883
  952SOL     OW 3754   4.973   0.790   1.310
  952SOL    HW1 3755   4.966   0.889   1.299
  952SOL    HW2 3756   5.044   0.754   1.249
  953SOL     OW 3757   4.160   6.754   5.917
  953SOL    HW1 3758   4.235   6.818   5.897
  953SOL    HW2 3759   4.081   6.777   5.861
  954SOL     OW 3760   6.317   6.781   1.054
  954SOL    HW1 3761   6.332   6.686   1.029
  954SOL    HW2 3762   6.286   6.787   1.149
  955SOL     OW 3763   1.182   5.797   3.306
  955SOL    HW1 3764   1.105   5.749   3.347
  955SOL    HW2 3765   1.151   5.845   3.224
  956SOL     OW 3766   1.920   2.763   0.999
  956SOL    HW1 3767   1.822   2.768   1.018
  956SOL    HW2 3768   1.935   2.704   0.919
  957SOL     OW 3769   2.011   6.216   4.516
  957SOL    HW1 3770   2.002   6.171   4.605
  957SOL    HW2 3771   1.942   6.288   4.508
  958SOL     OW 3772   4.539   2.657   6.762
  958SOL    HW1 3773   4.547   2.640   6.860
  958SOL    HW2 3774   4.573   2.578   6.712
  959SOL     OW 3775   1.432   3.950   0.746
  959SOL    HW1 3776   1.424   3.918   0.840
  959SOL    HW2 3777   1.412   4.048   0.742
  960SOL     OW 3778   1.637   3.893   5.980
  960SOL    HW1 3779   1.589   3.963   6.034
  960SOL    HW2 3780   1.733   3.890   6.008
  961SOL     OW 3781   3.408   6.691   6.510
  961SOL    HW1 3782   3.487   6.709   6.452
  961SOL    HW2 3783   3.372   6.777   6.546
  962SOL     OW 3784   1.011   0.442   3.159
  962SOL    HW1 3785   1.090   0.495   3.189
  962SOL    HW2 3786   0.941   0.503   3.123
  963SOL     OW 3787   5.530   0.263   2.394
  963SOL    HW1 3788   5.517   0.356   2.358
  963SOL    HW2 3789   5.530   0.198   2.317
  964SOL     OW 3790   5.775   4.188   1.510
  964SOL    HW1 3791   5.701   4.127   1.538
  964SOL    HW2 3792   5.800   4.168   1.415
  965SOL     OW 3793   2.041   1.447   0.434
  965SOL    HW1 3794   2.025   1.372   0.370
  965SOL    HW2 3795   2.050   1.532   0.383
  966SOL     OW 3796   5.885   2.824   1.855
  966SOL    HW1 3797   5.964   2.881   1.880
  966SOL    HW2 3798   5.887   2.740   1.909
  967SOL     OW 3799   1.173   5.146   2.906
  967SOL    HW1 3800   1.230   5.165   2.826
  967SOL    HW2 3801   1.076   5.159   2.881
  968SOL     OW 3802   0.207   4.324   0.362
  968SOL    HW1 3803   0.295   4.339   0.316
  968SOL    HW2 3804   0.211   4.362   0.454
  969SOL     OW 3805   3.938   6.510   6.521
  969SOL    HW1 3806   3.959   6.578   6.451
  969SOL    HW2 3807   3.977   6.539   6.608
  970SOL     OW 3808   4.964   3.444   6.210
  970SOL    HW1 3809   4.966   3.456   6.111
  970SOL    HW2 3810   4.872   3.465   6.244
  971SOL     OW 3811   0.131   2.657   6.805
  971SOL    HW1 3812   0.151   2.569   6.763
  971SOL    HW2 3813   0.212   2.688   6.857
  972SOL     OW 3814   4.780   6.893   6.864
  972SOL    HW1 3815   4.759   6.990   6.873
  972SOL    HW2 3816   4.713   6.840   6.917
  973SOL     OW 3817   6.326   3.104   5.927
  973SOL    HW1 3818   6.408   3.091   5.982
  973SOL    HW2 3819   6.349   3.095   5.830
  974SOL     OW 3820   2.012   0.303   4.628
  974SOL    HW1 3821   1.958   0.231   4.585
  974SOL    HW2 3822   1.961   0.389   4.627
  975SOL     OW 3823   3.042   0.139   4.818
  975SOL    HW1 3824   3.080   0.053   4.852
  975SOL    HW2 3825   2.958   0.120   4.767
  976SOL     OW 3826   0.433   5.006   4.045
  976SOL    HW1 3827   0.355   5.035   4.099
  976SOL    HW2 3828   0.514   5.058   4.072
  977SOL     OW 3829   1.391   2.223   2.239
  977SOL    HW1 3830   1.368   2.314   2.205
  977SOL    HW2 3831   1.487   2.221   2.266
  978SOL     OW 3832   5.859   2.819   4.267
  978SOL    HW1 3833   5.895   2.747   4.208
  978SOL    HW2 3834   5.761   2.806   4.280
  979SOL     OW 3835   6.313   1.914   2.808
  979SOL    HW1 3836   6.254   1.959   2.875
  979SOL    HW2 3837   6.300   1.815   2.813
  980SOL     OW 3838   6.676   0.076   5.538
  980SOL    HW1 3839   6.698   0.093   5.634
  980SOL    HW2 3840   6.688   7.003   5.518
  981SOL     OW 3841   6.557   3.211   6.732
  981SOL    HW1 3842   6.586   3.305   6.753
  981SOL    HW2 3843   6.465   3.196   6.766
  982SOL     OW 3844   1.672   4.592   0.597
  982SOL    HW1 3845   1.732   4.663   0.634
  982SOL    HW2 3846   1.594   4.579   0.659
  983SOL     OW 3847   5.570   1.013   3.387
  983SOL    HW1 3848   5.620   1.067   3.455
  983SOL    HW2 3849   5.583   0.915   3.406
  984SOL     OW 3850   4.956   3.071   5.012
  984SOL    HW1 3851   5.046   3.060   4.969
  984SOL    HW2 3852   4.912   3.152   4.975
  985SOL     OW 3853   1.725   4.146   0.387
  985SOL    HW1 3854   1.783   4.145   0.306
  985SOL    HW2 3855   1.710   4.053   0.419
  986SOL     OW 3856   4.862   4.194   5.483
  986SOL    HW1 3857   4.922   4.153   5.415
  986SOL    HW2 3858   4.864   4.294   5.473
  987SOL     OW 3859   3.103   0.675   2.854
  987SOL    HW1 3860   3.144   0.750   2.906
  987SOL    HW2 3861   3.160   0.593   2.864
  988SOL     OW 3862   3.847   2.901   1.521
  988SOL    HW1 3863   3.782   2.977   1.525
  988SOL    HW2 3864   3.867   2.869   1.613
  989SOL     OW 3865   0.447   1.157   4.203
  989SOL    HW1 3866   0.544   1.181   4.203
  989SOL    HW2 3867   0.432   1.079   4.142
  990SOL     OW 3868   5.152   6.581   2.236
  990SOL    HW1 3869   5.151   6.654   2.167
  990SOL    HW2 3870   5.246   6.563   2.264
  991SOL     OW 3871   6.019   1.572   5.603
  991SOL    HW1 3872   6.022   1.531   5.694
  991SOL    HW2 3873   6.112   1.577   5.566
  992SOL     OW 3874   0.018   2.701   1.139
  992SOL    HW1 3875   6.976   2.662   1.203
  992SOL    HW2 3876   0.097   2.736   1.189
  993SOL     OW 3877   4.414   6.919   4.683
  993SOL    HW1 3878   4.369   6.959   4.603
  993SOL    HW2 3879   4.378   6.960   4.766
  994SOL     OW 3880   2.972   3.790   3.280
  994SOL    HW1 3881   2.932   3.735   3.354
  994SOL    HW2 3882   3.029   3.862   3.319
  995SOL     OW 3883   0.616   1.930   5.192
  995SOL    HW1 3884   0.662   1.998   5.135
  995SOL    HW2 3885   0.519   1.925   5.166
  996SOL     OW 3886   1.137   3.410   0.116
  996SOL    HW1 3887   1.157   3.430   0.020
  996SOL    HW2 3888   1.040   3.387   0.126
  997SOL     OW 3889   6.450   1.515   0.595
  997SOL    HW1 3890   6.502   1.564   0.666
  997SOL    HW2 3891   6.460   1.416   0.610
  998SOL     OW 3892   5.041   0.008   3.129
  998SOL    HW1 3893   5.133   0.026   3.094
  998SOL    HW2 3894   4.982   0.087   3.114
  999SOL     OW 3895   6.629   5.501   0.910
  999SOL    HW1 3896   6.716   5.473   0.952
  999SOL    HW2 3897   6.565   5.425   0.910
 1000SOL     OW 3898   4.321   1.951   4.918
 1000SOL    HW1 3899   4.262   2.028   4.939
 1000SOL    HW2 3900   4.324   1.889   4.997
 1001SOL     OW 3901   4.823   0.984   5.183
 1001SOL    HW1 3902   4.757   0.935   5.127
 1001SOL    HW2 3903   4.845   0.930   5.264
 1002SOL     OW 3904   0.568   1.415   0.297
 1002SOL    HW1 3905   0.590   1.459   0.210
 1002SOL    HW2 3906   0.468   1.408   0.306
 1003SOL     OW 3907   3.994   5.109   2.816
 1003SOL    HW1 3908   4.042   5.197   2.824
 1003SOL    HW2 3909   3.986   5.085   2.720
 1004SOL     OW 3910   6.172   5.883   0.257
 1004SOL    HW1 3911   6.195   5.791   0.224
 1004SOL    HW2 3912   6.254   5.940   0.259
 1005SOL     OW 3913   6.009   6.469   3.164
 1005SOL    HW1 3914   6.107   6.449   3.163
 1005SOL    HW2 3915   5.994   6.562   3.129
 1006SOL     OW 3916   1.813   5.044   0.287
 1006SOL    HW1 3917   1.892   4.994   0.323
 1006SOL    HW2 3918   1.738   4.980   0.270
 1007SOL     OW 3919   6.345   1.626   2.819
 1007SOL    HW1 3920   6.436   1.635   2.860
 1007SOL    HW2 3921   6.354   1.626   2.719
 1008SOL     OW 3922   3.252   1.997   4.987
 1008SOL    HW1 3923   3.294   2.008   4.897
 1008SOL    HW2 3924   3.186   2.070   5.003
 1009SOL     OW 3925   3.220   6.266   6.060
 1009SOL    HW1 3926   3.160   6.224   5.993
 1009SOL    HW2 3927   3.228   6.206   6.140
 1010SOL     OW 3928   5.113   6.675   5.296
 1010SOL    HW1 3929   5.025   6.652   5.338
 1010SOL    HW2 3930   5.112   6.650   5.199
 1011SOL     OW 3931   2.714   5.362   4.432
 1011SOL    HW1 3932   2.705   5.457   4.401
 1011SOL    HW2 3933   2.642   5.306   4.391
 1012SOL     OW 3934   3.764   6.607   1.140
 1012SOL    HW1 3935   3.814   6.578   1.058
 1012SOL    HW2 3936   3.762   6.707   1.143
 1013SOL     OW 3937   0.677   0.358   6.840
 1013SOL    HW1 3938   0.637   0.271   6.812
 1013SOL    HW2 3939   0.776   0.349   6.848
 1014SOL     OW 3940   6.007   6.777   5.841
 1014SOL    HW1 3941   5.918   6.809   5.809
 1014SOL    HW2 3942   6.021   6.806   5.935
 1015SOL     OW 3943   2.707   0.741   5.026
 1015SOL    HW1 3944   2.721   0.735   4.927
 1015SOL    HW2 3945   2.794   0.765   5.070
 1016SOL     OW 3946   4.597   3.065   1.411
 1016SOL    HW1 3947   4.562   3.076   1.504
 1016SOL    HW2 3948   4.521   3.075   1.346
 1017SOL     OW 3949   4.564   6.787   6.094
 1017SOL    HW1 3950   4.541   6.885   6.091
 1017SOL    HW2 3951   4.552   6.753   6.187
 1018SOL     OW 3952   1.641   2.084   1.641
 1018SOL    HW1 3953   1.577   2.148   1.683
 1018SOL    HW2 3954   1.590   2.012   1.594
 1019SOL     OW 3955   5.566   1.134   0.749
 1019SOL    HW1 3956   5.511   1.108   0.828
 1019SOL    HW2 3957   5.534   1.083   0.668
 1020SOL     OW 3958   3.626   2.052   1.787
 1020SOL    HW1 3959   3.625   2.093   1.878
 1020SOL    HW2 3960   3.632   2.124   1.718
 1021SOL     OW 3961   6.942   1.709   1.239
 1021SOL    HW1 3962   6.897   1.628   1.202
 1021SOL    HW2 3963   7.023   1.731   1.184
 1022SOL     OW 3964   3.384   2.941   0.117
 1022SOL    HW1 3965   3.368   2.848   0.150
 1022SOL    HW2 3966   3.353   2.949   0.023
 1023SOL     OW 3967   6.647   0.520   4.551
 1023SOL    HW1 3968   6.734   0.565   4.532
 1023SOL    HW2 3969   6.663   0.433   4.596
 1024SOL     OW 3970   6.299   2.445   3.772
 1024SOL    HW1 3971   6.237   2.401   3.707
 1024SOL    HW2 3972   6.382   2.391   3.781
 1025SOL     OW 3973   2.640   4.394   1.408
 1025SOL    HW1 3974   2.673   4.306   1.373
 1025SOL    HW2 3975   2.564   4.426   1.351
 1026SOL     OW 3976   0.670   2.410   6.538
 1026SOL    HW1 3977   0.729   2.463   6.477
 1026SOL    HW2 3978   0.688   2.312   6.526
 1027SOL     OW 3979   2.266   4.878   1.161
 1027SOL    HW1 3980   2.274   4.869   1.061
 1027SOL    HW2 3981   2.206   4.806   1.196
 1028SOL     OW 3982   0.426   5.345   6.768
 1028SOL    HW1 3983   0.452   5.249   6.767
 1028SOL    HW2 3984   0.418   5.378   6.674
 1029SOL     OW 3985   3.740   0.484   4.857
 1029SOL    HW1 3986   3.805   0.542   4.807
 1029SOL    HW2 3987   3.791   0.423   4.918
 1030SOL     OW 3988   4.192   5.170   4.858
 1030SOL    HW1 3989   4.130   5.222   4.918
 1030SOL    HW2 3990   4.282   5.213   4.858
 1031SOL     OW 3991   2.503   6.207   0.990
 1031SOL    HW1 3992   2.493   6.180   0.894
 1031SOL    HW2 3993   2.599   6.229   1.008
 1032SOL     OW 3994   1.035   1.533   5.222
 1032SOL    HW1 3995   1.049   1.581   5.136
 1032SOL    HW2 3996   1.058   1.593   5.298
 1033SOL     OW 3997   2.940   0.106   1.610
 1033SOL    HW1 3998   3.019   0.045   1.615
 1033SOL    HW2 3999   2.875   0.071   1.543
 1034SOL     OW 4000   6.969   6.552   2.014
 1034SOL    HW1 4001   0.033   6.561   2.061
 1034SOL    HW2 4002   6.909   6.627   2.042
 1035SOL     OW 4003   3.237   2.080   3.084
 1035SOL    HW1 4004   3.174   2.048   3.013
 1035SOL    HW2 4005   3.328   2.093   3.045
 1036SOL     OW 4006   4.562   6.579   6.698
 1036SOL    HW1 4007   4.615   6.565   6.781
 1036SOL    HW2 4008   4.616   6.549   6.619
 1037SOL     OW 4009   4.174   1.263   6.241
 1037SOL    HW1 4010   4.150   1.235   6.148
 1037SOL    HW2 4011   4.244   1.334   6.238
 1038SOL     OW 4012   2.861   1.690   5.370
 1038SOL    HW1 4013   2.904   1.663   5.456
 1038SOL    HW2 4014   2.902   1.775   5.338
 1039SOL     OW 4015   5.173   1.699   2.990
 1039SOL    HW1 4016   5.090   1.650   2.965
 1039SOL    HW2 4017   5.245   1.634   3.015
 1040SOL     OW 4018   6.103   4.151   4.271
 1040SOL    HW1 4019   6.028   4.168   4.207
 1040SOL    HW2 4020   6.096   4.214   4.348
 1041SOL     OW 4021   1.679   6.747   4.729
 1041SOL    HW1 4022   1.596   6.704   4.694
 1041SOL    HW2 4023   1.758   6.687   4.714
 1042SOL     OW 4024   4.523   4.065   0.412
 1042SOL    HW1 4025   4.524   4.078   0.511
 1042SOL    HW2 4026   4.494   3.971   0.392
 1043SOL     OW 4027   4.109   0.284   6.468
 1043SOL    HW1 4028   4.018   0.295   6.428
 1043SOL    HW2 4029   4.146   0.194   6.444
 1044SOL     OW 4030   3.456   4.014   3.243
 1044SOL    HW1 4031   3.366   4.026   3.200
 1044SOL    HW2 4032   3.456   4.057   3.333
 1045SOL     OW 4033   2.792   0.929   2.930
 1045SOL    HW1 4034   2.732   0.930   3.010
 1045SOL    HW2 4035   2.790   1.020   2.887
 1046SOL     OW 4036   3.072   0.810   2.297
 1046SOL    HW1 4037   3.079   0.710   2.301
 1046SOL    HW2 4038   3.006   0.841   2.366
 1047SOL     OW 4039   6.783   6.584   1.573
 1047SOL    HW1 4040   6.743   6.542   1.491
 1047SOL    HW2 4041   6.711   6.604   1.639
 1048SOL     OW 4042   6.172   4.175   4.824
 1048SOL    HW1 4043   6.246   4.241   4.830
 1048SOL    HW2 4044   6.181   4.107   4.898
 1049SOL     OW 4045   0.790   3.811   5.390
 1049SOL    HW1 4046   0.890   3.816   5.387
 1049SOL    HW2 4047   0.762   3.762   5.473
 1050SOL     OW 4048   2.756   0.558   1.328
 1050SOL    HW1 4049   2.780   0.493   1.400
 1050SOL    HW2 4050   2.724   0.643   1.369
 1051SOL     OW 4051   4.564   4.592   1.451
 1051SOL    HW1 4052   4.585   4.497   1.474
 1051SOL    HW2 4053   4.536   4.641   1.534
 1052SOL     OW 4054   3.222   0.278   3.962
 1052SOL    HW1 4055   3.286   0.354   3.969
 1052SOL    HW2 4056   3.130   0.313   3.945
 1053SOL     OW 4057   3.838   5.184   3.729
 1053SOL    HW1 4058   3.763   5.145   3.781
 1053SOL    HW2 4059   3.818   5.178   3.631
 1054SOL     OW 4060   4.018   5.977   4.599
 1054SOL    HW1 4061   3.950   6.051   4.605
 1054SOL    HW2 4062   3.973   5.894   4.567
 1055SOL     OW 4063   4.114   4.759   4.390
 1055SOL    HW1 4064   4.113   4.667   4.429
 1055SOL    HW2 4065   4.144   4.754   4.295
 1056SOL     OW 4066   2.696   5.837   0.124
 1056SOL    HW1 4067   2.677   5.875   0.215
 1056SOL    HW2 4068   2.777   5.779   0.129
 1057SOL     OW 4069   3.678   4.038   1.575
 1057SOL    HW1 4070   3.593   4.012   1.529
 1057SOL    HW2 4071   3.665   4.035   1.674
 1058SOL     OW 4072   2.961   6.742   1.637
 1058SOL    HW1 4073   3.040   6.804   1.629
 1058SOL    HW2 4074   2.916   6.757   1.726
 1059SOL     OW 4075   4.441   0.370   0.833
 1059SOL    HW1 4076   4.520   0.374   0.895
 1059SOL    HW2 4077   4.377   0.443   0.857
 1060SOL     OW 4078   3.599   1.806   4.218
 1060SOL    HW1 4079   3.639   1.803   4.126
 1060SOL    HW2 4080   3.538   1.727   4.230
 1061SOL     OW 4081   2.375   5.866   1.025
 1061SOL    HW1 4082   2.323   5.860   1.111
 1061SOL    HW2 4083   2.473   5.857   1.045
 1062SOL     OW 4084   5.136   4.475   4.587
 1062SOL    HW1 4085   5.065   4.413   4.556
 1062SOL    HW2 4086   5.105   4.570   4.578
 1063SOL     OW 4087   3.591   2.191   5.975
 1063SOL    HW1 4088   3.526   2.267   5.976
 1063SOL    HW2 4089   3.624   2.176   5.882
 1064SOL     OW 4090   0.452   3.561   3.075
 1064SOL    HW1 4091   0.521   3.625   3.041
 1064SOL    HW2 4092   0.481   3.468   3.054
 1065SOL     OW 4093   4.622   4.965   6.521
 1065SOL    HW1 4094   4.644   4.889   6.581
 1065SOL    HW2 4095   4.593   5.043   6.576
 1066SOL     OW 4096   4.639   0.454   3.588
 1066SOL    HW1 4097   4.703   0.424   3.659
 1066SOL    HW2 4098   4.590   0.374   3.553
 1067SOL     OW 4099   3.169   4.076   0.209
 1067SOL    HW1 4100   3.153   4.171   0.233
 1067SOL    HW2 4101   3.238   4.070   0.137
 1068SOL     OW 4102   0.956   5.487   1.636
 1068SOL    HW1 4103   1.029   5.418   1.638
 1068SOL    HW2 4104   0.997   5.577   1.627
 1069SOL     OW 4105   3.357   3.268   2.835
 1069SOL    HW1 4106   3.325   3.305   2.922
 1069SOL    HW2 4107   3.457   3.258   2.838
 1070SOL     OW 4108   1.855   5.905   0.701
 1070SOL    HW1 4109   1.860   5.930   0.604
 1070SOL    HW2 4110   1.944   5.923   0.744
 1071SOL     OW 4111   5.184   6.000   3.344
 1071SOL    HW1 4112   5.208   6.070   3.277
 1071SOL    HW2 4113   5.267   5.961   3.383
 1072SOL     OW 4114   3.980   5.750   3.294
 1072SOL    HW1 4115   4.050   5.810   3.332
 1072SOL    HW2 4116   4.020   5.694   3.221
 1073SOL     OW 4117   2.825   5.308   3.369
 1073SOL    HW1 4118   2.828   5.399   3.328
 1073SOL    HW2 4119   2.917   5.280   3.396
 1074SOL     OW 4120   1.756   4.613   3.466
 1074SOL    HW1 4121   1.663   4.579   3.454
 1074SOL    HW2 4122   1.799   4.627   3.377
 1075SOL     OW 4123   0.602   4.096   2.481
 1075SOL    HW1 4124   0.672   4.161   2.511
 1075SOL    HW2 4125   0.604   4.088   2.382
 1076SOL     OW 4126   6.007   3.894   3.212
 1076SOL    HW1 4127   5.955   3.848   3.285
 1076SOL    HW2 4128   6.094   3.926   3.249
 1077SOL     OW 4129   4.437   0.337   1.812
 1077SOL    HW1 4130   4.389   0.254   1.842
 1077SOL    HW2 4131   4.377   0.416   1.827
 1078SOL     OW 4132   6.981   2.809   2.397
 1078SOL    HW1 4133   6.967   2.904   2.369
 1078SOL    HW2 4134   0.047   2.800   2.440
 1079SOL     OW 4135   1.248   4.624   3.129
 1079SOL    HW1 4136   1.253   4.700   3.063
 1079SOL    HW2 4137   1.158   4.624   3.172
 1080SOL     OW 4138   1.806   5.537   3.633
 1080SOL    HW1 4139   1.826   5.612   3.569
 1080SOL    HW2 4140   1.793   5.575   3.725
 1081SOL     OW 4141   1.591   0.308   0.097
 1081SOL    HW1 4142   1.640   0.275   0.017
 1081SOL    HW2 4143   1.543   0.393   0.073
 1082SOL     OW 4144   2.200   0.212   1.223
 1082SOL    HW1 4145   2.297   0.225   1.241
 1082SOL    HW2 4146   2.189   0.140   1.153
 1083SOL     OW 4147   3.680   2.912   1.896
 1083SOL    HW1 4148   3.723   2.932   1.985
 1083SOL    HW2 4149   3.583   2.934   1.900
 1084SOL     OW 4150   6.295   4.070   1.494
 1084SOL    HW1 4151   6.213   4.127   1.502
 1084SOL    HW2 4152   6.348   4.098   1.415
 1085SOL     OW 4153   1.635   5.575   4.224
 1085SOL    HW1 4154   1.654   5.528   4.138
 1085SOL    HW2 4155   1.619   5.672   4.206
 1086SOL     OW 4156   3.303   5.698   2.794
 1086SOL    HW1 4157   3.374   5.763   2.767
 1086SOL    HW2 4158   3.258   5.663   2.712
 1087SOL     OW 4159   3.760   2.970   5.499
 1087SOL    HW1 4160   3.730   2.904   5.430
 1087SOL    HW2 4161   3.860   2.969   5.506
 1088SOL     OW 4162   0.095   4.314   2.706
 1088SOL    HW1 4163   0.096   4.414   2.695
 1088SOL    HW2 4164   0.093   4.292   2.804
 1089SOL     OW 4165   6.512   0.012   3.122
 1089SOL    HW1 4166   6.420   0.010   3.160
 1089SOL    HW2 4167   6.569   6.969   3.170
 1090SOL     OW 4168   2.304   2.490   6.341
 1090SOL    HW1 4169   2.319   2.582   6.305
 1090SOL    HW2 4170   2.391   2.452   6.373
 1091SOL     OW 4171   1.207   2.091   6.201
 1091SOL    HW1 4172   1.264   2.024   6.154
 1091SOL    HW2 4173   1.125   2.110   6.146
 1092SOL     OW 4174   3.122   4.892   1.746
 1092SOL    HW1 4175   3.112   4.819   1.814
 1092SOL    HW2 4176   3.218   4.921   1.743
 1093SOL     OW 4177   0.450   2.532   1.473
 1093SOL    HW1 4178   0.394   2.482   1.539
 1093SOL    HW2 4179   0.530   2.476   1.449
 1094SOL     OW 4180   1.211   6.045   2.533
 1094SOL    HW1 4181   1.129   5.990   2.546
 1094SOL    HW2 4182   1.188   6.131   2.487
 1095SOL     OW 4183   0.586   3.428   6.205
 1095SOL    HW1 4184   0.612   3.490   6.279
 1095SOL    HW2 4185   0.573   3.336   6.242
 1096SOL     OW 4186   3.444   2.858   2.567
 1096SOL    HW1 4187   3.384   2.918   2.620
 1096SOL    HW2 4188   3.438   2.883   2.470
 1097SOL     OW 4189   2.758   5.172   5.735
 1097SOL    HW1 4190   2.839   5.184   5.792
 1097SOL    HW2 4191   2.690   5.119   5.785
 1098SOL     OW 4192   3.156   0.674   2.577
 1098SOL    HW1 4193   3.128   0.645   2.669
 1098SOL    HW2 4194   3.249   0.713   2.581
 1099SOL     OW 4195   3.012   0.484   2.283
 1099SOL    HW1 4196   2.970   0.516   2.368
 1099SOL    HW2 4197   3.076   0.410   2.304
 1100SOL     OW 4198   6.653   0.762   0.183
 1100SOL    HW1 4199   6.738   0.796   0.223
 1100SOL    HW2 4200   6.673   0.705   0.104
 1101SOL     OW 4201   5.616   3.415   1.020
 1101SOL    HW1 4202   5.559   3.497   1.023
 1101SOL    HW2 4203   5.576   3.350   0.956
 1102SOL     OW 4204   6.861   3.667   4.160
 1102SOL    HW1 4205   6.893   3.713   4.077
 1102SOL    HW2 4206   6.871   3.568   4.151
 1103SOL     OW 4207   0.637   2.843   0.263
 1103SOL    HW1 4208   0.629   2.830   0.164
 1103SOL    HW2 4209   0.599   2.932   0.288
 1104SOL     OW 4210   2.424   5.527   5.443
 1104SOL    HW1 4211   2.479   5.455   5.484
 1104SOL    HW2 4212   2.469   5.561   5.361
 1105SOL     OW 4213   4.113   5.754   0.807
 1105SOL    HW1 4214   4.176   5.823   0.841
 1105SOL    HW2 4215   4.021   5.792   0.799
 1106SOL     OW 4216   0.767   1.967   6.982
 1106SOL    HW1 4217   0.817   1.884   6.958
 1106SOL    HW2 4218   0.669   1.952   6.969
 1107SOL     OW 4219   6.350   6.878   1.422
 1107SOL    HW1 4220   6.290   6.956   1.443
 1107SOL    HW2 4221   6.295   6.795   1.412
 1108SOL     OW 4222   1.478   0.924   0.423
 1108SOL    HW1 4223   1.576   0.925   0.440
 1108SOL    HW2 4224   1.429   0.952   0.506
 1109SOL     OW 4225   4.107   1.127   3.650
 1109SOL    HW1 4226   4.024   1.090   3.691
 1109SOL    HW2 4227   4.148   1.058   3.590
 1110SOL     OW 4228   3.427   3.132   3.086
 1110SOL    HW1 4229   3.345   3.098   3.040
 1110SOL    HW2 4230   3.477   3.056   3.126
 1111SOL     OW 4231   4.048   6.579   6.771
 1111SOL    HW1 4232   4.133   6.619   6.738
 1111SOL    HW2 4233   4.025   6.619   6.860
 1112SOL     OW 4234   0.992   1.314   2.802
 1112SOL    HW1 4235   0.929   1.390   2.817
 1112SOL    HW2 4236   0.974   1.243   2.870
 1113SOL     OW 4237   6.565   3.484   1.398
 1113SOL    HW1 4238   6.588   3.405   1.455
 1113SOL    HW2 4239   6.469   3.479   1.370
 1114SOL     OW 4240   6.090   1.024   5.774
 1114SOL    HW1 4241   6.107   1.103   5.833
 1114SOL    HW2 4242   6.173   1.004   5.721
 1115SOL     OW 4243   2.201   5.183   0.542
 1115SOL    HW1 4244   2.102   5.170   0.545
 1115SOL    HW2 4245   2.223   5.267   0.493
 1116SOL     OW 4246   3.898   6.050   6.888
 1116SOL    HW1 4247   3.935   5.970   6.841
 1116SOL    HW2 4248   3.799   6.040   6.898
 1117SOL     OW 4249   2.526   2.876   0.919
 1117SOL    HW1 4250   2.599   2.915   0.862
 1117SOL    HW2 4251   2.516   2.931   1.002
 1118SOL     OW 4252   1.351   2.561   1.446
 1118SOL    HW1 4253   1.443   2.583   1.414
 1118SOL    HW2 4254   1.322   2.473   1.408
 1119SOL     OW 4255   2.983   3.833   3.602
 1119SOL    HW1 4256   2.955   3.742   3.573
 1119SOL    HW2 4257   2.975   3.841   3.701
 1120SOL     OW 4258   3.175   1.235   3.744
 1120SOL    HW1 4259   3.153   1.201   3.653
 1120SOL    HW2 4260   3.185   1.334   3.742
 1121SOL     OW 4261   4.788   4.134   3.078
 1121SOL    HW1 4262   4.852   4.062   3.102
 1121SOL    HW2 4263   4.772   4.133   2.979
 1122SOL     OW 4264   4.299   4.928   6.378
 1122SOL    HW1 4265   4.257   4.837   6.383
 1122SOL    HW2 4266   4.383   4.928   6.432
 1123SOL     OW 4267   3.751   0.814   2.212
 1123SOL    HW1 4268   3.745   0.835   2.310
 1123SOL    HW2 4269   3.838   0.769   2.193
 1124SOL     OW 4270   1.941   5.258   3.796
 1124SOL    HW1 4271   1.999   5.191   3.843
 1124SOL    HW2 4272   1.950   5.247   3.697
 1125SOL     OW 4273   3.278   4.132   5.478
 1125SOL    HW1 4274   3.216   4.140   5.400
 1125SOL    HW2 4275   3.225   4.131   5.563
 1126SOL     OW 4276   6.226   0.564   2.093
 1126SOL    HW1 4277   6.273   0.652   2.086
 1126SOL    HW2 4278   6.168   0.564   2.174
 1127SOL     OW 4279   2.193   5.416   6.028
 1127SOL    HW1 4280   2.150   5.357   6.097
 1127SOL    HW2 4281   2.123   5.452   5.966
 1128SOL     OW 4282   2.478   2.645   5.053
 1128SOL    HW1 4283   2.563   2.697   5.049
 1128SOL    HW2 4284   2.411   2.684   4.990
 1129SOL     OW 4285   3.998   5.846   6.278
 1129SOL    HW1 4286   4.046   5.761   6.259
 1129SOL    HW2 4287   4.004   5.866   6.376
 1130SOL     OW 4288   0.870   4.980   5.621
 1130SOL    HW1 4289   0.792   5.001   5.561
 1130SOL    HW2 4290   0.882   5.053   5.688
 1131SOL     OW 4291   0.001   4.740   6.187
 1131SOL    HW1 4292   6.980   4.651   6.197
 1131SOL    HW2 4293   0.033   4.751   6.093
 1132SOL     OW 4294   5.163   6.488   4.769
 1132SOL    HW1 4295   5.146   6.569   4.712
 1132SOL    HW2 4296   5.111   6.410   4.732
 1133SOL     OW 4297   6.835   2.098   6.767
 1133SOL    HW1 4298   6.860   2.102   6.864
 1133SOL    HW2 4299   6.741   2.131   6.755
 1134SOL     OW 4300   0.246   3.067   5.630
 1134SOL    HW1 4301   0.255   3.080   5.728
 1134SOL    HW2 4302   0.271   2.973   5.606
 1135SOL     OW 4303   0.026   1.508   4.245
 1135SOL    HW1 4304   7.017   1.423   4.204
 1135SOL    HW2 4305   7.010   1.519   4.336
 1136SOL     OW 4306   3.691   5.133   3.980
 1136SOL    HW1 4307   3.669   5.228   4.000
 1136SOL    HW2 4308   3.703   5.082   4.065
 1137SOL     OW 4309   0.746   0.606   0.029
 1137SOL    HW1 4310   0.799   0.531   7.013
 1137SOL    HW2 4311   0.648   0.588   0.017
 1138SOL     OW 4312   1.057   3.266   5.678
 1138SOL    HW1 4313   1.045   3.321   5.595
 1138SOL    HW2 4314   1.154   3.246   5.691
 1139SOL     OW 4315   0.668   0.313   2.332
 1139SOL    HW1 4316   0.644   0.276   2.422
 1139SOL    HW2 4317   0.625   0.403   2.321
 1140SOL     OW 4318   3.945   1.735   3.222
 1140SOL    HW1 4319   3.901   1.653   3.260
 1140SOL    HW2 4320   3.907   1.754   3.131
 1141SOL     OW 4321   0.072   6.236   5.910
 1141SOL    HW1 4322   0.104   6.195   5.825
 1141SOL    HW2 4323   0.006   6.176   5.955
 1142SOL     OW 4324   6.389   6.901   5.237
 1142SOL    HW1 4325   6.379   6.956   5.154
 1142SOL    HW2 4326   6.397   6.962   5.316
 1143SOL     OW 4327   5.259   2.960   1.223
 1143SOL    HW1 4328   5.310   3.008   1.294
 1143SOL    HW2 4329   5.215   2.879   1.262
 1144SOL     OW 4330   0.636   6.423   5.075
 1144SOL    HW1 4331   0.697   6.484   5.124
 1144SOL    HW2 4332   0.664   6.416   4.979
 1145SOL     OW 4333   1.937   5.239   4.864
 1145SOL    HW1 4334   2.022   5.241   4.916
 1145SOL    HW2 4335   1.957   5.252   4.767
 1146SOL     OW 4336   5.994   1.940   1.907
 1146SOL    HW1 4337   5.999   2.000   1.987
 1146SOL    HW2 4338   6.078   1.887   1.899
 1147SOL     OW 4339   6.356   3.723   1.878
 1147SOL    HW1 4340   6.346   3.822   1.875
 1147SOL    HW2 4341   6.290   3.683   1.941
 1148SOL     OW 4342   6.269   0.466   6.342
 1148SOL    HW1 4343   6.243   0.536   6.276
 1148SOL    HW2 4344   6.318   0.393   6.295
 1149SOL     OW 4345   5.080   3.155   3.213
 1149SOL    HW1 4346   5.022   3.127   3.289
 1149SOL    HW2 4347   5.051   3.244   3.180
 1150SOL     OW 4348   1.631   6.065   5.307
 1150SOL    HW1 4349   1.598   6.145   5.257
 1150SOL    HW2 4350   1.696   6.014   5.250
 1151SOL     OW 4351   2.520   5.135   0.113
 1151SOL    HW1 4352   2.500   5.125   0.210
 1151SOL    HW2 4353   2.458   5.202   0.072
 1152SOL     OW 4354   0.073   0.708   3.181
 1152SOL    HW1 4355   0.012   0.655   3.241
 1152SOL    HW2 4356   0.057   0.806   3.194
 1153SOL     OW 4357   2.270   4.497   2.506
 1153SOL    HW1 4358   2.334   4.558   2.552
 1153SOL    HW2 4359   2.285   4.403   2.537
 1154SOL     OW 4360   1.701   4.347   2.156
 1154SOL    HW1 4361   1.742   4.345   2.248
 1154SOL    HW2 4362   1.605   4.320   2.161
 1155SOL     OW 4363   4.658   0.446   1.928
 1155SOL    HW1 4364   4.572   0.405   1.899
 1155SOL    HW2 4365   4.692   0.506   1.855
 1156SOL     OW 4366   2.085   0.838   4.480
 1156SOL    HW1 4367   2.126   0.925   4.507
 1156SOL    HW2 4368   1.990   0.836   4.512
 1157SOL     OW 4369   1.191   3.472   3.729
 1157SOL    HW1 4370   1.290   3.481   3.738
 1157SOL    HW2 4371   1.153   3.433   3.813
 1158SOL     OW 4372   4.699   6.003   6.073
 1158SOL    HW1 4373   4.604   6.012   6.042
 1158SOL    HW2 4374   4.700   5.972   6.168
 1159SOL     OW 4375   6.144   4.537   2.495
 1159SOL    HW1 4376   6.115   4.520   2.589
 1159SOL    HW2 4377   6.229   4.591   2.495
 1160SOL     OW 4378   2.897   2.597   1.000
 1160SOL    HW1 4379   2.908   2.514   1.056
 1160SOL    HW2 4380   2.813   2.645   1.028
 1161SOL     OW 4381   3.947   0.748   3.647
 1161SOL    HW1 4382   3.972   0.803   3.726
 1161SOL    HW2 4383   4.027   0.697   3.615
 1162SOL     OW 4384   3.804   5.207   1.732
 1162SOL    HW1 4385   3.753   5.199   1.646
 1162SOL    HW2 4386   3.776   5.134   1.794
 1163SOL     OW 4387   4.683   6.892   2.394
 1163SOL    HW1 4388   4.647   6.860   2.306
 1163SOL    HW2 4389   4.652   6.830   2.467
 1164SOL     OW 4390   6.540   4.164   4.748
 1164SOL    HW1 4391   6.620   4.208   4.707
 1164SOL    HW2 4392   6.479   4.133   4.675
 1165SOL     OW 4393   0.618   4.570   2.095
 1165SOL    HW1 4394   0.687   4.641   2.086
 1165SOL    HW2 4395   0.603   4.526   2.006
 1166SOL     OW 4396   3.468   0.708   6.839
 1166SOL    HW1 4397   3.501   0.614   6.847
 1166SOL    HW2 4398   3.434   0.739   6.927
 1167SOL     OW 4399   4.732   1.477   5.480
 1167SOL    HW1 4400   4.799   1.403   5.474
 1167SOL    HW2 4401   4.711   1.510   5.388
 1168SOL     OW 4402   5.708   0.961   3.772
 1168SOL    HW1 4403   5.681   0.872   3.735
 1168SOL    HW2 4404   5.668   1.034   3.716
 1169SOL     OW 4405   1.652   2.794   1.072
 1169SOL    HW1 4406   1.568   2.849   1.065
 1169SOL    HW2 4407   1.657   2.753   1.163
 1170SOL     OW 4408   2.275   0.868   1.608
 1170SOL    HW1 4409   2.364   0.833   1.579
 1170SOL    HW2 4410   2.249   0.822   1.693
 1171SOL     OW 4411   4.412   0.747   0.561
 1171SOL    HW1 4412   4.330   0.737   0.617
 1171SOL    HW2 4413   4.419   0.669   0.498
 1172SOL     OW 4414   3.134   3.124   5.837
 1172SOL    HW1 4415   3.141   3.222   5.820
 1172SOL    HW2 4416   3.078   3.081   5.766
 1173SOL     OW 4417   5.404   6.504   5.777
 1173SOL    HW1 4418   5.338   6.567   5.818
 1173SOL    HW2 4419   5.471   6.556   5.724
 1174SOL     OW 4420   3.884   5.784   0.006
 1174SOL    HW1 4421   3.916   5.748   6.943
 1174SOL    HW2 4422   3.946   5.856   0.037
 1175SOL     OW 4423   0.052   5.265   4.873
 1175SOL    HW1 4424   0.045   5.354   4.919
 1175SOL    HW2 4425   0.111   5.205   4.927
 1176SOL     OW 4426   6.179   2.872   1.633
 1176SOL    HW1 4427   6.233   2.888   1.551
 1176SOL    HW2 4428   6.113   2.946   1.645
 1177SOL     OW 4429   6.439   3.452   6.177
 1177SOL    HW1 4430   6.493   3.518   6.229
 1177SOL    HW2 4431   6.435   3.480   6.081
 1178SOL     OW 4432   4.628   5.327   2.631
 1178SOL    HW1 4433   4.647   5.425   2.639
 1178SOL    HW2 4434   4.587   5.308   2.542
 1179SOL     OW 4435   1.075   5.155   6.086
 1179SOL    HW1 4436   1.064   5.084   6.017
 1179SOL    HW2 4437   1.139   5.124   6.156
 1180SOL     OW 4438   2.254   0.444   4.360
 1180SOL    HW1 4439   2.206   0.418   4.444
 1180SOL    HW2 4440   2.229   0.380   4.287
 1181SOL     OW 4441   1.431   4.665   2.527
 1181SOL    HW1 4442   1.377   4.593   2.483
 1181SOL    HW2 4443   1.378   4.708   2.600
 1182SOL     OW 4444   0.713   3.817   4.127
 1182SOL    HW1 4445   0.624   3.823   4.083
 1182SOL    HW2 4446   0.782   3.788   4.060
 1183SOL     OW 4447   4.078   5.514   0.937
 1183SOL    HW1 4448   4.079   5.606   0.898
 1183SOL    HW2 4449   4.009   5.509   1.009
 1184SOL     OW 4450   3.585   2.868   6.291
 1184SOL    HW1 4451   3.582   2.770   6.311
 1184SOL    HW2 4452   3.671   2.906   6.326
 1185SOL     OW 4453   3.185   1.187   6.355
 1185SOL    HW1 4454   3.102   1.134   6.375
 1185SOL    HW2 4455   3.230   1.148   6.275
 1186SOL     OW 4456   3.827   0.014   4.992
 1186SOL    HW1 4457   3.807   6.948   4.953
 1186SOL    HW2 4458   3.845   0.079   4.918
 1187SOL     OW 4459   0.567   1.948   4.531
 1187SOL    HW1 4460   0.624   1.921   4.454
 1187SOL    HW2 4461   0.614   2.018   4.584
 1188SOL     OW 4462   1.786   1.156   4.998
 1188SOL    HW1 4463   1.820   1.241   5.040
 1188SOL    HW2 4464   1.836   1.078   5.035
 1189SOL     OW 4465   1.488   0.901   1.418
 1189SOL    HW1 4466   1.436   0.982   1.444
 1189SOL    HW2 4467   1.549   0.876   1.494
 1190SOL     OW 4468   3.729   5.814   2.218
 1190SOL    HW1 4469   3.793   5.891   2.230
 1190SOL    HW2 4470   3.702   5.779   2.307
 1191SOL     OW 4471   2.157   4.283   1.930
 1191SOL    HW1 4472   2.125   4.222   2.002
 1191SOL    HW2 4473   2.081   4.309   1.871
 1192SOL     OW 4474   3.637   5.691   2.876
 1192SOL    HW1 4475   3.728   5.659   2.904
 1192SOL    HW2 4476   3.577   5.694   2.956
 1193SOL     OW 4477   3.002   1.090   3.974
 1193SOL    HW1 4478   3.102   1.096   3.982
 1193SOL    HW2 4479   2.971   1.145   3.897
 1194SOL     OW 4480   6.748   1.925   2.888
 1194SOL    HW1 4481   6.798   2.008   2.916
 1194SOL    HW2 4482   6.784   1.846   2.937
 1195SOL     OW 4483   3.398   0.187   0.258
 1195SOL    HW1 4484   3.430   0.266   0.310
 1195SOL    HW2 4485   3.301   0.170   0.279
 1196SOL     OW 4486   1.888   5.733   3.471
 1196SOL    HW1 4487   1.955   5.736   3.397
 1196SOL    HW2 4488   1.874   5.825   3.507
 1197SOL     OW 4489   3.809   4.904   0.194
 1197SOL    HW1 4490   3.771   4.811   0.195
 1197SOL    HW2 4491   3.849   4.923   0.105
 1198SOL     OW 4492   3.362   0.656   3.117
 1198SOL    HW1 4493   3.415   0.684   3.198
 1198SOL    HW2 4494   3.391   0.711   3.038
 1199SOL     OW 4495   3.640   3.795   4.077
 1199SOL    HW1 4496   3.649   3.772   3.980
 1199SOL    HW2 4497   3.637   3.710   4.130
 1200SOL     OW 4498   4.403   3.522   1.202
 1200SOL    HW1 4499   4.423   3.608   1.155
 1200SOL    HW2 4500   4.488   3.474   1.223
 1201SOL     OW 4501   1.517   1.912   5.109
 1201SOL    HW1 4502   1.552   1.955   5.192
 1201SOL    HW2 4503   1.593   1.893   5.047
 1202SOL     OW 4504   6.302   6.373   4.500
 1202SOL    HW1 4505   6.344   6.440   4.439
 1202SOL    HW2 4506   6.326   6.281   4.470
 1203SOL     OW 4507   6.301   0.211   2.277
 1203SOL    HW1 4508   6.359   0.223   2.197
 1203SOL    HW2 4509   6.357   0.186   2.356
 1204SOL     OW 4510   2.045   6.952   6.974
 1204SOL    HW1 4511   2.022   6.975   0.044
 1204SOL    HW2 4512   1.978   6.887   6.939
 1205SOL     OW 4513   0.996   3.477   5.853
 1205SOL    HW1 4514   1.032   3.397   5.805
 1205SOL    HW2 4515   1.023   3.474   5.949
 1206SOL     OW 4516   6.338   1.056   5.233
 1206SOL    HW1 4517   6.392   1.060   5.317
 1206SOL    HW2 4518   6.254   1.109   5.244
 1207SOL     OW 4519   6.469   6.094   6.151
 1207SOL    HW1 4520   6.394   6.109   6.087
 1207SOL    HW2 4521   6.532   6.171   6.148
 1208SOL     OW 4522   3.889   3.450   2.766
 1208SOL    HW1 4523   3.875   3.548   2.777
 1208SOL    HW2 4524   3.803   3.406   2.741
 1209SOL     OW 4525   6.956   3.782   5.064
 1209SOL    HW1 4526   6.887   3.786   5.137
 1209SOL    HW2 4527   6.913   3.805   4.977
 1210SOL     OW 4528   2.284   0.209   3.166
 1210SOL    HW1 4529   2.193   0.198   3.207
 1210SOL    HW2 4530   2.305   0.129   3.110
 1211SOL     OW 4531   0.083   3.533   3.471
 1211SOL    HW1 4532   0.160   3.473   3.451
 1211SOL    HW2 4533   7.023   3.479   3.478
 1212SOL     OW 4534   0.788   4.392   3.701
 1212SOL    HW1 4535   0.718   4.463   3.702
 1212SOL    HW2 4536   0.828   4.383   3.792
 1213SOL     OW 4537   5.741   3.478   5.299
 1213SOL    HW1 4538   5.718   3.455   5.205
 1213SOL    HW2 4539   5.823   3.535   5.300
 1214SOL     OW 4540   1.183   1.898   1.322
 1214SOL    HW1 4541   1.165   1.844   1.405
 1214SOL    HW2 4542   1.125   1.865   1.248
 1215SOL     OW 4543   0.886   5.460   2.477
 1215SOL    HW1 4544   0.836   5.516   2.411
 1215SOL    HW2 4545   0.925   5.519   2.547
 1216SOL     OW 4546   2.111   0.093   1.446
 1216SOL    HW1 4547   2.160   0.118   1.363
 1216SOL    HW2 4548   2.135   0.156   1.520
 1217SOL     OW 4549   1.706   2.756   3.255
 1217SOL    HW1 4550   1.764   2.676   3.246
 1217SOL    HW2 4551   1.672   2.763   3.349
 1218SOL     OW 4552   0.240   3.902   3.341
 1218SOL    HW1 4553   0.176   3.827   3.325
 1218SOL    HW2 4554   0.209   3.983   3.290
 1219SOL     OW 4555   2.277   6.049   2.990
 1219SOL    HW1 4556   2.191   6.100   3.003
 1219SOL    HW2 4557   2.353   6.104   3.024
 1220SOL     OW 4558   6.269   5.139   2.518
 1220SOL    HW1 4559   6.335   5.160   2.445
 1220SOL    HW2 4560   6.220   5.222   2.543
 1221SOL     OW 4561   4.574   4.716   6.226
 1221SOL    HW1 4562   4.562   4.724   6.325
 1221SOL    HW2 4563   4.585   4.808   6.186
 1222SOL     OW 4564   6.681   4.396   1.943
 1222SOL    HW1 4565   6.727   4.382   2.030
 1222SOL    HW2 4566   6.746   4.382   1.868
 1223SOL     OW 4567   0.235   4.684   4.732
 1223SOL    HW1 4568   0.188   4.610   4.683
 1223SOL    HW2 4569   0.244   4.659   4.829
 1224SOL     OW 4570   4.554   3.994   1.384
 1224SOL    HW1 4571   4.652   3.974   1.380
 1224SOL    HW2 4572   4.521   3.979   1.478
 1225SOL     OW 4573   4.970   1.589   6.203
 1225SOL    HW1 4574   5.068   1.603   6.187
 1225SOL    HW2 4575   4.921   1.676   6.192
 1226SOL     OW 4576   6.006   5.669   0.602
 1226SOL    HW1 4577   5.942   5.601   0.638
 1226SOL    HW2 4578   6.094   5.659   0.650
 1227SOL     OW 4579   5.253   4.255   6.752
 1227SOL    HW1 4580   5.175   4.292   6.803
 1227SOL    HW2 4581   5.327   4.234   6.815
 1228SOL     OW 4582   3.977   3.647   4.927
 1228SOL    HW1 4583   4.060   3.632   4.981
 1228SOL    HW2 4584   3.911   3.699   4.981
 1229SOL     OW 4585   2.186   5.448   2.475
 1229SOL    HW1 4586   2.166   5.352   2.451
 1229SOL    HW2 4587   2.284   5.464   2.465
 1230SOL     OW 4588   5.079   4.420   6.886
 1230SOL    HW1 4589   5.093   4.519   6.876
 1230SOL    HW2 4590   4.986   4.403   6.918
 1231SOL     OW 4591   2.056   0.453   0.500
 1231SOL    HW1 4592   2.101   0.541   0.517
 1231SOL    HW2 4593   2.049   0.438   0.402
 1232SOL     OW 4594   2.087   1.652   5.770
 1232SOL    HW1 4595   2.046   1.566   5.801
 1232SOL    HW2 4596   2.048   1.728   5.821
 1233SOL     OW 4597   0.118   5.301   4.536
 1233SOL    HW1 4598   0.025   5.322   4.507
 1233SOL    HW2 4599   0.118   5.218   4.591
 1234SOL     OW 4600   6.988   4.241   5.648
 1234SOL    HW1 4601   6.916   4.278   5.707
 1234SOL    HW2 4602   0.053   4.257   5.690
 1235SOL     OW 4603   6.144   5.306   0.720
 1235SOL    HW1 4604   6.096   5.219   0.706
 1235SOL    HW2 4605   6.223   5.309   0.659
 1236SOL     OW 4606   0.244   1.300   2.582
 1236SOL    HW1 4607   0.183   1.379   2.575
 1236SOL    HW2 4608   0.189   1.217   2.595
 1237SOL     OW 4609   0.622   0.389   4.097
 1237SOL    HW1 4610   0.616   0.309   4.037
 1237SOL    HW2 4611   0.707   0.438   4.078
 1238SOL     OW 4612   0.142   0.968   4.374
 1238SOL    HW1 4613   0.164   1.053   4.326
 1238SOL    HW2 4614   0.077   0.986   4.447
 1239SOL     OW 4615   5.406   4.765   3.624
 1239SOL    HW1 4616   5.318   4.771   3.578
 1239SOL    HW2 4617   5.403   4.819   3.709
 1240SOL     OW 4618   0.829   4.377   1.368
 1240SOL    HW1 4619   0.854   4.315   1.294
 1240SOL    HW2 4620   0.831   4.327   1.455
 1241SOL     OW 4621   3.289   5.222   6.381
 1241SOL    HW1 4622   3.253   5.226   6.288
 1241SOL    HW2 4623   3.317   5.313   6.410
 1242SOL     OW 4624   1.957   5.484   0.889
 1242SOL    HW1 4625   1.928   5.578   0.901
 1242SOL    HW2 4626   2.032   5.480   0.823
 1243SOL     OW 4627   6.986   3.752   3.594
 1243SOL    HW1 4628   0.015   3.791   3.669
 1243SOL    HW2 4629   0.022   3.695   3.538
 1244SOL     OW 4630   6.928   6.824   4.769
 1244SOL    HW1 4631   6.835   6.788   4.773
 1244SOL    HW2 4632   6.926   6.923   4.784
 1245SOL     OW 4633   4.998   0.368   1.486
 1245SOL    HW1 4634   4.985   0.278   1.528
 1245SOL    HW2 4635   5.095   0.390   1.485
 1246SOL     OW 4636   5.080   2.840   1.818
 1246SOL    HW1 4637   5.054   2.801   1.906
 1246SOL    HW2 4638   5.028   2.794   1.745
 1247SOL     OW 4639   4.730   6.894   1.967
 1247SOL    HW1 4640   4.798   6.925   2.034
 1247SOL    HW2 4641   4.760   6.806   1.929
 1248SOL     OW 4642   0.675   0.002   4.706
 1248SOL    HW1 4643   0.764   6.983   4.691
 1248SOL    HW2 4644   0.627   6.979   4.779
 1249SOL     OW 4645   6.715   6.687   6.510
 1249SOL    HW1 4646   6.808   6.651   6.514
 1249SOL    HW2 4647   6.695   6.715   6.416
 1250SOL     OW 4648   0.745   4.520   5.008
 1250SOL    HW1 4649   0.787   4.444   4.959
 1250SOL    HW2 4650   0.663   4.550   4.958
 1251SOL     OW 4651   2.687   0.601   3.293
 1251SOL    HW1 4652   2.773   0.571   3.254
 1251SOL    HW2 4653   2.617   0.604   3.221
 1252SOL     OW 4654   2.412   5.295   6.373
 1252SOL    HW1 4655   2.501   5.304   6.329
 1252SOL    HW2 4656   2.367   5.385   6.375
 1253SOL     OW 4657   2.928   5.760   0.464
 1253SOL    HW1 4658   2.835   5.776   0.497
 1253SOL    HW2 4659   2.981   5.712   0.534
 1254SOL     OW 4660   6.562   0.829   3.704
 1254SOL    HW1 4661   6.574   0.792   3.796
 1254SOL    HW2 4662   6.482   0.890   3.703
 1255SOL     OW 4663   6.175   2.268   6.184
 1255SOL    HW1 4664   6.075   2.258   6.187
 1255SOL    HW2 4665   6.198   2.362   6.162
 1256SOL     OW 4666   6.869   5.549   6.169
 1256SOL    HW1 4667   6.879   5.611   6.091
 1256SOL    HW2 4668   6.887   5.598   6.254
 1257SOL     OW 4669   0.061   6.522   3.130
 1257SOL    HW1 4670   7.003   6.555   3.083
 1257SOL    HW2 4671   0.132   6.503   3.062
 1258SOL     OW 4672   5.106   5.499   6.691
 1258SOL    HW1 4673   5.071   5.412   6.726
 1258SOL    HW2 4674   5.128   5.559   6.768
 1259SOL     OW 4675   5.660   6.565   4.811
 1259SOL    HW1 4676   5.675   6.626   4.733
 1259SOL    HW2 4677   5.569   6.525   4.804
 1260SOL     OW 4678   3.259   0.722   0.585
 1260SOL    HW1 4679   3.238   0.819   0.573
 1260SOL    HW2 4680   3.353   0.712   0.618
 1261SOL     OW 4681   0.341   4.273   4.904
 1261SOL    HW1 4682   0.327   4.179   4.872
 1261SOL    HW2 4683   0.321   4.278   5.002
 1262SOL     OW 4684   4.279   6.435   1.475
 1262SOL    HW1 4685   4.277   6.501   1.401
 1262SOL    HW2 4686   4.202   6.451   1.537
 1263SOL     OW 4687   0.092   1.361   1.263
 1263SOL    HW1 4688   0.185   1.345   1.230
 1263SOL    HW2 4689   0.088   1.450   1.309
 1264SOL     OW 4690   5.919   2.832   5.065
 1264SOL    HW1 4691   5.868   2.905   5.021
 1264SOL    HW2 4692   5.862   2.788   5.134
 1265SOL     OW 4693   5.982   4.885   4.833
 1265SOL    HW1 4694   6.006   4.805   4.778
 1265SOL    HW2 4695   5.955   4.960   4.772
 1266SOL     OW 4696   3.009   0.396   3.842
 1266SOL    HW1 4697   3.088   0.412   3.783
 1266SOL    HW2 4698   2.932   0.365   3.787
 1267SOL     OW 4699   0.539   4.121   2.200
 1267SOL    HW1 4700   0.446   4.108   2.166
 1267SOL    HW2 4701   0.592   4.172   2.132
 1268SOL     OW 4702   6.191   5.113   6.894
 1268SOL    HW1 4703   6.207   5.209   6.921
 1268SOL    HW2 4704   6.189   5.056   6.976
 1269SOL     OW 4705   0.788   4.391   6.354
 1269SOL    HW1 4706   0.745   4.429   6.273
 1269SOL    HW2 4707   0.728   4.405   6.433
 1270SOL     OW 4708   1.872   1.934   4.400
 1270SOL    HW1 4709   1.780   1.961   4.368
 1270SOL    HW2 4710   1.937   2.005   4.375
 1271SOL     OW 4711   5.380   3.477   3.178
 1271SOL    HW1 4712   5.395   3.497   3.274
 1271SOL    HW2 4713   5.340   3.386   3.168
 1272SOL     OW 4714   6.397   6.547   6.955
 1272SOL    HW1 4715   6.334   6.579   6.885
 1272SOL    HW2 4716   6.480   6.603   6.953
 1273SOL     OW 4717   2.802   0.005   4.977
 1273SOL    HW1 4718   2.872   7.023   5.048
 1273SOL    HW2 4719   2.827   6.972   4.899
 1274SOL     OW 4720   5.510   2.708   1.717
 1274SOL    HW1 4721   5.513   2.728   1.619
 1274SOL    HW2 4722   5.471   2.787   1.765
 1275SOL     OW 4723   3.482   1.421   3.739
 1275SOL    HW1 4724   3.485   1.324   3.715
 1275SOL    HW2 4725   3.565   1.446   3.789
 1276SOL     OW 4726   5.302   6.697   2.507
 1276SOL    HW1 4727   5.355   6.721   2.588
 1276SOL    HW2 4728   5.209   6.673   2.534
 1277SOL     OW 4729   0.561   1.631   4.518
 1277SOL    HW1 4730   0.647   1.681   4.525
 1277SOL    HW2 4731   0.507   1.667   4.442
 1278SOL     OW 4732   3.361   1.863   4.535
 1278SOL    HW1 4733   3.419   1.782   4.526
 1278SOL    HW2 4734   3.266   1.837   4.516
 1279SOL     OW 4735   2.044   4.887   0.368
 1279SOL    HW1 4736   2.056   4.792   0.341
 1279SOL    HW2 4737   2.128   4.938   0.349
 1280SOL     OW 4738   1.321   5.942   2.932
 1280SOL    HW1 4739   1.405   5.953   2.986
 1280SOL    HW2 4740   1.298   6.029   2.889
 1281SOL     OW 4741   0.811   6.504   3.644
 1281SOL    HW1 4742   0.782   6.421   3.691
 1281SOL    HW2 4743   0.816   6.486   3.545
 1282SOL     OW 4744   1.350   6.332   2.189
 1282SOL    HW1 4745   1.313   6.286   2.108
 1282SOL    HW2 4746   1.450   6.335   2.183
 1283SOL     OW 4747   5.073   4.103   5.317
 1283SOL    HW1 4748   5.094   4.017   5.365
 1283SOL    HW2 4749   5.090   4.090   5.219
 1284SOL     OW 4750   2.659   1.945   2.729
 1284SOL    HW1 4751   2.726   2.018   2.722
 1284SOL    HW2 4752   2.685   1.870   2.668
 1285SOL     OW 4753   5.668   2.506   5.886
 1285SOL    HW1 4754   5.671   2.572   5.962
 1285SOL    HW2 4755   5.748   2.446   5.891
 1286SOL     OW 4756   5.594   5.958   0.885
 1286SOL    HW1 4757   5.653   5.912   0.951
 1286SOL    HW2 4758   5.566   6.047   0.922
 1287SOL     OW 4759   6.295   3.851   5.813
 1287SOL    HW1 4760   6.338   3.936   5.782
 1287SOL    HW2 4761   6.196   3.860   5.809
 1288SOL     OW 4762   6.589   3.671   3.458
 1288SOL    HW1 4763   6.619   3.593   3.513
 1288SOL    HW2 4764   6.545   3.739   3.517
 1289SOL     OW 4765   0.034   5.145   2.826
 1289SOL    HW1 4766   0.106   5.212   2.809
 1289SOL    HW2 4767   6.969   5.188   2.814
 1290SOL     OW 4768   6.423   6.974   2.105
 1290SOL    HW1 4769   6.428   0.050   2.098
 1290SOL    HW2 4770   6.452   6.946   2.196
 1291SOL     OW 4771   1.321   6.542   1.334
 1291SOL    HW1 4772   1.417   6.519   1.318
 1291SOL    HW2 4773   1.301   6.631   1.293
 1292SOL     OW 4774   1.208   5.658   0.420
 1292SOL    HW1 4775   1.232   5.618   0.508
 1292SOL    HW2 4776   1.165   5.747   0.434
 1293SOL     OW 4777   6.124   1.989   6.536
 1293SOL    HW1 4778   6.189   2.029   6.472
 1293SOL    HW2 4779   6.165   1.908   6.579
 1294SOL     OW 4780   0.639   1.813   3.628
 1294SOL    HW1 4781   0.672   1.844   3.539
 1294SOL    HW2 4782   0.540   1.819   3.631
 1295SOL     OW 4783   5.012   4.093   1.181
 1295SOL    HW1 4784   4.973   4.082   1.090
 1295SOL    HW2 4785   5.029   4.190   1.199
 1296SOL     OW 4786   3.865   1.589   0.529
 1296SOL    HW1 4787   3.927   1.666   0.543
 1296SOL    HW2 4788   3.777   1.623   0.495
 1297SOL     OW 4789   6.256   1.046   6.169
 1297SOL    HW1 4790   6.278   1.026   6.264
 1297SOL    HW2 4791   6.312   1.122   6.136
 1298SOL     OW 4792   6.134   2.409   3.554
 1298SOL    HW1 4793   6.046   2.451   3.574
 1298SOL    HW2 4794   6.197   2.479   3.520
 1299SOL     OW 4795   1.634   3.356   4.682
 1299SOL    HW1 4796   1.555   3.416   4.674
 1299SOL    HW2 4797   1.672   3.361   4.775
 1300SOL     OW 4798   3.709   2.908   3.053
 1300SOL    HW1 4799   3.781   2.963   3.010
 1300SOL    HW2 4800   3.649   2.871   2.982
 1301SOL     OW 4801   1.329   1.538   1.940
 1301SOL    HW1 4802   1.294   1.577   2.025
 1301SOL    HW2 4803   1.429   1.534   1.944
 1302SOL     OW 4804   2.654   6.025   5.884
 1302SOL    HW1 4805   2.716   5.972   5.826
 1302SOL    HW2 4806   2.658   6.121   5.857
 1303SOL     OW 4807   3.174   7.002   1.307
 1303SOL    HW1 4808   3.096   6.947   1.278
 1303SOL    HW2 4809   3.237   6.945   1.359
 1304SOL     OW 4810   3.478   0.613   6.189
 1304SOL    HW1 4811   3.472   0.707   6.154
 1304SOL    HW2 4812   3.448   0.611   6.285
 1305SOL     OW 4813   6.020   6.872   3.796
 1305SOL    HW1 4814   5.964   6.952   3.775
 1305SOL    HW2 4815   5.966   6.806   3.849
 1306SOL     OW 4816   1.709   5.021   3.987
 1306SOL    HW1 4817   1.718   5.095   4.053
 1306SOL    HW2 4818   1.628   5.037   3.930
 1307SOL     OW 4819   1.137   1.552   4.109
 1307SOL    HW1 4820   1.064   1.500   4.153
 1307SOL    HW2 4821   1.177   1.615   4.176
 1308SOL     OW 4822   4.776   6.240   3.215
 1308SOL    HW1 4823   4.679   6.228   3.236
 1308SOL    HW2 4824   4.831   6.187   3.280
 1309SOL     OW 4825   5.633   2.824   4.402
 1309SOL    HW1 4826   5.575   2.790   4.476
 1309SOL    HW2 4827   5.684   2.905   4.434
 1310SOL     OW 4828   4.760   3.446   5.547
 1310SOL    HW1 4829   4.748   3.349   5.568
 1310SOL    HW2 4830   4.780   3.458   5.450
 1311SOL     OW 4831   4.758   4.711   6.528
 1311SOL    HW1 4832   4.806   4.738   6.445
 1311SOL    HW2 4833   4.820   4.659   6.587
 1312SOL     OW 4834   6.693   0.583   1.582
 1312SOL    HW1 4835   6.782   0.566   1.624
 1312SOL    HW2 4836   6.659   0.673   1.611
 1313SOL     OW 4837   3.509   5.045   4.815
 1313SOL    HW1 4838   3.541   5.128   4.861
 1313SOL    HW2 4839   3.461   4.987   4.881
 1314SOL     OW 4840   7.011   1.400   5.854
 1314SOL    HW1 4841   6.926   1.430   5.810
 1314SOL    HW2 4842   7.014   1.437   5.947
 1315SOL     OW 4843   1.841   6.840   3.565
 1315SOL    HW1 4844   1.784   6.888   3.631
 1315SOL    HW2 4845   1.837   6.742   3.583
 1316SOL     OW 4846   3.095   6.340   3.475
 1316SOL    HW1 4847   3.082   6.247   3.508
 1316SOL    HW2 4848   3.078   6.343   3.376
 1317SOL     OW 4849   0.155   2.999   4.572
 1317SOL    HW1 4850   0.199   2.945   4.500
 1317SOL    HW2 4851   0.185   3.094   4.566
 1318SOL     OW 4852   0.728   6.800   1.846
 1318SOL    HW1 4853   0.802   6.753   1.894
 1318SOL    HW2 4854   0.705   6.749   1.762
 1319SOL     OW 4855   6.809   6.906   0.524
 1319SOL    HW1 4856   6.767   6.854   0.450
 1319SOL    HW2 4857   6.862   6.982   0.486
 1320SOL     OW 4858   4.779   5.038   5.116
 1320SOL    HW1 4859   4.847   4.970   5.087
 1320SOL    HW2 4860   4.774   5.039   5.215
 1321SOL     OW 4861   3.680   1.125   0.788
 1321SOL    HW1 4862   3.731   1.211   0.783
 1321SOL    HW2 4863   3.673   1.085   0.696
 1322SOL     OW 4864   5.376   1.013   6.355
 1322SOL    HW1 4865   5.429   1.019   6.271
 1322SOL    HW2 4866   5.359   1.105   6.390
 1323SOL     OW 4867   6.579   0.766   3.982
 1323SOL    HW1 4868   6.638   0.686   3.988
 1323SOL    HW2 4869   6.484   0.739   3.999
 1324SOL     OW 4870   1.297   2.553   0.560
 1324SOL    HW1 4871   1.334   2.563   0.468
 1324SOL    HW2 4872   1.275   2.457   0.578
 1325SOL     OW 4873   4.590   5.902   4.386
 1325SOL    HW1 4874   4.589   5.859   4.296
 1325SOL    HW2 4875   4.498   5.934   4.408
 1326SOL     OW 4876   5.578   4.036   4.482
 1326SOL    HW1 4877   5.635   3.956   4.498
 1326SOL    HW2 4878   5.615   4.114   4.532
 1327SOL     OW 4879   2.991   6.482   4.166
 1327SOL    HW1 4880   2.912   6.465   4.108
 1327SOL    HW2 4881   3.029   6.395   4.199
 1328SOL     OW 4882   2.625   1.036   1.650
 1328SOL    HW1 4883   2.673   1.052   1.564
 1328SOL    HW2 4884   2.688   0.995   1.716
 1329SOL     OW 4885   1.428   6.355   1.663
 1329SOL    HW1 4886   1.336   6.316   1.671
 1329SOL    HW2 4887   1.490   6.287   1.624
 1330SOL     OW 4888   5.225   6.818   1.143
 1330SOL    HW1 4889   5.220   6.877   1.062
 1330SOL    HW2 4890   5.296   6.852   1.205
 1331SOL     OW 4891   0.784   2.229   1.878
 1331SOL    HW1 4892   0.749   2.155   1.935
 1331SOL    HW2 4893   0.778   2.316   1.928
 1332SOL     OW 4894   4.636   2.126   0.727
 1332SOL    HW1 4895   4.567   2.061   0.757
 1332SOL    HW2 4896   4.692   2.085   0.656
 1333SOL     OW 4897   4.057   3.201   5.343
 1333SOL    HW1 4898   4.142   3.223   5.294
 1333SOL    HW2 4899   3.981   3.198   5.278
 1334SOL     OW 4900   1.345   3.431   4.145
 1334SOL    HW1 4901   1.293   3.509   4.179
 1334SOL    HW2 4902   1.443   3.452   4.149
 1335SOL     OW 4903   1.853   5.274   3.537
 1335SOL    HW1 4904   1.827   5.369   3.554
 1335SOL    HW2 4905   1.857   5.257   3.439
 1336SOL     OW 4906   0.080   6.341   5.244
 1336SOL    HW1 4907   0.177   6.319   5.240
 1336SOL    HW2 4908   0.026   6.257   5.233
 1337SOL     OW 4909   3.757   6.350   6.616
 1337SOL    HW1 4910   3.830   6.410   6.581
 1337SOL    HW2 4911   3.687   6.406   6.661
 1338SOL     OW 4912   3.583   5.331   0.854
 1338SOL    HW1 4913   3.659   5.351   0.793
 1338SOL    HW2 4914   3.618   5.307   0.945
 1339SOL     OW 4915   0.008   3.900   6.815
 1339SOL    HW1 4916   0.090   3.957   6.809
 1339SOL    HW2 4917   0.034   3.803   6.818
 1340SOL     OW 4918   2.982   1.421   6.137
 1340SOL    HW1 4919   3.023   1.508   6.109
 1340SOL    HW2 4920   3.035   1.345   6.100
 1341SOL     OW 4921   5.960   2.480   4.532
 1341SOL    HW1 4922   5.901   2.459   4.454
 1341SOL    HW2 4923   5.999   2.395   4.567
 1342SOL     OW 4924   0.611   0.373   1.428
 1342SOL    HW1 4925   0.596   0.367   1.527
 1342SOL    HW2 4926   0.583   0.464   1.396
 1343SOL     OW 4927   2.903   5.804   3.711
 1343SOL    HW1 4928   2.956   5.757   3.640
 1343SOL    HW2 4929   2.852   5.738   3.765
 1344SOL     OW 4930   5.539   2.153   2.215
 1344SOL    HW1 4931   5.551   2.152   2.116
 1344SOL    HW2 4932   5.628   2.157   2.260
 1345SOL     OW 4933   6.698   6.182   2.286
 1345SOL    HW1 4934   6.767   6.156   2.355
 1345SOL    HW2 4935   6.631   6.108   2.277
 1346SOL     OW 4936   7.023   1.763   2.931
 1346SOL    HW1 4937   0.047   1.844   2.900
 1346SOL    HW2 4938   7.000   1.772   3.028
 1347SOL     OW 4939   4.720   1.094   3.224
 1347SOL    HW1 4940   4.714   1.038   3.142
 1347SOL    HW2 4941   4.730   1.035   3.304
 1348SOL     OW 4942   4.912   5.716   4.822
 1348SOL    HW1 4943   4.929   5.760   4.733
 1348SOL    HW2 4944   4.951   5.773   4.895
 1349SOL     OW 4945   4.562   2.235   0.309
 1349SOL    HW1 4946   4.661   2.229   0.294
 1349SOL    HW2 4947   4.543   2.305   0.378
 1350SOL     OW 4948   2.585   1.234   4.568
 1350SOL    HW1 4949   2.600   1.183   4.653
 1350SOL    HW2 4950   2.665   1.226   4.510
 1351SOL     OW 4951   1.787   1.565   3.407
 1351SOL    HW1 4952   1.794   1.476   3.453
 1351SOL    HW2 4953   1.701   1.609   3.433
 1352SOL     OW 4954   1.169   6.214   4.632
 1352SOL    HW1 4955   1.195   6.158   4.711
 1352SOL    HW2 4956   1.240   6.205   4.562
 1353SOL     OW 4957   2.411   3.135   5.556
 1353SOL    HW1 4958   2.485   3.169   5.497
 1353SOL    HW2 4959   2.325   3.135   5.505
 1354SOL     OW 4960   0.711   6.657   0.117
 1354SOL    HW1 4961   0.715   6.609   0.205
 1354SOL    HW2 4962   0.721   6.591   0.043
 1355SOL     OW 4963   4.100   3.387   6.970
 1355SOL    HW1 4964   4.144   3.405   0.033
 1355SOL    HW2 4965   4.019   3.330   6.984
 1356SOL     OW 4966   3.260   2.903   2.309
 1356SOL    HW1 4967   3.348   2.946   2.289
 1356SOL    HW2 4968   3.215   2.877   2.224
 1357SOL     OW 4969   3.462   2.131   5.465
 1357SOL    HW1 4970   3.418   2.137   5.375
 1357SOL    HW2 4971   3.506   2.218   5.486
 1358SOL     OW 4972   1.786   3.317   6.084
 1358SOL    HW1 4973   1.699   3.354   6.117
 1358SOL    HW2 4974   1.780   3.218   6.077
 1359SOL     OW 4975   0.225   1.838   6.657
 1359SOL    HW1 4976   0.289   1.908   6.628
 1359SOL    HW2 4977   0.228   1.761   6.593
 1360SOL     OW 4978   3.498   3.410   4.107
 1360SOL    HW1 4979   3.524   3.426   4.012
 1360SOL    HW2 4980   3.541   3.326   4.140
 1361SOL     OW 4981   1.011   6.387   1.092
 1361SOL    HW1 4982   1.029   6.361   0.997
 1361SOL    HW2 4983   0.925   6.345   1.122
 1362SOL     OW 4984   3.247   1.455   6.945
 1362SOL    HW1 4985   3.332   1.502   6.921
 1362SOL    HW2 4986   3.255   1.358   6.921
 1363SOL     OW 4987   6.858   6.593   0.880
 1363SOL    HW1 4988   6.945   6.613   0.925
 1363SOL    HW2 4989   6.785   6.646   0.923
 1364SOL     OW 4990   1.157   3.487   1.066
 1364SOL    HW1 4991   1.066   3.446   1.061
 1364SOL    HW2 4992   1.180   3.505   1.162
 1365SOL     OW 4993   1.106   3.319   6.349
 1365SOL    HW1 4994   1.193   3.282   6.383
 1365SOL    HW2 4995   1.077   3.395   6.407
 1366SOL     OW 4996   3.495   0.658   0.915
 1366SOL    HW1 4997   3.465   0.730   0.853
 1366SOL    HW2 4998   3.509   0.697   1.006
 1367SOL     OW 4999   1.043   6.721   4.510
 1367SOL    HW1 5000   1.039   6.724   4.410
 1367SOL    HW2 5001   1.001   6.635   4.542
 1368SOL     OW 5002   1.309   6.053   4.796
 1368SOL    HW1 5003   1.317   5.957   4.768
 1368SOL    HW2 5004   1.391   6.103   4.769
 1369SOL     OW 5005   2.029   6.286   3.633
 1369SOL    HW1 5006   2.045   6.349   3.709
 1369SOL    HW2 5007   2.113   6.235   3.613
 1370SOL     OW 5008   0.053   2.648   2.728
 1370SOL    HW1 5009   7.001   2.609   2.676
 1370SOL    HW2 5010   0.031   2.742   2.753
 1371SOL     OW 5011   6.108   1.958   6.166
 1371SOL    HW1 5012   6.023   1.905   6.169
 1371SOL    HW2 5013   6.090   2.052   6.194
 1372SOL     OW 5014   5.109   2.525   1.637
 1372SOL    HW1 5015   5.202   2.488   1.634
 1372SOL    HW2 5016   5.077   2.528   1.732
 1373SOL     OW 5017   5.433   2.569   1.132
 1373SOL    HW1 5018   5.442   2.652   1.076
 1373SOL    HW2 5019   5.524   2.537   1.158
 1374SOL     OW 5020   4.077   3.477   2.532
 1374SOL    HW1 5021   4.015   3.475   2.610
 1374SOL    HW2 5022   4.148   3.407   2.545
 1375SOL     OW 5023   5.216   4.404   5.013
 1375SOL    HW1 5024   5.132   4.367   5.050
 1375SOL    HW2 5025   5.199   4.494   4.972
 1376SOL     OW 5026   2.731   4.541   5.532
 1376SOL    HW1 5027   2.812   4.590   5.502
 1376SOL    HW2 5028   2.674   4.602   5.588
 1377SOL     OW 5029   1.144   1.865   3.412
 1377SOL    HW1 5030   1.078   1.799   3.450
 1377SOL    HW2 5031   1.178   1.924   3.485
 1378SOL     OW 5032   4.422   2.248   4.300
 1378SOL    HW1 5033   4.513   2.213   4.278
 1378SOL    HW2 5034   4.360   2.172   4.314
 1379SOL     OW 5035   4.753   5.696   6.832
 1379SOL    HW1 5036   4.713   5.653   6.751
 1379SOL    HW2 5037   4.686   5.756   6.875
 1380SOL     OW 5038   0.144   6.050   3.863
 1380SOL    HW1 5039   0.067   6.107   3.890
 1380SOL    HW2 5040   0.118   5.954   3.870
 1381SOL     OW 5041   6.570   3.034   6.085
 1381SOL    HW1 5042   6.559   3.018   6.183
 1381SOL    HW2 5043   6.581   3.132   6.069
 1382SOL     OW 5044   4.390   1.748   6.111
 1382SOL    HW1 5045   4.445   1.779   6.033
 1382SOL    HW2 5046   4.444   1.756   6.195
 1383SOL     OW 5047   6.254   0.696   1.087
 1383SOL    HW1 5048   6.322   0.768   1.081
 1383SOL    HW2 5049   6.215   0.679   0.996
 1384SOL     OW 5050   5.884   2.595   2.003
 1384SOL    HW1 5051   5.939   2.514   1.980
 1384SOL    HW2 5052   5.836   2.579   2.089
 1385SOL     OW 5053   6.828   6.198   1.589
 1385SOL    HW1 5054   6.871   6.258   1.522
 1385SOL    HW2 5055   6.898   6.160   1.649
 1386SOL     OW 5056   2.165   6.967   3.859
 1386SOL    HW1 5057   2.151   0.014   3.791
 1386SOL    HW2 5058   2.263   6.954   3.874
 1387SOL     OW 5059   1.305   5.851   1.545
 1387SOL    HW1 5060   1.325   5.928   1.485
 1387SOL    HW2 5061   1.302   5.882   1.640
 1388SOL     OW 5062   6.282   0.619   1.739
 1388SOL    HW1 5063   6.271   0.677   1.658
 1388SOL    HW2 5064   6.233   0.661   1.816
 1389SOL     OW 5065   6.182   1.030   1.946
 1389SOL    HW1 5066   6.274   1.057   1.975
 1389SOL    HW2 5067   6.184   1.003   1.849
 1390SOL     OW 5068   1.097   1.763   4.283
 1390SOL    HW1 5069   1.087   1.818   4.201
 1390SOL    HW2 5070   1.064   1.813   4.362
 1391SOL     OW 5071   0.934   3.179   3.318
 1391SOL    HW1 5072   0.972   3.246   3.381
 1391SOL    HW2 5073   1.009   3.128   3.275
 1392SOL     OW 5074   5.242   4.982   4.115
 1392SOL    HW1 5075   5.214   5.042   4.190
 1392SOL    HW2 5076   5.341   4.990   4.101
 1393SOL     OW 5077   3.760   4.893   6.914
 1393SOL    HW1 5078   3.757   4.910   6.815
 1393SOL    HW2 5079   3.695   4.953   6.960
 1394SOL     OW 5080   1.448   6.257   0.076
 1394SOL    HW1 5081   1.520   6.201   0.116
 1394SOL    HW2 5082   1.364   6.203   0.067
 1395SOL     OW 5083   3.618   4.861   6.135
 1395SOL    HW1 5084   3.521   4.865   6.155
 1395SOL    HW2 5085   3.663   4.944   6.168
 1396SOL     OW 5086   5.415   5.895   3.421
 1396SOL    HW1 5087   5.460   5.984   3.407
 1396SOL    HW2 5088   5.439   5.859   3.511
 1397SOL     OW 5089   5.182   6.114   5.030
 1397SOL    HW1 5090   5.123   6.036   5.048
 1397SOL    HW2 5091   5.182   6.175   5.109
 1398SOL     OW 5092   1.764   0.386   4.743
 1398SOL    HW1 5093   1.766   0.485   4.758
 1398SOL    HW2 5094   1.788   0.339   4.827
 1399SOL     OW 5095   3.426   5.483   2.459
 1399SOL    HW1 5096   3.409   5.539   2.379
 1399SOL    HW2 5097   3.359   5.504   2.530
 1400SOL     OW 5098   1.309   0.293   2.712
 1400SOL    HW1 5099   1.372   0.359   2.753
 1400SOL    HW2 5100   1.351   0.202   2.713
 1401SOL     OW 5101   6.770   1.867   4.555
 1401SOL    HW1 5102   6.718   1.785   4.528
 1401SOL    HW2 5103   6.716   1.948   4.535
 1402SOL     OW 5104   6.306   2.585   7.017
 1402SOL    HW1 5105   6.221   2.538   6.994
 1402SOL    HW2 5106   6.307   2.676   6.975
 1403SOL     OW 5107   3.750   0.463   2.105
 1403SOL    HW1 5108   3.848   0.467   2.122
 1403SOL    HW2 5109   3.726   0.527   2.032
 1404SOL     OW 5110   5.243   1.824   0.651
 1404SOL    HW1 5111   5.216   1.820   0.747
 1404SOL    HW2 5112   5.337   1.791   0.641
 1405SOL     OW 5113   3.468   2.868   1.461
 1405SOL    HW1 5114   3.453   2.883   1.363
 1405SOL    HW2 5115   3.545   2.805   1.473
 1406SOL     OW 5116   1.058   3.823   2.206
 1406SOL    HW1 5117   1.112   3.805   2.289
 1406SOL    HW2 5118   0.963   3.838   2.231
 1407SOL     OW 5119   0.175   2.265   2.571
 1407SOL    HW1 5120   0.224   2.265   2.659
 1407SOL    HW2 5121   0.092   2.211   2.579
 1408SOL     OW 5122   6.298   5.685   6.516
 1408SOL    HW1 5123   6.384   5.660   6.561
 1408SOL    HW2 5124   6.306   5.778   6.480
 1409SOL     OW 5125   0.060   1.549   3.556
 1409SOL    HW1 5126   0.048   1.460   3.514
 1409SOL    HW2 5127   0.093   1.537   3.650
 1410SOL     OW 5128   6.436   1.773   7.023
 1410SOL    HW1 5129   6.499   1.823   6.963
 1410SOL    HW2 5130   6.394   1.698   6.971
 1411SOL     OW 5131   1.474   0.936   1.946
 1411SOL    HW1 5132   1.508   1.021   1.905
 1411SOL    HW2 5133   1.551   0.876   1.967
 1412SOL     OW 5134   1.443   2.811   0.319
 1412SOL    HW1 5135   1.480   2.846   0.232
 1412SOL    HW2 5136   1.380   2.736   0.300
 1413SOL     OW 5137   2.682   6.672   3.129
 1413SOL    HW1 5138   2.694   6.767   3.157
 1413SOL    HW2 5139   2.755   6.646   3.066
 1414SOL     OW 5140   1.793   0.833   2.390
 1414SOL    HW1 5141   1.829   0.882   2.470
 1414SOL    HW2 5142   1.817   0.884   2.307
 1415SOL     OW 5143   5.351   6.140   4.792
 1415SOL    HW1 5144   5.402   6.225   4.784
 1415SOL    HW2 5145   5.309   6.134   4.883
 1416SOL     OW 5146   4.551   5.437   3.532
 1416SOL    HW1 5147   4.650   5.424   3.537
 1416SOL    HW2 5148   4.505   5.364   3.584
 1417SOL     OW 5149   3.400   2.693   5.980
 1417SOL    HW1 5150   3.320   2.705   6.039
 1417SOL    HW2 5151   3.437   2.783   5.955
 1418SOL     OW 5152   3.535   3.775   3.416
 1418SOL    HW1 5153   3.513   3.850   3.353
 1418SOL    HW2 5154   3.450   3.736   3.451
 1419SOL     OW 5155   3.754   6.615   3.999
 1419SOL    HW1 5156   3.752   6.521   3.965
 1419SOL    HW2 5157   3.844   6.635   4.037
 1420SOL     OW 5158   0.485   6.143   2.261
 1420SOL    HW1 5159   0.504   6.137   2.163
 1420SOL    HW2 5160   0.565   6.179   2.309
 1421SOL     OW 5161   3.898   0.875   2.716
 1421SOL    HW1 5162   3.814   0.821   2.728
 1421SOL    HW2 5163   3.977   0.814   2.714
 1422SOL     OW 5164   2.597   6.517   0.416
 1422SOL    HW1 5165   2.551   6.485   0.333
 1422SOL    HW2 5166   2.535   6.576   0.468
 1423SOL     OW 5167   5.204   0.955   2.108
 1423SOL    HW1 5168   5.197   1.055   2.099
 1423SOL    HW2 5169   5.187   0.912   2.019
 1424SOL     OW 5170   6.399   5.283   2.760
 1424SOL    HW1 5171   6.322   5.292   2.698
 1424SOL    HW2 5172   6.369   5.300   2.854
 1425SOL     OW 5173   1.491   0.904   4.192
 1425SOL    HW1 5174   1.461   0.966   4.265
 1425SOL    HW2 5175   1.562   0.844   4.227
 1426SOL     OW 5176   1.530   1.479   5.145
 1426SOL    HW1 5177   1.569   1.545   5.208
 1426SOL    HW2 5178   1.575   1.390   5.157
 1427SOL     OW 5179   5.628   1.179   5.259
 1427SOL    HW1 5180   5.534   1.163   5.287
 1427SOL    HW2 5181   5.637   1.162   5.161
 1428SOL     OW 5182   5.912   1.171   0.533
 1428SOL    HW1 5183   5.906   1.188   0.435
 1428SOL    HW2 5184   5.906   1.073   0.550
 1429SOL     OW 5185   5.659   6.081   6.972
 1429SOL    HW1 5186   5.710   6.042   0.024
 1429SOL    HW2 5187   5.640   6.177   6.989
 1430SOL     OW 5188   2.678   4.639   3.140
 1430SOL    HW1 5189   2.616   4.605   3.069
 1430SOL    HW2 5190   2.696   4.566   3.206
 1431SOL     OW 5191   2.081   0.056   1.032
 1431SOL    HW1 5192   2.023   6.999   1.039
 1431SOL    HW2 5193   2.115   0.065   0.939
 1432SOL     OW 5194   3.230   0.236   1.208
 1432SOL    HW1 5195   3.317   0.282   1.226
 1432SOL    HW2 5196   3.228   0.148   1.255
 1433SOL     OW 5197   4.671   0.421   4.054
 1433SOL    HW1 5198   4.656   0.363   4.134
 1433SOL    HW2 5199   4.583   0.441   4.010
 1434SOL     OW 5200   0.854   1.089   5.196
 1434SOL    HW1 5201   0.943   1.062   5.233
 1434SOL    HW2 5202   0.842   1.188   5.207
 1435SOL     OW 5203   0.038   2.384   3.405
 1435SOL    HW1 5204   0.053   2.386   3.306
 1435SOL    HW2 5205   7.011   2.303   3.429
 1436SOL     OW 5206   4.835   3.966   0.659
 1436SOL    HW1 5207   4.744   3.993   0.689
 1436SOL    HW2 5208   4.876   4.039   0.605
 1437SOL     OW 5209   4.761   1.754   2.583
 1437SOL    HW1 5210   4.664   1.735   2.599
 1437SOL    HW2 5211   4.811   1.748   2.669
 1438SOL     OW 5212   2.191   0.240   1.675
 1438SOL    HW1 5213   2.210   0.311   1.608
 1438SOL    HW2 5214   2.263   0.241   1.745
 1439SOL     OW 5215   0.642   5.746   2.156
 1439SOL    HW1 5216   0.570   5.789   2.212
 1439SOL    HW2 5217   0.601   5.678   2.095
 1440SOL     OW 5218   2.307   2.778   1.630
 1440SOL    HW1 5219   2.310   2.835   1.548
 1440SOL    HW2 5220   2.382   2.804   1.691
 1441SOL     OW 5221   4.959   5.800   6.680
 1441SOL    HW1 5222   4.876   5.754   6.710
 1441SOL    HW2 5223   5.021   5.733   6.639
 1442SOL     OW 5224   5.353   5.508   0.816
 1442SOL    HW1 5225   5.259   5.485   0.794
 1442SOL    HW2 5226   5.404   5.526   0.732
 1443SOL     OW 5227   0.115   2.617   2.128
 1443SOL    HW1 5228   0.107   2.552   2.203
 1443SOL    HW2 5229   0.124   2.710   2.164
 1444SOL     OW 5230   0.684   5.859   6.010
 1444SOL    HW1 5231   0.755   5.928   6.024
 1444SOL    HW2 5232   0.595   5.903   6.009
 1445SOL     OW 5233   0.518   2.836   1.106
 1445SOL    HW1 5234   0.552   2.925   1.138
 1445SOL    HW2 5235   0.594   2.782   1.070
 1446SOL     OW 5236   6.862   5.460   1.306
 1446SOL    HW1 5237   6.894   5.524   1.236
 1446SOL    HW2 5238   6.796   5.397   1.265
 1447SOL     OW 5239   6.487   6.277   3.812
 1447SOL    HW1 5240   6.403   6.305   3.766
 1447SOL    HW2 5241   6.529   6.356   3.857
 1448SOL     OW 5242   0.814   1.309   5.780
 1448SOL    HW1 5243   0.887   1.360   5.734
 1448SOL    HW2 5244   0.819   1.213   5.753
 1449SOL     OW 5245   2.155   3.222   3.019
 1449SOL    HW1 5246   2.075   3.185   3.065
 1449SOL    HW2 5247   2.199   3.150   2.965
 1450SOL     OW 5248   3.191   1.899   3.289
 1450SOL    HW1 5249   3.113   1.866   3.237
 1450SOL    HW2 5250   3.231   1.979   3.244
 1451SOL     OW 5251   3.403   1.419   2.489
 1451SOL    HW1 5252   3.321   1.361   2.499
 1451SOL    HW2 5253   3.376   1.512   2.465
 1452SOL     OW 5254   4.343   2.736   6.583
 1452SOL    HW1 5255   4.390   2.663   6.633
 1452SOL    HW2 5256   4.370   2.734   6.486
 1453SOL     OW 5257   0.923   3.330   4.896
 1453SOL    HW1 5258   1.003   3.272   4.891
 1453SOL    HW2 5259   0.845   3.278   4.931
 1454SOL     OW 5260   3.118   2.105   2.584
 1454SOL    HW1 5261   3.056   2.119   2.507
 1454SOL    HW2 5262   3.213   2.107   2.551
 1455SOL     OW 5263   0.006   5.231   2.448
 1455SOL    HW1 5264   6.978   5.168   2.505
 1455SOL    HW2 5265   7.010   5.325   2.476
 1456SOL     OW 5266   6.386   6.140   4.395
 1456SOL    HW1 5267   6.347   6.095   4.314
 1456SOL    HW2 5268   6.486   6.137   4.389
 1457SOL     OW 5269   0.892   5.175   5.879
 1457SOL    HW1 5270   0.824   5.249   5.883
 1457SOL    HW2 5271   0.948   5.178   5.962
 1458SOL     OW 5272   6.672   4.990   5.061
 1458SOL    HW1 5273   6.653   5.052   5.137
 1458SOL    HW2 5274   6.598   4.996   4.994
 1459SOL     OW 5275   6.467   6.513   5.044
 1459SOL    HW1 5276   6.371   6.532   5.022
 1459SOL    HW2 5277   6.478   6.416   5.066
 1460SOL     OW 5278   1.952   6.182   5.003
 1460SOL    HW1 5279   1.935   6.281   5.004
 1460SOL    HW2 5280   1.990   6.154   5.091
 1461SOL     OW 5281   6.094   3.666   4.167
 1461SOL    HW1 5282   6.079   3.567   4.173
 1461SOL    HW2 5283   6.132   3.698   4.254
 1462SOL     OW 5284   0.424   1.412   1.882
 1462SOL    HW1 5285   0.488   1.489   1.876
 1462SOL    HW2 5286   0.412   1.385   1.977
 1463SOL     OW 5287   1.334   5.215   6.750
 1463SOL    HW1 5288   1.427   5.178   6.743
 1463SOL    HW2 5289   1.272   5.157   6.698
 1464SOL     OW 5290   1.423   4.717   4.752
 1464SOL    HW1 5291   1.483   4.707   4.673
 1464SOL    HW2 5292   1.414   4.814   4.776
 1465SOL     OW 5293   1.388   2.446   5.798
 1465SOL    HW1 5294   1.394   2.403   5.888
 1465SOL    HW2 5295   1.293   2.472   5.780
 1466SOL     OW 5296   5.582   1.145   2.752
 1466SOL    HW1 5297   5.626   1.207   2.687
 1466SOL    HW2 5298   5.561   1.059   2.707
 1467SOL     OW 5299   0.383   6.996   3.375
 1467SOL    HW1 5300   0.353   6.940   3.297
 1467SOL    HW2 5301   0.467   6.957   3.413
 1468SOL     OW 5302   3.463   6.343   3.422
 1468SOL    HW1 5303   3.427   6.371   3.334
 1468SOL    HW2 5304   3.403   6.375   3.495
 1469SOL     OW 5305   5.899   4.504   3.060
 1469SOL    HW1 5306   5.939   4.589   3.096
 1469SOL    HW2 5307   5.822   4.477   3.117
 1470SOL     OW 5308   6.418   2.399   2.490
 1470SOL    HW1 5309   6.390   2.312   2.531
 1470SOL    HW2 5310   6.402   2.396   2.391
 1471SOL     OW 5311   4.766   0.116   6.963
 1471SOL    HW1 5312   4.806   0.133   0.028
 1471SOL    HW2 5313   4.767   0.200   6.909
 1472SOL     OW 5314   2.195   0.775   6.618
 1472SOL    HW1 5315   2.154   0.698   6.668
 1472SOL    HW2 5316   2.125   0.817   6.560
 1473SOL     OW 5317   1.935   5.787   3.068
 1473SOL    HW1 5318   1.952   5.757   3.162
 1473SOL    HW2 5319   2.020   5.787   3.017
 1474SOL     OW 5320   1.878   4.080   2.495
 1474SOL    HW1 5321   1.829   4.005   2.450
 1474SOL    HW2 5322   1.854   4.167   2.452
 1475SOL     OW 5323   6.156   0.176   6.690
 1475SOL    HW1 5324   6.124   0.162   6.596
 1475SOL    HW2 5325   6.097   0.126   6.753
 1476SOL     OW 5326   5.500   0.482   6.615
 1476SOL    HW1 5327   5.431   0.493   6.544
 1476SOL    HW2 5328   5.569   0.416   6.585
 1477SOL     OW 5329   3.329   4.234   1.720
 1477SOL    HW1 5330   3.229   4.240   1.723
 1477SOL    HW2 5331   3.356   4.140   1.699
 1478SOL     OW 5332   4.898   4.441   6.356
 1478SOL    HW1 5333   4.913   4.342   6.363
 1478SOL    HW2 5334   4.931   4.486   6.439
 1479SOL     OW 5335   4.893   4.337   1.044
 1479SOL    HW1 5336   4.882   4.437   1.042
 1479SOL    HW2 5337   4.805   4.294   1.025
 1480SOL     OW 5338   2.666   1.304   4.271
 1480SOL    HW1 5339   2.737   1.243   4.237
 1480SOL    HW2 5340   2.577   1.272   4.239
 1481SOL     OW 5341   4.236   1.670   5.570
 1481SOL    HW1 5342   4.330   1.705   5.561
 1481SOL    HW2 5343   4.212   1.665   5.667
 1482SOL     OW 5344   6.499   1.384   1.776
 1482SOL    HW1 5345   6.435   1.460   1.767
 1482SOL    HW2 5346   6.497   1.329   1.693
 1483SOL     OW 5347   6.544   0.256   6.850
 1483SOL    HW1 5348   6.573   0.331   6.790
 1483SOL    HW2 5349   6.467   0.285   6.905
 1484SOL     OW 5350   3.063   6.308   4.901
 1484SOL    HW1 5351   3.089   6.219   4.863
 1484SOL    HW2 5352   3.018   6.294   4.989
 1485SOL     OW 5353   5.140   3.895   3.521
 1485SOL    HW1 5354   5.189   3.830   3.579
 1485SOL    HW2 5355   5.150   3.987   3.560
 1486SOL     OW 5356   5.086   6.296   4.093
 1486SOL    HW1 5357   5.172   6.247   4.083
 1486SOL    HW2 5358   5.072   6.356   4.014
 1487SOL     OW 5359   6.199   0.947   0.219
 1487SOL    HW1 5360   6.181   1.044   0.231
 1487SOL    HW2 5361   6.293   0.934   0.185
 1488SOL     OW 5362   6.803   2.677   3.006
 1488SOL    HW1 5363   6.759   2.617   3.073
 1488SOL    HW2 5364   6.858   2.623   2.943
 1489SOL     OW 5365   3.222   5.256   6.800
 1489SOL    HW1 5366   3.205   5.158   6.792
 1489SOL    HW2 5367   3.153   5.297   6.860
 1490SOL     OW 5368   6.542   3.197   2.388
 1490SOL    HW1 5369   6.592   3.282   2.408
 1490SOL    HW2 5370   6.607   3.122   2.380
 1491SOL     OW 5371   5.172   2.572   3.642
 1491SOL    HW1 5372   5.216   2.617   3.564
 1491SOL    HW2 5373   5.221   2.596   3.726
 1492SOL     OW 5374   0.935   2.559   2.561
 1492SOL    HW1 5375   0.914   2.470   2.521
 1492SOL    HW2 5376   1.004   2.548   2.632
 1493SOL     OW 5377   6.276   2.333   6.702
 1493SOL    HW1 5378   6.246   2.366   6.791
 1493SOL    HW2 5379   6.213   2.261   6.671
 1494SOL     OW 5380   0.896   3.896   6.282
 1494SOL    HW1 5381   0.955   3.949   6.222
 1494SOL    HW2 5382   0.856   3.820   6.232
 1495SOL     OW 5383   6.737   4.234   3.929
 1495SOL    HW1 5384   6.804   4.308   3.938
 1495SOL    HW2 5385   6.654   4.269   3.886
 1496SOL     OW 5386   6.452   6.092   5.541
 1496SOL    HW1 5387   6.536   6.144   5.528
 1496SOL    HW2 5388   6.375   6.142   5.502
 1497SOL     OW 5389   5.218   2.745   2.515
 1497SOL    HW1 5390   5.228   2.656   2.470
 1497SOL    HW2 5391   5.307   2.791   2.518
 1498SOL     OW 5392   3.525   4.588   0.533
 1498SOL    HW1 5393   3.614   4.633   0.529
 1498SOL    HW2 5394   3.522   4.526   0.612
 1499SOL     OW 5395   0.496   4.627   4.329
 1499SOL    HW1 5396   0.537   4.568   4.398
 1499SOL    HW2 5397   0.404   4.653   4.356
 1500SOL     OW 5398   2.590   5.290   2.191
 1500SOL    HW1 5399   2.528   5.306   2.115
 1500SOL    HW2 5400   2.685   5.297   2.159
 1501SOL     OW 5401   6.034   1.680   1.164
 1501SOL    HW1 5402   5.991   1.746   1.101
 1501SOL    HW2 5403   6.042   1.721   1.254
 1502SOL     OW 5404   0.397   6.355   6.363
 1502SOL    HW1 5405   0.305   6.328   6.393
 1502SOL    HW2 5406   0.403   6.348   6.264
 1503SOL     OW 5407   0.308   5.079   1.721
 1503SOL    HW1 5408   0.374   5.136   1.769
 1503SOL    HW2 5409   0.300   5.109   1.626
 1504SOL     OW 5410   1.712   0.107   3.384
 1504SOL    HW1 5411   1.754   0.041   3.323
 1504SOL    HW2 5412   1.768   0.190   3.387
 1505SOL     OW 5413   6.763   4.757   4.989
 1505SOL    HW1 5414   6.712   4.836   5.022
 1505SOL    HW2 5415   6.826   4.785   4.917
 1506SOL     OW 5416   1.424   0.777   0.889
 1506SOL    HW1 5417   1.491   0.705   0.870
 1506SOL    HW2 5418   1.446   0.820   0.977
 1507SOL     OW 5419   2.827   2.341   2.953
 1507SOL    HW1 5420   2.854   2.427   2.909
 1507SOL    HW2 5421   2.730   2.343   2.974
 1508SOL     OW 5422   1.576   0.437   2.081
 1508SOL    HW1 5423   1.522   0.362   2.117
 1508SOL    HW2 5424   1.605   0.497   2.157
 1509SOL     OW 5425   5.013   1.639   4.195
 1509SOL    HW1 5426   5.068   1.626   4.278
 1509SOL    HW2 5427   4.993   1.550   4.155
 1510SOL     OW 5428   3.184   6.817   5.192
 1510SOL    HW1 5429   3.246   6.891   5.216
 1510SOL    HW2 5430   3.174   6.754   5.269
 1511SOL     OW 5431   3.507   4.278   5.462
 1511SOL    HW1 5432   3.418   4.233   5.456
 1511SOL    HW2 5433   3.569   4.222   5.518
 1512SOL     OW 5434   5.336   6.247   0.542
 1512SOL    HW1 5435   5.374   6.259   0.450
 1512SOL    HW2 5436   5.360   6.157   0.577
 1513SOL     OW 5437   2.776   0.739   5.837
 1513SOL    HW1 5438   2.772   0.652   5.789
 1513SOL    HW2 5439   2.788   0.723   5.935
 1514SOL     OW 5440   3.058   2.147   6.764
 1514SOL    HW1 5441   3.031   2.205   6.687
 1514SOL    HW2 5442   3.152   2.114   6.749
 1515SOL     OW 5443   3.650   0.758   2.797
 1515SOL    HW1 5444   3.552   0.741   2.787
 1515SOL    HW2 5445   3.693   0.676   2.836
 1516SOL     OW 5446   6.551   6.777   6.269
 1516SOL    HW1 5447   6.536   6.828   6.184
 1516SOL    HW2 5448   6.467   6.730   6.294
 1517SOL     OW 5449   2.507   6.248   3.005
 1517SOL    HW1 5450   2.582   6.206   3.054
 1517SOL    HW2 5451   2.466   6.320   3.061
 1518SOL     OW 5452   1.226   3.245   6.840
 1518SOL    HW1 5453   1.285   3.225   6.918
 1518SOL    HW2 5454   1.212   3.344   6.833
 1519SOL     OW 5455   0.439   4.352   6.699
 1519SOL    HW1 5456   0.436   4.292   6.779
 1519SOL    HW2 5457   0.370   4.323   6.633
 1520SOL     OW 5458   0.004   6.939   3.328
 1520SOL    HW1 5459   6.959   6.975   3.391
 1520SOL    HW2 5460   0.029   7.010   3.262
 1521SOL     OW 5461   2.083   4.761   6.592
 1521SOL    HW1 5462   2.014   4.822   6.630
 1521SOL    HW2 5463   2.040   4.678   6.556
 1522SOL     OW 5464   5.395   6.696   4.527
 1522SOL    HW1 5465   5.476   6.754   4.536
 1522SOL    HW2 5466   5.347   6.720   4.442
 1523SOL     OW 5467   2.431   6.689   0.538
 1523SOL    HW1 5468   2.394   6.671   0.629
 1523SOL    HW2 5469   2.374   6.758   0.492
 1524SOL     OW 5470   1.884   2.659   4.339
 1524SOL    HW1 5471   1.785   2.647   4.341
 1524SOL    HW2 5472   1.907   2.730   4.272
 1525SOL     OW 5473   5.716   4.296   6.343
 1525SOL    HW1 5474   5.673   4.308   6.432
 1525SOL    HW2 5475   5.812   4.327   6.347
 1526SOL     OW 5476   0.881   1.666   1.077
 1526SOL    HW1 5477   0.966   1.718   1.079
 1526SOL    HW2 5478   0.897   1.574   1.113
 1527SOL     OW 5479   5.316   1.392   4.753
 1527SOL    HW1 5480   5.308   1.483   4.792
 1527SOL    HW2 5481   5.277   1.391   4.661
 1528SOL     OW 5482   3.725   2.911   2.598
 1528SOL    HW1 5483   3.757   2.937   2.507
 1528SOL    HW2 5484   3.631   2.877   2.592
 1529SOL     OW 5485   4.207   1.326   5.480
 1529SOL    HW1 5486   4.269   1.375   5.542
 1529SOL    HW2 5487   4.196   1.379   5.396
 1530SOL     OW 5488   2.529   0.037   1.630
 1530SOL    HW1 5489   2.440   7.022   1.608
 1530SOL    HW2 5490   2.581   6.996   1.687
 1531SOL     OW 5491   4.915   6.359   4.489
 1531SOL    HW1 5492   4.859   6.313   4.421
 1531SOL    HW2 5493   4.969   6.291   4.539
 1532SOL     OW 5494   2.932   5.862   1.643
 1532SOL    HW1 5495   3.020   5.816   1.632
 1532SOL    HW2 5496   2.863   5.816   1.588
 1533SOL     OW 5497   5.958   6.255   0.920
 1533SOL    HW1 5498   5.950   6.212   1.010
 1533SOL    HW2 5499   5.950   6.185   0.849
 1534SOL     OW 5500   2.089   4.661   6.910
 1534SOL    HW1 5501   2.185   4.648   6.887
 1534SOL    HW2 5502   2.076   4.752   6.950
 1535SOL     OW 5503   5.171   4.181   3.484
 1535SOL    HW1 5504   5.107   4.257   3.486
 1535SOL    HW2 5505   5.261   4.213   3.515
 1536SOL     OW 5506   4.407   3.886   6.386
 1536SOL    HW1 5507   4.452   3.927   6.307
 1536SOL    HW2 5508   4.385   3.957   6.453
 1537SOL     OW 5509   3.144   5.568   2.568
 1537SOL    HW1 5510   3.086   5.569   2.487
 1537SOL    HW2 5511   3.139   5.478   2.612
 1538SOL     OW 5512   2.718   0.903   0.686
 1538SOL    HW1 5513   2.734   0.993   0.646
 1538SOL    HW2 5514   2.729   0.833   0.616
 1539SOL     OW 5515   6.922   3.189   1.025
 1539SOL    HW1 5516   6.985   3.124   1.069
 1539SOL    HW2 5517   6.836   3.192   1.076
 1540SOL     OW 5518   3.303   6.460   3.624
 1540SOL    HW1 5519   3.287   6.553   3.656
 1540SOL    HW2 5520   3.224   6.429   3.570
 1541SOL     OW 5521   4.403   2.283   5.687
 1541SOL    HW1 5522   4.398   2.333   5.773
 1541SOL    HW2 5523   4.380   2.187   5.702
 1542SOL     OW 5524   6.618   5.216   3.012
 1542SOL    HW1 5525   6.588   5.132   2.965
 1542SOL    HW2 5526   6.712   5.205   3.042
 1543SOL     OW 5527   3.250   5.516   0.934
 1543SOL    HW1 5528   3.273   5.431   0.981
 1543SOL    HW2 5529   3.289   5.514   0.842
 1544SOL     OW 5530   3.845   3.354   4.031
 1544SOL    HW1 5531   3.887   3.316   3.949
 1544SOL    HW2 5532   3.916   3.370   4.100
 1545SOL     OW 5533   5.978   5.062   1.226
 1545SOL    HW1 5534   5.972   4.995   1.299
 1545SOL    HW2 5535   5.996   5.152   1.265
 1546SOL     OW 5536   6.340   6.384   5.438
 1546SOL    HW1 5537   6.266   6.330   5.477
 1546SOL    HW2 5538   6.308   6.476   5.418
 1547SOL     OW 5539   1.351   3.158   6.387
 1547SOL    HW1 5540   1.412   3.189   6.460
 1547SOL    HW2 5541   1.403   3.152   6.302
 1548SOL     OW 5542   6.563   2.205   0.578
 1548SOL    HW1 5543   6.619   2.226   0.498
 1548SOL    HW2 5544   6.536   2.109   0.575
 1549SOL     OW 5545   4.967   1.112   4.760
 1549SOL    HW1 5546   4.912   1.172   4.702
 1549SOL    HW2 5547   4.931   1.019   4.756
 1550SOL     OW 5548   3.138   3.524   4.420
 1550SOL    HW1 5549   3.078   3.534   4.499
 1550SOL    HW2 5550   3.192   3.607   4.409
 1551SOL     OW 5551   6.986   5.324   6.007
 1551SOL    HW1 5552   6.934   5.403   6.039
 1551SOL    HW2 5553   0.048   5.318   6.058
 1552SOL     OW 5554   1.886   4.206   1.488
 1552SOL    HW1 5555   1.950   4.133   1.465
 1552SOL    HW2 5556   1.918   4.255   1.568
 1553SOL     OW 5557   1.900   1.867   5.529
 1553SOL    HW1 5558   1.881   1.959   5.494
 1553SOL    HW2 5559   1.987   1.834   5.492
 1554SOL     OW 5560   4.456   1.763   3.155
 1554SOL    HW1 5561   4.365   1.768   3.113
 1554SOL    HW2 5562   4.463   1.681   3.212
 1555SOL     OW 5563   5.775   5.279   5.577
 1555SOL    HW1 5564   5.867   5.291   5.614
 1555SOL    HW2 5565   5.762   5.184   5.548
 1556SOL     OW 5566   1.699   0.868   5.926
 1556SOL    HW1 5567   1.625   0.913   5.976
 1556SOL    HW2 5568   1.787   0.906   5.954
 1557SOL     OW 5569   0.915   1.831   5.325
 1557SOL    HW1 5570   0.930   1.798   5.418
 1557SOL    HW2 5571   0.854   1.768   5.276
 1558SOL     OW 5572   6.859   6.354   4.509
 1558SOL    HW1 5573   6.900   6.426   4.453
 1558SOL    HW2 5574   6.930   6.295   4.545
 1559SOL     OW 5575   1.249   1.074   6.141
 1559SOL    HW1 5576   1.207   1.074   6.051
 1559SOL    HW2 5577   1.253   1.168   6.176
 1560SOL     OW 5578   0.069   0.480   0.162
 1560SOL    HW1 5579   0.145   0.487   0.227
 1560SOL    HW2 5580   0.083   0.401   0.103
 1561SOL     OW 5581   5.859   6.186   1.739
 1561SOL    HW1 5582   5.853   6.159   1.643
 1561SOL    HW2 5583   5.829   6.109   1.797
 1562SOL     OW 5584   5.380   0.363   4.230
 1562SOL    HW1 5585   5.429   0.311   4.300
 1562SOL    HW2 5586   5.434   0.365   4.146
 1563SOL     OW 5587   3.250   0.017   5.907
 1563SOL    HW1 5588   3.258   7.011   6.002
 1563SOL    HW2 5589   3.338   0.055   5.876
 1564SOL     OW 5590   1.883   2.273   3.221
 1564SOL    HW1 5591   1.937   2.327   3.157
 1564SOL    HW2 5592   1.944   2.220   3.280
 1565SOL     OW 5593   6.265   4.798   1.201
 1565SOL    HW1 5594   6.276   4.757   1.110
 1565SOL    HW2 5595   6.289   4.895   1.197
 1566SOL     OW 5596   6.228   4.715   2.158
 1566SOL    HW1 5597   6.161   4.769   2.107
 1566SOL    HW2 5598   6.282   4.660   2.095
 1567SOL     OW 5599   6.668   5.845   5.246
 1567SOL    HW1 5600   6.572   5.869   5.234
 1567SOL    HW2 5601   6.691   5.841   5.343
 1568SOL     OW 5602   0.067   6.650   0.678
 1568SOL    HW1 5603   0.114   6.708   0.611
 1568SOL    HW2 5604   0.034   6.706   0.754
 1569SOL     OW 5605   3.102   6.491   5.455
 1569SOL    HW1 5606   3.147   6.501   5.544
 1569SOL    HW2 5607   3.075   6.396   5.441
 1570SOL     OW 5608   2.821   2.173   1.844
 1570SOL    HW1 5609   2.814   2.238   1.920
 1570SOL    HW2 5610   2.740   2.115   1.842
 1571SOL     OW 5611   0.071   3.404   0.962
 1571SOL    HW1 5612   0.132   3.385   1.039
 1571SOL    HW2 5613   0.001   3.334   0.956
 1572SOL     OW 5614   0.422   5.571   3.320
 1572SOL    HW1 5615   0.323   5.569   3.334
 1572SOL    HW2 5616   0.451   5.664   3.297
 1573SOL     OW 5617   4.764   6.899   0.216
 1573SOL    HW1 5618   4.709   6.859   0.143
 1573SOL    HW2 5619   4.716   6.978   0.253
 1574SOL     OW 5620   5.535   3.634   2.061
 1574SOL    HW1 5621   5.570   3.563   1.999
 1574SOL    HW2 5622   5.435   3.635   2.057
 1575SOL     OW 5623   3.622   2.149   0.669
 1575SOL    HW1 5624   3.636   2.245   0.645
 1575SOL    HW2 5625   3.541   2.141   0.727
 1576SOL     OW 5626   6.445   4.960   3.020
 1576SOL    HW1 5627   6.383   4.985   2.945
 1576SOL    HW2 5628   6.435   5.026   3.095
 1577SOL     OW 5629   1.845   0.763   0.679
 1577SOL    HW1 5630   1.774   0.710   0.633
 1577SOL    HW2 5631   1.906   0.700   0.729
 1578SOL     OW 5632   5.958   5.715   4.550
 1578SOL    HW1 5633   5.869   5.693   4.509
 1578SOL    HW2 5634   6.002   5.788   4.497
 1579SOL     OW 5635   6.978   0.201   2.851
 1579SOL    HW1 5636   6.954   0.169   2.759
 1579SOL    HW2 5637   6.939   0.292   2.866
 1580SOL     OW 5638   3.103   4.048   5.721
 1580SOL    HW1 5639   3.068   4.108   5.793
 1580SOL    HW2 5640   3.157   3.974   5.762
 1581SOL     OW 5641   6.044   3.128   4.455
 1581SOL    HW1 5642   6.093   3.042   4.437
 1581SOL    HW2 5643   5.947   3.108   4.472
 1582SOL     OW 5644   6.039   6.378   4.358
 1582SOL    HW1 5645   6.079   6.319   4.428
 1582SOL    HW2 5646   6.072   6.350   4.268
 1583SOL     OW 5647   2.045   2.676   1.668
 1583SOL    HW1 5648   2.140   2.698   1.647
 1583SOL    HW2 5649   1.985   2.735   1.614
 1584SOL     OW 5650   2.416   6.895   6.357
 1584SOL    HW1 5651   2.489   6.920   6.421
 1584SOL    HW2 5652   2.334   6.872   6.409
 1585SOL     OW 5653   5.823   0.831   6.066
 1585SOL    HW1 5654   5.861   0.791   6.150
 1585SOL    HW2 5655   5.740   0.781   6.040
 1586SOL     OW 5656   3.829   3.220   3.157
 1586SOL    HW1 5657   3.921   3.260   3.167
 1586SOL    HW2 5658   3.822   3.139   3.215
 1587SOL     OW 5659   2.076   6.812   6.181
 1587SOL    HW1 5660   2.081   6.778   6.275
 1587SOL    HW2 5661   2.156   6.779   6.130
 1588SOL     OW 5662   6.123   3.681   0.495
 1588SOL    HW1 5663   6.077   3.650   0.412
 1588SOL    HW2 5664   6.193   3.748   0.471
 1589SOL     OW 5665   4.905   4.926   3.058
 1589SOL    HW1 5666   4.925   4.845   3.114
 1589SOL    HW2 5667   4.809   4.922   3.028
 1590SOL     OW 5668   2.279   6.265   4.533
 1590SOL    HW1 5669   2.255   6.316   4.451
 1590SOL    HW2 5670   2.195   6.233   4.578
 1591SOL     OW 5671   2.334   3.268   0.105
 1591SOL    HW1 5672   2.339   3.231   0.198
 1591SOL    HW2 5673   2.243   3.251   0.066
 1592SOL     OW 5674   3.976   3.716   3.933
 1592SOL    HW1 5675   3.939   3.631   3.969
 1592SOL    HW2 5676   4.035   3.696   3.854
 1593SOL     OW 5677   1.453   4.422   4.163
 1593SOL    HW1 5678   1.501   4.510   4.170
 1593SOL    HW2 5679   1.519   4.351   4.135
 1594SOL     OW 5680   0.459   5.232   2.985
 1594SOL    HW1 5681   0.410   5.267   3.065
 1594SOL    HW2 5682   0.546   5.279   2.975
 1595SOL     OW 5683   0.084   3.312   4.877
 1595SOL    HW1 5684   0.159   3.296   4.813
 1595SOL    HW2 5685   0.082   3.408   4.903
 1596SOL     OW 5686   2.944   5.096   6.772
 1596SOL    HW1 5687   2.907   5.168   6.713
 1596SOL    HW2 5688   3.029   5.062   6.734
 1597SOL     OW 5689   2.367   0.442   0.574
 1597SOL    HW1 5690   2.303   0.513   0.544
 1597SOL    HW2 5691   2.366   0.366   0.509
 1598SOL     OW 5692   0.214   5.600   1.668
 1598SOL    HW1 5693   0.253   5.640   1.750
 1598SOL    HW2 5694   0.184   5.672   1.606
 1599SOL     OW 5695   2.915   5.390   0.475
 1599SOL    HW1 5696   2.973   5.423   0.550
 1599SOL    HW2 5697   2.950   5.426   0.388
 1600SOL     OW 5698   3.507   1.645   5.113
 1600SOL    HW1 5699   3.450   1.721   5.144
 1600SOL    HW2 5700   3.565   1.614   5.187
 1601SOL     OW 5701   1.925   5.462   5.055
 1601SOL    HW1 5702   1.869   5.488   5.134
 1601SOL    HW2 5703   1.868   5.417   4.987
 1602SOL     OW 5704   0.575   3.374   2.391
 1602SOL    HW1 5705   0.596   3.384   2.489
 1602SOL    HW2 5706   0.572   3.465   2.349
 1603SOL     OW 5707   5.841   6.724   0.534
 1603SOL    HW1 5708   5.919   6.680   0.579
 1603SOL    HW2 5709   5.860   6.733   0.436
 1604SOL     OW 5710   0.931   5.506   4.511
 1604SOL    HW1 5711   0.984   5.561   4.447
 1604SOL    HW2 5712   0.946   5.540   4.604
 1605SOL     OW 5713   4.851   5.020   2.616
 1605SOL    HW1 5714   4.848   5.099   2.677
 1605SOL    HW2 5715   4.897   4.944   2.662
 1606SOL     OW 5716   5.793   5.700   4.343
 1606SOL    HW1 5717   5.881   5.737   4.313
 1606SOL    HW2 5718   5.750   5.651   4.267
 1607SOL     OW 5719   4.576   3.466   1.570
 1607SOL    HW1 5720   4.574   3.446   1.472
 1607SOL    HW2 5721   4.599   3.382   1.620
 1608SOL     OW 5722   2.965   0.318   0.703
 1608SOL    HW1 5723   2.944   0.274   0.616
 1608SOL    HW2 5724   2.931   0.261   0.778
 1609SOL     OW 5725   5.845   1.353   5.176
 1609SOL    HW1 5726   5.838   1.363   5.077
 1609SOL    HW2 5727   5.771   1.294   5.209
 1610SOL     OW 5728   4.687   6.664   2.888
 1610SOL    HW1 5729   4.759   6.732   2.876
 1610SOL    HW2 5730   4.723   6.586   2.940
 1611SOL     OW 5731   4.263   3.607   1.471
 1611SOL    HW1 5732   4.173   3.565   1.482
 1611SOL    HW2 5733   4.301   3.583   1.382
 1612SOL     OW 5734   2.968   0.769   5.114
 1612SOL    HW1 5735   2.950   0.748   5.018
 1612SOL    HW2 5736   3.044   0.712   5.146
 1613SOL     OW 5737   1.799   0.516   1.650
 1613SOL    HW1 5738   1.797   0.519   1.550
 1613SOL    HW2 5739   1.869   0.579   1.684
 1614SOL     OW 5740   0.105   2.541   5.225
 1614SOL    HW1 5741   0.032   2.522   5.160
 1614SOL    HW2 5742   0.128   2.457   5.274
 1615SOL     OW 5743   6.504   5.287   5.678
 1615SOL    HW1 5744   6.579   5.274   5.743
 1615SOL    HW2 5745   6.534   5.258   5.587
 1616SOL     OW 5746   2.436   2.022   6.270
 1616SOL    HW1 5747   2.469   2.055   6.181
 1616SOL    HW2 5748   2.380   1.940   6.255
 1617SOL     OW 5749   3.379   0.993   3.501
 1617SOL    HW1 5750   3.280   0.996   3.484
 1617SOL    HW2 5751   3.427   1.028   3.420
 1618SOL     OW 5752   5.358   2.912   1.813
 1618SOL    HW1 5753   5.373   2.957   1.901
 1618SOL    HW2 5754   5.268   2.868   1.813
 1619SOL     OW 5755   1.597   2.594   4.860
 1619SOL    HW1 5756   1.512   2.622   4.817
 1619SOL    HW2 5757   1.674   2.612   4.799
 1620SOL     OW 5758   3.462   6.283   1.638
 1620SOL    HW1 5759   3.397   6.228   1.689
 1620SOL    HW2 5760   3.551   6.237   1.633
 1621SOL     OW 5761   2.116   2.420   1.701
 1621SOL    HW1 5762   2.159   2.401   1.613
 1621SOL    HW2 5763   2.069   2.508   1.697
 1622SOL     OW 5764   2.317   2.354   5.184
 1622SOL    HW1 5765   2.341   2.378   5.090
 1622SOL    HW2 5766   2.267   2.430   5.226
 1623SOL     OW 5767   2.039   2.013   4.833
 1623SOL    HW1 5768   2.098   2.078   4.786
 1623SOL    HW2 5769   2.057   2.015   4.931
 1624SOL     OW 5770   2.189   0.718   0.503
 1624SOL    HW1 5771   2.288   0.720   0.489
 1624SOL    HW2 5772   2.145   0.769   0.429
 1625SOL     OW 5773   0.963   6.607   1.494
 1625SOL    HW1 5774   0.986   6.604   1.397
 1625SOL    HW2 5775   0.928   6.697   1.518
 1626SOL     OW 5776   2.660   3.059   6.190
 1626SOL    HW1 5777   2.585   3.042   6.126
 1626SOL    HW2 5778   2.708   2.973   6.208
 1627SOL     OW 5779   4.804   4.100   3.400
 1627SOL    HW1 5780   4.765   4.180   3.354
 1627SOL    HW2 5781   4.784   4.104   3.498
 1628SOL     OW 5782   3.411   3.268   6.982
 1628SOL    HW1 5783   3.352   3.334   6.936
 1628SOL    HW2 5784   3.410   3.285   0.056
 1629SOL     OW 5785   2.876   2.135   2.721
 1629SOL    HW1 5786   2.880   2.211   2.786
 1629SOL    HW2 5787   2.957   2.138   2.662
 1630SOL     OW 5788   5.506   5.153   3.968
 1630SOL    HW1 5789   5.546   5.098   4.041
 1630SOL    HW2 5790   5.558   5.238   3.957
 1631SOL     OW 5791   1.056   0.092   6.208
 1631SOL    HW1 5792   1.026   0.187   6.201
 1631SOL    HW2 5793   1.154   0.086   6.186
 1632SOL     OW 5794   4.311   6.684   6.751
 1632SOL    HW1 5795   4.405   6.669   6.722
 1632SOL    HW2 5796   4.310   6.714   6.846
 1633SOL     OW 5797   6.274   3.686   2.911
 1633SOL    HW1 5798   6.353   3.674   2.971
 1633SOL    HW2 5799   6.213   3.607   2.920
 1634SOL     OW 5800   3.809   1.097   1.061
 1634SOL    HW1 5801   3.777   1.098   0.967
 1634SOL    HW2 5802   3.830   1.190   1.091
 1635SOL     OW 5803   1.025   4.536   3.517
 1635SOL    HW1 5804   1.087   4.509   3.591
 1635SOL    HW2 5805   0.973   4.457   3.486
 1636SOL     OW 5806   2.902   6.610   0.026
 1636SOL    HW1 5807   2.993   6.646   0.006
 1636SOL    HW2 5808   2.889   6.524   7.001
 1637SOL     OW 5809   1.040   3.074   2.591
 1637SOL    HW1 5810   1.133   3.099   2.565
 1637SOL    HW2 5811   1.037   2.976   2.614
 1638SOL     OW 5812   1.466   2.267   6.094
 1638SOL    HW1 5813   1.530   2.325   6.145
 1638SOL    HW2 5814   1.376   2.310   6.092
 1639SOL     OW 5815   4.474   4.753   2.710
 1639SOL    HW1 5816   4.383   4.756   2.669
 1639SOL    HW2 5817   4.474   4.688   2.786
 1640SOL     OW 5818   6.026   6.664   1.069
 1640SOL    HW1 5819   5.975   6.730   1.014
 1640SOL    HW2 5820   6.106   6.632   1.018
 1641SOL     OW 5821   6.817   2.748   4.747
 1641SOL    HW1 5822   6.760   2.713   4.672
 1641SOL    HW2 5823   6.842   2.843   4.729
 1642SOL     OW 5824   0.834   2.476   1.977
 1642SOL    HW1 5825   0.904   2.473   2.048
 1642SOL    HW2 5826   0.842   2.562   1.927
 1643SOL     OW 5827   3.632   0.368   5.789
 1643SOL    HW1 5828   3.714   0.421   5.767
 1643SOL    HW2 5829   3.655   0.271   5.793
 1644SOL     OW 5830   4.249   1.302   0.977
 1644SOL    HW1 5831   4.347   1.301   0.996
 1644SOL    HW2 5832   4.207   1.219   1.015
 1645SOL     OW 5833   2.097   5.862   6.518
 1645SOL    HW1 5834   2.143   5.946   6.547
 1645SOL    HW2 5835   2.017   5.846   6.576
 1646SOL     OW 5836   2.529   3.775   0.433
 1646SOL    HW1 5837   2.601   3.838   0.463
 1646SOL    HW2 5838   2.571   3.698   0.385
 1647SOL     OW 5839   5.245   3.543   2.679
 1647SOL    HW1 5840   5.222   3.516   2.773
 1647SOL    HW2 5841   5.255   3.642   2.674
 1648SOL     OW 5842   3.305   0.460   2.944
 1648SOL    HW1 5843   3.313   0.524   3.020
 1648SOL    HW2 5844   3.348   0.373   2.968
 1649SOL     OW 5845   2.509   0.255   3.798
 1649SOL    HW1 5846   2.578   0.289   3.733
 1649SOL    HW2 5847   2.541   0.270   3.891
 1650SOL     OW 5848   3.207   0.026   4.517
 1650SOL    HW1 5849   3.242   0.078   4.439
 1650SOL    HW2 5850   3.129   6.996   4.487
 1651SOL     OW 5851   1.182   6.544   2.170
 1651SOL    HW1 5852   1.242   6.464   2.167
 1651SOL    HW2 5853   1.205   6.601   2.248
 1652SOL     OW 5854   3.508   3.279   1.759
 1652SOL    HW1 5855   3.464   3.361   1.793
 1652SOL    HW2 5856   3.438   3.213   1.729
 1653SOL     OW 5857   1.042   4.707   1.245
 1653SOL    HW1 5858   1.119   4.758   1.208
 1653SOL    HW2 5859   1.017   4.745   1.334
 1654SOL     OW 5860   0.556   2.023   3.893
 1654SOL    HW1 5861   0.626   2.054   3.829
 1654SOL    HW2 5862   0.489   1.967   3.844
 1655SOL     OW 5863   4.198   4.108   5.480
 1655SOL    HW1 5864   4.255   4.038   5.437
 1655SOL    HW2 5865   4.170   4.175   5.411
 1656SOL     OW 5866   0.284   3.862   2.363
 1656SOL    HW1 5867   0.184   3.859   2.375
 1656SOL    HW2 5868   0.326   3.902   2.444
 1657SOL     OW 5869   1.052   0.885   5.213
 1657SOL    HW1 5870   1.151   0.891   5.202
 1657SOL    HW2 5871   1.007   0.920   5.131
 1658SOL     OW 5872   5.780   7.022   2.498
 1658SOL    HW1 5873   5.824   0.035   2.580
 1658SOL    HW2 5874   5.787   0.065   2.424
 1659SOL     OW 5875   5.339   1.834   6.656
 1659SOL    HW1 5876   5.251   1.821   6.611
 1659SOL    HW2 5877   5.348   1.928   6.688
 1660SOL     OW 5878   2.248   6.161   3.526
 1660SOL    HW1 5879   2.310   6.237   3.542
 1660SOL    HW2 5880   2.241   6.143   3.428
 1661SOL     OW 5881   2.731   0.843   3.397
 1661SOL    HW1 5882   2.708   0.754   3.358
 1661SOL    HW2 5883   2.761   0.832   3.491
 1662SOL     OW 5884   6.386   0.661   3.484
 1662SOL    HW1 5885   6.415   0.621   3.397
 1662SOL    HW2 5886   6.463   0.707   3.527
 1663SOL     OW 5887   1.774   0.326   3.727
 1663SOL    HW1 5888   1.730   0.238   3.707
 1663SOL    HW2 5889   1.782   0.338   3.826
 1664SOL     OW 5890   1.810   5.795   4.529
 1664SOL    HW1 5891   1.840   5.701   4.543
 1664SOL    HW2 5892   1.778   5.833   4.615
 1665SOL     OW 5893   6.856   1.116   3.364
 1665SOL    HW1 5894   6.874   1.050   3.291
 1665SOL    HW2 5895   6.880   1.076   3.452
 1666SOL     OW 5896   5.399   2.392   5.997
 1666SOL    HW1 5897   5.406   2.485   5.961
 1666SOL    HW2 5898   5.446   2.385   6.085
 1667SOL     OW 5899   6.859   0.510   0.835
 1667SOL    HW1 5900   6.882   0.469   0.747
 1667SOL    HW2 5901   6.839   0.607   0.823
 1668SOL     OW 5902   1.446   0.623   4.552
 1668SOL    HW1 5903   1.500   0.648   4.632
 1668SOL    HW2 5904   1.428   0.704   4.497
 1669SOL     OW 5905   5.371   6.033   5.719
 1669SOL    HW1 5906   5.356   6.038   5.620
 1669SOL    HW2 5907   5.468   6.024   5.738
 1670SOL     OW 5908   6.807   3.355   6.451
 1670SOL    HW1 5909   6.792   3.282   6.518
 1670SOL    HW2 5910   6.896   3.398   6.467
 1671SOL     OW 5911   5.518   5.265   0.155
 1671SOL    HW1 5912   5.543   5.223   0.242
 1671SOL    HW2 5913   5.437   5.220   0.117
 1672SOL     OW 5914   1.750   5.062   2.715
 1672SOL    HW1 5915   1.658   5.068   2.677
 1672SOL    HW2 5916   1.814   5.031   2.644
 1673SOL     OW 5917   6.256   3.112   3.616
 1673SOL    HW1 5918   6.232   3.198   3.571
 1673SOL    HW2 5919   6.243   3.122   3.715
 1674SOL     OW 5920   2.208   5.673   0.219
 1674SOL    HW1 5921   2.121   5.637   0.187
 1674SOL    HW2 5922   2.192   5.747   0.284
 1675SOL     OW 5923   4.998   1.746   0.309
 1675SOL    HW1 5924   5.085   1.794   0.309
 1675SOL    HW2 5925   4.933   1.796   0.367
 1676SOL     OW 5926   2.947   1.821   3.617
 1676SOL    HW1 5927   2.907   1.868   3.695
 1676SOL    HW2 5928   3.046   1.822   3.624
 1677SOL     OW 5929   5.480   0.284   5.835
 1677SOL    HW1 5930   5.576   0.294   5.809
 1677SOL    HW2 5931   5.464   0.333   5.921
 1678SOL     OW 5932   5.007   6.539   1.834
 1678SOL    HW1 5933   4.968   6.558   1.744
 1678SOL    HW2 5934   4.989   6.445   1.860
 1679SOL     OW 5935   6.004   4.257   0.441
 1679SOL    HW1 5936   6.044   4.178   0.488
 1679SOL    HW2 5937   5.908   4.238   0.419
 1680SOL     OW 5938   0.869   2.259   5.681
 1680SOL    HW1 5939   0.953   2.206   5.671
 1680SOL    HW2 5940   0.869   2.308   5.768
 1681SOL     OW 5941   4.438   5.571   0.234
 1681SOL    HW1 5942   4.413   5.480   0.266
 1681SOL    HW2 5943   4.502   5.613   0.298
 1682SOL     OW 5944   6.827   2.719   5.555
 1682SOL    HW1 5945   6.839   2.775   5.473
 1682SOL    HW2 5946   6.836   2.623   5.531
 1683SOL     OW 5947   5.580   5.446   5.777
 1683SOL    HW1 5948   5.551   5.466   5.871
 1683SOL    HW2 5949   5.577   5.348   5.761
 1684SOL     OW 5950   0.314   6.693   4.280
 1684SOL    HW1 5951   0.404   6.733   4.289
 1684SOL    HW2 5952   0.244   6.764   4.284
 1685SOL     OW 5953   0.896   1.986   0.626
 1685SOL    HW1 5954   0.852   2.057   0.681
 1685SOL    HW2 5955   0.833   1.957   0.553
 1686SOL     OW 5956   1.999   6.565   6.564
 1686SOL    HW1 5957   2.000   6.523   6.655
 1686SOL    HW2 5958   1.937   6.513   6.505
 1687SOL     OW 5959   3.273   6.445   2.088
 1687SOL    HW1 5960   3.256   6.482   2.179
 1687SOL    HW2 5961   3.245   6.349   2.086
 1688SOL     OW 5962   0.178   1.427   3.805
 1688SOL    HW1 5963   0.217   1.336   3.820
 1688SOL    HW2 5964   0.184   1.481   3.889
 1689SOL     OW 5965   3.508   1.479   1.413
 1689SOL    HW1 5966   3.533   1.449   1.321
 1689SOL    HW2 5967   3.409   1.484   1.421
 1690SOL     OW 5968   1.066   2.055   0.266
 1690SOL    HW1 5969   1.163   2.045   0.285
 1690SOL    HW2 5970   1.030   1.969   0.229
 1691SOL     OW 5971   4.580   4.389   3.477
 1691SOL    HW1 5972   4.620   4.371   3.387
 1691SOL    HW2 5973   4.624   4.330   3.545
 1692SOL     OW 5974   0.875   0.114   3.668
 1692SOL    HW1 5975   0.916   0.205   3.662
 1692SOL    HW2 5976   0.806   0.103   3.597
 1693SOL     OW 5977   3.178   2.097   3.723
 1693SOL    HW1 5978   3.260   2.110   3.666
 1693SOL    HW2 5979   3.171   2.001   3.749
 1694SOL     OW 5980   6.119   5.746   4.825
 1694SOL    HW1 5981   6.178   5.823   4.851
 1694SOL    HW2 5982   6.107   5.746   4.726
 1695SOL     OW 5983   3.706   1.431   6.380
 1695SOL    HW1 5984   3.679   1.525   6.403
 1695SOL    HW2 5985   3.647   1.367   6.429
 1696SOL     OW 5986   3.656   5.844   1.717
 1696SOL    HW1 5987   3.682   5.812   1.808
 1696SOL    HW2 5988   3.702   5.789   1.648
 1697SOL     OW 5989   1.146   1.900   2.263
 1697SOL    HW1 5990   1.129   1.956   2.182
 1697SOL    HW2 5991   1.075   1.918   2.332
 1698SOL     OW 5992   4.628   1.820   0.474
 1698SOL    HW1 5993   4.555   1.840   0.540
 1698SOL    HW2 5994   4.695   1.894   0.477
 1699SOL     OW 5995   2.546   4.750   0.822
 1699SOL    HW1 5996   2.531   4.687   0.746
 1699SOL    HW2 5997   2.628   4.805   0.804
 1700SOL     OW 5998   6.239   2.570   4.558
 1700SOL    HW1 5999   6.143   2.596   4.546
 1700SOL    HW2 6000   6.279   2.548   4.469
 1701SOL     OW 6001   6.054   3.043   5.173
 1701SOL    HW1 6002   6.036   2.954   5.131
 1701SOL    HW2 6003   6.125   3.091   5.122
 1702SOL     OW 6004   4.689   2.545   1.277
 1702SOL    HW1 6005   4.740   2.521   1.360
 1702SOL    HW2 6006   4.753   2.576   1.206
 1703SOL     OW 6007   1.904   3.291   0.889
 1703SOL    HW1 6008   1.981   3.307   0.827
 1703SOL    HW2 6009   1.822   3.269   0.836
 1704SOL     OW 6010   0.158   1.831   2.080
 1704SOL    HW1 6011   0.072   1.876   2.102
 1704SOL    HW2 6012   0.145   1.768   2.004
 1705SOL     OW 6013   3.816   3.032   2.825
 1705SOL    HW1 6014   3.894   3.088   2.797
 1705SOL    HW2 6015   3.797   2.964   2.754
 1706SOL     OW 6016   2.034   0.760   6.063
 1706SOL    HW1 6017   2.048   0.702   5.982
 1706SOL    HW2 6018   2.107   0.741   6.129
 1707SOL     OW 6019   5.269   1.748   2.660
 1707SOL    HW1 6020   5.224   1.749   2.749
 1707SOL    HW2 6021   5.255   1.836   2.615
 1708SOL     OW 6022   0.581   4.371   1.589
 1708SOL    HW1 6023   0.675   4.398   1.607
 1708SOL    HW2 6024   0.555   4.401   1.497
 1709SOL     OW 6025   3.286   5.243   3.852
 1709SOL    HW1 6026   3.216   5.288   3.796
 1709SOL    HW2 6027   3.335   5.175   3.796
 1710SOL     OW 6028   6.843   4.839   4.670
 1710SOL    HW1 6029   6.891   4.776   4.610
 1710SOL    HW2 6030   6.906   4.871   4.742
 1711SOL     OW 6031   1.503   4.609   5.710
 1711SOL    HW1 6032   1.552   4.608   5.797
 1711SOL    HW2 6033   1.567   4.588   5.636
 1712SOL     OW 6034   2.071   4.643   2.034
 1712SOL    HW1 6035   2.120   4.665   2.119
 1712SOL    HW2 6036   1.974   4.630   2.054
 1713SOL     OW 6037   2.136   3.326   0.709
 1713SOL    HW1 6038   2.218   3.356   0.660
 1713SOL    HW2 6039   2.138   3.227   0.719
 1714SOL     OW 6040   4.339   1.042   1.901
 1714SOL    HW1 6041   4.302   1.024   1.992
 1714SOL    HW2 6042   4.290   0.987   1.833
 1715SOL     OW 6043   0.900   3.123   3.731
 1715SOL    HW1 6044   0.967   3.133   3.657
 1715SOL    HW2 6045   0.808   3.134   3.695
 1716SOL     OW 6046   0.329   0.157   6.869
 1716SOL    HW1 6047   0.321   0.161   6.769
 1716SOL    HW2 6048   0.426   0.157   6.894
 1717SOL     OW 6049   2.888   0.372   6.370
 1717SOL    HW1 6050   2.886   0.396   6.467
 1717SOL    HW2 6051   2.976   0.399   6.331
 1718SOL     OW 6052   1.753   3.845   5.511
 1718SOL    HW1 6053   1.809   3.827   5.592
 1718SOL    HW2 6054   1.668   3.792   5.517
 1719SOL     OW 6055   2.065   3.466   1.090
 1719SOL    HW1 6056   2.003   3.426   1.022
 1719SOL    HW2 6057   2.159   3.460   1.057
 1720SOL     OW 6058   6.865   2.325   2.368
 1720SOL    HW1 6059   6.885   2.419   2.397
 1720SOL    HW2 6060   6.827   2.274   2.445
 1721SOL     OW 6061   0.895   6.433   4.426
 1721SOL    HW1 6062   0.940   6.443   4.514
 1721SOL    HW2 6063   0.807   6.387   4.439
 1722SOL     OW 6064   5.952   0.105   1.923
 1722SOL    HW1 6065   6.016   0.141   1.991
 1722SOL    HW2 6066   5.948   0.006   1.931
 1723SOL     OW 6067   5.713   1.330   2.996
 1723SOL    HW1 6068   5.658   1.399   2.950
 1723SOL    HW2 6069   5.653   1.262   3.039
 1724SOL     OW 6070   5.180   0.458   0.228
 1724SOL    HW1 6071   5.192   0.365   0.192
 1724SOL    HW2 6072   5.143   0.453   0.320
 1725SOL     OW 6073   3.868   5.398   1.958
 1725SOL    HW1 6074   3.907   5.481   1.998
 1725SOL    HW2 6075   3.827   5.420   1.869
 1726SOL     OW 6076   7.002   4.070   4.950
 1726SOL    HW1 6077   6.929   4.034   4.892
 1726SOL    HW2 6078   0.059   4.011   4.942
 1727SOL     OW 6079   2.714   3.563   5.440
 1727SOL    HW1 6080   2.616   3.545   5.432
 1727SOL    HW2 6081   2.729   3.659   5.464
 1728SOL     OW 6082   4.387   5.627   3.426
 1728SOL    HW1 6083   4.449   5.587   3.493
 1728SOL    HW2 6084   4.347   5.711   3.464
 1729SOL     OW 6085   0.621   3.360   2.648
 1729SOL    HW1 6086   0.712   3.318   2.653
 1729SOL    HW2 6087   0.578   3.357   2.737
 1730SOL     OW 6088   5.095   2.078   4.808
 1730SOL    HW1 6089   5.131   1.987   4.788
 1730SOL    HW2 6090   5.066   2.081   4.904
 1731SOL     OW 6091   0.761   6.949   0.201
 1731SOL    HW1 6092   0.854   6.983   0.187
 1731SOL    HW2 6093   0.754   6.855   0.168
 1732SOL     OW 6094   0.851   4.125   6.933
 1732SOL    HW1 6095   0.879   4.213   6.896
 1732SOL    HW2 6096   0.838   4.133   0.008
 1733SOL     OW 6097   1.320   4.272   6.915
 1733SOL    HW1 6098   1.263   4.257   6.835
 1733SOL    HW2 6099   1.413   4.241   6.896
 1734SOL     OW 6100   5.212   3.977   0.972
 1734SOL    HW1 6101   5.217   4.018   0.881
 1734SOL    HW2 6102   5.200   4.050   1.040
 1735SOL     OW 6103   4.819   5.703   0.108
 1735SOL    HW1 6104   4.907   5.713   0.154
 1735SOL    HW2 6105   4.834   5.666   0.016
 1736SOL     OW 6106   3.182   2.869   0.463
 1736SOL    HW1 6107   3.236   2.787   0.444
 1736SOL    HW2 6108   3.097   2.844   0.508
 1737SOL     OW 6109   0.853   5.706   3.093
 1737SOL    HW1 6110   0.859   5.707   3.193
 1737SOL    HW2 6111   0.931   5.754   3.054
 1738SOL     OW 6112   0.618   1.188   2.026
 1738SOL    HW1 6113   0.690   1.222   2.086
 1738SOL    HW2 6114   0.548   1.143   2.080
 1739SOL     OW 6115   4.284   1.907   6.444
 1739SOL    HW1 6116   4.380   1.911   6.416
 1739SOL    HW2 6117   4.226   1.898   6.363
 1740SOL     OW 6118   0.579   2.121   6.187
 1740SOL    HW1 6119   0.661   2.139   6.242
 1740SOL    HW2 6120   0.573   2.023   6.167
 1741SOL     OW 6121   1.306   1.122   2.470
 1741SOL    HW1 6122   1.299   1.070   2.555
 1741SOL    HW2 6123   1.232   1.096   2.409
 1742SOL     OW 6124   5.871   5.951   4.182
 1742SOL    HW1 6125   5.888   6.043   4.218
 1742SOL    HW2 6126   5.953   5.895   4.189
 1743SOL     OW 6127   4.497   1.016   0.527
 1743SOL    HW1 6128   4.540   1.042   0.614
 1743SOL    HW2 6129   4.430   0.943   0.543
 1744SOL     OW 6130   3.668   6.116   1.650
 1744SOL    HW1 6131   3.762   6.145   1.671
 1744SOL    HW2 6132   3.653   6.023   1.684
 1745SOL     OW 6133   6.950   2.916   5.065
 1745SOL    HW1 6134   6.940   2.985   4.992
 1745SOL    HW2 6135   0.015   2.871   5.055
 1746SOL     OW 6136   2.610   0.983   6.014
 1746SOL    HW1 6137   2.692   0.960   5.961
 1746SOL    HW2 6138   2.598   1.083   6.015
 1747SOL     OW 6139   4.668   6.824   5.589
 1747SOL    HW1 6140   4.615   6.743   5.615
 1747SOL    HW2 6141   4.640   6.854   5.498
 1748SOL     OW 6142   5.416   1.069   1.696
 1748SOL    HW1 6143   5.422   0.979   1.739
 1748SOL    HW2 6144   5.423   1.140   1.767
 1749SOL     OW 6145   4.837   0.259   6.408
 1749SOL    HW1 6146   4.857   0.350   6.443
 1749SOL    HW2 6147   4.902   0.235   6.336
 1750SOL     OW 6148   3.750   0.524   3.681
 1750SOL    HW1 6149   3.796   0.611   3.698
 1750SOL    HW2 6150   3.802   0.450   3.725
 1751SOL     OW 6151   1.815   5.968   4.300
 1751SOL    HW1 6152   1.825   5.917   4.385
 1751SOL    HW2 6153   1.725   5.948   4.260
 1752SOL     OW 6154   0.086   2.171   6.539
 1752SOL    HW1 6155   0.072   2.174   6.440
 1752SOL    HW2 6156   0.158   2.105   6.561
 1753SOL     OW 6157   2.223   6.392   2.661
 1753SOL    HW1 6158   2.274   6.475   2.685
 1753SOL    HW2 6159   2.251   6.361   2.570
 1754SOL     OW 6160   3.281   3.018   2.755
 1754SOL    HW1 6161   3.325   3.105   2.778
 1754SOL    HW2 6162   3.205   3.035   2.691
 1755SOL     OW 6163   6.573   4.342   0.298
 1755SOL    HW1 6164   6.669   4.328   0.273
 1755SOL    HW2 6165   6.515   4.323   0.218
 1756SOL     OW 6166   6.436   4.908   4.920
 1756SOL    HW1 6167   6.444   4.843   4.996
 1756SOL    HW2 6168   6.421   4.858   4.835
 1757SOL     OW 6169   3.957   0.230   5.729
 1757SOL    HW1 6170   3.944   0.322   5.692
 1757SOL    HW2 6171   3.963   0.234   5.828
 1758SOL     OW 6172   2.903   1.551   3.229
 1758SOL    HW1 6173   2.869   1.481   3.166
 1758SOL    HW2 6174   2.967   1.610   3.180
 1759SOL     OW 6175   0.046   5.901   6.123
 1759SOL    HW1 6176   0.120   5.967   6.140
 1759SOL    HW2 6177   7.013   5.894   6.205
 1760SOL     OW 6178   4.542   6.175   2.365
 1760SOL    HW1 6179   4.522   6.231   2.284
 1760SOL    HW2 6180   4.622   6.211   2.412
 1761SOL     OW 6181   5.497   3.321   1.317
 1761SOL    HW1 6182   5.589   3.325   1.356
 1761SOL    HW2 6183   5.500   3.343   1.220
 1762SOL     OW 6184   5.562   3.283   0.581
 1762SOL    HW1 6185   5.536   3.265   0.676
 1762SOL    HW2 6186   5.560   3.382   0.564
 1763SOL     OW 6187   2.272   2.978   4.336
 1763SOL    HW1 6188   2.258   3.077   4.336
 1763SOL    HW2 6189   2.258   2.942   4.428
 1764SOL     OW 6190   6.827   3.627   3.280
 1764SOL    HW1 6191   6.743   3.638   3.335
 1764SOL    HW2 6192   6.857   3.532   3.284
 1765SOL     OW 6193   1.724   3.616   5.781
 1765SOL    HW1 6194   1.770   3.528   5.788
 1765SOL    HW2 6195   1.686   3.640   5.870
 1766SOL     OW 6196   6.006   3.807   5.516
 1766SOL    HW1 6197   5.961   3.776   5.599
 1766SOL    HW2 6198   6.070   3.881   5.538
 1767SOL     OW 6199   6.503   4.842   1.409
 1767SOL    HW1 6200   6.448   4.792   1.341
 1767SOL    HW2 6201   6.443   4.881   1.478
 1768SOL     OW 6202   6.004   6.761   3.130
 1768SOL    HW1 6203   5.968   6.739   3.220
 1768SOL    HW2 6204   5.932   6.803   3.074
 1769SOL     OW 6205   4.857   1.061   3.495
 1769SOL    HW1 6206   4.854   1.152   3.537
 1769SOL    HW2 6207   4.884   0.993   3.563
 1770SOL     OW 6208   3.547   5.878   5.372
 1770SOL    HW1 6209   3.540   5.974   5.343
 1770SOL    HW2 6210   3.643   5.851   5.374
 1771SOL     OW 6211   4.354   6.397   6.718
 1771SOL    HW1 6212   4.305   6.415   6.803
 1771SOL    HW2 6213   4.437   6.452   6.714
 1772SOL     OW 6214   2.599   6.407   2.802
 1772SOL    HW1 6215   2.572   6.347   2.727
 1772SOL    HW2 6216   2.573   6.365   2.889
 1773SOL     OW 6217   1.252   0.346   0.525
 1773SOL    HW1 6218   1.311   0.385   0.597
 1773SOL    HW2 6219   1.209   0.420   0.474
 1774SOL     OW 6220   2.864   5.127   2.435
 1774SOL    HW1 6221   2.917   5.049   2.403
 1774SOL    HW2 6222   2.907   5.212   2.403
 1775SOL     OW 6223   1.105   4.943   0.237
 1775SOL    HW1 6224   1.204   4.952   0.250
 1775SOL    HW2 6225   1.057   5.004   0.300
 1776SOL     OW 6226   2.916   5.889   5.092
 1776SOL    HW1 6227   2.872   5.814   5.141
 1776SOL    HW2 6228   2.968   5.852   5.015
 1777SOL     OW 6229   3.131   6.378   0.118
 1777SOL    HW1 6230   3.188   6.377   0.200
 1777SOL    HW2 6231   3.054   6.439   0.131
 1778SOL     OW 6232   6.913   3.103   6.135
 1778SOL    HW1 6233   6.895   3.004   6.132
 1778SOL    HW2 6234   6.826   3.153   6.135
 1779SOL     OW 6235   3.620   0.108   5.721
 1779SOL    HW1 6236   3.666   0.029   5.760
 1779SOL    HW2 6237   3.668   0.138   5.639
 1780SOL     OW 6238   3.273   3.030   6.910
 1780SOL    HW1 6239   3.318   3.119   6.914
 1780SOL    HW2 6240   3.202   3.032   6.839
 1781SOL     OW 6241   2.720   5.774   3.486
 1781SOL    HW1 6242   2.700   5.681   3.515
 1781SOL    HW2 6243   2.720   5.835   3.566
 1782SOL     OW 6244   2.905   1.783   4.573
 1782SOL    HW1 6245   2.929   1.788   4.670
 1782SOL    HW2 6246   2.811   1.750   4.564
 1783SOL     OW 6247   2.303   6.037   0.400
 1783SOL    HW1 6248   2.214   5.992   0.394
 1783SOL    HW2 6249   2.292   6.136   0.393
 1784SOL     OW 6250   2.057   0.054   6.134
 1784SOL    HW1 6251   2.085   6.986   6.160
 1784SOL    HW2 6252   1.988   0.049   6.061
 1785SOL     OW 6253   6.896   5.464   2.220
 1785SOL    HW1 6254   6.807   5.425   2.244
 1785SOL    HW2 6255   6.907   5.466   2.121
 1786SOL     OW 6256   3.893   2.823   1.771
 1786SOL    HW1 6257   3.803   2.838   1.812
 1786SOL    HW2 6258   3.961   2.879   1.820
 1787SOL     OW 6259   3.169   0.965   5.661
 1787SOL    HW1 6260   3.134   1.058   5.672
 1787SOL    HW2 6261   3.095   0.900   5.674
 1788SOL     OW 6262   1.559   4.865   5.356
 1788SOL    HW1 6263   1.638   4.921   5.329
 1788SOL    HW2 6264   1.577   4.769   5.333
 1789SOL     OW 6265   5.741   6.528   6.827
 1789SOL    HW1 6266   5.737   6.471   6.745
 1789SOL    HW2 6267   5.834   6.527   6.863
 1790SOL     OW 6268   2.445   7.008   2.349
 1790SOL    HW1 6269   2.453   7.005   2.449
 1790SOL    HW2 6270   2.421   6.917   2.315
 1791SOL     OW 6271   0.334   6.742   2.727
 1791SOL    HW1 6272   0.385   6.696   2.655
 1791SOL    HW2 6273   0.391   6.749   2.809
 1792SOL     OW 6274   0.624   3.308   4.306
 1792SOL    HW1 6275   0.722   3.294   4.291
 1792SOL    HW2 6276   0.577   3.317   4.218
 1793SOL     OW 6277   0.157   0.691   3.737
 1793SOL    HW1 6278   0.176   0.768   3.798
 1793SOL    HW2 6279   0.219   0.695   3.659
 1794SOL     OW 6280   4.827   6.224   6.580
 1794SOL    HW1 6281   4.915   6.249   6.538
 1794SOL    HW2 6282   4.845   6.172   6.664
 1795SOL     OW 6283   1.235   3.531   6.883
 1795SOL    HW1 6284   1.257   3.600   6.951
 1795SOL    HW2 6285   1.272   3.559   6.794
 1796SOL     OW 6286   3.655   0.203   6.094
 1796SOL    HW1 6287   3.557   0.187   6.082
 1796SOL    HW2 6288   3.669   0.288   6.145
 1797SOL     OW 6289   0.210   1.633   1.896
 1797SOL    HW1 6290   0.166   1.547   1.868
 1797SOL    HW2 6291   0.309   1.619   1.903
 1798SOL     OW 6292   5.638   1.548   2.863
 1798SOL    HW1 6293   5.603   1.630   2.817
 1798SOL    HW2 6294   5.702   1.576   2.935
 1799SOL     OW 6295   2.474   0.841   7.003
 1799SOL    HW1 6296   2.398   0.878   0.032
 1799SOL    HW2 6297   2.490   0.898   6.923
 1800SOL     OW 6298   3.261   4.891   2.401
 1800SOL    HW1 6299   3.165   4.907   2.377
 1800SOL    HW2 6300   3.306   4.978   2.421
 1801SOL     OW 6301   5.736   7.009   0.592
 1801SOL    HW1 6302   5.728   6.922   0.544
 1801SOL    HW2 6303   5.832   0.014   0.591
 1802SOL     OW 6304   5.929   4.771   4.311
 1802SOL    HW1 6305   5.955   4.835   4.383
 1802SOL    HW2 6306   5.950   4.811   4.221
 1803SOL     OW 6307   5.950   4.823   0.777
 1803SOL    HW1 6308   5.853   4.832   0.799
 1803SOL    HW2 6309   5.976   4.726   0.784
 1804SOL     OW 6310   3.269   3.337   6.096
 1804SOL    HW1 6311   3.174   3.331   6.067
 1804SOL    HW2 6312   3.301   3.248   6.129
 1805SOL     OW 6313   6.069   2.818   7.017
 1805SOL    HW1 6314   5.979   2.820   6.975
 1805SOL    HW2 6315   6.108   2.910   7.018
 1806SOL     OW 6316   6.537   6.960   0.624
 1806SOL    HW1 6317   6.637   6.952   0.620
 1806SOL    HW2 6318   6.497   6.919   0.542
 1807SOL     OW 6319   6.750   2.136   5.835
 1807SOL    HW1 6320   6.730   2.081   5.916
 1807SOL    HW2 6321   6.674   2.128   5.770
 1808SOL     OW 6322   2.636   4.625   4.585
 1808SOL    HW1 6323   2.565   4.615   4.516
 1808SOL    HW2 6324   2.603   4.588   4.673
 1809SOL     OW 6325   3.809   0.101   6.572
 1809SOL    HW1 6326   3.890   0.050   6.600
 1809SOL    HW2 6327   3.782   0.163   6.646
 1810SOL     OW 6328   3.050   6.473   2.589
 1810SOL    HW1 6329   3.019   6.416   2.513
 1810SOL    HW2 6330   3.000   6.447   2.672
 1811SOL     OW 6331   5.682   5.919   3.180
 1811SOL    HW1 6332   5.732   5.982   3.121
 1811SOL    HW2 6333   5.731   5.905   3.265
 1812SOL     OW 6334   4.237   4.859   5.412
 1812SOL    HW1 6335   4.259   4.947   5.454
 1812SOL    HW2 6336   4.311   4.832   5.350
 1813SOL     OW 6337   6.759   5.801   5.516
 1813SOL    HW1 6338   6.668   5.791   5.557
 1813SOL    HW2 6339   6.810   5.872   5.563
 1814SOL     OW 6340   4.680   6.270   2.659
 1814SOL    HW1 6341   4.738   6.351   2.650
 1814SOL    HW2 6342   4.731   6.189   2.630
 1815SOL     OW 6343   0.347   1.366   2.851
 1815SOL    HW1 6344   0.262   1.418   2.848
 1815SOL    HW2 6345   0.365   1.328   2.760
 1816SOL     OW 6346   1.264   5.161   0.560
 1816SOL    HW1 6347   1.335   5.175   0.492
 1816SOL    HW2 6348   1.190   5.106   0.521
 1817SOL     OW 6349   1.696   5.395   1.951
 1817SOL    HW1 6350   1.787   5.407   1.910
 1817SOL    HW2 6351   1.700   5.323   2.021
 1818SOL     OW 6352   0.989   1.637   3.629
 1818SOL    HW1 6353   0.972   1.734   3.645
 1818SOL    HW2 6354   0.931   1.582   3.689
 1819SOL     OW 6355   0.992   4.038   2.764
 1819SOL    HW1 6356   0.953   4.015   2.853
 1819SOL    HW2 6357   1.078   4.087   2.776
 1820SOL     OW 6358   5.823   6.677   2.875
 1820SOL    HW1 6359   5.817   6.579   2.857
 1820SOL    HW2 6360   5.854   6.724   2.793
 1821SOL     OW 6361   1.959   1.777   3.484
 1821SOL    HW1 6362   1.913   1.691   3.460
 1821SOL    HW2 6363   1.937   1.801   3.578
 1822SOL     OW 6364   3.103   3.755   2.430
 1822SOL    HW1 6365   3.048   3.821   2.480
 1822SOL    HW2 6366   3.101   3.776   2.332
 1823SOL     OW 6367   4.388   0.203   2.461
 1823SOL    HW1 6368   4.438   0.217   2.375
 1823SOL    HW2 6369   4.444   0.150   2.524
 1824SOL     OW 6370   5.423   1.938   1.515
 1824SOL    HW1 6371   5.455   1.966   1.424
 1824SOL    HW2 6372   5.427   1.838   1.522
 1825SOL     OW 6373   0.328   0.314   1.916
 1825SOL    HW1 6374   0.319   0.409   1.885
 1825SOL    HW2 6375   0.389   0.311   1.995
 1826SOL     OW 6376   2.980   5.943   6.050
 1826SOL    HW1 6377   3.065   5.899   6.079
 1826SOL    HW2 6378   2.905   5.878   6.058
 1827SOL     OW 6379   5.889   6.849   0.920
 1827SOL    HW1 6380   5.977   6.895   0.904
 1827SOL    HW2 6381   5.815   6.915   0.910
 1828SOL     OW 6382   2.008   3.144   0.496
 1828SOL    HW1 6383   2.045   3.051   0.496
 1828SOL    HW2 6384   2.002   3.178   0.590
 1829SOL     OW 6385   5.706   5.655   2.545
 1829SOL    HW1 6386   5.748   5.568   2.571
 1829SOL    HW2 6387   5.657   5.694   2.623
 1830SOL     OW 6388   5.230   6.751   4.328
 1830SOL    HW1 6389   5.200   6.670   4.277
 1830SOL    HW2 6390   5.307   6.794   4.281
 1831SOL     OW 6391   5.401   0.758   3.200
 1831SOL    HW1 6392   5.330   0.820   3.231
 1831SOL    HW2 6393   5.487   0.808   3.191
 1832SOL     OW 6394   4.972   2.408   6.795
 1832SOL    HW1 6395   4.874   2.387   6.804
 1832SOL    HW2 6396   5.020   2.378   6.877
 1833SOL     OW 6397   5.615   1.891   5.723
 1833SOL    HW1 6398   5.675   1.811   5.723
 1833SOL    HW2 6399   5.670   1.973   5.706
 1834SOL     OW 6400   2.667   4.131   0.243
 1834SOL    HW1 6401   2.581   4.132   0.191
 1834SOL    HW2 6402   2.734   4.189   0.197
 1835SOL     OW 6403   1.871   4.533   6.815
 1835SOL    HW1 6404   1.939   4.586   6.864
 1835SOL    HW2 6405   1.782   4.540   6.861
 1836SOL     OW 6406   0.910   6.834   0.917
 1836SOL    HW1 6407   0.844   6.881   0.975
 1836SOL    HW2 6408   0.899   6.735   0.927
 1837SOL     OW 6409   0.382   2.619   4.537
 1837SOL    HW1 6410   0.377   2.629   4.636
 1837SOL    HW2 6411   0.291   2.634   4.497
 1838SOL     OW 6412   0.819   2.660   5.137
 1838SOL    HW1 6413   0.780   2.751   5.117
 1838SOL    HW2 6414   0.887   2.638   5.067
 1839SOL     OW 6415   1.106   1.801   6.799
 1839SOL    HW1 6416   1.150   1.741   6.733
 1839SOL    HW2 6417   1.101   1.893   6.762
 1840SOL     OW 6418   0.968   5.148   1.527
 1840SOL    HW1 6419   1.029   5.180   1.600
 1840SOL    HW2 6420   0.874   5.171   1.550
 1841SOL     OW 6421   1.175   3.061   3.988
 1841SOL    HW1 6422   1.113   3.073   4.065
 1841SOL    HW2 6423   1.134   2.999   3.921
 1842SOL     OW 6424   0.877   6.226   6.370
 1842SOL    HW1 6425   0.872   6.317   6.328
 1842SOL    HW2 6426   0.960   6.220   6.426
 1843SOL     OW 6427   4.536   2.108   5.103
 1843SOL    HW1 6428   4.479   2.154   5.036
 1843SOL    HW2 6429   4.632   2.115   5.075
 1844SOL     OW 6430   5.622   4.609   3.602
 1844SOL    HW1 6431   5.651   4.567   3.688
 1844SOL    HW2 6432   5.536   4.658   3.617
 1845SOL     OW 6433   4.823   6.332   0.758
 1845SOL    HW1 6434   4.757   6.406   0.771
 1845SOL    HW2 6435   4.883   6.353   0.681
 1846SOL     OW 6436   3.922   1.486   5.772
 1846SOL    HW1 6437   3.906   1.427   5.852
 1846SOL    HW2 6438   4.006   1.539   5.786
 1847SOL     OW 6439   1.483   6.426   6.312
 1847SOL    HW1 6440   1.421   6.379   6.250
 1847SOL    HW2 6441   1.464   6.525   6.311
 1848SOL     OW 6442   2.314   0.592   3.832
 1848SOL    HW1 6443   2.252   0.517   3.857
 1848SOL    HW2 6444   2.270   0.649   3.763
 1849SOL     OW 6445   2.676   0.647   6.615
 1849SOL    HW1 6446   2.721   0.682   6.534
 1849SOL    HW2 6447   2.596   0.703   6.637
 1850SOL     OW 6448   5.680   1.851   2.215
 1850SOL    HW1 6449   5.727   1.770   2.252
 1850SOL    HW2 6450   5.628   1.896   2.288
 1851SOL     OW 6451   6.574   4.176   2.909
 1851SOL    HW1 6452   6.535   4.246   2.849
 1851SOL    HW2 6453   6.503   4.112   2.938
 1852SOL     OW 6454   5.125   1.371   5.686
 1852SOL    HW1 6455   5.204   1.375   5.625
 1852SOL    HW2 6456   5.051   1.319   5.642
 1853SOL     OW 6457   1.135   4.919   0.736
 1853SOL    HW1 6458   1.074   4.867   0.677
 1853SOL    HW2 6459   1.228   4.914   0.699
 1854SOL     OW 6460   2.562   5.213   3.939
 1854SOL    HW1 6461   2.503   5.212   4.020
 1854SOL    HW2 6462   2.542   5.294   3.884
 1855SOL     OW 6463   6.455   4.522   2.081
 1855SOL    HW1 6464   6.386   4.451   2.070
 1855SOL    HW2 6465   6.488   4.550   1.991
 1856SOL     OW 6466   5.286   3.033   6.896
 1856SOL    HW1 6467   5.348   2.978   6.952
 1856SOL    HW2 6468   5.320   3.126   6.890
 1857SOL     OW 6469   4.959   1.231   3.073
 1857SOL    HW1 6470   4.892   1.242   3.147
 1857SOL    HW2 6471   4.993   1.320   3.045
 1858SOL     OW 6472   5.390   4.333   2.958
 1858SOL    HW1 6473   5.472   4.276   2.954
 1858SOL    HW2 6474   5.409   4.416   3.009
 1859SOL     OW 6475   6.093   1.671   2.973
 1859SOL    HW1 6476   6.044   1.589   3.002
 1859SOL    HW2 6477   6.189   1.649   2.957
 1860SOL     OW 6478   3.957   2.036   4.468
 1860SOL    HW1 6479   3.955   2.035   4.568
 1860SOL    HW2 6480   3.993   1.949   4.435
 1861SOL     OW 6481   4.885   5.663   2.539
 1861SOL    HW1 6482   4.836   5.750   2.533
 1861SOL    HW2 6483   4.981   5.679   2.558
 1862SOL     OW 6484   2.659   1.200   0.525
 1862SOL    HW1 6485   2.716   1.222   0.445
 1862SOL    HW2 6486   2.571   1.245   0.517
 1863SOL     OW 6487   2.146   1.983   1.256
 1863SOL    HW1 6488   2.160   2.046   1.333
 1863SOL    HW2 6489   2.058   1.938   1.265
 1864SOL     OW 6490   0.582   6.369   2.844
 1864SOL    HW1 6491   0.662   6.324   2.805
 1864SOL    HW2 6492   0.511   6.301   2.863
 1865SOL     OW 6493   4.808   2.782   6.375
 1865SOL    HW1 6494   4.821   2.878   6.353
 1865SOL    HW2 6495   4.785   2.773   6.472
 1866SOL     OW 6496   5.630   5.782   1.661
 1866SOL    HW1 6497   5.667   5.706   1.713
 1866SOL    HW2 6498   5.671   5.783   1.569
 1867SOL     OW 6499   0.971   4.576   6.434
 1867SOL    HW1 6500   0.893   4.520   6.405
 1867SOL    HW2 6501   1.020   4.529   6.507
 1868SOL     OW 6502   6.666   3.987   5.771
 1868SOL    HW1 6503   6.725   3.944   5.702
 1868SOL    HW2 6504   6.708   3.977   5.861
 1869SOL     OW 6505   6.254   1.948   4.538
 1869SOL    HW1 6506   6.283   1.877   4.475
 1869SOL    HW2 6507   6.248   2.036   4.490
 1870SOL     OW 6508   2.082   4.138   4.809
 1870SOL    HW1 6509   2.068   4.061   4.746
 1870SOL    HW2 6510   2.157   4.116   4.871
 1871SOL     OW 6511   1.588   0.554   0.768
 1871SOL    HW1 6512   1.623   0.541   0.676
 1871SOL    HW2 6513   1.662   0.544   0.834
 1872SOL     OW 6514   1.674   5.029   6.525
 1872SOL    HW1 6515   1.617   5.037   6.607
 1872SOL    HW2 6516   1.641   5.091   6.455
 1873SOL     OW 6517   5.068   6.994   0.021
 1873SOL    HW1 6518   4.998   0.034   7.013
 1873SOL    HW2 6519   5.033   6.943   0.100
 1874SOL     OW 6520   0.709   3.895   2.674
 1874SOL    HW1 6521   0.681   3.941   2.590
 1874SOL    HW2 6522   0.677   3.800   2.673
 1875SOL     OW 6523   0.620   6.529   2.007
 1875SOL    HW1 6524   0.665   6.496   1.924
 1875SOL    HW2 6525   0.541   6.585   1.983
 1876SOL     OW 6526   1.770   6.578   3.613
 1876SOL    HW1 6527   1.693   6.550   3.671
 1876SOL    HW2 6528   1.856   6.548   3.655
 1877SOL     OW 6529   0.149   6.903   4.157
 1877SOL    HW1 6530   0.152   6.847   4.074
 1877SOL    HW2 6531   0.241   6.937   4.177
 1878SOL     OW 6532   6.208   2.542   6.134
 1878SOL    HW1 6533   6.170   2.634   6.118
 1878SOL    HW2 6534   6.257   2.541   6.221
 1879SOL     OW 6535   1.765   5.055   6.149
 1879SOL    HW1 6536   1.786   5.010   6.236
 1879SOL    HW2 6537   1.673   5.029   6.120
 1880SOL     OW 6538   6.358   0.160   4.640
 1880SOL    HW1 6539   6.389   0.234   4.579
 1880SOL    HW2 6540   6.376   0.186   4.735
 1881SOL     OW 6541   6.991   2.120   7.023
 1881SOL    HW1 6542   0.030   2.112   6.946
 1881SOL    HW2 6543   0.006   2.178   0.069
 1882SOL     OW 6544   1.487   6.448   0.288
 1882SOL    HW1 6545   1.431   6.383   0.239
 1882SOL    HW2 6546   1.498   6.418   0.383
 1883SOL     OW 6547   0.095   2.091   3.796
 1883SOL    HW1 6548   0.107   2.189   3.806
 1883SOL    HW2 6549   0.103   2.066   3.699
 1884SOL     OW 6550   6.203   2.308   1.058
 1884SOL    HW1 6551   6.296   2.301   1.093
 1884SOL    HW2 6552   6.186   2.236   0.991
 1885SOL     OW 6553   2.801   1.582   4.285
 1885SOL    HW1 6554   2.815   1.614   4.379
 1885SOL    HW2 6555   2.771   1.487   4.287
 1886SOL     OW 6556   0.566   6.181   3.167
 1886SOL    HW1 6557   0.619   6.115   3.113
 1886SOL    HW2 6558   0.518   6.133   3.240
 1887SOL     OW 6559   2.546   5.869   6.525
 1887SOL    HW1 6560   2.484   5.867   6.446
 1887SOL    HW2 6561   2.640   5.884   6.493
 1888SOL     OW 6562   2.046   0.262   2.900
 1888SOL    HW1 6563   1.985   0.255   2.979
 1888SOL    HW2 6564   2.094   0.350   2.903
 1889SOL     OW 6565   0.207   3.441   2.764
 1889SOL    HW1 6566   0.242   3.516   2.707
 1889SOL    HW2 6567   0.203   3.471   2.859
 1890SOL     OW 6568   1.475   5.861   5.038
 1890SOL    HW1 6569   1.409   5.869   4.964
 1890SOL    HW2 6570   1.564   5.834   5.002
 1891SOL     OW 6571   3.919   3.211   3.824
 1891SOL    HW1 6572   3.839   3.216   3.764
 1891SOL    HW2 6573   3.910   3.131   3.884
 1892SOL     OW 6574   0.291   0.605   2.485
 1892SOL    HW1 6575   0.351   0.639   2.558
 1892SOL    HW2 6576   0.233   0.532   2.520
 1893SOL     OW 6577   3.746   3.036   4.495
 1893SOL    HW1 6578   3.726   3.133   4.514
 1893SOL    HW2 6579   3.670   2.980   4.528
 1894SOL     OW 6580   3.065   3.597   4.144
 1894SOL    HW1 6581   3.159   3.585   4.112
 1894SOL    HW2 6582   3.057   3.563   4.238
 1895SOL     OW 6583   1.178   5.797   1.156
 1895SOL    HW1 6584   1.214   5.704   1.149
 1895SOL    HW2 6585   1.253   5.861   1.171
 1896SOL     OW 6586   6.104   2.459   1.262
 1896SOL    HW1 6587   6.121   2.405   1.179
 1896SOL    HW2 6588   6.181   2.449   1.325
 1897SOL     OW 6589   1.168   4.374   3.669
 1897SOL    HW1 6590   1.268   4.370   3.671
 1897SOL    HW2 6591   1.131   4.323   3.746
 1898SOL     OW 6592   1.665   6.070   2.497
 1898SOL    HW1 6593   1.635   6.140   2.563
 1898SOL    HW2 6594   1.696   5.989   2.546
 1899SOL     OW 6595   6.968   1.151   2.178
 1899SOL    HW1 6596   0.027   1.137   2.124
 1899SOL    HW2 6597   6.986   1.215   2.252
 1900SOL     OW 6598   2.695   6.534   6.603
 1900SOL    HW1 6599   2.782   6.493   6.575
 1900SOL    HW2 6600   2.695   6.632   6.580
 1901SOL     OW 6601   2.944   3.195   2.497
 1901SOL    HW1 6602   2.917   3.288   2.518
 1901SOL    HW2 6603   2.874   3.151   2.440
 1902SOL     OW 6604   1.128   6.446   5.160
 1902SOL    HW1 6605   1.195   6.518   5.180
 1902SOL    HW2 6606   1.175   6.367   5.122
 1903SOL     OW 6607   1.273   1.824   3.846
 1903SOL    HW1 6608   1.323   1.877   3.915
 1903SOL    HW2 6609   1.328   1.818   3.763
 1904SOL     OW 6610   5.854   5.630   1.297
 1904SOL    HW1 6611   5.875   5.602   1.203
 1904SOL    HW2 6612   5.903   5.571   1.361
 1905SOL     OW 6613   0.775   2.585   3.999
 1905SOL    HW1 6614   0.744   2.547   3.912
 1905SOL    HW2 6615   0.720   2.546   4.073
 1906SOL     OW 6616   0.326   6.443   3.805
 1906SOL    HW1 6617   0.357   6.424   3.712
 1906SOL    HW2 6618   0.314   6.357   3.855
 1907SOL     OW 6619   5.915   3.361   0.725
 1907SOL    HW1 6620   5.968   3.276   0.714
 1907SOL    HW2 6621   5.817   3.340   0.721
 1908SOL     OW 6622   3.621   0.968   1.336
 1908SOL    HW1 6623   3.672   0.941   1.417
 1908SOL    HW2 6624   3.613   1.067   1.333
 1909SOL     OW 6625   6.142   5.400   5.212
 1909SOL    HW1 6626   6.044   5.388   5.201
 1909SOL    HW2 6627   6.175   5.466   5.145
 1910SOL     OW 6628   0.766   5.910   5.650
 1910SOL    HW1 6629   0.734   5.836   5.591
 1910SOL    HW2 6630   0.861   5.896   5.675
 1911SOL     OW 6631   5.825   6.183   4.383
 1911SOL    HW1 6632   5.869   6.265   4.347
 1911SOL    HW2 6633   5.728   6.201   4.398
 1912SOL     OW 6634   3.713   4.897   2.399
 1912SOL    HW1 6635   3.675   4.972   2.453
 1912SOL    HW2 6636   3.713   4.922   2.302
 1913SOL     OW 6637   3.118   4.297   6.481
 1913SOL    HW1 6638   3.084   4.272   6.391
 1913SOL    HW2 6639   3.051   4.354   6.528
 1914SOL     OW 6640   3.806   4.363   0.486
 1914SOL    HW1 6641   3.853   4.294   0.432
 1914SOL    HW2 6642   3.708   4.340   0.491
 1915SOL     OW 6643   3.658   2.932   0.014
 1915SOL    HW1 6644   3.611   2.881   6.967
 1915SOL    HW2 6645   3.595   2.996   0.057
 1916SOL     OW 6646   3.864   1.122   2.825
 1916SOL    HW1 6647   3.898   1.183   2.753
 1916SOL    HW2 6648   3.881   1.027   2.799
 1917SOL     OW 6649   2.351   3.819   1.245
 1917SOL    HW1 6650   2.320   3.725   1.237
 1917SOL    HW2 6651   2.394   3.832   1.335
 1918SOL     OW 6652   5.477   2.141   4.034
 1918SOL    HW1 6653   5.382   2.139   4.003
 1918SOL    HW2 6654   5.488   2.211   4.104
 1919SOL     OW 6655   6.309   2.083   6.329
 1919SOL    HW1 6656   6.403   2.116   6.332
 1919SOL    HW2 6657   6.254   2.145   6.273
 1920SOL     OW 6658   4.409   3.741   0.451
 1920SOL    HW1 6659   4.491   3.764   0.503
 1920SOL    HW2 6660   4.425   3.658   0.398
 1921SOL     OW 6661   2.818   2.320   6.841
 1921SOL    HW1 6662   2.774   2.320   6.751
 1921SOL    HW2 6663   2.908   2.276   6.834
 1922SOL     OW 6664   3.321   3.425   4.694
 1922SOL    HW1 6665   3.346   3.367   4.771
 1922SOL    HW2 6666   3.245   3.484   4.720
 1923SOL     OW 6667   3.289   0.925   4.209
 1923SOL    HW1 6668   3.306   0.980   4.127
 1923SOL    HW2 6669   3.247   0.838   4.182
 1924SOL     OW 6670   5.468   0.898   0.559
 1924SOL    HW1 6671   5.391   0.873   0.618
 1924SOL    HW2 6672   5.441   0.889   0.463
 1925SOL     OW 6673   0.927   4.235   1.149
 1925SOL    HW1 6674   0.964   4.143   1.158
 1925SOL    HW2 6675   0.929   4.263   1.053
 1926SOL     OW 6676   3.392   0.156   1.758
 1926SOL    HW1 6677   3.367   0.075   1.811
 1926SOL    HW2 6678   3.394   0.133   1.661
 1927SOL     OW 6679   2.503   5.618   0.832
 1927SOL    HW1 6680   2.421   5.652   0.787
 1927SOL    HW2 6681   2.480   5.589   0.925
 1928SOL     OW 6682   0.077   4.220   2.954
 1928SOL    HW1 6683   0.113   4.194   3.043
 1928SOL    HW2 6684   7.002   4.211   2.953
 1929SOL     OW 6685   3.561   0.261   3.123
 1929SOL    HW1 6686   3.491   0.241   3.192
 1929SOL    HW2 6687   3.638   0.197   3.135
 1930SOL     OW 6688   3.772   3.485   0.125
 1930SOL    HW1 6689   3.783   3.406   0.184
 1930SOL    HW2 6690   3.687   3.532   0.147
 1931SOL     OW 6691   6.340   3.418   3.608
 1931SOL    HW1 6692   6.440   3.412   3.604
 1931SOL    HW2 6693   6.313   3.450   3.699
 1932SOL     OW 6694   5.256   0.504   1.978
 1932SOL    HW1 6695   5.191   0.471   2.045
 1932SOL    HW2 6696   5.218   0.493   1.886
 1933SOL     OW 6697   1.734   1.578   1.266
 1933SOL    HW1 6698   1.745   1.485   1.302
 1933SOL    HW2 6699   1.820   1.608   1.225
 1934SOL     OW 6700   6.736   1.114   6.985
 1934SOL    HW1 6701   6.762   1.209   6.971
 1934SOL    HW2 6702   6.811   1.054   6.955
 1935SOL     OW 6703   5.875   4.957   4.050
 1935SOL    HW1 6704   5.838   5.005   4.129
 1935SOL    HW2 6705   5.954   5.007   4.015
 1936SOL     OW 6706   5.066   2.966   6.484
 1936SOL    HW1 6707   5.045   3.057   6.448
 1936SOL    HW2 6708   5.144   2.928   6.435
 1937SOL     OW 6709   0.339   4.596   6.841
 1937SOL    HW1 6710   0.387   4.602   6.928
 1937SOL    HW2 6711   0.387   4.533   6.780
 1938SOL     OW 6712   6.701   2.075   0.080
 1938SOL    HW1 6713   6.624   2.097   0.141
 1938SOL    HW2 6714   6.785   2.072   0.133
 1939SOL     OW 6715   0.189   0.138   4.146
 1939SOL    HW1 6716   0.183   0.041   4.169
 1939SOL    HW2 6717   0.277   0.174   4.178
 1940SOL     OW 6718   1.144   5.295   1.676
 1940SOL    HW1 6719   1.169   5.291   1.773
 1940SOL    HW2 6720   1.219   5.334   1.623
 1941SOL     OW 6721   6.088   0.862   4.426
 1941SOL    HW1 6722   6.057   0.769   4.447
 1941SOL    HW2 6723   6.127   0.904   4.508
 1942SOL     OW 6724   0.603   5.512   1.987
 1942SOL    HW1 6725   0.557   5.450   2.051
 1942SOL    HW2 6726   0.675   5.462   1.939
 1943SOL     OW 6727   0.861   3.415   4.048
 1943SOL    HW1 6728   0.954   3.399   4.013
 1943SOL    HW2 6729   0.803   3.338   4.023
 1944SOL     OW 6730   0.421   3.055   3.795
 1944SOL    HW1 6731   0.375   2.970   3.771
 1944SOL    HW2 6732   0.443   3.056   3.892
 1945SOL     OW 6733   5.282   1.807   2.263
 1945SOL    HW1 6734   5.252   1.733   2.204
 1945SOL    HW2 6735   5.357   1.776   2.322
 1946SOL     OW 6736   5.971   5.526   0.340
 1946SOL    HW1 6737   5.986   5.511   0.437
 1946SOL    HW2 6738   5.953   5.438   0.295
 1947SOL     OW 6739   6.014   5.826   2.886
 1947SOL    HW1 6740   6.100   5.865   2.918
 1947SOL    HW2 6741   5.941   5.894   2.894
 1948SOL     OW 6742   5.387   3.592   3.427
 1948SOL    HW1 6743   5.370   3.689   3.411
 1948SOL    HW2 6744   5.324   3.558   3.497
 1949SOL     OW 6745   3.345   4.206   6.250
 1949SOL    HW1 6746   3.440   4.175   6.250
 1949SOL    HW2 6747   3.343   4.306   6.240
 1950SOL     OW 6748   4.069   3.626   3.684
 1950SOL    HW1 6749   4.100   3.720   3.666
 1950SOL    HW2 6750   4.019   3.592   3.605
 1951SOL     OW 6751   6.610   5.557   6.308
 1951SOL    HW1 6752   6.678   5.540   6.236
 1951SOL    HW2 6753   6.539   5.618   6.273
 1952SOL     OW 6754   5.854   3.773   6.877
 1952SOL    HW1 6755   5.832   3.865   6.846
 1952SOL    HW2 6756   5.952   3.768   6.900
 1953SOL     OW 6757   0.416   0.780   6.962
 1953SOL    HW1 6758   0.406   0.686   6.931
 1953SOL    HW2 6759   0.411   0.784   0.038
 1954SOL     OW 6760   3.836   6.733   2.276
 1954SOL    HW1 6761   3.763   6.668   2.292
 1954SOL    HW2 6762   3.923   6.694   2.306
 1955SOL     OW 6763   6.437   3.155   4.262
 1955SOL    HW1 6764   6.383   3.074   4.285
 1955SOL    HW2 6765   6.507   3.130   4.195
 1956SOL     OW 6766   4.584   1.507   1.346
 1956SOL    HW1 6767   4.493   1.483   1.312
 1956SOL    HW2 6768   4.596   1.606   1.339
 1957SOL     OW 6769   6.785   3.045   4.571
 1957SOL    HW1 6770   6.694   3.007   4.587
 1957SOL    HW2 6771   6.814   3.096   4.652
 1958SOL     OW 6772   4.684   1.893   6.942
 1958SOL    HW1 6773   4.604   1.897   6.882
 1958SOL    HW2 6774   4.667   1.829   7.017
 1959SOL     OW 6775   1.525   1.456   6.001
 1959SOL    HW1 6776   1.440   1.508   6.009
 1959SOL    HW2 6777   1.548   1.443   5.904
 1960SOL     OW 6778   5.007   4.510   2.452
 1960SOL    HW1 6779   4.962   4.594   2.481
 1960SOL    HW2 6780   4.989   4.494   2.354
 1961SOL     OW 6781   0.434   3.907   4.473
 1961SOL    HW1 6782   0.396   3.826   4.518
 1961SOL    HW2 6783   0.465   3.972   4.543
 1962SOL     OW 6784   0.156   6.973   1.854
 1962SOL    HW1 6785   0.092   0.017   1.817
 1962SOL    HW2 6786   0.164   6.897   1.790
 1963SOL     OW 6787   1.046   2.242   6.914
 1963SOL    HW1 6788   1.121   2.178   6.900
 1963SOL    HW2 6789   1.083   2.333   6.931
 1964SOL     OW 6790   5.535   3.633   0.498
 1964SOL    HW1 6791   5.614   3.689   0.521
 1964SOL    HW2 6792   5.470   3.635   0.575
 1965SOL     OW 6793   5.611   4.955   4.650
 1965SOL    HW1 6794   5.577   4.958   4.744
 1965SOL    HW2 6795   5.578   4.871   4.606
 1966SOL     OW 6796   1.122   5.397   6.388
 1966SOL    HW1 6797   1.100   5.326   6.454
 1966SOL    HW2 6798   1.040   5.449   6.366
 1967SOL     OW 6799   6.529   2.439   4.901
 1967SOL    HW1 6800   6.549   2.356   4.953
 1967SOL    HW2 6801   6.459   2.421   4.833
 1968SOL     OW 6802   2.540   1.282   5.982
 1968SOL    HW1 6803   2.546   1.377   5.953
 1968SOL    HW2 6804   2.444   1.253   5.981
 1969SOL     OW 6805   0.376   6.156   1.644
 1969SOL    HW1 6806   0.399   6.164   1.547
 1969SOL    HW2 6807   0.402   6.065   1.677
 1970SOL     OW 6808   5.267   4.399   3.296
 1970SOL    HW1 6809   5.173   4.390   3.264
 1970SOL    HW2 6810   5.318   4.317   3.270
 1971SOL     OW 6811   1.860   5.280   4.392
 1971SOL    HW1 6812   1.898   5.192   4.366
 1971SOL    HW2 6813   1.878   5.297   4.489
 1972SOL     OW 6814   5.246   2.170   2.891
 1972SOL    HW1 6815   5.172   2.235   2.906
 1972SOL    HW2 6816   5.232   2.122   2.804
 1973SOL     OW 6817   3.836   2.366   0.524
 1973SOL    HW1 6818   3.777   2.365   0.444
 1973SOL    HW2 6819   3.785   2.399   0.603
 1974SOL     OW 6820   2.353   6.541   4.590
 1974SOL    HW1 6821   2.375   6.567   4.684
 1974SOL    HW2 6822   2.348   6.442   4.584
 1975SOL     OW 6823   2.269   2.839   1.957
 1975SOL    HW1 6824   2.345   2.869   1.900
 1975SOL    HW2 6825   2.229   2.919   2.003
 1976SOL     OW 6826   1.424   0.985   5.144
 1976SOL    HW1 6827   1.407   0.966   5.048
 1976SOL    HW2 6828   1.510   0.942   5.172
 1977SOL     OW 6829   1.066   3.761   6.724
 1977SOL    HW1 6830   1.118   3.677   6.710
 1977SOL    HW2 6831   1.005   3.749   6.802
 1978SOL     OW 6832   2.687   0.312   2.305
 1978SOL    HW1 6833   2.750   0.234   2.311
 1978SOL    HW2 6834   2.727   0.383   2.247
 1979SOL     OW 6835   5.352   3.792   6.431
 1979SOL    HW1 6836   5.261   3.762   6.402
 1979SOL    HW2 6837   5.358   3.892   6.423
 1980SOL     OW 6838   4.113   0.512   1.433
 1980SOL    HW1 6839   4.106   0.438   1.366
 1980SOL    HW2 6840   4.024   0.526   1.476
 1981SOL     OW 6841   4.406   2.407   1.840
 1981SOL    HW1 6842   4.434   2.315   1.868
 1981SOL    HW2 6843   4.449   2.474   1.901
 1982SOL     OW 6844   2.034   2.717   6.720
 1982SOL    HW1 6845   2.058   2.632   6.766
 1982SOL    HW2 6846   1.934   2.728   6.720
 1983SOL     OW 6847   0.380   1.961   1.671
 1983SOL    HW1 6848   0.365   2.031   1.601
 1983SOL    HW2 6849   0.292   1.936   1.712
 1984SOL     OW 6850   4.471   3.586   5.542
 1984SOL    HW1 6851   4.377   3.580   5.575
 1984SOL    HW2 6852   4.505   3.680   5.552
 1985SOL     OW 6853   5.660   4.860   4.372
 1985SOL    HW1 6854   5.655   4.925   4.448
 1985SOL    HW2 6855   5.752   4.821   4.368
 1986SOL     OW 6856   2.962   3.322   3.010
 1986SOL    HW1 6857   2.944   3.392   2.941
 1986SOL    HW2 6858   3.060   3.302   3.014
 1987SOL     OW 6859   1.994   1.821   2.106
 1987SOL    HW1 6860   2.021   1.877   2.027
 1987SOL    HW2 6861   2.002   1.724   2.082
 1988SOL     OW 6862   1.078   2.183   3.081
 1988SOL    HW1 6863   1.025   2.100   3.065
 1988SOL    HW2 6864   1.091   2.197   3.179
 1989SOL     OW 6865   3.128   5.557   4.263
 1989SOL    HW1 6866   3.042   5.509   4.249
 1989SOL    HW2 6867   3.177   5.563   4.176
 1990SOL     OW 6868   4.518   6.841   0.550
 1990SOL    HW1 6869   4.444   6.801   0.604
 1990SOL    HW2 6870   4.522   6.940   0.566
 1991SOL     OW 6871   2.946   6.237   1.777
 1991SOL    HW1 6872   2.991   6.294   1.707
 1991SOL    HW2 6873   2.877   6.179   1.734
 1992SOL     OW 6874   1.175   6.913   3.169
 1992SOL    HW1 6875   1.195   6.978   3.243
 1992SOL    HW2 6876   1.075   6.908   3.157
 1993SOL     OW 6877   1.968   1.213   2.140
 1993SOL    HW1 6878   1.918   1.238   2.057
 1993SOL    HW2 6879   1.967   1.289   2.204
 1994SOL     OW 6880   2.879   3.266   1.633
 1994SOL    HW1 6881   2.839   3.267   1.541
 1994SOL    HW2 6882   2.806   3.279   1.701
 1995SOL     OW 6883   6.065   0.922   4.159
 1995SOL    HW1 6884   6.083   0.891   4.253
 1995SOL    HW2 6885   5.982   0.878   4.125
 1996SOL     OW 6886   5.136   0.446   1.200
 1996SOL    HW1 6887   5.143   0.473   1.296
 1996SOL    HW2 6888   5.088   0.359   1.194
 1997SOL     OW 6889   3.456   1.439   3.067
 1997SOL    HW1 6890   3.445   1.340   3.062
 1997SOL    HW2 6891   3.552   1.463   3.056
 1998SOL     OW 6892   2.566   3.475   1.044
 1998SOL    HW1 6893   2.478   3.443   1.008
 1998SOL    HW2 6894   2.558   3.493   1.142
 1999SOL     OW 6895   0.994   0.180   5.888
 1999SOL    HW1 6896   0.982   0.206   5.984
 1999SOL    HW2 6897   0.989   0.081   5.879
 2000SOL     OW 6898   4.157   4.404   6.481
 2000SOL    HW1 6899   4.235   4.366   6.432
 2000SOL    HW2 6900   4.186   4.436   6.571
 2001SOL     OW 6901   1.653   2.056   0.926
 2001SOL    HW1 6902   1.627   2.104   1.010
 2001SOL    HW2 6903   1.748   2.076   0.903
 2002SOL     OW 6904   6.359   5.160   0.142
 2002SOL    HW1 6905   6.322   5.223   0.073
 2002SOL    HW2 6906   6.459   5.159   0.136
 2003SOL     OW 6907   6.177   5.517   1.172
 2003SOL    HW1 6908   6.107   5.446   1.175
 2003SOL    HW2 6909   6.174   5.570   1.256
 2004SOL     OW 6910   4.090   0.501   2.943
 2004SOL    HW1 6911   4.134   0.580   2.986
 2004SOL    HW2 6912   3.994   0.521   2.925
 2005SOL     OW 6913   1.763   6.329   0.196
 2005SOL    HW1 6914   1.712   6.352   0.279
 2005SOL    HW2 6915   1.801   6.237   0.204
 2006SOL     OW 6916   6.306   6.831   1.762
 2006SOL    HW1 6917   6.268   6.784   1.683
 2006SOL    HW2 6918   6.233   6.848   1.829
 2007SOL     OW 6919   5.538   5.172   5.774
 2007SOL    HW1 6920   5.475   5.148   5.700
 2007SOL    HW2 6921   5.626   5.128   5.759
 2008SOL     OW 6922   1.731   3.154   2.939
 2008SOL    HW1 6923   1.719   3.246   2.903
 2008SOL    HW2 6924   1.798   3.155   3.013
 2009SOL     OW 6925   5.733   0.203   3.287
 2009SOL    HW1 6926   5.673   0.149   3.230
 2009SOL    HW2 6927   5.790   0.263   3.230
 2010SOL     OW 6928   0.394   1.419   1.525
 2010SOL    HW1 6929   0.469   1.416   1.592
 2010SOL    HW2 6930   0.389   1.511   1.484
 2011SOL     OW 6931   0.725   0.231   4.834
 2011SOL    HW1 6932   0.734   0.195   4.927
 2011SOL    HW2 6933   0.688   0.160   4.774
 2012SOL     OW 6934   0.327   2.366   0.488
 2012SOL    HW1 6935   0.319   2.275   0.528
 2012SOL    HW2 6936   0.413   2.372   0.436
 2013SOL     OW 6937   0.696   3.015   2.308
 2013SOL    HW1 6938   0.730   2.926   2.339
 2013SOL    HW2 6939   0.609   3.002   2.260
 2014SOL     OW 6940   3.963   1.842   3.940
 2014SOL    HW1 6941   4.046   1.891   3.969
 2014SOL    HW2 6942   3.989   1.757   3.896
 2015SOL     OW 6943   3.928   6.177   1.633
 2015SOL    HW1 6944   3.983   6.120   1.694
 2015SOL    HW2 6945   3.927   6.137   1.542
 2016SOL     OW 6946   1.664   0.828   5.198
 2016SOL    HW1 6947   1.671   0.737   5.157
 2016SOL    HW2 6948   1.694   0.823   5.293
 2017SOL     OW 6949   2.324   6.913   4.673
 2017SOL    HW1 6950   2.390   6.870   4.612
 2017SOL    HW2 6951   2.236   6.923   4.627
 2018SOL     OW 6952   0.343   0.523   4.443
 2018SOL    HW1 6953   0.327   0.441   4.498
 2018SOL    HW2 6954   0.440   0.548   4.448
 2019SOL     OW 6955   0.073   4.928   6.835
 2019SOL    HW1 6956   0.128   4.910   6.917
 2019SOL    HW2 6957   7.011   4.970   6.861
 2020SOL     OW 6958   1.567   6.728   1.259
 2020SOL    HW1 6959   1.594   6.782   1.339
 2020SOL    HW2 6960   1.592   6.632   1.274
 2021SOL     OW 6961   6.898   5.749   4.118
 2021SOL    HW1 6962   6.914   5.691   4.038
 2021SOL    HW2 6963   6.871   5.840   4.088
 2022SOL     OW 6964   2.169   3.225   4.265
 2022SOL    HW1 6965   2.128   3.246   4.177
 2022SOL    HW2 6966   2.128   3.281   4.336
 2023SOL     OW 6967   0.658   5.375   0.097
 2023SOL    HW1 6968   0.706   5.420   0.023
 2023SOL    HW2 6969   0.566   5.349   0.067
 2024SOL     OW 6970   6.611   6.040   3.681
 2024SOL    HW1 6971   6.685   6.100   3.650
 2024SOL    HW2 6972   6.555   6.089   3.748
 2025SOL     OW 6973   1.940   0.122   4.228
 2025SOL    HW1 6974   1.910   0.043   4.280
 2025SOL    HW2 6975   1.885   0.202   4.252
 2026SOL     OW 6976   1.513   0.035   5.503
 2026SOL    HW1 6977   1.420   0.064   5.520
 2026SOL    HW2 6978   1.519   7.020   5.411
 2027SOL     OW 6979   6.140   6.570   2.808
 2027SOL    HW1 6980   6.123   6.651   2.751
 2027SOL    HW2 6981   6.199   6.595   2.885
 2028SOL     OW 6982   2.282   5.997   4.813
 2028SOL    HW1 6983   2.347   6.073   4.820
 2028SOL    HW2 6984   2.318   5.919   4.864
 2029SOL     OW 6985   6.362   1.879   6.740
 2029SOL    HW1 6986   6.429   1.869   6.666
 2029SOL    HW2 6987   6.291   1.810   6.731
 2030SOL     OW 6988   1.841   6.310   2.689
 2030SOL    HW1 6989   1.857   6.372   2.765
 2030SOL    HW2 6990   1.909   6.237   2.691
 2031SOL     OW 6991   0.034   6.740   5.479
 2031SOL    HW1 6992   0.114   6.680   5.472
 2031SOL    HW2 6993   0.061   6.834   5.462
 2032SOL     OW 6994   2.618   2.859   6.518
 2032SOL    HW1 6995   2.583   2.944   6.480
 2032SOL    HW2 6996   2.715   2.850   6.498
 2033SOL     OW 6997   2.451   0.503   1.370
 2033SOL    HW1 6998   2.439   0.503   1.270
 2033SOL    HW2 6999   2.500   0.420   1.397
 2034SOL     OW 7000   0.545   4.117   5.041
 2034SOL    HW1 7001   0.631   4.130   5.091
 2034SOL    HW2 7002   0.524   4.200   4.989
 2035SOL     OW 7003   5.621   5.673   2.836
 2035SOL    HW1 7004   5.612   5.711   2.929
 2035SOL    HW2 7005   5.537   5.626   2.811
 2036SOL     OW 7006   0.221   3.581   5.896
 2036SOL    HW1 7007   0.271   3.515   5.952
 2036SOL    HW2 7008   0.274   3.601   5.813
 2037SOL     OW 7009   1.156   2.503   6.988
 2037SOL    HW1 7010   1.130   2.450   0.044
 2037SOL    HW2 7011   1.143   2.601   7.007
 2038SOL     OW 7012   1.612   0.642   5.768
 2038SOL    HW1 7013   1.513   0.643   5.779
 2038SOL    HW2 7014   1.651   0.726   5.806
 2039SOL     OW 7015   5.266   5.923   4.118
 2039SOL    HW1 7016   5.355   5.877   4.113
 2039SOL    HW2 7017   5.270   6.009   4.068
 2040SOL     OW 7018   2.799   1.283   1.042
 2040SOL    HW1 7019   2.887   1.239   1.026
 2040SOL    HW2 7020   2.784   1.352   0.971
 2041SOL     OW 7021   3.410   6.859   0.219
 2041SOL    HW1 7022   3.449   6.944   0.184
 2041SOL    HW2 7023   3.445   6.782   0.166
 2042SOL     OW 7024   0.180   0.354   5.239
 2042SOL    HW1 7025   0.248   0.419   5.273
 2042SOL    HW2 7026   0.151   0.294   5.314
 2043SOL     OW 7027   0.733   3.844   0.294
 2043SOL    HW1 7028   0.665   3.851   0.367
 2043SOL    HW2 7029   0.687   3.843   0.206
 2044SOL     OW 7030   3.980   0.800   2.094
 2044SOL    HW1 7031   4.050   0.863   2.127
 2044SOL    HW2 7032   3.974   0.805   1.995
 2045SOL     OW 7033   2.071   5.648   3.276
 2045SOL    HW1 7034   2.165   5.674   3.298
 2045SOL    HW2 7035   2.072   5.580   3.202
 2046SOL     OW 7036   0.827   2.698   5.891
 2046SOL    HW1 7037   0.812   2.751   5.975
 2046SOL    HW2 7038   0.761   2.727   5.822
 2047SOL     OW 7039   6.929   0.159   1.893
 2047SOL    HW1 7040   6.904   0.172   1.797
 2047SOL    HW2 7041   6.884   0.077   1.929
 2048SOL     OW 7042   1.680   0.954   3.430
 2048SOL    HW1 7043   1.675   0.864   3.387
 2048SOL    HW2 7044   1.663   1.025   3.361
 2049SOL     OW 7045   4.576   1.892   5.253
 2049SOL    HW1 7046   4.551   1.905   5.349
 2049SOL    HW2 7047   4.568   1.979   5.204
 2050SOL     OW 7048   0.319   0.904   2.478
 2050SOL    HW1 7049   0.262   0.860   2.408
 2050SOL    HW2 7050   0.411   0.864   2.476
 2051SOL     OW 7051   2.832   0.140   6.722
 2051SOL    HW1 7052   2.785   0.173   6.640
 2051SOL    HW2 7053   2.913   0.089   6.695
 2052SOL     OW 7054   6.880   4.434   0.968
 2052SOL    HW1 7055   6.893   4.407   1.064
 2052SOL    HW2 7056   6.823   4.515   0.964
 2053SOL     OW 7057   4.814   5.064   1.732
 2053SOL    HW1 7058   4.846   5.123   1.659
 2053SOL    HW2 7059   4.714   5.057   1.728
 2054SOL     OW 7060   3.128   3.974   3.398
 2054SOL    HW1 7061   3.215   4.019   3.415
 2054SOL    HW2 7062   3.088   3.942   3.484
 2055SOL     OW 7063   3.720   2.513   5.730
 2055SOL    HW1 7064   3.634   2.528   5.780
 2055SOL    HW2 7065   3.795   2.507   5.796
 2056SOL     OW 7066   2.836   5.224   2.024
 2056SOL    HW1 7067   2.827   5.167   1.942
 2056SOL    HW2 7068   2.927   5.212   2.063
 2057SOL     OW 7069   6.217   3.138   3.866
 2057SOL    HW1 7070   6.156   3.059   3.869
 2057SOL    HW2 7071   6.164   3.222   3.876
 2058SOL     OW 7072   5.066   0.093   4.018
 2058SOL    HW1 7073   4.967   0.102   4.031
 2058SOL    HW2 7074   5.087   0.099   3.920
 2059SOL     OW 7075   2.214   1.296   5.758
 2059SOL    HW1 7076   2.226   1.389   5.792
 2059SOL    HW2 7077   2.122   1.286   5.720
 2060SOL     OW 7078   0.985   2.739   6.784
 2060SOL    HW1 7079   1.060   2.728   6.720
 2060SOL    HW2 7080   0.925   2.659   6.780
 2061SOL     OW 7081   1.901   2.370   4.227
 2061SOL    HW1 7082   1.885   2.449   4.168
 2061SOL    HW2 7083   1.999   2.351   4.232
 2062SOL     OW 7084   5.243   5.558   3.618
 2062SOL    HW1 7085   5.205   5.471   3.650
 2062SOL    HW2 7086   5.245   5.559   3.518
 2063SOL     OW 7087   0.855   1.718   4.522
 2063SOL    HW1 7088   0.825   1.780   4.449
 2063SOL    HW2 7089   0.883   1.772   4.602
 2064SOL     OW 7090   0.632   3.917   4.827
 2064SOL    HW1 7091   0.576   3.940   4.907
 2064SOL    HW2 7092   0.728   3.927   4.851
 2065SOL     OW 7093   3.768   3.721   6.054
 2065SOL    HW1 7094   3.733   3.757   5.967
 2065SOL    HW2 7095   3.703   3.656   6.092
 2066SOL     OW 7096   2.283   2.490   4.414
 2066SOL    HW1 7097   2.301   2.579   4.372
 2066SOL    HW2 7098   2.348   2.473   4.487
 2067SOL     OW 7099   6.417   5.087   2.221
 2067SOL    HW1 7100   6.381   5.112   2.131
 2067SOL    HW2 7101   6.486   5.016   2.211
 2068SOL     OW 7102   3.380   6.678   4.291
 2068SOL    HW1 7103   3.347   6.706   4.382
 2068SOL    HW2 7104   3.459   6.734   4.265
 2069SOL     OW 7105   6.072   1.832   3.199
 2069SOL    HW1 7106   6.072   1.768   3.276
 2069SOL    HW2 7107   6.087   1.781   3.114
 2070SOL     OW 7108   0.209   4.889   1.992
 2070SOL    HW1 7109   0.113   4.893   2.021
 2070SOL    HW2 7110   0.216   4.922   1.898
 2071SOL     OW 7111   6.493   2.301   4.108
 2071SOL    HW1 7112   6.422   2.372   4.110
 2071SOL    HW2 7113   6.473   2.236   4.036
 2072SOL     OW 7114   5.189   2.720   5.129
 2072SOL    HW1 7115   5.143   2.757   5.209
 2072SOL    HW2 7116   5.130   2.729   5.049
 2073SOL     OW 7117   3.428   5.261   7.012
 2073SOL    HW1 7118   3.360   5.262   6.939
 2073SOL    HW2 7119   3.385   5.238   0.075
 2074SOL     OW 7120   3.769   4.823   5.215
 2074SOL    HW1 7121   3.740   4.860   5.127
 2074SOL    HW2 7122   3.830   4.887   5.260
 2075SOL     OW 7123   5.199   1.302   0.929
 2075SOL    HW1 7124   5.197   1.213   0.883
 2075SOL    HW2 7125   5.173   1.290   1.025
 2076SOL     OW 7126   0.036   7.007   3.832
 2076SOL    HW1 7127   0.043   0.076   3.798
 2076SOL    HW2 7128   7.003   7.006   3.914
 2077SOL     OW 7129   0.611   4.325   1.082
 2077SOL    HW1 7130   0.591   4.417   1.049
 2077SOL    HW2 7131   0.690   4.289   1.033
 2078SOL     OW 7132   0.931   2.520   0.213
 2078SOL    HW1 7133   0.865   2.502   0.140
 2078SOL    HW2 7134   0.883   2.544   0.297
 2079SOL     OW 7135   5.812   1.952   3.513
 2079SOL    HW1 7136   5.858   1.940   3.425
 2079SOL    HW2 7137   5.739   1.885   3.523
 2080SOL     OW 7138   1.825   3.143   5.630
 2080SOL    HW1 7139   1.808   3.119   5.534
 2080SOL    HW2 7140   1.906   3.095   5.663
 2081SOL     OW 7141   0.575   6.028   2.643
 2081SOL    HW1 7142   0.620   6.114   2.616
 2081SOL    HW2 7143   0.603   5.955   2.581
 2082SOL     OW 7144   6.592   6.489   3.572
 2082SOL    HW1 7145   6.571   6.521   3.664
 2082SOL    HW2 7146   6.675   6.434   3.573
 2083SOL     OW 7147   0.726   5.384   2.988
 2083SOL    HW1 7148   0.803   5.426   2.941
 2083SOL    HW2 7149   0.733   5.402   3.086
 2084SOL     OW 7150   6.292   2.170   1.305
 2084SOL    HW1 7151   6.294   2.196   1.401
 2084SOL    HW2 7152   6.202   2.133   1.282
 2085SOL     OW 7153   6.344   5.859   7.014
 2085SOL    HW1 7154   6.356   5.782   0.052
 2085SOL    HW2 7155   6.429   5.912   7.012
 2086SOL     OW 7156   5.891   0.157   5.537
 2086SOL    HW1 7157   5.921   0.081   5.479
 2086SOL    HW2 7158   5.803   0.135   5.578
 2087SOL     OW 7159   5.534   1.253   6.499
 2087SOL    HW1 7160   5.543   1.350   6.521
 2087SOL    HW2 7161   5.616   1.221   6.453
 2088SOL     OW 7162   0.405   3.309   5.581
 2088SOL    HW1 7163   0.316   3.318   5.625
 2088SOL    HW2 7164   0.417   3.215   5.549
 2089SOL     OW 7165   2.968   5.240   4.597
 2089SOL    HW1 7166   3.046   5.240   4.534
 2089SOL    HW2 7167   2.900   5.306   4.565
 2090SOL     OW 7168   5.263   2.198   6.272
 2090SOL    HW1 7169   5.269   2.187   6.371
 2090SOL    HW2 7170   5.327   2.269   6.242
 2091SOL     OW 7171   5.607   6.440   0.839
 2091SOL    HW1 7172   5.656   6.509   0.893
 2091SOL    HW2 7173   5.531   6.484   0.790
 2092SOL     OW 7174   3.481   2.872   2.887
 2092SOL    HW1 7175   3.501   2.816   2.806
 2092SOL    HW2 7176   3.429   2.952   2.860
 2093SOL     OW 7177   4.990   6.985   0.480
 2093SOL    HW1 7178   5.066   0.016   0.447
 2093SOL    HW2 7179   4.909   0.018   0.490
 2094SOL     OW 7180   4.810   2.986   0.949
 2094SOL    HW1 7181   4.728   2.968   1.004
 2094SOL    HW2 7182   4.889   2.997   1.010
 2095SOL     OW 7183   4.893   5.546   3.282
 2095SOL    HW1 7184   4.929   5.548   3.189
 2095SOL    HW2 7185   4.890   5.639   3.319
 2096SOL     OW 7186   3.804   6.747   2.982
 2096SOL    HW1 7187   3.739   6.820   3.005
 2096SOL    HW2 7188   3.769   6.660   3.015
 2097SOL     OW 7189   1.990   6.089   5.275
 2097SOL    HW1 7190   2.060   6.158   5.293
 2097SOL    HW2 7191   1.953   6.054   5.361
 2098SOL     OW 7192   1.620   6.872   3.744
 2098SOL    HW1 7193   1.663   6.900   3.830
 2098SOL    HW2 7194   1.587   6.778   3.752
 2099SOL     OW 7195   4.920   1.860   6.686
 2099SOL    HW1 7196   4.982   1.798   6.639
 2099SOL    HW2 7197   4.915   1.837   6.783
 2100SOL     OW 7198   4.710   0.323   0.699
 2100SOL    HW1 7199   4.618   0.339   0.735
 2100SOL    HW2 7200   4.767   0.282   0.771
 2101SOL     OW 7201   1.767   0.757   2.822
 2101SOL    HW1 7202   1.697   0.826   2.800
 2101SOL    HW2 7203   1.808   0.724   2.738
 2102SOL     OW 7204   3.508   2.991   2.321
 2102SOL    HW1 7205   3.604   2.969   2.336
 2102SOL    HW2 7206   3.494   3.089   2.331
 2103SOL     OW 7207   1.864   0.036   1.310
 2103SOL    HW1 7208   1.902   7.000   1.240
 2103SOL    HW2 7209   1.938   0.074   1.365
 2104SOL     OW 7210   1.246   4.169   2.714
 2104SOL    HW1 7211   1.194   4.255   2.711
 2104SOL    HW2 7212   1.276   4.145   2.622
 2105SOL     OW 7213   5.135   6.410   5.648
 2105SOL    HW1 7214   5.067   6.423   5.720
 2105SOL    HW2 7215   5.224   6.444   5.679
 2106SOL     OW 7216   3.392   2.595   1.272
 2106SOL    HW1 7217   3.428   2.523   1.212
 2106SOL    HW2 7218   3.447   2.599   1.355
 2107SOL     OW 7219   5.994   4.354   4.928
 2107SOL    HW1 7220   6.035   4.422   4.989
 2107SOL    HW2 7221   6.066   4.294   4.892
 2108SOL     OW 7222   4.522   6.961   5.353
 2108SOL    HW1 7223   4.530   0.035   5.372
 2108SOL    HW2 7224   4.511   6.947   5.255
 2109SOL     OW 7225   2.822   5.685   2.160
 2109SOL    HW1 7226   2.766   5.660   2.081
 2109SOL    HW2 7227   2.770   5.745   2.221
 2110SOL     OW 7228   3.939   5.812   6.738
 2110SOL    HW1 7229   3.922   5.726   6.691
 2110SOL    HW2 7230   3.957   5.884   6.672
 2111SOL     OW 7231   0.720   2.616   0.392
 2111SOL    HW1 7232   0.681   2.698   0.350
 2111SOL    HW2 7233   0.665   2.536   0.365
 2112SOL     OW 7234   0.979   0.613   6.718
 2112SOL    HW1 7235   1.019   0.559   6.644
 2112SOL    HW2 7236   0.886   0.641   6.693
 2113SOL     OW 7237   0.095   1.683   4.633
 2113SOL    HW1 7238   0.068   1.715   4.542
 2113SOL    HW2 7239   0.041   1.731   4.703
 2114SOL     OW 7240   3.061   1.124   5.372
 2114SOL    HW1 7241   3.109   1.071   5.442
 2114SOL    HW2 7242   3.013   1.201   5.415
 2115SOL     OW 7243   6.634   6.910   3.762
 2115SOL    HW1 7244   6.562   6.859   3.714
 2115SOL    HW2 7245   6.723   6.882   3.727
 2116SOL     OW 7246   2.044   0.721   5.543
 2116SOL    HW1 7247   2.099   0.704   5.625
 2116SOL    HW2 7248   1.967   0.657   5.541
 2117SOL     OW 7249   5.772   3.338   1.412
 2117SOL    HW1 7250   5.853   3.313   1.359
 2117SOL    HW2 7251   5.763   3.438   1.414
 2118SOL     OW 7252   0.023   3.240   2.705
 2118SOL    HW1 7253   0.086   3.314   2.724
 2118SOL    HW2 7254   6.977   3.271   2.641
 2119SOL     OW 7255   2.210   2.321   0.192
 2119SOL    HW1 7256   2.216   2.227   0.158
 2119SOL    HW2 7257   2.221   2.320   0.292
 2120SOL     OW 7258   5.711   1.916   0.631
 2120SOL    HW1 7259   5.668   1.963   0.554
 2120SOL    HW2 7260   5.658   1.834   0.654
 2121SOL     OW 7261   2.935   5.937   1.335
 2121SOL    HW1 7262   2.959   6.010   1.399
 2121SOL    HW2 7263   2.981   5.852   1.362
 2122SOL     OW 7264   0.247   0.669   5.194
 2122SOL    HW1 7265   0.295   0.593   5.236
 2122SOL    HW2 7266   0.312   0.742   5.171
 2123SOL     OW 7267   1.058   4.700   3.312
 2123SOL    HW1 7268   1.054   4.637   3.390
 2123SOL    HW2 7269   0.965   4.722   3.283
 2124SOL     OW 7270   4.863   3.037   6.129
 2124SOL    HW1 7271   4.835   3.021   6.034
 2124SOL    HW2 7272   4.800   3.101   6.172
 2125SOL     OW 7273   2.346   5.651   6.142
 2125SOL    HW1 7274   2.307   5.559   6.147
 2125SOL    HW2 7275   2.327   5.690   6.052
 2126SOL     OW 7276   2.795   5.079   1.788
 2126SOL    HW1 7277   2.701   5.108   1.772
 2126SOL    HW2 7278   2.795   4.992   1.838
 2127SOL     OW 7279   1.430   3.766   3.934
 2127SOL    HW1 7280   1.332   3.782   3.947
 2127SOL    HW2 7281   1.445   3.669   3.915
 2128SOL     OW 7282   5.471   2.706   0.900
 2128SOL    HW1 7283   5.451   2.803   0.894
 2128SOL    HW2 7284   5.410   2.655   0.839
 2129SOL     OW 7285   5.950   4.342   3.771
 2129SOL    HW1 7286   5.876   4.300   3.823
 2129SOL    HW2 7287   6.038   4.322   3.815
 2130SOL     OW 7288   1.868   0.336   2.669
 2130SOL    HW1 7289   1.878   0.436   2.667
 2130SOL    HW2 7290   1.905   0.298   2.585
 2131SOL     OW 7291   5.603   0.761   6.928
 2131SOL    HW1 7292   5.525   0.757   6.866
 2131SOL    HW2 7293   5.602   0.681   6.988
 2132SOL     OW 7294   2.921   2.005   6.923
 2132SOL    HW1 7295   2.825   1.997   6.895
 2132SOL    HW2 7296   2.965   2.077   6.869
 2133SOL     OW 7297   4.241   2.653   1.577
 2133SOL    HW1 7298   4.182   2.588   1.623
 2133SOL    HW2 7299   4.336   2.622   1.582
 2134SOL     OW 7300   2.424   0.483   5.189
 2134SOL    HW1 7301   2.331   0.448   5.200
 2134SOL    HW2 7302   2.466   0.441   5.109
 2135SOL     OW 7303   0.504   6.125   4.222
 2135SOL    HW1 7304   0.543   6.053   4.278
 2135SOL    HW2 7305   0.469   6.198   4.281
 2136SOL     OW 7306   0.589   4.809   3.519
 2136SOL    HW1 7307   0.542   4.800   3.606
 2136SOL    HW2 7308   0.596   4.906   3.496
 2137SOL     OW 7309   0.116   0.128   4.605
 2137SOL    HW1 7310   0.065   0.173   4.532
 2137SOL    HW2 7311   0.059   0.125   4.687
 2138SOL     OW 7312   1.231   2.433   6.751
 2138SOL    HW1 7313   1.310   2.371   6.744
 2138SOL    HW2 7314   1.227   2.471   6.843
 2139SOL     OW 7315   3.256   5.777   4.317
 2139SOL    HW1 7316   3.193   5.702   4.296
 2139SOL    HW2 7317   3.344   5.759   4.274
 2140SOL     OW 7318   1.486   5.760   3.684
 2140SOL    HW1 7319   1.486   5.669   3.643
 2140SOL    HW2 7320   1.439   5.824   3.624
 2141SOL     OW 7321   6.667   0.809   6.842
 2141SOL    HW1 7322   6.708   0.895   6.871
 2141SOL    HW2 7323   6.626   0.820   6.751
 2142SOL     OW 7324   4.198   1.075   2.963
 2142SOL    HW1 7325   4.120   1.042   2.910
 2142SOL    HW2 7326   4.191   1.040   3.057
 2143SOL     OW 7327   3.759   5.637   0.568
 2143SOL    HW1 7328   3.739   5.541   0.589
 2143SOL    HW2 7329   3.858   5.652   0.569
 2144SOL     OW 7330   0.710   1.215   1.771
 2144SOL    HW1 7331   0.668   1.214   1.862
 2144SOL    HW2 7332   0.782   1.146   1.767
 2145SOL     OW 7333   2.277   6.077   3.832
 2145SOL    HW1 7334   2.289   5.983   3.864
 2145SOL    HW2 7335   2.281   6.079   3.732
 2146SOL     OW 7336   3.078   2.326   1.212
 2146SOL    HW1 7337   3.030   2.300   1.295
 2146SOL    HW2 7338   3.029   2.290   1.132
 2147SOL     OW 7339   6.827   0.019   4.583
 2147SOL    HW1 7340   6.811   0.094   4.648
 2147SOL    HW2 7341   6.922   0.020   4.554
 2148SOL     OW 7342   6.643   3.956   4.012
 2148SOL    HW1 7343   6.676   3.877   3.962
 2148SOL    HW2 7344   6.690   4.038   3.979
 2149SOL     OW 7345   2.585   1.362   2.520
 2149SOL    HW1 7346   2.654   1.394   2.584
 2149SOL    HW2 7347   2.494   1.388   2.553
 2150SOL     OW 7348   5.031   0.454   2.941
 2150SOL    HW1 7349   5.081   0.492   3.019
 2150SOL    HW2 7350   5.066   0.494   2.856
 2151SOL     OW 7351   4.325   4.499   5.625
 2151SOL    HW1 7352   4.325   4.509   5.525
 2151SOL    HW2 7353   4.233   4.476   5.656
 2152SOL     OW 7354   0.253   6.469   2.923
 2152SOL    HW1 7355   0.337   6.467   2.869
 2152SOL    HW2 7356   0.177   6.435   2.867
 2153SOL     OW 7357   4.361   1.429   3.802
 2153SOL    HW1 7358   4.296   1.435   3.727
 2153SOL    HW2 7359   4.425   1.354   3.786
 2154SOL     OW 7360   4.000   6.945   4.291
 2154SOL    HW1 7361   3.959   6.855   4.275
 2154SOL    HW2 7362   4.091   6.948   4.250
 2155SOL     OW 7363   6.166   3.224   0.452
 2155SOL    HW1 7364   6.189   3.209   0.356
 2155SOL    HW2 7365   6.179   3.140   0.503
 2156SOL     OW 7366   6.373   5.999   2.551
 2156SOL    HW1 7367   6.274   5.986   2.541
 2156SOL    HW2 7368   6.414   6.019   2.462
 2157SOL     OW 7369   5.617   1.524   3.381
 2157SOL    HW1 7370   5.585   1.607   3.335
 2157SOL    HW2 7371   5.691   1.547   3.445
 2158SOL     OW 7372   4.002   0.254   3.479
 2158SOL    HW1 7373   4.023   0.307   3.397
 2158SOL    HW2 7374   3.903   0.241   3.487
 2159SOL     OW 7375   2.724   1.161   5.393
 2159SOL    HW1 7376   2.705   1.115   5.480
 2159SOL    HW2 7377   2.638   1.185   5.348
 2160SOL     OW 7378   2.518   4.057   0.733
 2160SOL    HW1 7379   2.496   3.972   0.781
 2160SOL    HW2 7380   2.570   4.036   0.650
 2161SOL     OW 7381   4.644   2.684   3.265
 2161SOL    HW1 7382   4.586   2.608   3.235
 2161SOL    HW2 7383   4.624   2.705   3.361
 2162SOL     OW 7384   2.378   1.694   2.097
 2162SOL    HW1 7385   2.334   1.662   2.181
 2162SOL    HW2 7386   2.388   1.794   2.101
 2163SOL     OW 7387   3.464   2.074   1.300
 2163SOL    HW1 7388   3.515   1.991   1.322
 2163SOL    HW2 7389   3.381   2.049   1.249
 2164SOL     OW 7390   6.339   0.725   1.491
 2164SOL    HW1 7391   6.281   0.779   1.431
 2164SOL    HW2 7392   6.403   0.671   1.437
 2165SOL     OW 7393   2.119   0.682   2.229
 2165SOL    HW1 7394   2.051   0.680   2.155
 2165SOL    HW2 7395   2.194   0.620   2.206
 2166SOL     OW 7396   5.469   2.820   4.970
 2166SOL    HW1 7397   5.516   2.735   4.948
 2166SOL    HW2 7398   5.377   2.800   5.004
 2167SOL     OW 7399   3.192   1.609   1.169
 2167SOL    HW1 7400   3.191   1.707   1.190
 2167SOL    HW2 7401   3.201   1.558   1.254
 2168SOL     OW 7402   5.157   6.222   4.580
 2168SOL    HW1 7403   5.190   6.311   4.548
 2168SOL    HW2 7404   5.225   6.182   4.641
 2169SOL     OW 7405   5.373   1.638   5.725
 2169SOL    HW1 7406   5.435   1.659   5.800
 2169SOL    HW2 7407   5.294   1.588   5.759
 2170SOL     OW 7408   4.970   5.292   4.474
 2170SOL    HW1 7409   4.896   5.347   4.514
 2170SOL    HW2 7410   5.056   5.315   4.520
 2171SOL     OW 7411   0.284   3.592   0.075
 2171SOL    HW1 7412   0.189   3.582   0.104
 2171SOL    HW2 7413   0.344   3.596   0.155
 2172SOL     OW 7414   1.757   0.346   2.918
 2172SOL    HW1 7415   1.814   0.389   2.989
 2172SOL    HW2 7416   1.813   0.327   2.837
 2173SOL     OW 7417   4.559   2.314   4.735
 2173SOL    HW1 7418   4.634   2.248   4.736
 2173SOL    HW2 7419   4.500   2.298   4.814
 2174SOL     OW 7420   1.141   5.661   4.970
 2174SOL    HW1 7421   1.128   5.575   4.920
 2174SOL    HW2 7422   1.061   5.680   5.026
 2175SOL     OW 7423   1.502   6.740   6.545
 2175SOL    HW1 7424   1.421   6.795   6.525
 2175SOL    HW2 7425   1.574   6.761   6.479
 2176SOL     OW 7426   1.958   2.741   2.335
 2176SOL    HW1 7427   1.904   2.740   2.419
 2176SOL    HW2 7428   1.993   2.650   2.317
 2177SOL     OW 7429   0.940   1.608   1.533
 2177SOL    HW1 7430   0.928   1.705   1.556
 2177SOL    HW2 7431   0.856   1.572   1.493
 2178SOL     OW 7432   6.721   5.905   0.181
 2178SOL    HW1 7433   6.652   5.963   0.138
 2178SOL    HW2 7434   6.772   5.959   0.249
 2179SOL     OW 7435   2.179   4.011   4.195
 2179SOL    HW1 7436   2.277   4.002   4.179
 2179SOL    HW2 7437   2.138   3.920   4.204
 2180SOL     OW 7438   2.879   3.296   2.034
 2180SOL    HW1 7439   2.905   3.391   2.019
 2180SOL    HW2 7440   2.945   3.253   2.095
 2181SOL     OW 7441   3.643   6.955   0.848
 2181SOL    HW1 7442   3.645   6.998   0.938
 2181SOL    HW2 7443   3.587   6.872   0.851
 2182SOL     OW 7444   4.069   3.501   0.398
 2182SOL    HW1 7445   4.093   3.597   0.412
 2182SOL    HW2 7446   3.978   3.495   0.358
 2183SOL     OW 7447   4.383   2.999   0.966
 2183SOL    HW1 7448   4.343   3.080   0.924
 2183SOL    HW2 7449   4.326   2.968   1.042
 2184SOL     OW 7450   4.721   2.764   5.745
 2184SOL    HW1 7451   4.792   2.826   5.777
 2184SOL    HW2 7452   4.645   2.762   5.810
 2185SOL     OW 7453   6.345   6.497   2.357
 2185SOL    HW1 7454   6.281   6.424   2.332
 2185SOL    HW2 7455   6.300   6.585   2.347
 2186SOL     OW 7456   0.009   4.444   3.269
 2186SOL    HW1 7457   6.935   4.427   3.264
 2186SOL    HW2 7458   0.029   4.537   3.236
 2187SOL     OW 7459   6.457   0.922   0.048
 2187SOL    HW1 7460   6.523   0.974   7.018
 2187SOL    HW2 7461   6.506   0.855   0.104
 2188SOL     OW 7462   4.721   1.695   3.495
 2188SOL    HW1 7463   4.703   1.763   3.423
 2188SOL    HW2 7464   4.634   1.670   3.538
 2189SOL     OW 7465   3.938   6.137   0.137
 2189SOL    HW1 7466   3.940   6.129   0.038
 2189SOL    HW2 7467   4.030   6.157   0.171
 2190SOL     OW 7468   5.446   3.260   0.845
 2190SOL    HW1 7469   5.353   3.280   0.816
 2190SOL    HW2 7470   5.445   3.179   0.905
 2191SOL     OW 7471   3.609   0.946   6.821
 2191SOL    HW1 7472   3.599   1.007   6.742
 2191SOL    HW2 7473   3.549   0.867   6.810
 2192SOL     OW 7474   4.171   6.182   2.211
 2192SOL    HW1 7475   4.265   6.214   2.220
 2192SOL    HW2 7476   4.132   6.164   2.302
 2193SOL     OW 7477   6.956   6.121   4.649
 2193SOL    HW1 7478   6.944   6.158   4.741
 2193SOL    HW2 7479   0.018   6.073   4.642
 2194SOL     OW 7480   2.589   6.800   1.785
 2194SOL    HW1 7481   2.537   6.866   1.840
 2194SOL    HW2 7482   2.532   6.719   1.768
 2195SOL     OW 7483   0.143   4.798   2.342
 2195SOL    HW1 7484   0.190   4.764   2.260
 2195SOL    HW2 7485   0.209   4.811   2.416
 2196SOL     OW 7486   4.300   3.896   0.220
 2196SOL    HW1 7487   4.224   3.857   0.168
 2196SOL    HW2 7488   4.331   3.830   0.288
 2197SOL     OW 7489   4.707   3.190   6.443
 2197SOL    HW1 7490   4.784   3.183   6.378
 2197SOL    HW2 7491   4.708   3.279   6.487
 2198SOL     OW 7492   0.141   4.226   7.020
 2198SOL    HW1 7493   0.235   4.259   7.016
 2198SOL    HW2 7494   0.085   4.291   0.048
 2199SOL     OW 7495   4.183   1.360   3.297
 2199SOL    HW1 7496   4.189   1.460   3.295
 2199SOL    HW2 7497   4.088   1.332   3.311
 2200SOL     OW 7498   3.734   0.053   4.141
 2200SOL    HW1 7499   3.658   0.112   4.168
 2200SOL    HW2 7500   3.807   0.059   4.208
 2201SOL     OW 7501   5.271   4.533   4.319
 2201SOL    HW1 7502   5.304   4.508   4.410
 2201SOL    HW2 7503   5.346   4.524   4.253
 2202SOL     OW 7504   4.677   5.856   3.943
 2202SOL    HW1 7505   4.624   5.817   4.019
 2202SOL    HW2 7506   4.674   5.794   3.865
 2203SOL     OW 7507   2.107   1.541   2.752
 2203SOL    HW1 7508   2.012   1.569   2.740
 2203SOL    HW2 7509   2.163   1.575   2.676
 2204SOL     OW 7510   3.563   2.234   1.089
 2204SOL    HW1 7511   3.540   2.183   1.006
 2204SOL    HW2 7512   3.551   2.175   1.169
 2205SOL     OW 7513   3.450   0.839   2.174
 2205SOL    HW1 7514   3.549   0.847   2.182
 2205SOL    HW2 7515   3.405   0.895   2.243
 2206SOL     OW 7516   1.344   4.124   0.375
 2206SOL    HW1 7517   1.393   4.206   0.403
 2206SOL    HW2 7518   1.297   4.140   0.289
 2207SOL     OW 7519   6.986   4.570   5.061
 2207SOL    HW1 7520   6.910   4.635   5.059
 2207SOL    HW2 7521   7.007   4.547   5.156
 2208SOL     OW 7522   6.635   5.278   1.931
 2208SOL    HW1 7523   6.704   5.349   1.945
 2208SOL    HW2 7524   6.662   5.219   1.855
 2209SOL     OW 7525   6.617   6.595   1.959
 2209SOL    HW1 7526   6.605   6.497   1.945
 2209SOL    HW2 7527   6.637   6.640   1.871
 2210SOL     OW 7528   2.496   4.937   3.950
 2210SOL    HW1 7529   2.560   5.011   3.970
 2210SOL    HW2 7530   2.497   4.918   3.852
 2211SOL     OW 7531   6.146   0.860   5.987
 2211SOL    HW1 7532   6.200   0.924   6.042
 2211SOL    HW2 7533   6.120   0.904   5.901
 2212SOL     OW 7534   2.754   0.008   5.997
 2212SOL    HW1 7535   2.679   0.058   6.041
 2212SOL    HW2 7536   2.742   0.010   5.898
 2213SOL     OW 7537   4.703   0.795   3.283
 2213SOL    HW1 7538   4.681   0.769   3.377
 2213SOL    HW2 7539   4.770   0.731   3.246
 2214SOL     OW 7540   3.951   0.209   4.281
 2214SOL    HW1 7541   3.942   0.244   4.375
 2214SOL    HW2 7542   3.982   0.114   4.285
 2215SOL     OW 7543   5.628   2.000   5.441
 2215SOL    HW1 7544   5.558   2.063   5.406
 2215SOL    HW2 7545   5.665   2.035   5.526
 2216SOL     OW 7546   2.875   1.733   2.207
 2216SOL    HW1 7547   2.846   1.642   2.235
 2216SOL    HW2 7548   2.954   1.726   2.147
 2217SOL     OW 7549   2.965   6.865   1.203
 2217SOL    HW1 7550   2.998   6.771   1.192
 2217SOL    HW2 7551   2.880   6.877   1.153
 2218SOL     OW 7552   6.748   1.050   2.465
 2218SOL    HW1 7553   6.808   1.129   2.461
 2218SOL    HW2 7554   6.781   0.979   2.402
 2219SOL     OW 7555   2.483   2.178   2.803
 2219SOL    HW1 7556   2.525   2.244   2.865
 2219SOL    HW2 7557   2.549   2.106   2.782
 2220SOL     OW 7558   1.759   6.839   2.855
 2220SOL    HW1 7559   1.816   6.921   2.850
 2220SOL    HW2 7560   1.776   6.792   2.942
 2221SOL     OW 7561   0.289   6.614   5.464
 2221SOL    HW1 7562   0.281   6.522   5.502
 2221SOL    HW2 7563   0.261   6.613   5.368
 2222SOL     OW 7564   6.044   5.206   4.246
 2222SOL    HW1 7565   6.110   5.257   4.191
 2222SOL    HW2 7566   6.092   5.138   4.301
 2223SOL     OW 7567   0.006   6.425   2.663
 2223SOL    HW1 7568   6.957   6.391   2.723
 2223SOL    HW2 7569   6.989   6.477   2.587
 2224SOL     OW 7570   1.351   5.807   0.869
 2224SOL    HW1 7571   1.384   5.891   0.912
 2224SOL    HW2 7572   1.253   5.813   0.853
 2225SOL     OW 7573   0.522   4.117   0.300
 2225SOL    HW1 7574   0.446   4.056   0.280
 2225SOL    HW2 7575   0.544   4.111   0.398
 2226SOL     OW 7576   3.837   3.705   2.819
 2226SOL    HW1 7577   3.739   3.717   2.837
 2226SOL    HW2 7578   3.875   3.790   2.781
 2227SOL     OW 7579   1.208   1.657   4.753
 2227SOL    HW1 7580   1.248   1.568   4.729
 2227SOL    HW2 7581   1.245   1.727   4.692
 2228SOL     OW 7582   2.149   4.644   4.541
 2228SOL    HW1 7583   2.100   4.711   4.598
 2228SOL    HW2 7584   2.173   4.564   4.596
 2229SOL     OW 7585   5.856   6.057   2.991
 2229SOL    HW1 7586   5.798   6.118   2.938
 2229SOL    HW2 7587   5.874   6.098   3.081
 2230SOL     OW 7588   2.220   5.462   2.873
 2230SOL    HW1 7589   2.164   5.440   2.793
 2230SOL    HW2 7590   2.161   5.472   2.953
 2231SOL     OW 7591   2.079   5.885   1.094
 2231SOL    HW1 7592   2.139   5.867   1.171
 2231SOL    HW2 7593   2.051   5.981   1.095
 2232SOL     OW 7594   5.957   1.852   3.840
 2232SOL    HW1 7595   5.894   1.929   3.850
 2232SOL    HW2 7596   6.004   1.835   3.927
 2233SOL     OW 7597   3.954   1.289   0.481
 2233SOL    HW1 7598   3.958   1.378   0.527
 2233SOL    HW2 7599   4.037   1.237   0.501
 2234SOL     OW 7600   4.700   2.279   1.177
 2234SOL    HW1 7601   4.672   2.211   1.245
 2234SOL    HW2 7602   4.644   2.361   1.188
 2235SOL     OW 7603   2.038   2.476   2.292
 2235SOL    HW1 7604   2.008   2.445   2.202
 2235SOL    HW2 7605   1.973   2.446   2.362
 2236SOL     OW 7606   0.739   4.068   5.479
 2236SOL    HW1 7607   0.776   3.979   5.452
 2236SOL    HW2 7608   0.649   4.056   5.521
 2237SOL     OW 7609   6.520   3.163   3.868
 2237SOL    HW1 7610   6.423   3.184   3.861
 2237SOL    HW2 7611   6.570   3.245   3.898
 2238SOL     OW 7612   5.365   6.013   6.562
 2238SOL    HW1 7613   5.290   6.020   6.628
 2238SOL    HW2 7614   5.450   6.046   6.605
 2239SOL     OW 7615   0.660   5.620   1.251
 2239SOL    HW1 7616   0.704   5.591   1.336
 2239SOL    HW2 7617   0.575   5.668   1.271
 2240SOL     OW 7618   6.291   3.781   1.447
 2240SOL    HW1 7619   6.274   3.876   1.473
 2240SOL    HW2 7620   6.206   3.729   1.454
 2241SOL     OW 7621   0.869   0.046   3.929
 2241SOL    HW1 7622   0.879   0.062   3.831
 2241SOL    HW2 7623   0.842   6.976   3.946
 2242SOL     OW 7624   2.351   1.765   3.246
 2242SOL    HW1 7625   2.318   1.755   3.152
 2242SOL    HW2 7626   2.432   1.708   3.258
 2243SOL     OW 7627   1.593   7.006   4.720
 2243SOL    HW1 7628   1.613   6.909   4.733
 2243SOL    HW2 7629   1.678   0.033   4.705
 2244SOL     OW 7630   3.762   0.606   5.404
 2244SOL    HW1 7631   3.717   0.546   5.470
 2244SOL    HW2 7632   3.697   0.676   5.373
 2245SOL     OW 7633   0.732   2.736   2.665
 2245SOL    HW1 7634   0.748   2.835   2.654
 2245SOL    HW2 7635   0.809   2.686   2.624
 2246SOL     OW 7636   0.985   4.345   5.148
 2246SOL    HW1 7637   0.915   4.277   5.170
 2246SOL    HW2 7638   0.943   4.423   5.103
 2247SOL     OW 7639   1.926   1.668   4.269
 2247SOL    HW1 7640   1.905   1.763   4.291
 2247SOL    HW2 7641   1.895   1.609   4.343
 2248SOL     OW 7642   5.212   3.795   5.882
 2248SOL    HW1 7643   5.191   3.709   5.835
 2248SOL    HW2 7644   5.223   3.778   5.979
 2249SOL     OW 7645   5.231   5.428   4.964
 2249SOL    HW1 7646   5.172   5.504   4.994
 2249SOL    HW2 7647   5.191   5.384   4.884
 2250SOL     OW 7648   4.279   4.606   1.790
 2250SOL    HW1 7649   4.286   4.517   1.745
 2250SOL    HW2 7650   4.303   4.596   1.887
 2251SOL     OW 7651   0.317   1.090   5.376
 2251SOL    HW1 7652   0.351   1.047   5.459
 2251SOL    HW2 7653   0.360   1.180   5.365
 2252SOL     OW 7654   3.607   1.068   6.395
 2252SOL    HW1 7655   3.643   1.092   6.305
 2252SOL    HW2 7656   3.517   1.026   6.384
 2253SOL     OW 7657   0.676   3.893   0.577
 2253SOL    HW1 7658   0.625   3.862   0.657
 2253SOL    HW2 7659   0.676   3.993   0.575
 2254SOL     OW 7660   1.266   4.200   6.348
 2254SOL    HW1 7661   1.276   4.247   6.437
 2254SOL    HW2 7662   1.299   4.260   6.275
 2255SOL     OW 7663   6.583   3.507   6.731
 2255SOL    HW1 7664   6.558   3.567   6.655
 2255SOL    HW2 7665   6.521   3.523   6.808
 2256SOL     OW 7666   3.060   5.313   2.345
 2256SOL    HW1 7667   3.046   5.411   2.330
 2256SOL    HW2 7668   3.116   5.276   2.271
 2257SOL     OW 7669   1.409   4.393   5.384
 2257SOL    HW1 7670   1.320   4.412   5.425
 2257SOL    HW2 7671   1.471   4.355   5.454
 2258SOL     OW 7672   1.878   6.242   5.804
 2258SOL    HW1 7673   1.944   6.170   5.822
 2258SOL    HW2 7674   1.788   6.214   5.839
 2259SOL     OW 7675   5.851   1.824   6.224
 2259SOL    HW1 7676   5.753   1.846   6.225
 2259SOL    HW2 7677   5.881   1.803   6.317
 2260SOL     OW 7678   3.962   3.115   0.727
 2260SOL    HW1 7679   3.908   3.167   0.660
 2260SOL    HW2 7680   3.930   3.136   0.819
 2261SOL     OW 7681   2.800   6.573   4.771
 2261SOL    HW1 7682   2.771   6.662   4.807
 2261SOL    HW2 7683   2.898   6.562   4.786
 2262SOL     OW 7684   2.731   1.800   3.431
 2262SOL    HW1 7685   2.794   1.805   3.508
 2262SOL    HW2 7686   2.780   1.767   3.350
 2263SOL     OW 7687   0.822   4.372   5.511
 2263SOL    HW1 7688   0.815   4.273   5.516
 2263SOL    HW2 7689   0.781   4.403   5.425
 2264SOL     OW 7690   3.587   3.514   3.874
 2264SOL    HW1 7691   3.659   3.463   3.827
 2264SOL    HW2 7692   3.593   3.611   3.850
 2265SOL     OW 7693   1.133   5.907   4.504
 2265SOL    HW1 7694   1.079   5.985   4.473
 2265SOL    HW2 7695   1.228   5.935   4.517
 2266SOL     OW 7696   6.885   0.631   5.368
 2266SOL    HW1 7697   6.904   0.697   5.295
 2266SOL    HW2 7698   6.825   0.673   5.436
 2267SOL     OW 7699   5.909   1.863   5.396
 2267SOL    HW1 7700   5.816   1.891   5.418
 2267SOL    HW2 7701   5.908   1.771   5.358
 2268SOL     OW 7702   0.481   6.414   0.667
 2268SOL    HW1 7703   0.472   6.318   0.643
 2268SOL    HW2 7704   0.411   6.439   0.734
 2269SOL     OW 7705   6.856   6.349   2.898
 2269SOL    HW1 7706   6.764   6.319   2.923
 2269SOL    HW2 7707   6.873   6.440   2.935
 2270SOL     OW 7708   3.367   2.931   3.351
 2270SOL    HW1 7709   3.301   2.885   3.292
 2270SOL    HW2 7710   3.458   2.927   3.309
 2271SOL     OW 7711   1.959   4.472   2.954
 2271SOL    HW1 7712   1.933   4.468   3.051
 2271SOL    HW2 7713   1.907   4.403   2.903
 2272SOL     OW 7714   4.858   0.754   5.788
 2272SOL    HW1 7715   4.953   0.777   5.806
 2272SOL    HW2 7716   4.806   0.837   5.772
 2273SOL     OW 7717   0.298   1.334   2.163
 2273SOL    HW1 7718   0.359   1.406   2.196
 2273SOL    HW2 7719   0.346   1.246   2.165
 2274SOL     OW 7720   0.194   4.666   3.331
 2274SOL    HW1 7721   0.161   4.691   3.421
 2274SOL    HW2 7722   0.155   4.727   3.262
 2275SOL     OW 7723   4.533   6.734   3.127
 2275SOL    HW1 7724   4.587   6.705   3.048
 2275SOL    HW2 7725   4.507   6.653   3.180
 2276SOL     OW 7726   3.446   6.221   2.475
 2276SOL    HW1 7727   3.353   6.230   2.510
 2276SOL    HW2 7728   3.495   6.307   2.486
 2277SOL     OW 7729   3.118   3.399   2.291
 2277SOL    HW1 7730   3.104   3.491   2.255
 2277SOL    HW2 7731   3.092   3.396   2.387
 2278SOL     OW 7732   4.085   4.986   1.404
 2278SOL    HW1 7733   4.104   4.907   1.345
 2278SOL    HW2 7734   4.100   5.070   1.352
 2279SOL     OW 7735   5.977   3.611   5.317
 2279SOL    HW1 7736   5.978   3.697   5.368
 2279SOL    HW2 7737   6.045   3.614   5.244
 2280SOL     OW 7738   5.955   0.532   6.017
 2280SOL    HW1 7739   5.942   0.602   5.947
 2280SOL    HW2 7740   5.869   0.517   6.066
 2281SOL     OW 7741   2.507   0.537   0.800
 2281SOL    HW1 7742   2.555   0.459   0.841
 2281SOL    HW2 7743   2.464   0.509   0.714
 2282SOL     OW 7744   3.862   6.753   2.594
 2282SOL    HW1 7745   3.811   6.805   2.526
 2282SOL    HW2 7746   3.923   6.688   2.548
 2283SOL     OW 7747   0.456   3.276   1.413
 2283SOL    HW1 7748   0.462   3.340   1.490
 2283SOL    HW2 7749   0.528   3.297   1.347
 2284SOL     OW 7750   2.295   3.351   0.970
 2284SOL    HW1 7751   2.295   3.334   0.871
 2284SOL    HW2 7752   2.250   3.276   1.017
 2285SOL     OW 7753   1.910   2.333   0.046
 2285SOL    HW1 7754   1.909   2.234   0.030
 2285SOL    HW2 7755   1.947   2.379   6.991
 2286SOL     OW 7756   6.253   6.521   3.816
 2286SOL    HW1 7757   6.293   6.467   3.891
 2286SOL    HW2 7758   6.160   6.547   3.840
 2287SOL     OW 7759   2.837   1.524   0.505
 2287SOL    HW1 7760   2.753   1.572   0.527
 2287SOL    HW2 7761   2.823   1.465   0.426
 2288SOL     OW 7762   2.386   5.868   4.523
 2288SOL    HW1 7763   2.340   5.852   4.610
 2288SOL    HW2 7764   2.484   5.878   4.539
 2289SOL     OW 7765   3.641   6.749   6.404
 2289SOL    HW1 7766   3.702   6.679   6.365
 2289SOL    HW2 7767   3.658   6.837   6.360
 2290SOL     OW 7768   2.761   3.413   5.235
 2290SOL    HW1 7769   2.743   3.459   5.323
 2290SOL    HW2 7770   2.804   3.478   5.173
 2291SOL     OW 7771   3.222   1.888   0.640
 2291SOL    HW1 7772   3.309   1.869   0.687
 2291SOL    HW2 7773   3.185   1.803   0.604
 2292SOL     OW 7774   5.411   2.363   3.014
 2292SOL    HW1 7775   5.362   2.286   2.972
 2292SOL    HW2 7776   5.359   2.397   3.092
 2293SOL     OW 7777   0.476   0.795   0.223
 2293SOL    HW1 7778   0.555   0.856   0.219
 2293SOL    HW2 7779   0.496   0.718   0.283
 2294SOL     OW 7780   6.293   2.732   5.356
 2294SOL    HW1 7781   6.325   2.686   5.274
 2294SOL    HW2 7782   6.367   2.786   5.395
 2295SOL     OW 7783   5.783   5.841   0.446
 2295SOL    HW1 7784   5.795   5.748   0.480
 2295SOL    HW2 7785   5.867   5.893   0.462
 2296SOL     OW 7786   3.881   5.560   3.965
 2296SOL    HW1 7787   3.891   5.656   3.989
 2296SOL    HW2 7788   3.850   5.552   3.870
 2297SOL     OW 7789   6.453   2.847   6.979
 2297SOL    HW1 7790   6.516   2.913   7.020
 2297SOL    HW2 7791   6.498   2.800   6.903
 2298SOL     OW 7792   2.620   3.994   5.329
 2298SOL    HW1 7793   2.543   3.965   5.272
 2298SOL    HW2 7794   2.614   4.092   5.346
 2299SOL     OW 7795   5.976   3.630   4.744
 2299SOL    HW1 7796   5.878   3.650   4.754
 2299SOL    HW2 7797   6.003   3.648   4.649
 2300SOL     OW 7798   4.360   0.320   3.261
 2300SOL    HW1 7799   4.444   0.331   3.208
 2300SOL    HW2 7800   4.307   0.243   3.224
 2301SOL     OW 7801   4.024   2.929   5.473
 2301SOL    HW1 7802   4.043   3.018   5.431
 2301SOL    HW2 7803   4.082   2.859   5.431
 2302SOL     OW 7804   0.040   3.195   5.465
 2302SOL    HW1 7805   0.087   3.172   5.379
 2302SOL    HW2 7806   0.090   3.155   5.542
 2303SOL     OW 7807   2.828   1.496   6.348
 2303SOL    HW1 7808   2.862   1.488   6.441
 2303SOL    HW2 7809   2.897   1.460   6.284
 2304SOL     OW 7810   4.638   6.731   2.620
 2304SOL    HW1 7811   4.711   6.671   2.588
 2304SOL    HW2 7812   4.628   6.722   2.719
 2305SOL     OW 7813   2.757   6.065   4.913
 2305SOL    HW1 7814   2.782   6.063   4.816
 2305SOL    HW2 7815   2.836   6.037   4.968
 2306SOL     OW 7816   1.317   4.568   5.166
 2306SOL    HW1 7817   1.330   4.520   5.252
 2306SOL    HW2 7818   1.246   4.637   5.176
 2307SOL     OW 7819   5.996   3.747   5.008
 2307SOL    HW1 7820   5.953   3.657   4.999
 2307SOL    HW2 7821   6.063   3.760   4.935
 2308SOL     OW 7822   1.037   6.080   2.090
 2308SOL    HW1 7823   0.979   6.140   2.035
 2308SOL    HW2 7824   1.130   6.117   2.093
 2309SOL     OW 7825   1.599   1.260   4.444
 2309SOL    HW1 7826   1.626   1.281   4.350
 2309SOL    HW2 7827   1.656   1.186   4.480
 2310SOL     OW 7828   5.423   6.131   0.267
 2310SOL    HW1 7829   5.454   6.038   0.248
 2310SOL    HW2 7830   5.339   6.149   0.217
 2311SOL     OW 7831   2.688   5.792   0.640
 2311SOL    HW1 7832   2.645   5.750   0.720
 2311SOL    HW2 7833   2.695   5.891   0.653
 2312SOL     OW 7834   2.596   4.528   2.706
 2312SOL    HW1 7835   2.604   4.550   2.608
 2312SOL    HW2 7836   2.535   4.450   2.718
 2313SOL     OW 7837   4.935   4.943   0.735
 2313SOL    HW1 7838   5.001   4.923   0.808
 2313SOL    HW2 7839   4.882   4.861   0.716
 2314SOL     OW 7840   2.475   4.567   2.945
 2314SOL    HW1 7841   2.378   4.563   2.920
 2314SOL    HW2 7842   2.531   4.544   2.866
 2315SOL     OW 7843   4.239   1.721   6.682
 2315SOL    HW1 7844   4.263   1.810   6.642
 2315SOL    HW2 7845   4.161   1.733   6.743
 2316SOL     OW 7846   5.241   3.680   1.175
 2316SOL    HW1 7847   5.303   3.654   1.102
 2316SOL    HW2 7848   5.232   3.604   1.240
 2317SOL     OW 7849   0.408   6.688   3.285
 2317SOL    HW1 7850   0.444   6.701   3.378
 2317SOL    HW2 7851   0.414   6.591   3.261
 2318SOL     OW 7852   6.906   1.713   3.417
 2318SOL    HW1 7853   6.988   1.684   3.467
 2318SOL    HW2 7854   6.886   1.647   3.345
 2319SOL     OW 7855   1.279   5.189   2.655
 2319SOL    HW1 7856   1.215   5.211   2.582
 2319SOL    HW2 7857   1.339   5.267   2.672
 2320SOL     OW 7858   6.489   4.693   3.741
 2320SOL    HW1 7859   6.415   4.685   3.674
 2320SOL    HW2 7860   6.481   4.620   3.809
 2321SOL     OW 7861   3.297   4.888   3.871
 2321SOL    HW1 7862   3.269   4.898   3.967
 2321SOL    HW2 7863   3.241   4.817   3.828
 2322SOL     OW 7864   2.348   1.361   4.443
 2322SOL    HW1 7865   2.433   1.339   4.491
 2322SOL    HW2 7866   2.333   1.460   4.446
 2323SOL     OW 7867   5.294   3.396   1.726
 2323SOL    HW1 7868   5.252   3.374   1.814
 2323SOL    HW2 7869   5.262   3.332   1.656
 2324SOL     OW 7870   0.125   5.332   4.151
 2324SOL    HW1 7871   0.203   5.284   4.190
 2324SOL    HW2 7872   0.093   5.402   4.214
 2325SOL     OW 7873   6.098   1.755   0.754
 2325SOL    HW1 7874   6.030   1.686   0.778
 2325SOL    HW2 7875   6.053   1.843   0.740
 2326SOL     OW 7876   0.628   5.245   0.573
 2326SOL    HW1 7877   0.669   5.322   0.621
 2326SOL    HW2 7878   0.695   5.172   0.564
 2327SOL     OW 7879   4.789   1.343   3.289
 2327SOL    HW1 7880   4.832   1.333   3.379
 2327SOL    HW2 7881   4.740   1.259   3.266
 2328SOL     OW 7882   6.303   4.956   3.977
 2328SOL    HW1 7883   6.389   4.925   3.937
 2328SOL    HW2 7884   6.250   5.006   3.908
 2329SOL     OW 7885   1.390   6.374   3.276
 2329SOL    HW1 7886   1.403   6.391   3.178
 2329SOL    HW2 7887   1.474   6.397   3.325
 2330SOL     OW 7888   1.116   4.440   0.287
 2330SOL    HW1 7889   1.201   4.455   0.338
 2330SOL    HW2 7890   1.127   4.362   0.225
 2331SOL     OW 7891   1.762   5.020   4.814
 2331SOL    HW1 7892   1.790   5.116   4.818
 2331SOL    HW2 7893   1.780   4.976   4.902
 2332SOL     OW 7894   6.668   3.295   6.192
 2332SOL    HW1 7895   6.731   3.326   6.263
 2332SOL    HW2 7896   6.579   3.339   6.205
 2333SOL     OW 7897   2.590   4.734   4.134
 2333SOL    HW1 7898   2.614   4.663   4.068
 2333SOL    HW2 7899   2.543   4.809   4.087
 2334SOL     OW 7900   2.836   6.967   5.373
 2334SOL    HW1 7901   2.927   6.978   5.414
 2334SOL    HW2 7902   2.768   7.009   5.433
 2335SOL     OW 7903   4.467   4.615   4.437
 2335SOL    HW1 7904   4.470   4.635   4.339
 2335SOL    HW2 7905   4.456   4.701   4.488
 2336SOL     OW 7906   4.835   1.473   5.824
 2336SOL    HW1 7907   4.880   1.524   5.750
 2336SOL    HW2 7908   4.777   1.402   5.784
 2337SOL     OW 7909   5.566   0.431   5.003
 2337SOL    HW1 7910   5.660   0.465   4.993
 2337SOL    HW2 7911   5.561   0.369   5.081
 2338SOL     OW 7912   1.301   6.850   6.876
 2338SOL    HW1 7913   1.271   6.945   6.885
 2338SOL    HW2 7914   1.288   6.803   6.963
 2339SOL     OW 7915   3.722   4.889   6.598
 2339SOL    HW1 7916   3.762   4.980   6.600
 2339SOL    HW2 7917   3.753   4.841   6.516
 2340SOL     OW 7918   4.153   5.019   3.731
 2340SOL    HW1 7919   4.250   5.005   3.750
 2340SOL    HW2 7920   4.117   5.089   3.792
 2341SOL     OW 7921   0.091   4.272   6.203
 2341SOL    HW1 7922   0.074   4.212   6.124
 2341SOL    HW2 7923   0.035   4.355   6.194
 2342SOL     OW 7924   6.136   1.257   5.931
 2342SOL    HW1 7925   6.076   1.334   5.912
 2342SOL    HW2 7926   6.087   1.189   5.984
 2343SOL     OW 7927   1.595   5.796   1.126
 2343SOL    HW1 7928   1.607   5.699   1.147
 2343SOL    HW2 7929   1.647   5.851   1.191
 2344SOL     OW 7930   2.338   1.030   2.624
 2344SOL    HW1 7931   2.307   1.124   2.637
 2344SOL    HW2 7932   2.285   0.987   2.550
 2345SOL     OW 7933   1.240   2.411   2.409
 2345SOL    HW1 7934   1.240   2.314   2.383
 2345SOL    HW2 7935   1.204   2.465   2.333
 2346SOL     OW 7936   4.941   3.304   4.893
 2346SOL    HW1 7937   4.929   3.353   4.807
 2346SOL    HW2 7938   4.989   3.363   4.958
 2347SOL     OW 7939   1.090   4.276   0.658
 2347SOL    HW1 7940   1.189   4.284   0.671
 2347SOL    HW2 7941   1.070   4.191   0.609
 2348SOL     OW 7942   2.696   0.315   1.210
 2348SOL    HW1 7943   2.787   0.274   1.203
 2348SOL    HW2 7944   2.703   0.404   1.255
 2349SOL     OW 7945   5.329   3.353   6.767
 2349SOL    HW1 7946   5.270   3.432   6.748
 2349SOL    HW2 7947   5.329   3.335   6.865
 2350SOL     OW 7948   1.793   6.196   5.499
 2350SOL    HW1 7949   1.859   6.135   5.543
 2350SOL    HW2 7950   1.734   6.144   5.438
 2351SOL     OW 7951   1.729   5.022   3.346
 2351SOL    HW1 7952   1.683   5.007   3.434
 2351SOL    HW2 7953   1.670   4.993   3.272
 2352SOL     OW 7954   6.133   5.935   6.645
 2352SOL    HW1 7955   6.102   5.874   6.718
 2352SOL    HW2 7956   6.229   5.918   6.626
 2353SOL     OW 7957   3.219   2.376   5.753
 2353SOL    HW1 7958   3.169   2.322   5.686
 2353SOL    HW2 7959   3.166   2.458   5.776
 2354SOL     OW 7960   3.633   1.446   2.636
 2354SOL    HW1 7961   3.546   1.418   2.594
 2354SOL    HW2 7962   3.705   1.448   2.566
 2355SOL     OW 7963   0.097   1.462   2.299
 2355SOL    HW1 7964   0.171   1.417   2.249
 2355SOL    HW2 7965   0.023   1.484   2.236
 2356SOL     OW 7966   3.806   5.216   4.295
 2356SOL    HW1 7967   3.885   5.188   4.240
 2356SOL    HW2 7968   3.802   5.161   4.378
 2357SOL     OW 7969   1.352   5.422   1.552
 2357SOL    HW1 7970   1.331   5.500   1.494
 2357SOL    HW2 7971   1.417   5.449   1.623
 2358SOL     OW 7972   2.010   0.202   5.317
 2358SOL    HW1 7973   2.110   0.203   5.308
 2358SOL    HW2 7974   1.986   0.223   5.412
 2359SOL     OW 7975   2.570   2.275   5.826
 2359SOL    HW1 7976   2.493   2.254   5.766
 2359SOL    HW2 7977   2.654   2.240   5.784
 2360SOL     OW 7978   3.256   5.236   0.987
 2360SOL    HW1 7979   3.182   5.184   1.029
 2360SOL    HW2 7980   3.259   5.216   0.889
 2361SOL     OW 7981   3.647   5.141   1.406
 2361SOL    HW1 7982   3.618   5.117   1.313
 2361SOL    HW2 7983   3.659   5.240   1.413
 2362SOL     OW 7984   2.940   4.846   4.448
 2362SOL    HW1 7985   2.926   4.831   4.546
 2362SOL    HW2 7986   2.905   4.767   4.397
 2363SOL     OW 7987   2.236   4.186   1.129
 2363SOL    HW1 7988   2.255   4.088   1.126
 2363SOL    HW2 7989   2.267   4.223   1.217
 2364SOL     OW 7990   4.871   0.827   2.160
 2364SOL    HW1 7991   4.822   0.772   2.228
 2364SOL    HW2 7992   4.883   0.774   2.076
 2365SOL     OW 7993   5.434   4.593   3.304
 2365SOL    HW1 7994   5.518   4.543   3.325
 2365SOL    HW2 7995   5.355   4.534   3.319
 2366SOL     OW 7996   3.361   4.877   4.995
 2366SOL    HW1 7997   3.412   4.825   5.064
 2366SOL    HW2 7998   3.263   4.858   5.005
 2367SOL     OW 7999   6.297   4.958   5.343
 2367SOL    HW1 8000   6.273   4.925   5.434
 2367SOL    HW2 8001   6.354   4.889   5.298
 2368SOL     OW 8002   5.033   0.089   5.192
 2368SOL    HW1 8003   5.095   0.056   5.121
 2368SOL    HW2 8004   5.011   0.186   5.176
 2369SOL     OW 8005   4.064   1.814   4.377
 2369SOL    HW1 8006   4.108   1.867   4.304
 2369SOL    HW2 8007   4.134   1.773   4.435
 2370SOL     OW 8008   4.025   2.242   1.414
 2370SOL    HW1 8009   4.018   2.287   1.325
 2370SOL    HW2 8010   4.009   2.309   1.486
 2371SOL     OW 8011   2.401   6.738   2.285
 2371SOL    HW1 8012   2.337   6.677   2.238
 2371SOL    HW2 8013   2.396   6.722   2.383
 2372SOL     OW 8014   6.572   6.588   5.425
 2372SOL    HW1 8015   6.571   6.488   5.416
 2372SOL    HW2 8016   6.480   6.623   5.408
 2373SOL     OW 8017   6.495   4.152   6.012
 2373SOL    HW1 8018   6.574   4.145   6.072
 2373SOL    HW2 8019   6.504   4.086   5.937
 2374SOL     OW 8020   6.910   6.085   2.446
 2374SOL    HW1 8021   6.954   6.055   2.362
 2374SOL    HW2 8022   6.979   6.115   2.512
 2375SOL     OW 8023   1.517   0.346   4.582
 2375SOL    HW1 8024   1.467   0.431   4.567
 2375SOL    HW2 8025   1.596   0.363   4.641
 2376SOL     OW 8026   5.420   3.130   3.906
 2376SOL    HW1 8027   5.403   3.034   3.882
 2376SOL    HW2 8028   5.518   3.148   3.901
 2377SOL     OW 8029   3.539   4.224   5.877
 2377SOL    HW1 8030   3.553   4.322   5.870
 2377SOL    HW2 8031   3.443   4.205   5.896
 2378SOL     OW 8032   1.126   1.123   0.794
 2378SOL    HW1 8033   1.079   1.064   0.859
 2378SOL    HW2 8034   1.144   1.212   0.837
 2379SOL     OW 8035   0.758   4.683   2.399
 2379SOL    HW1 8036   0.695   4.623   2.351
 2379SOL    HW2 8037   0.850   4.643   2.397
 2380SOL     OW 8038   4.386   5.314   6.596
 2380SOL    HW1 8039   4.363   5.389   6.534
 2380SOL    HW2 8040   4.390   5.348   6.690
 2381SOL     OW 8041   1.963   3.835   3.603
 2381SOL    HW1 8042   2.040   3.875   3.652
 2381SOL    HW2 8043   1.920   3.904   3.545
 2382SOL     OW 8044   6.508   6.209   2.680
 2382SOL    HW1 8045   6.459   6.124   2.661
 2382SOL    HW2 8046   6.539   6.250   2.594
 2383SOL     OW 8047   5.151   4.444   6.210
 2383SOL    HW1 8048   5.190   4.497   6.135
 2383SOL    HW2 8049   5.051   4.447   6.205
 2384SOL     OW 8050   0.811   2.383   3.268
 2384SOL    HW1 8051   0.794   2.307   3.205
 2384SOL    HW2 8052   0.899   2.369   3.315
 2385SOL     OW 8053   0.341   1.148   1.014
 2385SOL    HW1 8054   0.383   1.176   0.928
 2385SOL    HW2 8055   0.347   1.048   1.023
 2386SOL     OW 8056   6.746   5.094   5.661
 2386SOL    HW1 8057   6.831   5.056   5.698
 2386SOL    HW2 8058   6.668   5.044   5.698
 2387SOL     OW 8059   0.180   0.521   3.445
 2387SOL    HW1 8060   0.159   0.478   3.357
 2387SOL    HW2 8061   0.095   0.554   3.487
 2388SOL     OW 8062   1.405   3.786   4.344
 2388SOL    HW1 8063   1.505   3.785   4.338
 2388SOL    HW2 8064   1.377   3.860   4.405
 2389SOL     OW 8065   3.344   6.872   3.079
 2389SOL    HW1 8066   3.323   6.785   3.124
 2389SOL    HW2 8067   3.331   6.947   3.144
 2390SOL     OW 8068   5.143   2.916   5.712
 2390SOL    HW1 8069   5.184   2.901   5.802
 2390SOL    HW2 8070   5.154   3.012   5.685
 2391SOL     OW 8071   2.668   3.891   6.373
 2391SOL    HW1 8072   2.590   3.901   6.434
 2391SOL    HW2 8073   2.750   3.929   6.416
 2392SOL     OW 8074   3.915   5.252   5.873
 2392SOL    HW1 8075   3.870   5.290   5.953
 2392SOL    HW2 8076   3.855   5.183   5.831
 2393SOL     OW 8077   4.189   4.130   0.288
 2393SOL    HW1 8078   4.269   4.179   0.321
 2393SOL    HW2 8079   4.217   4.042   0.248
 2394SOL     OW 8080   6.905   2.689   3.311
 2394SOL    HW1 8081   6.947   2.599   3.321
 2394SOL    HW2 8082   6.855   2.693   3.224
 2395SOL     OW 8083   1.489   2.439   3.682
 2395SOL    HW1 8084   1.535   2.437   3.771
 2395SOL    HW2 8085   1.408   2.497   3.687
 2396SOL     OW 8086   0.602   0.349   6.551
 2396SOL    HW1 8087   0.658   0.274   6.584
 2396SOL    HW2 8088   0.508   0.317   6.537
 2397SOL     OW 8089   2.267   5.017   6.078
 2397SOL    HW1 8090   2.352   5.069   6.085
 2397SOL    HW2 8091   2.232   5.022   5.984
 2398SOL     OW 8092   3.868   6.238   4.580
 2398SOL    HW1 8093   3.929   6.316   4.595
 2398SOL    HW2 8094   3.832   6.240   4.487
 2399SOL     OW 8095   3.137   1.403   2.384
 2399SOL    HW1 8096   3.058   1.343   2.374
 2399SOL    HW2 8097   3.190   1.404   2.299
 2400SOL     OW 8098   1.136   2.354   0.192
 2400SOL    HW1 8099   1.122   2.263   0.232
 2400SOL    HW2 8100   1.049   2.404   0.193
 2401SOL     OW 8101   1.568   6.332   0.540
 2401SOL    HW1 8102   1.547   6.234   0.539
 2401SOL    HW2 8103   1.638   6.350   0.609
 2402SOL     OW 8104   0.883   3.616   2.522
 2402SOL    HW1 8105   0.952   3.673   2.565
 2402SOL    HW2 8106   0.802   3.610   2.581
 2403SOL     OW 8107   3.136   4.423   5.293
 2403SOL    HW1 8108   3.050   4.458   5.256
 2403SOL    HW2 8109   3.137   4.324   5.287
 2404SOL     OW 8110   6.399   2.077   2.022
 2404SOL    HW1 8111   6.467   2.064   2.094
 2404SOL    HW2 8112   6.391   1.993   1.968
 2405SOL     OW 8113   1.935   2.884   0.670
 2405SOL    HW1 8114   1.967   2.875   0.575
 2405SOL    HW2 8115   1.844   2.844   0.678
 2406SOL     OW 8116   4.382   5.707   4.704
 2406SOL    HW1 8117   4.377   5.640   4.778
 2406SOL    HW2 8118   4.469   5.756   4.709
 2407SOL     OW 8119   2.226   1.863   3.736
 2407SOL    HW1 8120   2.152   1.928   3.755
 2407SOL    HW2 8121   2.247   1.865   3.638
 2408SOL     OW 8122   4.573   0.263   5.548
 2408SOL    HW1 8123   4.522   0.269   5.463
 2408SOL    HW2 8124   4.574   0.352   5.593
 2409SOL     OW 8125   0.834   2.936   6.900
 2409SOL    HW1 8126   0.893   2.855   6.899
 2409SOL    HW2 8127   0.884   3.014   6.863
 2410SOL     OW 8128   6.998   3.709   4.379
 2410SOL    HW1 8129   0.066   3.748   4.374
 2410SOL    HW2 8130   6.957   3.710   4.288
 2411SOL     OW 8131   3.407   1.077   0.017
 2411SOL    HW1 8132   3.367   0.994   0.056
 2411SOL    HW2 8133   3.491   1.101   0.067
 2412SOL     OW 8134   2.991   2.362   6.589
 2412SOL    HW1 8135   2.920   2.378   6.521
 2412SOL    HW2 8136   3.025   2.449   6.624
 2413SOL     OW 8137   6.727   3.862   6.511
 2413SOL    HW1 8138   6.778   3.776   6.512
 2413SOL    HW2 8139   6.710   3.892   6.605
 2414SOL     OW 8140   6.719   1.519   4.759
 2414SOL    HW1 8141   6.691   1.535   4.854
 2414SOL    HW2 8142   6.672   1.584   4.699
 2415SOL     OW 8143   2.884   3.932   5.914
 2415SOL    HW1 8144   2.871   4.029   5.892
 2415SOL    HW2 8145   2.814   3.903   5.979
 2416SOL     OW 8146   6.878   3.404   4.107
 2416SOL    HW1 8147   6.905   3.407   4.204
 2416SOL    HW2 8148   6.950   3.360   4.054
 2417SOL     OW 8149   3.549   2.620   1.784
 2417SOL    HW1 8150   3.596   2.697   1.828
 2417SOL    HW2 8151   3.568   2.536   1.835
 2418SOL     OW 8152   6.053   3.651   6.618
 2418SOL    HW1 8153   6.055   3.727   6.684
 2418SOL    HW2 8154   5.958   3.630   6.595
 2419SOL     OW 8155   3.413   1.023   2.816
 2419SOL    HW1 8156   3.354   1.017   2.736
 2419SOL    HW2 8157   3.488   1.087   2.797
 2420SOL     OW 8158   1.077   3.372   1.846
 2420SOL    HW1 8159   1.071   3.333   1.937
 2420SOL    HW2 8160   1.012   3.447   1.837
 2421SOL     OW 8161   2.360   7.012   2.668
 2421SOL    HW1 8162   2.282   0.051   2.665
 2421SOL    HW2 8163   2.424   0.017   2.739
 2422SOL     OW 8164   3.788   6.705   0.331
 2422SOL    HW1 8165   3.821   6.796   0.309
 2422SOL    HW2 8166   3.702   6.711   0.381
 2423SOL     OW 8167   3.847   4.917   4.667
 2423SOL    HW1 8168   3.779   4.845   4.677
 2423SOL    HW2 8169   3.802   5.004   4.649
 2424SOL     OW 8170   5.208   0.030   6.391
 2424SOL    HW1 8171   5.217   0.062   6.485
 2424SOL    HW2 8172   5.183   6.957   6.392
 2425SOL     OW 8173   4.064   5.571   5.297
 2425SOL    HW1 8174   4.125   5.492   5.305
 2425SOL    HW2 8175   3.998   5.570   5.372
 2426SOL     OW 8176   2.919   2.392   5.306
 2426SOL    HW1 8177   2.907   2.491   5.310
 2426SOL    HW2 8178   2.976   2.369   5.227
 2427SOL     OW 8179   4.363   1.930   7.000
 2427SOL    HW1 8180   4.310   1.862   0.028
 2427SOL    HW2 8181   4.351   2.020   0.017
 2428SOL     OW 8182   1.762   1.929   2.573
 2428SOL    HW1 8183   1.858   1.953   2.568
 2428SOL    HW2 8184   1.735   1.919   2.669
 2429SOL     OW 8185   5.127   6.212   1.173
 2429SOL    HW1 8186   5.059   6.171   1.234
 2429SOL    HW2 8187   5.187   6.272   1.226
 2430SOL     OW 8188   6.920   0.251   6.881
 2430SOL    HW1 8189   6.918   0.311   6.800
 2430SOL    HW2 8190   6.827   0.236   6.914
 2431SOL     OW 8191   1.767   3.034   1.731
 2431SOL    HW1 8192   1.867   3.034   1.727
 2431SOL    HW2 8193   1.731   2.948   1.694
 2432SOL     OW 8194   3.209   5.993   2.100
 2432SOL    HW1 8195   3.157   6.068   2.057
 2432SOL    HW2 8196   3.235   5.927   2.030
 2433SOL     OW 8197   7.009   4.692   4.204
 2433SOL    HW1 8198   7.022   4.784   4.169
 2433SOL    HW2 8199   0.059   4.633   4.173
 2434SOL     OW 8200   3.907   1.838   2.719
 2434SOL    HW1 8201   3.989   1.896   2.720
 2434SOL    HW2 8202   3.842   1.873   2.651
 2435SOL     OW 8203   5.809   6.943   6.732
 2435SOL    HW1 8204   5.742   7.016   6.728
 2435SOL    HW2 8205   5.887   6.972   6.788
 2436SOL     OW 8206   6.971   2.553   0.793
 2436SOL    HW1 8207   0.032   2.532   0.842
 2436SOL    HW2 8208   6.914   2.471   0.789
 2437SOL     OW 8209   1.157   4.249   1.525
 2437SOL    HW1 8210   1.149   4.323   1.593
 2437SOL    HW2 8211   1.241   4.261   1.473
 2438SOL     OW 8212   3.654   1.823   4.476
 2438SOL    HW1 8213   3.639   1.814   4.377
 2438SOL    HW2 8214   3.664   1.732   4.516
 2439SOL     OW 8215   0.008   5.908   0.182
 2439SOL    HW1 8216   0.031   5.979   0.116
 2439SOL    HW2 8217   6.934   5.891   0.181
 2440SOL     OW 8218   6.074   2.410   5.521
 2440SOL    HW1 8219   6.075   2.498   5.474
 2440SOL    HW2 8220   5.988   2.362   5.501
 2441SOL     OW 8221   6.320   0.620   6.782
 2441SOL    HW1 8222   6.272   0.701   6.816
 2441SOL    HW2 8223   6.274   0.587   6.699
 2442SOL     OW 8224   5.333   3.125   2.939
 2442SOL    HW1 8225   5.401   3.162   2.875
 2442SOL    HW2 8226   5.242   3.137   2.900
 2443SOL     OW 8227   0.159   2.841   1.744
 2443SOL    HW1 8228   0.138   2.780   1.668
 2443SOL    HW2 8229   0.254   2.828   1.772
 2444SOL     OW 8230   3.610   4.910   2.802
 2444SOL    HW1 8231   3.582   4.965   2.879
 2444SOL    HW2 8232   3.530   4.884   2.748
 2445SOL     OW 8233   0.541   1.893   0.792
 2445SOL    HW1 8234   0.504   1.886   0.699
 2445SOL    HW2 8235   0.635   1.859   0.794
 2446SOL     OW 8236   6.464   5.944   0.964
 2446SOL    HW1 8237   6.526   5.865   0.961
 2446SOL    HW2 8238   6.476   5.998   0.881
 2447SOL     OW 8239   1.836   6.690   0.523
 2447SOL    HW1 8240   1.740   6.685   0.494
 2447SOL    HW2 8241   1.890   6.730   0.449
 2448SOL     OW 8242   5.807   0.836   4.108
 2448SOL    HW1 8243   5.733   0.892   4.072
 2448SOL    HW2 8244   5.797   0.827   4.207
 2449SOL     OW 8245   2.304   4.126   1.428
 2449SOL    HW1 8246   2.361   4.048   1.402
 2449SOL    HW2 8247   2.211   4.095   1.447
 2450SOL     OW 8248   0.151   6.606   5.223
 2450SOL    HW1 8249   0.127   6.510   5.211
 2450SOL    HW2 8250   0.139   6.654   5.136
 2451SOL     OW 8251   1.343   0.098   0.034
 2451SOL    HW1 8252   1.420   0.153   0.066
 2451SOL    HW2 8253   1.304   0.047   0.110
 2452SOL     OW 8254   2.304   2.088   3.459
 2452SOL    HW1 8255   2.312   1.989   3.467
 2452SOL    HW2 8256   2.212   2.111   3.426
 2453SOL     OW 8257   1.454   1.926   6.514
 2453SOL    HW1 8258   1.541   1.894   6.476
 2453SOL    HW2 8259   1.387   1.935   6.440
 2454SOL     OW 8260   3.121   6.739   6.975
 2454SOL    HW1 8261   3.079   6.781   6.894
 2454SOL    HW2 8262   3.201   6.686   6.946
 2455SOL     OW 8263   4.543   2.526   7.023
 2455SOL    HW1 8264   4.579   2.562   0.085
 2455SOL    HW2 8265   4.447   2.503   0.010
 2456SOL     OW 8266   0.584   3.360   5.816
 2456SOL    HW1 8267   0.508   3.394   5.870
 2456SOL    HW2 8268   0.553   3.343   5.722
 2457SOL     OW 8269   5.209   1.249   6.131
 2457SOL    HW1 8270   5.239   1.206   6.046
 2457SOL    HW2 8271   5.114   1.278   6.122
 2458SOL     OW 8272   0.961   0.323   2.320
 2458SOL    HW1 8273   0.964   0.327   2.220
 2458SOL    HW2 8274   0.866   0.316   2.350
 2459SOL     OW 8275   1.598   6.487   1.381
 2459SOL    HW1 8276   1.658   6.442   1.315
 2459SOL    HW2 8277   1.618   6.453   1.473
 2460SOL     OW 8278   0.266   0.203   3.882
 2460SOL    HW1 8279   0.187   0.203   3.822
 2460SOL    HW2 8280   0.235   0.205   3.977
 2461SOL     OW 8281   2.885   1.201   3.207
 2461SOL    HW1 8282   2.831   1.179   3.288
 2461SOL    HW2 8283   2.831   1.258   3.145
 2462SOL     OW 8284   0.018   6.336   1.034
 2462SOL    HW1 8285   6.978   6.345   1.109
 2462SOL    HW2 8286   0.014   6.417   0.975
 2463SOL     OW 8287   0.201   6.996   1.053
 2463SOL    HW1 8288   0.139   7.016   0.977
 2463SOL    HW2 8289   0.156   7.020   1.140
 2464SOL     OW 8290   0.918   2.438   4.814
 2464SOL    HW1 8291   0.891   2.378   4.889
 2464SOL    HW2 8292   0.839   2.457   4.756
 2465SOL     OW 8293   6.355   1.509   6.910
 2465SOL    HW1 8294   6.293   1.442   6.950
 2465SOL    HW2 8295   6.338   1.515   6.811
 2466SOL     OW 8296   0.806   2.283   1.217
 2466SOL    HW1 8297   0.867   2.217   1.174
 2466SOL    HW2 8298   0.711   2.252   1.207
 2467SOL     OW 8299   4.971   2.317   5.424
 2467SOL    HW1 8300   4.975   2.270   5.512
 2467SOL    HW2 8301   4.880   2.307   5.384
 2468SOL     OW 8302   3.179   0.569   5.183
 2468SOL    HW1 8303   3.145   0.511   5.110
 2468SOL    HW2 8304   3.271   0.541   5.208
 2469SOL     OW 8305   2.784   1.709   6.144
 2469SOL    HW1 8306   2.883   1.690   6.145
 2469SOL    HW2 8307   2.745   1.687   6.233
 2470SOL     OW 8308   2.229   5.515   6.581
 2470SOL    HW1 8309   2.169   5.590   6.611
 2470SOL    HW2 8310   2.224   5.440   6.646
 2471SOL     OW 8311   3.393   5.656   3.048
 2471SOL    HW1 8312   3.362   5.677   2.955
 2471SOL    HW2 8313   3.411   5.557   3.055
 2472SOL     OW 8314   4.886   1.996   2.628
 2472SOL    HW1 8315   4.840   1.918   2.587
 2472SOL    HW2 8316   4.830   2.078   2.617
 2473SOL     OW 8317   0.662   4.377   4.373
 2473SOL    HW1 8318   0.704   4.287   4.388
 2473SOL    HW2 8319   0.615   4.377   4.285
 2474SOL     OW 8320   1.672   6.160   0.955
 2474SOL    HW1 8321   1.770   6.151   0.976
 2474SOL    HW2 8322   1.650   6.102   0.877
 2475SOL     OW 8323   5.807   2.497   0.885
 2475SOL    HW1 8324   5.771   2.407   0.860
 2475SOL    HW2 8325   5.907   2.492   0.891
 2476SOL     OW 8326   4.674   0.128   0.330
 2476SOL    HW1 8327   4.683   0.098   0.425
 2476SOL    HW2 8328   4.657   0.226   0.328
 2477SOL     OW 8329   3.844   0.685   3.387
 2477SOL    HW1 8330   3.889   0.717   3.470
 2477SOL    HW2 8331   3.754   0.648   3.409
 2478SOL     OW 8332   3.745   0.487   4.424
 2478SOL    HW1 8333   3.828   0.450   4.465
 2478SOL    HW2 8334   3.693   0.413   4.381
 2479SOL     OW 8335   5.223   3.916   1.317
 2479SOL    HW1 8336   5.230   3.829   1.268
 2479SOL    HW2 8337   5.140   3.964   1.288
 2480SOL     OW 8338   3.301   2.751   1.656
 2480SOL    HW1 8339   3.345   2.819   1.598
 2480SOL    HW2 8340   3.368   2.715   1.721
 2481SOL     OW 8341   2.919   0.235   1.851
 2481SOL    HW1 8342   2.914   0.170   1.775
 2481SOL    HW2 8343   2.921   0.185   1.937
 2482SOL     OW 8344   0.134   2.891   0.087
 2482SOL    HW1 8345   0.197   2.834   0.034
 2482SOL    HW2 8346   0.156   2.884   0.184
 2483SOL     OW 8347   2.783   2.256   1.020
 2483SOL    HW1 8348   2.807   2.182   1.082
 2483SOL    HW2 8349   2.758   2.218   0.931
 2484SOL     OW 8350   4.279   0.370   6.652
 2484SOL    HW1 8351   4.210   0.351   6.581
 2484SOL    HW2 8352   4.278   0.296   6.719
 2485SOL     OW 8353   0.309   1.676   6.412
 2485SOL    HW1 8354   0.305   1.596   6.351
 2485SOL    HW2 8355   0.404   1.700   6.430
 2486SOL     OW 8356   6.878   5.877   3.590
 2486SOL    HW1 8357   6.827   5.795   3.564
 2486SOL    HW2 8358   6.972   5.851   3.612
 2487SOL     OW 8359   5.019   6.134   0.335
 2487SOL    HW1 8360   4.933   6.082   0.328
 2487SOL    HW2 8361   5.011   6.201   0.409
 2488SOL     OW 8362   0.183   4.158   0.941
 2488SOL    HW1 8363   0.156   4.178   0.847
 2488SOL    HW2 8364   0.130   4.081   0.976
 2489SOL     OW 8365   6.242   5.108   4.415
 2489SOL    HW1 8366   6.264   5.188   4.470
 2489SOL    HW2 8367   6.292   5.113   4.328
 2490SOL     OW 8368   2.653   5.518   1.913
 2490SOL    HW1 8369   2.588   5.458   1.867
 2490SOL    HW2 8370   2.606   5.602   1.941
 2491SOL     OW 8371   3.982   4.662   1.703
 2491SOL    HW1 8372   3.965   4.564   1.700
 2491SOL    HW2 8373   4.056   4.685   1.640
 2492SOL     OW 8374   0.166   5.588   1.323
 2492SOL    HW1 8375   0.118   5.502   1.315
 2492SOL    HW2 8376   0.101   5.664   1.316
 2493SOL     OW 8377   5.768   6.384   0.420
 2493SOL    HW1 8378   5.719   6.363   0.335
 2493SOL    HW2 8379   5.728   6.332   0.495
 2494SOL     OW 8380   6.811   4.187   0.851
 2494SOL    HW1 8381   6.829   4.281   0.881
 2494SOL    HW2 8382   6.878   4.161   0.782
 2495SOL     OW 8383   0.044   3.374   2.017
 2495SOL    HW1 8384   7.018   3.459   2.031
 2495SOL    HW2 8385   0.074   3.368   1.922
 2496SOL     OW 8386   5.733   4.708   6.496
 2496SOL    HW1 8387   5.668   4.687   6.423
 2496SOL    HW2 8388   5.733   4.807   6.513
 2497SOL     OW 8389   0.387   7.005   2.605
 2497SOL    HW1 8390   0.309   7.016   2.544
 2497SOL    HW2 8391   0.378   6.921   2.657
 2498SOL     OW 8392   1.813   3.595   4.576
 2498SOL    HW1 8393   1.846   3.575   4.669
 2498SOL    HW2 8394   1.714   3.586   4.574
 2499SOL     OW 8395   5.887   3.710   2.354
 2499SOL    HW1 8396   5.957   3.728   2.284
 2499SOL    HW2 8397   5.819   3.647   2.317
 2500SOL     OW 8398   3.626   3.392   2.306
 2500SOL    HW1 8399   3.557   3.332   2.266
 2500SOL    HW2 8400   3.660   3.455   2.236
 2501SOL     OW 8401   5.829   5.566   5.808
 2501SOL    HW1 8402   5.877   5.510   5.741
 2501SOL    HW2 8403   5.730   5.560   5.793
 2502SOL     OW 8404   2.351   5.914   4.057
 2502SOL    HW1 8405   2.449   5.893   4.057
 2502SOL    HW2 8406   2.329   5.966   4.140
 2503SOL     OW 8407   2.358   0.084   5.088
 2503SOL    HW1 8408   2.441   0.028   5.083
 2503SOL    HW2 8409   2.333   0.114   4.996
 2504SOL     OW 8410   3.817   0.104   3.214
 2504SOL    HW1 8411   3.885   0.172   3.188
 2504SOL    HW2 8412   3.780   0.128   3.304
 2505SOL     OW 8413   6.150   4.313   3.965
 2505SOL    HW1 8414   6.183   4.234   4.017
 2505SOL    HW2 8415   6.097   4.373   4.025
 2506SOL     OW 8416   6.175   4.947   6.365
 2506SOL    HW1 8417   6.222   4.967   6.452
 2506SOL    HW2 8418   6.122   4.862   6.375
 2507SOL     OW 8419   6.488   3.200   2.827
 2507SOL    HW1 8420   6.476   3.130   2.897
 2507SOL    HW2 8421   6.414   3.267   2.834
 2508SOL     OW 8422   6.284   0.741   3.925
 2508SOL    HW1 8423   6.285   0.783   3.834
 2508SOL    HW2 8424   6.190   0.726   3.954
 2509SOL     OW 8425   0.115   3.100   6.272
 2509SOL    HW1 8426   0.171   3.029   6.229
 2509SOL    HW2 8427   0.020   3.089   6.244
 2510SOL     OW 8428   3.597   3.797   2.149
 2510SOL    HW1 8429   3.690   3.821   2.179
 2510SOL    HW2 8430   3.549   3.880   2.122
 2511SOL     OW 8431   1.715   0.751   4.302
 2511SOL    HW1 8432   1.783   0.740   4.229
 2511SOL    HW2 8433   1.761   0.763   4.389
 2512SOL     OW 8434   3.919   4.854   4.038
 2512SOL    HW1 8435   3.820   4.858   4.049
 2512SOL    HW2 8436   3.957   4.947   4.040
 2513SOL     OW 8437   1.865   5.761   6.636
 2513SOL    HW1 8438   1.852   5.786   6.540
 2513SOL    HW2 8439   1.791   5.701   6.665
 2514SOL     OW 8440   1.687   1.827   3.249
 2514SOL    HW1 8441   1.740   1.780   3.178
 2514SOL    HW2 8442   1.744   1.838   3.330
 2515SOL     OW 8443   0.316   1.914   1.160
 2515SOL    HW1 8444   0.239   1.953   1.210
 2515SOL    HW2 8445   0.352   1.981   1.096
 2516SOL     OW 8446   5.971   2.335   5.027
 2516SOL    HW1 8447   5.909   2.269   4.983
 2516SOL    HW2 8448   6.065   2.306   5.014
 2517SOL     OW 8449   0.607   1.325   3.787
 2517SOL    HW1 8450   0.564   1.255   3.844
 2517SOL    HW2 8451   0.539   1.393   3.760
 2518SOL     OW 8452   2.479   3.796   0.813
 2518SOL    HW1 8453   2.522   3.811   0.903
 2518SOL    HW2 8454   2.548   3.765   0.748
 2519SOL     OW 8455   0.976   1.393   1.108
 2519SOL    HW1 8456   0.913   1.366   1.035
 2519SOL    HW2 8457   0.955   1.340   1.190
 2520SOL     OW 8458   2.620   2.673   1.081
 2520SOL    HW1 8459   2.593   2.668   1.177
 2520SOL    HW2 8460   2.557   2.733   1.032
 2521SOL     OW 8461   4.980   0.681   4.951
 2521SOL    HW1 8462   5.053   0.743   4.980
 2521SOL    HW2 8463   5.014   0.587   4.953
 2522SOL     OW 8464   1.221   2.053   6.794
 2522SOL    HW1 8465   1.225   2.018   6.887
 2522SOL    HW2 8466   1.313   2.083   6.766
 2523SOL     OW 8467   0.927   5.579   6.272
 2523SOL    HW1 8468   0.835   5.618   6.269
 2523SOL    HW2 8469   0.935   5.508   6.203
 2524SOL     OW 8470   0.944   1.454   4.465
 2524SOL    HW1 8471   0.933   1.547   4.502
 2524SOL    HW2 8472   0.925   1.456   4.366
 2525SOL     OW 8473   6.080   2.804   6.031
 2525SOL    HW1 8474   6.060   2.830   6.125
 2525SOL    HW2 8475   6.148   2.867   5.993
 2526SOL     OW 8476   1.393   0.687   0.470
 2526SOL    HW1 8477   1.307   0.672   0.519
 2526SOL    HW2 8478   1.390   0.776   0.425
 2527SOL     OW 8479   3.491   5.166   6.639
 2527SOL    HW1 8480   3.435   5.182   6.720
 2527SOL    HW2 8481   3.492   5.068   6.618
 2528SOL     OW 8482   4.367   5.536   6.414
 2528SOL    HW1 8483   4.454   5.577   6.384
 2528SOL    HW2 8484   4.305   5.530   6.336
 2529SOL     OW 8485   0.307   6.315   5.543
 2529SOL    HW1 8486   0.364   6.312   5.624
 2529SOL    HW2 8487   0.362   6.342   5.464
 2530SOL     OW 8488   2.505   6.164   6.878
 2530SOL    HW1 8489   2.413   6.203   6.887
 2530SOL    HW2 8490   2.506   6.073   6.919
 2531SOL     OW 8491   0.125   5.034   6.276
 2531SOL    HW1 8492   0.167   5.001   6.361
 2531SOL    HW2 8493   0.030   5.003   6.271
 2532SOL     OW 8494   5.503   5.507   2.079
 2532SOL    HW1 8495   5.455   5.592   2.055
 2532SOL    HW2 8496   5.546   5.517   2.168
 2533SOL     OW 8497   4.534   1.045   3.841
 2533SOL    HW1 8498   4.488   0.982   3.779
 2533SOL    HW2 8499   4.536   1.136   3.801
 2534SOL     OW 8500   4.028   1.572   2.596
 2534SOL    HW1 8501   3.991   1.660   2.625
 2534SOL    HW2 8502   4.080   1.583   2.511
 2535SOL     OW 8503   3.961   2.948   6.263
 2535SOL    HW1 8504   3.905   2.996   6.331
 2535SOL    HW2 8505   3.919   2.958   6.173
 2536SOL     OW 8506   1.124   0.141   1.067
 2536SOL    HW1 8507   1.094   0.064   1.123
 2536SOL    HW2 8508   1.195   0.110   1.004
 2537SOL     OW 8509   3.994   6.816   5.699
 2537SOL    HW1 8510   3.959   6.792   5.609
 2537SOL    HW2 8511   4.050   6.898   5.693
 2538SOL     OW 8512   6.001   3.745   3.597
 2538SOL    HW1 8513   6.095   3.738   3.564
 2538SOL    HW2 8514   5.966   3.655   3.620
 2539SOL     OW 8515   4.831   2.616   5.147
 2539SOL    HW1 8516   4.765   2.684   5.114
 2539SOL    HW2 8517   4.830   2.614   5.247
 2540SOL     OW 8518   2.799   2.011   1.504
 2540SOL    HW1 8519   2.708   2.052   1.497
 2540SOL    HW2 8520   2.833   2.019   1.597
 2541SOL     OW 8521   3.372   6.925   3.978
 2541SOL    HW1 8522   3.459   6.878   3.995
 2541SOL    HW2 8523   3.315   6.919   4.060
 2542SOL     OW 8524   1.709   5.490   6.067
 2542SOL    HW1 8525   1.747   5.460   6.155
 2542SOL    HW2 8526   1.782   5.491   5.998
 2543SOL     OW 8527   0.254   0.594   4.077
 2543SOL    HW1 8528   0.285   0.573   3.984
 2543SOL    HW2 8529   0.333   0.599   4.138
 2544SOL     OW 8530   0.666   5.305   6.450
 2544SOL    HW1 8531   0.691   5.390   6.497
 2544SOL    HW2 8532   0.696   5.309   6.355
 2545SOL     OW 8533   2.445   5.942   3.567
 2545SOL    HW1 8534   2.369   6.004   3.545
 2545SOL    HW2 8535   2.420   5.849   3.540
 2546SOL     OW 8536   6.871   1.072   1.646
 2546SOL    HW1 8537   6.771   1.070   1.644
 2546SOL    HW2 8538   6.907   1.095   1.555
 2547SOL     OW 8539   0.743   2.902   5.087
 2547SOL    HW1 8540   0.752   2.926   5.183
 2547SOL    HW2 8541   0.727   2.984   5.033
 2548SOL     OW 8542   0.956   0.333   6.107
 2548SOL    HW1 8543   1.016   0.349   6.029
 2548SOL    HW2 8544   0.958   0.412   6.168
 2549SOL     OW 8545   5.859   2.985   2.380
 2549SOL    HW1 8546   5.879   3.081   2.398
 2549SOL    HW2 8547   5.761   2.970   2.388
 2550SOL     OW 8548   5.698   5.282   6.981
 2550SOL    HW1 8549   5.671   5.258   6.888
 2550SOL    HW2 8550   5.618   5.309   0.010
 2551SOL     OW 8551   0.789   5.133   0.072
 2551SOL    HW1 8552   0.873   5.163   0.026
 2551SOL    HW2 8553   0.737   5.213   0.101
 2552SOL     OW 8554   1.642   5.608   3.349
 2552SOL    HW1 8555   1.719   5.649   3.399
 2552SOL    HW2 8556   1.597   5.678   3.293
 2553SOL     OW 8557   4.029   3.633   6.820
 2553SOL    HW1 8558   4.059   3.540   6.842
 2553SOL    HW2 8559   4.070   3.661   6.733
 2554SOL     OW 8560   1.175   2.035   0.590
 2554SOL    HW1 8561   1.195   2.038   0.688
 2554SOL    HW2 8562   1.077   2.042   0.576
 2555SOL     OW 8563   0.289   0.272   6.566
 2555SOL    HW1 8564   0.226   0.272   6.488
 2555SOL    HW2 8565   0.286   0.361   6.611
 2556SOL     OW 8566   4.197   4.612   0.253
 2556SOL    HW1 8567   4.134   4.584   0.180
 2556SOL    HW2 8568   4.274   4.662   0.213
 2557SOL     OW 8569   1.581   4.496   6.608
 2557SOL    HW1 8570   1.591   4.496   6.708
 2557SOL    HW2 8571   1.517   4.424   6.581
 2558SOL     OW 8572   4.200   0.535   5.197
 2558SOL    HW1 8573   4.161   0.464   5.256
 2558SOL    HW2 8574   4.171   0.625   5.230
 2559SOL     OW 8575   0.630   4.887   4.840
 2559SOL    HW1 8576   0.698   4.915   4.908
 2559SOL    HW2 8577   0.561   4.959   4.831
 2560SOL     OW 8578   5.996   0.782   7.011
 2560SOL    HW1 8579   5.946   0.798   0.072
 2560SOL    HW2 8580   6.078   0.839   7.010
 2561SOL     OW 8581   3.140   5.779   3.887
 2561SOL    HW1 8582   3.050   5.741   3.870
 2561SOL    HW2 8583   3.184   5.728   3.962
 2562SOL     OW 8584   2.451   3.804   0.142
 2562SOL    HW1 8585   2.418   3.729   0.085
 2562SOL    HW2 8586   2.551   3.805   0.142
 2563SOL     OW 8587   1.588   0.805   1.638
 2563SOL    HW1 8588   1.676   0.846   1.662
 2563SOL    HW2 8589   1.565   0.734   1.704
 2564SOL     OW 8590   1.629   6.622   2.383
 2564SOL    HW1 8591   1.687   6.547   2.416
 2564SOL    HW2 8592   1.626   6.694   2.452
 2565SOL     OW 8593   0.248   0.927   1.665
 2565SOL    HW1 8594   0.322   0.869   1.701
 2565SOL    HW2 8595   0.288   1.006   1.618
 2566SOL     OW 8596   1.812   6.826   5.270
 2566SOL    HW1 8597   1.879   6.831   5.196
 2566SOL    HW2 8598   1.850   6.774   5.346
 2567SOL     OW 8599   0.851   1.059   0.510
 2567SOL    HW1 8600   0.924   1.049   0.442
 2567SOL    HW2 8601   0.860   1.147   0.557
 2568SOL     OW 8602   5.218   3.808   0.019
 2568SOL    HW1 8603   5.278   3.825   0.097
 2568SOL    HW2 8604   5.259   3.739   6.984
 2569SOL     OW 8605   2.503   0.648   2.469
 2569SOL    HW1 8606   2.550   0.639   2.556
 2569SOL    HW2 8607   2.569   0.672   2.397
 2570SOL     OW 8608   5.125   2.361   5.937
 2570SOL    HW1 8609   5.089   2.316   6.019
 2570SOL    HW2 8610   5.221   2.384   5.951
 2571SOL     OW 8611   0.586   4.069   4.623
 2571SOL    HW1 8612   0.574   4.166   4.643
 2571SOL    HW2 8613   0.608   4.019   4.707
 2572SOL     OW 8614   1.401   4.682   3.457
 2572SOL    HW1 8615   1.301   4.684   3.452
 2572SOL    HW2 8616   1.432   4.587   3.455
 2573SOL     OW 8617   1.294   0.095   0.405
 2573SOL    HW1 8618   1.389   0.121   0.424
 2573SOL    HW2 8619   1.232   0.160   0.449
 2574SOL     OW 8620   6.494   3.435   0.393
 2574SOL    HW1 8621   6.582   3.481   0.379
 2574SOL    HW2 8622   6.510   3.338   0.414
 2575SOL     OW 8623   0.426   6.271   6.110
 2575SOL    HW1 8624   0.519   6.236   6.120
 2575SOL    HW2 8625   0.424   6.342   6.041
 2576SOL     OW 8626   4.417   6.402   5.034
 2576SOL    HW1 8627   4.369   6.365   4.954
 2576SOL    HW2 8628   4.451   6.494   5.012
 2577SOL     OW 8629   1.359   3.868   2.619
 2577SOL    HW1 8630   1.406   3.780   2.617
 2577SOL    HW2 8631   1.423   3.938   2.652
 2578SOL     OW 8632   4.148   1.945   2.492
 2578SOL    HW1 8633   4.168   1.937   2.590
 2578SOL    HW2 8634   4.228   1.915   2.440
 2579SOL     OW 8635   0.485   6.603   2.534
 2579SOL    HW1 8636   0.503   6.505   2.539
 2579SOL    HW2 8637   0.539   6.643   2.460
 2580SOL     OW 8638   2.294   1.515   5.907
 2580SOL    HW1 8639   2.389   1.517   5.877
 2580SOL    HW2 8640   2.247   1.597   5.874
 2581SOL     OW 8641   3.091   0.500   5.707
 2581SOL    HW1 8642   3.043   0.471   5.789
 2581SOL    HW2 8643   3.150   0.577   5.728
 2582SOL     OW 8644   6.912   3.753   1.178
 2582SOL    HW1 8645   6.874   3.844   1.160
 2582SOL    HW2 8646   6.937   3.711   1.091
 2583SOL     OW 8647   5.907   0.554   1.286
 2583SOL    HW1 8648   5.880   0.611   1.209
 2583SOL    HW2 8649   5.855   0.468   1.284
 2584SOL     OW 8650   3.600   4.144   6.382
 2584SOL    HW1 8651   3.535   4.217   6.404
 2584SOL    HW2 8652   3.682   4.156   6.437
 2585SOL     OW 8653   2.784   5.186   0.230
 2585SOL    HW1 8654   2.759   5.281   0.252
 2585SOL    HW2 8655   2.714   5.147   0.170
 2586SOL     OW 8656   2.600   0.796   3.967
 2586SOL    HW1 8657   2.612   0.727   3.896
 2586SOL    HW2 8658   2.689   0.823   4.003
 2587SOL     OW 8659   5.885   0.780   4.855
 2587SOL    HW1 8660   5.815   0.713   4.830
 2587SOL    HW2 8661   5.971   0.732   4.873
 2588SOL     OW 8662   4.743   0.576   0.041
 2588SOL    HW1 8663   4.726   0.659   7.011
 2588SOL    HW2 8664   4.786   0.602   0.127
 2589SOL     OW 8665   1.890   6.142   0.519
 2589SOL    HW1 8666   1.899   6.241   0.515
 2589SOL    HW2 8667   1.834   6.110   0.442
 2590SOL     OW 8668   2.961   5.583   0.268
 2590SOL    HW1 8669   2.942   5.640   0.188
 2590SOL    HW2 8670   2.960   5.639   0.351
 2591SOL     OW 8671   5.147   6.073   2.677
 2591SOL    HW1 8672   5.238   6.034   2.663
 2591SOL    HW2 8673   5.138   6.157   2.623
 2592SOL     OW 8674   3.017   3.366   1.071
 2592SOL    HW1 8675   3.069   3.363   0.986
 2592SOL    HW2 8676   3.050   3.294   1.133
 2593SOL     OW 8677   3.459   4.806   6.961
 2593SOL    HW1 8678   3.411   4.746   6.896
 2593SOL    HW2 8679   3.554   4.815   6.933
 2594SOL     OW 8680   2.129   3.481   3.673
 2594SOL    HW1 8681   2.070   3.400   3.676
 2594SOL    HW2 8682   2.106   3.535   3.592
 2595SOL     OW 8683   2.075   1.257   2.801
 2595SOL    HW1 8684   2.119   1.227   2.716
 2595SOL    HW2 8685   2.082   1.356   2.810
 2596SOL     OW 8686   7.004   1.882   0.416
 2596SOL    HW1 8687   0.000   1.979   0.425
 2596SOL    HW2 8688   0.039   1.830   0.477
 2597SOL     OW 8689   6.828   6.625   0.383
 2597SOL    HW1 8690   6.801   6.546   0.327
 2597SOL    HW2 8691   6.868   6.592   0.469
 2598SOL     OW 8692   4.655   2.734   2.197
 2598SOL    HW1 8693   4.634   2.786   2.114
 2598SOL    HW2 8694   4.677   2.796   2.271
 2599SOL     OW 8695   2.512   5.990   2.793
 2599SOL    HW1 8696   2.563   5.916   2.837
 2599SOL    HW2 8697   2.471   6.048   2.863
 2600SOL     OW 8698   5.804   3.893   4.578
 2600SOL    HW1 8699   5.820   3.888   4.677
 2600SOL    HW2 8700   5.884   3.930   4.533
 2601SOL     OW 8701   6.740   1.319   4.587
 2601SOL    HW1 8702   6.786   1.234   4.615
 2601SOL    HW2 8703   6.735   1.381   4.665
 2602SOL     OW 8704   1.102   4.704   2.507
 2602SOL    HW1 8705   1.133   4.610   2.520
 2602SOL    HW2 8706   1.058   4.737   2.591
 2603SOL     OW 8707   2.157   5.771   2.384
 2603SOL    HW1 8708   2.185   5.761   2.479
 2603SOL    HW2 8709   2.061   5.800   2.380
 2604SOL     OW 8710   4.757   2.821   3.603
 2604SOL    HW1 8711   4.762   2.898   3.667
 2604SOL    HW2 8712   4.694   2.751   3.639
 2605SOL     OW 8713   1.535   3.063   1.236
 2605SOL    HW1 8714   1.475   3.005   1.180
 2605SOL    HW2 8715   1.480   3.130   1.286
 2606SOL     OW 8716   4.962   3.764   0.972
 2606SOL    HW1 8717   5.058   3.791   0.985
 2606SOL    HW2 8718   4.910   3.843   0.941
 2607SOL     OW 8719   2.530   3.115   1.659
 2607SOL    HW1 8720   2.580   3.147   1.578
 2607SOL    HW2 8721   2.441   3.159   1.663
 2608SOL     OW 8722   3.010   5.297   4.850
 2608SOL    HW1 8723   2.989   5.262   4.759
 2608SOL    HW2 8724   3.091   5.356   4.845
 2609SOL     OW 8725   0.633   1.853   1.425
 2609SOL    HW1 8726   0.659   1.839   1.329
 2609SOL    HW2 8727   0.715   1.869   1.480
 2610SOL     OW 8728   1.259   4.224   4.767
 2610SOL    HW1 8729   1.179   4.165   4.757
 2610SOL    HW2 8730   1.249   4.281   4.848
 2611SOL     OW 8731   5.712   0.523   5.463
 2611SOL    HW1 8732   5.647   0.584   5.418
 2611SOL    HW2 8733   5.686   0.513   5.560
 2612SOL     OW 8734   0.104   6.452   0.178
 2612SOL    HW1 8735   0.164   6.506   0.120
 2612SOL    HW2 8736   0.015   6.442   0.133
 2613SOL     OW 8737   1.503   6.751   0.294
 2613SOL    HW1 8738   1.485   6.653   0.298
 2613SOL    HW2 8739   1.542   6.781   0.382
 2614SOL     OW 8740   5.832   2.294   0.603
 2614SOL    HW1 8741   5.798   2.257   0.689
 2614SOL    HW2 8742   5.920   2.250   0.581
 2615SOL     OW 8743   0.777   3.533   6.999
 2615SOL    HW1 8744   0.738   3.606   0.030
 2615SOL    HW2 8745   0.797   3.454   0.032
 2616SOL     OW 8746   1.015   0.776   4.338
 2616SOL    HW1 8747   1.056   0.838   4.271
 2616SOL    HW2 8748   0.992   0.827   4.421
 2617SOL     OW 8749   5.364   0.078   1.168
 2617SOL    HW1 8750   5.382   0.126   1.254
 2617SOL    HW2 8751   5.447   0.029   1.140
 2618SOL     OW 8752   1.191   0.194   6.872
 2618SOL    HW1 8753   1.247   0.146   6.940
 2618SOL    HW2 8754   1.206   0.292   6.880
 2619SOL     OW 8755   4.957   1.391   2.729
 2619SOL    HW1 8756   4.933   1.471   2.783
 2619SOL    HW2 8757   4.963   1.416   2.632
 2620SOL     OW 8758   6.111   2.536   2.276
 2620SOL    HW1 8759   6.185   2.519   2.210
 2620SOL    HW2 8760   6.023   2.513   2.233
 2621SOL     OW 8761   2.612   6.436   1.310
 2621SOL    HW1 8762   2.584   6.343   1.335
 2621SOL    HW2 8763   2.538   6.500   1.332
 2622SOL     OW 8764   2.628   3.454   6.757
 2622SOL    HW1 8765   2.700   3.400   6.801
 2622SOL    HW2 8766   2.653   3.551   6.760
 2623SOL     OW 8767   6.959   1.006   3.955
 2623SOL    HW1 8768   6.934   1.056   3.872
 2623SOL    HW2 8769   6.884   1.011   4.021
 2624SOL     OW 8770   1.065   1.735   5.652
 2624SOL    HW1 8771   1.065   1.796   5.731
 2624SOL    HW2 8772   0.971   1.708   5.632
 2625SOL     OW 8773   2.603   5.409   5.675
 2625SOL    HW1 8774   2.606   5.480   5.744
 2625SOL    HW2 8775   2.685   5.352   5.682
 2626SOL     OW 8776   0.147   6.744   0.064
 2626SOL    HW1 8777   0.208   6.822   0.049
 2626SOL    HW2 8778   0.070   6.749   0.001
 2627SOL     OW 8779   2.354   0.498   5.650
 2627SOL    HW1 8780   2.300   0.428   5.696
 2627SOL    HW2 8781   2.398   0.557   5.718
 2628SOL     OW 8782   0.277   5.130   1.462
 2628SOL    HW1 8783   0.364   5.136   1.412
 2628SOL    HW2 8784   0.205   5.176   1.410
 2629SOL     OW 8785   3.069   3.888   3.011
 2629SOL    HW1 8786   3.025   3.839   2.936
 2629SOL    HW2 8787   3.018   3.874   3.095
 2630SOL     OW 8788   3.285   0.694   4.843
 2630SOL    HW1 8789   3.236   0.666   4.760
 2630SOL    HW2 8790   3.354   0.625   4.865
 2631SOL     OW 8791   4.774   5.931   0.306
 2631SOL    HW1 8792   4.751   5.901   0.399
 2631SOL    HW2 8793   4.788   5.852   0.247
 2632SOL     OW 8794   5.485   5.296   1.755
 2632SOL    HW1 8795   5.420   5.271   1.827
 2632SOL    HW2 8796   5.567   5.336   1.796
 2633SOL     OW 8797   6.993   3.234   5.897
 2633SOL    HW1 8798   6.951   3.201   5.981
 2633SOL    HW2 8799   6.930   3.297   5.851
 2634SOL     OW 8800   1.662   1.846   6.137
 2634SOL    HW1 8801   1.583   1.843   6.199
 2634SOL    HW2 8802   1.683   1.940   6.114
 2635SOL     OW 8803   3.816   5.094   3.001
 2635SOL    HW1 8804   3.876   5.104   2.922
 2635SOL    HW2 8805   3.737   5.038   2.975
 2636SOL     OW 8806   3.409   6.516   6.053
 2636SOL    HW1 8807   3.483   6.537   6.117
 2636SOL    HW2 8808   3.347   6.450   6.094
 2637SOL     OW 8809   0.236   1.668   3.049
 2637SOL    HW1 8810   0.181   1.656   2.966
 2637SOL    HW2 8811   0.326   1.702   3.023
 2638SOL     OW 8812   0.696   6.175   4.784
 2638SOL    HW1 8813   0.661   6.269   4.786
 2638SOL    HW2 8814   0.730   6.154   4.692
 2639SOL     OW 8815   5.010   5.236   4.984
 2639SOL    HW1 8816   4.947   5.193   4.920
 2639SOL    HW2 8817   4.979   5.329   5.004
 2640SOL     OW 8818   2.061   0.884   3.235
 2640SOL    HW1 8819   2.007   0.939   3.298
 2640SOL    HW2 8820   2.052   0.920   3.142
 2641SOL     OW 8821   5.312   2.415   6.895
 2641SOL    HW1 8822   5.321   2.469   6.978
 2641SOL    HW2 8823   5.253   2.337   6.912
 2642SOL     OW 8824   0.104   0.323   2.311
 2642SOL    HW1 8825   0.078   0.321   2.215
 2642SOL    HW2 8826   0.082   0.413   2.349
 2643SOL     OW 8827   1.908   4.918   3.848
 2643SOL    HW1 8828   1.868   4.860   3.777
 2643SOL    HW2 8829   1.836   4.971   3.892
 2644SOL     OW 8830   5.836   5.316   3.761
 2644SOL    HW1 8831   5.809   5.326   3.665
 2644SOL    HW2 8832   5.760   5.346   3.819
 2645SOL     OW 8833   4.621   5.728   2.262
 2645SOL    HW1 8834   4.549   5.792   2.234
 2645SOL    HW2 8835   4.674   5.768   2.337
 2646SOL     OW 8836   1.279   2.251   6.419
 2646SOL    HW1 8837   1.241   2.185   6.484
 2646SOL    HW2 8838   1.279   2.212   6.327
 2647SOL     OW 8839   4.072   0.061   2.778
 2647SOL    HW1 8840   4.059   6.989   2.803
 2647SOL    HW2 8841   4.120   0.066   2.690
 2648SOL     OW 8842   1.756   0.490   5.540
 2648SOL    HW1 8843   1.666   0.454   5.516
 2648SOL    HW2 8844   1.746   0.561   5.610
 2649SOL     OW 8845   6.446   2.093   3.905
 2649SOL    HW1 8846   6.469   2.174   3.851
 2649SOL    HW2 8847   6.349   2.094   3.927
 2650SOL     OW 8848   1.845   6.923   4.372
 2650SOL    HW1 8849   1.771   6.868   4.335
 2650SOL    HW2 8850   1.922   6.864   4.396
 2651SOL     OW 8851   3.664   1.500   3.402
 2651SOL    HW1 8852   3.667   1.593   3.439
 2651SOL    HW2 8853   3.576   1.485   3.358
 2652SOL     OW 8854   4.845   3.708   5.516
 2652SOL    HW1 8855   4.888   3.762   5.588
 2652SOL    HW2 8856   4.836   3.613   5.546
 2653SOL     OW 8857   1.937   6.016   0.028
 2653SOL    HW1 8858   2.034   6.036   0.041
 2653SOL    HW2 8859   1.911   6.035   6.958
 2654SOL     OW 8860   0.250   0.817   0.692
 2654SOL    HW1 8861   0.174   0.765   0.731
 2654SOL    HW2 8862   0.308   0.755   0.639
 2655SOL     OW 8863   5.251   7.020   2.790
 2655SOL    HW1 8864   5.290   7.020   2.881
 2655SOL    HW2 8865   5.320   0.025   2.724
 2656SOL     OW 8866   4.818   6.622   4.187
 2656SOL    HW1 8867   4.895   6.586   4.239
 2656SOL    HW2 8868   4.750   6.661   4.249
 2657SOL     OW 8869   1.441   3.189   6.665
 2657SOL    HW1 8870   1.384   3.263   6.629
 2657SOL    HW2 8871   1.388   3.135   6.730
 2658SOL     OW 8872   3.367   4.326   0.031
 2658SOL    HW1 8873   3.430   4.277   0.091
 2658SOL    HW2 8874   3.343   4.414   0.072
 2659SOL     OW 8875   0.157   2.310   5.378
 2659SOL    HW1 8876   0.159   2.281   5.473
 2659SOL    HW2 8877   0.223   2.256   5.325
 2660SOL     OW 8878   1.021   1.467   0.759
 2660SOL    HW1 8879   1.115   1.468   0.796
 2660SOL    HW2 8880   0.982   1.559   0.767
 2661SOL     OW 8881   1.786   0.830   1.078
 2661SOL    HW1 8882   1.729   0.752   1.101
 2661SOL    HW2 8883   1.880   0.813   1.108
 2662SOL     OW 8884   3.029   1.571   1.573
 2662SOL    HW1 8885   3.102   1.629   1.609
 2662SOL    HW2 8886   2.970   1.625   1.513
 2663SOL     OW 8887   4.012   0.940   0.745
 2663SOL    HW1 8888   4.055   1.023   0.709
 2663SOL    HW2 8889   3.923   0.927   0.702
 2664SOL     OW 8890   4.912   2.965   5.819
 2664SOL    HW1 8891   4.870   3.026   5.752
 2664SOL    HW2 8892   4.998   2.929   5.783
 2665SOL     OW 8893   1.168   3.294   4.457
 2665SOL    HW1 8894   1.207   3.222   4.400
 2665SOL    HW2 8895   1.116   3.358   4.400
 2666SOL     OW 8896   1.737   4.160   1.973
 2666SOL    HW1 8897   1.749   4.233   2.040
 2666SOL    HW2 8898   1.671   4.093   2.007
 2667SOL     OW 8899   6.115   2.840   4.873
 2667SOL    HW1 8900   6.053   2.824   4.949
 2667SOL    HW2 8901   6.210   2.828   4.904
 2668SOL     OW 8902   5.739   0.754   4.391
 2668SOL    HW1 8903   5.822   0.704   4.416
 2668SOL    HW2 8904   5.661   0.692   4.395
 2669SOL     OW 8905   2.458   1.038   1.903
 2669SOL    HW1 8906   2.490   1.062   1.811
 2669SOL    HW2 8907   2.429   1.121   1.951
 2670SOL     OW 8908   0.727   0.630   0.700
 2670SOL    HW1 8909   0.805   0.693   0.709
 2670SOL    HW2 8910   0.753   0.540   0.734
 2671SOL     OW 8911   5.287   4.198   6.132
 2671SOL    HW1 8912   5.247   4.286   6.158
 2671SOL    HW2 8913   5.233   4.158   6.058
 2672SOL     OW 8914   2.042   1.922   2.569
 2672SOL    HW1 8915   2.076   2.005   2.524
 2672SOL    HW2 8916   2.073   1.921   2.664
 2673SOL     OW 8917   3.311   7.020   2.793
 2673SOL    HW1 8918   3.300   0.082   2.841
 2673SOL    HW2 8919   3.335   6.948   2.860
 2674SOL     OW 8920   6.350   5.855   3.320
 2674SOL    HW1 8921   6.417   5.916   3.363
 2674SOL    HW2 8922   6.352   5.870   3.221
 2675SOL     OW 8923   4.597   1.075   4.603
 2675SOL    HW1 8924   4.611   1.172   4.580
 2675SOL    HW2 8925   4.563   1.026   4.522
 2676SOL     OW 8926   4.035   3.094   4.720
 2676SOL    HW1 8927   4.111   3.145   4.761
 2676SOL    HW2 8928   3.989   3.152   4.652
 2677SOL     OW 8929   1.692   5.666   0.547
 2677SOL    HW1 8930   1.616   5.697   0.489
 2677SOL    HW2 8931   1.660   5.656   0.641
 2678SOL     OW 8932   3.626   1.791   2.235
 2678SOL    HW1 8933   3.546   1.731   2.227
 2678SOL    HW2 8934   3.598   1.885   2.217
 2679SOL     OW 8935   2.009   3.475   2.639
 2679SOL    HW1 8936   2.013   3.428   2.551
 2679SOL    HW2 8937   2.101   3.498   2.669
 2680SOL     OW 8938   5.673   2.590   6.623
 2680SOL    HW1 8939   5.768   2.563   6.637
 2680SOL    HW2 8940   5.619   2.565   6.703
 2681SOL     OW 8941   2.485   2.584   3.452
 2681SOL    HW1 8942   2.441   2.674   3.459
 2681SOL    HW2 8943   2.528   2.561   3.539
 2682SOL     OW 8944   3.749   3.990   2.328
 2682SOL    HW1 8945   3.683   4.044   2.275
 2682SOL    HW2 8946   3.748   4.020   2.423
 2683SOL     OW 8947   1.760   3.615   1.498
 2683SOL    HW1 8948   1.761   3.715   1.487
 2683SOL    HW2 8949   1.732   3.572   1.412
 2684SOL     OW 8950   5.238   0.510   3.874
 2684SOL    HW1 8951   5.144   0.524   3.845
 2684SOL    HW2 8952   5.283   0.599   3.886
 2685SOL     OW 8953   1.392   6.722   5.878
 2685SOL    HW1 8954   1.414   6.677   5.792
 2685SOL    HW2 8955   1.425   6.816   5.876
 2686SOL     OW 8956   1.745   1.640   6.349
 2686SOL    HW1 8957   1.766   1.545   6.370
 2686SOL    HW2 8958   1.670   1.643   6.282
 2687SOL     OW 8959   4.126   2.460   1.703
 2687SOL    HW1 8960   4.198   2.451   1.772
 2687SOL    HW2 8961   4.048   2.403   1.729
 2688SOL     OW 8962   3.885   2.654   6.781
 2688SOL    HW1 8963   3.939   2.737   6.769
 2688SOL    HW2 8964   3.934   2.575   6.744
 2689SOL     OW 8965   6.706   3.502   2.578
 2689SOL    HW1 8966   6.684   3.493   2.675
 2689SOL    HW2 8967   6.623   3.521   2.526
 2690SOL     OW 8968   5.463   1.266   4.941
 2690SOL    HW1 8969   5.435   1.319   4.861
 2690SOL    HW2 8970   5.412   1.180   4.944
 2691SOL     OW 8971   6.905   3.436   4.558
 2691SOL    HW1 8972   6.818   3.476   4.530
 2691SOL    HW2 8973   6.937   3.372   4.488
 2692SOL     OW 8974   1.976   5.052   1.806
 2692SOL    HW1 8975   1.929   4.964   1.817
 2692SOL    HW2 8976   2.047   5.042   1.736
 2693SOL     OW 8977   0.522   5.025   2.790
 2693SOL    HW1 8978   0.436   5.008   2.743
 2693SOL    HW2 8979   0.513   5.108   2.846
 2694SOL     OW 8980   2.328   0.470   2.206
 2694SOL    HW1 8981   2.284   0.394   2.157
 2694SOL    HW2 8982   2.360   0.538   2.140
 2695SOL     OW 8983   6.655   5.718   3.472
 2695SOL    HW1 8984   6.683   5.751   3.381
 2695SOL    HW2 8985   6.582   5.650   3.462
 2696SOL     OW 8986   3.791   4.434   6.145
 2696SOL    HW1 8987   3.713   4.495   6.162
 2696SOL    HW2 8988   3.851   4.434   6.225
 2697SOL     OW 8989   3.848   2.742   0.080
 2697SOL    HW1 8990   3.885   2.695   7.024
 2697SOL    HW2 8991   3.785   2.814   0.050
 2698SOL     OW 8992   1.500   5.706   0.077
 2698SOL    HW1 8993   1.574   5.737   0.018
 2698SOL    HW2 8994   1.412   5.730   0.035
 2699SOL     OW 8995   2.844   6.802   1.858
 2699SOL    HW1 8996   2.867   6.819   1.954
 2699SOL    HW2 8997   2.745   6.812   1.845
 2700SOL     OW 8998   4.500   2.158   1.586
 2700SOL    HW1 8999   4.400   2.150   1.582
 2700SOL    HW2 9000   4.531   2.147   1.680
 2701SOL     OW 9001   5.285   3.506   5.318
 2701SOL    HW1 9002   5.259   3.462   5.232
 2701SOL    HW2 9003   5.243   3.597   5.322
 2702SOL     OW 9004   2.067   1.307   4.469
 2702SOL    HW1 9005   2.051   1.389   4.524
 2702SOL    HW2 9006   2.164   1.283   4.472
 2703SOL     OW 9007   2.190   6.336   2.088
 2703SOL    HW1 9008   2.094   6.327   2.063
 2703SOL    HW2 9009   2.199   6.400   2.164
 2704SOL     OW 9010   4.221   0.914   3.526
 2704SOL    HW1 9011   4.199   0.820   3.502
 2704SOL    HW2 9012   4.302   0.915   3.585
 2705SOL     OW 9013   1.063   6.806   5.234
 2705SOL    HW1 9014   1.149   6.762   5.210
 2705SOL    HW2 9015   1.054   6.810   5.333
 2706SOL     OW 9016   6.708   4.630   3.983
 2706SOL    HW1 9017   6.758   4.714   3.962
 2706SOL    HW2 9018   6.664   4.638   4.072
 2707SOL     OW 9019   4.648   1.557   3.027
 2707SOL    HW1 9020   4.608   1.493   3.092
 2707SOL    HW2 9021   4.629   1.651   3.056
 2708SOL     OW 9022   4.976   3.371   5.784
 2708SOL    HW1 9023   4.924   3.369   5.699
 2708SOL    HW2 9024   4.980   3.278   5.822
 2709SOL     OW 9025   5.283   1.154   5.835
 2709SOL    HW1 9026   5.252   1.241   5.797
 2709SOL    HW2 9027   5.219   1.082   5.810
 2710SOL     OW 9028   1.184   2.730   4.325
 2710SOL    HW1 9029   1.269   2.745   4.376
 2710SOL    HW2 9030   1.202   2.672   4.246
 2711SOL     OW 9031   4.624   0.942   1.534
 2711SOL    HW1 9032   4.536   0.931   1.486
 2711SOL    HW2 9033   4.616   0.906   1.627
 2712SOL     OW 9034   5.037   6.268   1.734
 2712SOL    HW1 9035   5.052   6.321   1.650
 2712SOL    HW2 9036   5.122   6.224   1.762
 2713SOL     OW 9037   3.624   5.168   5.720
 2713SOL    HW1 9038   3.623   5.239   5.791
 2713SOL    HW2 9039   3.531   5.140   5.699
 2714SOL     OW 9040   2.944   4.200   6.249
 2714SOL    HW1 9041   2.903   4.117   6.212
 2714SOL    HW2 9042   2.871   4.262   6.280
 2715SOL     OW 9043   4.582   6.244   6.972
 2715SOL    HW1 9044   4.496   6.270   7.018
 2715SOL    HW2 9045   4.627   6.172   0.000
 2716SOL     OW 9046   4.233   1.291   2.610
 2716SOL    HW1 9047   4.266   1.201   2.638
 2716SOL    HW2 9048   4.133   1.290   2.607
 2717SOL     OW 9049   0.985   2.057   2.669
 2717SOL    HW1 9050   0.972   1.970   2.716
 2717SOL    HW2 9051   1.065   2.051   2.608
 2718SOL     OW 9052   6.707   1.567   5.976
 2718SOL    HW1 9053   6.676   1.659   6.001
 2718SOL    HW2 9054   6.764   1.530   6.049
 2719SOL     OW 9055   0.817   4.791   3.227
 2719SOL    HW1 9056   0.764   4.707   3.239
 2719SOL    HW2 9057   0.804   4.825   3.133
 2720SOL     OW 9058   2.054   5.038   6.429
 2720SOL    HW1 9059   1.992   5.071   6.501
 2720SOL    HW2 9060   2.033   4.942   6.409
 2721SOL     OW 9061   2.254   6.585   3.608
 2721SOL    HW1 9062   2.191   6.544   3.542
 2721SOL    HW2 9063   2.337   6.529   3.614
 2722SOL     OW 9064   3.390   4.367   6.512
 2722SOL    HW1 9065   3.298   4.349   6.478
 2722SOL    HW2 9066   3.387   4.382   6.611
 2723SOL     OW 9067   4.255   5.676   6.844
 2723SOL    HW1 9068   4.190   5.630   6.783
 2723SOL    HW2 9069   4.278   5.766   6.806
 2724SOL     OW 9070   6.666   5.792   0.939
 2724SOL    HW1 9071   6.664   5.694   0.956
 2724SOL    HW2 9072   6.744   5.815   0.881
 2725SOL     OW 9073   6.138   5.043   3.215
 2725SOL    HW1 9074   6.137   5.091   3.127
 2725SOL    HW2 9075   6.162   4.947   3.201
 2726SOL     OW 9076   6.303   2.393   3.144
 2726SOL    HW1 9077   6.239   2.453   3.191
 2726SOL    HW2 9078   6.329   2.434   3.056
 2727SOL     OW 9079   1.393   5.130   3.845
 2727SOL    HW1 9080   1.336   5.117   3.764
 2727SOL    HW2 9081   1.487   5.147   3.817
 2728SOL     OW 9082   5.173   5.259   5.807
 2728SOL    HW1 9083   5.191   5.223   5.899
 2728SOL    HW2 9084   5.078   5.240   5.782
 2729SOL     OW 9085   7.005   7.015   6.948
 2729SOL    HW1 9086   0.017   0.003   0.016
 2729SOL    HW2 9087   6.951   0.071   6.922
 2730SOL     OW 9088   1.386   5.530   2.909
 2730SOL    HW1 9089   1.465   5.586   2.932
 2730SOL    HW2 9090   1.412   5.462   2.841
 2731SOL     OW 9091   3.813   3.814   5.123
 2731SOL    HW1 9092   3.760   3.867   5.189
 2731SOL    HW2 9093   3.751   3.757   5.069
 2732SOL     OW 9094   4.773   0.650   1.692
 2732SOL    HW1 9095   4.708   0.586   1.652
 2732SOL    HW2 9096   4.857   0.650   1.637
 2733SOL     OW 9097   0.715   0.632   0.430
 2733SOL    HW1 9098   0.724   0.626   0.529
 2733SOL    HW2 9099   0.744   0.546   0.388
 2734SOL     OW 9100   3.208   0.314   2.365
 2734SOL    HW1 9101   3.285   0.249   2.362
 2734SOL    HW2 9102   3.214   0.367   2.449
 2735SOL     OW 9103   1.389   2.551   2.803
 2735SOL    HW1 9104   1.442   2.630   2.771
 2735SOL    HW2 9105   1.401   2.541   2.902
 2736SOL     OW 9106   5.637   4.695   2.813
 2736SOL    HW1 9107   5.647   4.723   2.908
 2736SOL    HW2 9108   5.560   4.745   2.772
 2737SOL     OW 9109   3.017   0.441   5.975
 2737SOL    HW1 9110   2.928   0.487   5.979
 2737SOL    HW2 9111   3.006   0.344   5.995
 2738SOL     OW 9112   5.253   6.174   0.949
 2738SOL    HW1 9113   5.192   6.202   1.023
 2738SOL    HW2 9114   5.226   6.220   0.864
 2739SOL     OW 9115   0.759   5.371   1.796
 2739SOL    HW1 9116   0.728   5.317   1.717
 2739SOL    HW2 9117   0.833   5.431   1.767
 2740SOL     OW 9118   6.908   5.393   4.488
 2740SOL    HW1 9119   6.809   5.374   4.483
 2740SOL    HW2 9120   6.927   5.482   4.446
 2741SOL     OW 9121   0.879   6.934   6.531
 2741SOL    HW1 9122   0.873   6.845   6.487
 2741SOL    HW2 9123   0.971   6.971   6.517
 2742SOL     OW 9124   2.865   4.891   2.639
 2742SOL    HW1 9125   2.800   4.904   2.713
 2742SOL    HW2 9126   2.858   4.968   2.575
 2743SOL     OW 9127   5.556   1.996   2.523
 2743SOL    HW1 9128   5.464   2.033   2.512
 2743SOL    HW2 9129   5.551   1.910   2.574
 2744SOL     OW 9130   3.334   4.079   2.460
 2744SOL    HW1 9131   3.425   4.103   2.495
 2744SOL    HW2 9132   3.315   4.131   2.377
 2745SOL     OW 9133   0.520   6.101   0.081
 2745SOL    HW1 9134   0.487   6.162   0.008
 2745SOL    HW2 9135   0.500   6.006   0.056
 2746SOL     OW 9136   1.375   0.901   4.607
 2746SOL    HW1 9137   1.311   0.852   4.667
 2746SOL    HW2 9138   1.440   0.952   4.663
 2747SOL     OW 9139   4.445   4.728   0.243
 2747SOL    HW1 9140   4.477   4.737   0.337
 2747SOL    HW2 9141   4.517   4.689   0.186
 2748SOL     OW 9142   4.111   0.334   1.152
 2748SOL    HW1 9143   4.173   0.356   1.077
 2748SOL    HW2 9144   4.148   0.258   1.205
 2749SOL     OW 9145   3.666   1.258   0.436
 2749SOL    HW1 9146   3.658   1.302   0.346
 2749SOL    HW2 9147   3.755   1.279   0.475
 2750SOL     OW 9148   2.567   6.201   2.602
 2750SOL    HW1 9149   2.564   6.119   2.661
 2750SOL    HW2 9150   2.605   6.176   2.513
 2751SOL     OW 9151   6.278   5.075   1.233
 2751SOL    HW1 9152   6.183   5.068   1.203
 2751SOL    HW2 9153   6.314   5.165   1.211
 2752SOL     OW 9154   4.096   5.318   6.219
 2752SOL    HW1 9155   4.146   5.280   6.141
 2752SOL    HW2 9156   4.128   5.274   6.303
 2753SOL     OW 9157   5.332   4.794   5.767
 2753SOL    HW1 9158   5.244   4.792   5.815
 2753SOL    HW2 9159   5.327   4.855   5.689
 2754SOL     OW 9160   1.532   0.656   4.857
 2754SOL    HW1 9161   1.588   0.652   4.940
 2754SOL    HW2 9162   1.435   0.656   4.882
 2755SOL     OW 9163   3.058   0.101   2.071
 2755SOL    HW1 9164   3.093   0.194   2.065
 2755SOL    HW2 9165   3.011   0.088   2.158
 2756SOL     OW 9166   4.566   5.861   6.960
 2756SOL    HW1 9167   4.527   5.770   6.971
 2756SOL    HW2 9168   4.497   5.930   6.981
 2757SOL     OW 9169   0.915   4.758   0.648
 2757SOL    HW1 9170   0.907   4.699   0.567
 2757SOL    HW2 9171   0.906   4.703   0.731
 2758SOL     OW 9172   4.491   0.707   5.614
 2758SOL    HW1 9173   4.476   0.708   5.713
 2758SOL    HW2 9174   4.420   0.760   5.568
 2759SOL     OW 9175   4.924   5.160   3.853
 2759SOL    HW1 9176   4.913   5.092   3.925
 2759SOL    HW2 9177   4.912   5.116   3.764
 2760SOL     OW 9178   1.101   6.170   3.318
 2760SOL    HW1 9179   1.184   6.114   3.318
 2760SOL    HW2 9180   1.112   6.246   3.383
 2761SOL     OW 9181   2.257   5.017   4.595
 2761SOL    HW1 9182   2.263   5.115   4.573
 2761SOL    HW2 9183   2.161   4.990   4.600
 2762SOL     OW 9184   1.823   0.987   5.668
 2762SOL    HW1 9185   1.903   0.963   5.613
 2762SOL    HW2 9186   1.833   0.948   5.760
 2763SOL     OW 9187   5.428   0.825   2.199
 2763SOL    HW1 9188   5.464   0.744   2.153
 2763SOL    HW2 9189   5.372   0.878   2.135
 2764SOL     OW 9190   6.379   0.800   2.082
 2764SOL    HW1 9191   6.388   0.815   1.983
 2764SOL    HW2 9192   6.415   0.879   2.131
 2765SOL     OW 9193   5.501   1.987   2.882
 2765SOL    HW1 9194   5.424   2.027   2.932
 2765SOL    HW2 9195   5.578   1.974   2.944
 2766SOL     OW 9196   5.283   6.950   2.366
 2766SOL    HW1 9197   5.272   7.010   2.445
 2766SOL    HW2 9198   5.282   6.855   2.395
 2767SOL     OW 9199   6.647   4.274   5.638
 2767SOL    HW1 9200   6.656   4.191   5.694
 2767SOL    HW2 9201   6.572   4.262   5.573
 2768SOL     OW 9202   5.822   1.291   6.448
 2768SOL    HW1 9203   5.839   1.292   6.546
 2768SOL    HW2 9204   5.900   1.251   6.400
 2769SOL     OW 9205   0.748   4.056   0.901
 2769SOL    HW1 9206   0.809   3.993   0.949
 2769SOL    HW2 9207   0.667   4.006   0.869
 2770SOL     OW 9208   4.961   5.992   2.265
 2770SOL    HW1 9209   5.038   6.054   2.277
 2770SOL    HW2 9210   4.992   5.897   2.275
 2771SOL     OW 9211   4.674   0.498   0.949
 2771SOL    HW1 9212   4.647   0.563   0.877
 2771SOL    HW2 9213   4.657   0.539   1.039
 2772SOL     OW 9214   3.473   1.407   6.641
 2772SOL    HW1 9215   3.430   1.398   6.551
 2772SOL    HW2 9216   3.464   1.501   6.673
 2773SOL     OW 9217   2.890   4.432   1.248
 2773SOL    HW1 9218   2.795   4.446   1.275
 2773SOL    HW2 9219   2.943   4.399   1.326
 2774SOL     OW 9220   5.184   3.313   1.981
 2774SOL    HW1 9221   5.182   3.395   2.039
 2774SOL    HW2 9222   5.091   3.278   1.970
 2775SOL     OW 9223   6.997   0.191   2.567
 2775SOL    HW1 9224   0.004   0.236   2.483
 2775SOL    HW2 9225   6.921   0.130   2.547
 2776SOL     OW 9226   2.540   6.231   0.201
 2776SOL    HW1 9227   2.589   6.247   0.115
 2776SOL    HW2 9228   2.560   6.139   0.234
 2777SOL     OW 9229   1.512   2.190   4.501
 2777SOL    HW1 9230   1.598   2.242   4.504
 2777SOL    HW2 9231   1.497   2.146   4.589
 2778SOL     OW 9232   2.843   2.239   4.999
 2778SOL    HW1 9233   2.812   2.144   5.008
 2778SOL    HW2 9234   2.942   2.241   4.989
 2779SOL     OW 9235   6.185   1.146   1.242
 2779SOL    HW1 9236   6.252   1.121   1.173
 2779SOL    HW2 9237   6.103   1.183   1.197
 2780SOL     OW 9238   3.564   6.146   0.077
 2780SOL    HW1 9239   3.569   6.152   0.177
 2780SOL    HW2 9240   3.598   6.057   0.047
 2781SOL     OW 9241   5.086   3.740   6.391
 2781SOL    HW1 9242   5.029   3.817   6.418
 2781SOL    HW2 9243   5.086   3.671   6.463
 2782SOL     OW 9244   3.753   1.223   5.755
 2782SOL    HW1 9245   3.738   1.201   5.659
 2782SOL    HW2 9246   3.712   1.312   5.776
 2783SOL     OW 9247   0.460   4.074   5.612
 2783SOL    HW1 9248   0.509   3.994   5.647
 2783SOL    HW2 9249   0.506   4.157   5.642
 2784SOL     OW 9250   2.477   2.284   1.294
 2784SOL    HW1 9251   2.524   2.346   1.356
 2784SOL    HW2 9252   2.487   2.316   1.200
 2785SOL     OW 9253   6.245   1.906   2.190
 2785SOL    HW1 9254   6.250   1.976   2.119
 2785SOL    HW2 9255   6.150   1.893   2.217
 2786SOL     OW 9256   3.875   0.538   0.530
 2786SOL    HW1 9257   3.802   0.479   0.496
 2786SOL    HW2 9258   3.863   0.554   0.628
 2787SOL     OW 9259   2.179   3.622   5.985
 2787SOL    HW1 9260   2.098   3.673   6.013
 2787SOL    HW2 9261   2.183   3.616   5.885
 2788SOL     OW 9262   0.598   3.575   0.173
 2788SOL    HW1 9263   0.572   3.658   0.125
 2788SOL    HW2 9264   0.534   3.557   0.247
 2789SOL     OW 9265   0.905   2.789   4.111
 2789SOL    HW1 9266   0.851   2.734   4.047
 2789SOL    HW2 9267   0.853   2.800   4.196
 2790SOL     OW 9268   3.730   6.332   3.901
 2790SOL    HW1 9269   3.808   6.281   3.865
 2790SOL    HW2 9270   3.660   6.339   3.829
 2791SOL     OW 9271   1.477   3.635   2.682
 2791SOL    HW1 9272   1.566   3.643   2.726
 2791SOL    HW2 9273   1.405   3.638   2.751
 2792SOL     OW 9274   0.990   2.304   5.342
 2792SOL    HW1 9275   1.015   2.221   5.291
 2792SOL    HW2 9276   0.947   2.278   5.429
 2793SOL     OW 9277   4.576   0.745   4.175
 2793SOL    HW1 9278   4.670   0.772   4.155
 2793SOL    HW2 9279   4.555   0.661   4.125
 2794SOL     OW 9280   0.663   1.433   1.588
 2794SOL    HW1 9281   0.662   1.517   1.643
 2794SOL    HW2 9282   0.689   1.356   1.647
 2795SOL     OW 9283   0.935   3.750   1.411
 2795SOL    HW1 9284   1.012   3.814   1.405
 2795SOL    HW2 9285   0.965   3.666   1.455
 2796SOL     OW 9286   4.754   4.635   2.520
 2796SOL    HW1 9287   4.742   4.575   2.441
 2796SOL    HW2 9288   4.705   4.721   2.505
 2797SOL     OW 9289   4.410   4.516   5.365
 2797SOL    HW1 9290   4.356   4.525   5.281
 2797SOL    HW2 9291   4.399   4.423   5.401
 2798SOL     OW 9292   1.567   4.080   3.378
 2798SOL    HW1 9293   1.611   4.145   3.440
 2798SOL    HW2 9294   1.482   4.118   3.343
 2799SOL     OW 9295   6.913   6.008   5.923
 2799SOL    HW1 9296   6.964   5.976   6.003
 2799SOL    HW2 9297   6.838   5.945   5.904
 2800SOL     OW 9298   2.712   1.020   6.339
 2800SOL    HW1 9299   2.634   0.964   6.311
 2800SOL    HW2 9300   2.700   1.113   6.306
 2801SOL     OW 9301   4.072   5.109   2.161
 2801SOL    HW1 9302   4.029   5.121   2.071
 2801SOL    HW2 9303   4.072   5.013   2.186
 2802SOL     OW 9304   6.580   0.481   6.394
 2802SOL    HW1 9305   6.543   0.389   6.405
 2802SOL    HW2 9306   6.622   0.489   6.304
 2803SOL     OW 9307   3.050   6.105   5.162
 2803SOL    HW1 9308   3.004   6.018   5.144
 2803SOL    HW2 9309   2.984   6.180   5.154
 2804SOL     OW 9310   0.464   4.679   2.291
 2804SOL    HW1 9311   0.496   4.651   2.201
 2804SOL    HW2 9312   0.407   4.607   2.331
 2805SOL     OW 9313   6.249   4.132   6.878
 2805SOL    HW1 9314   6.304   4.065   6.928
 2805SOL    HW2 9315   6.230   4.099   6.786
 2806SOL     OW 9316   6.720   5.754   2.384
 2806SOL    HW1 9317   6.715   5.783   2.289
 2806SOL    HW2 9318   6.800   5.795   2.428
 2807SOL     OW 9319   3.933   4.797   3.748
 2807SOL    HW1 9320   3.929   4.790   3.848
 2807SOL    HW2 9321   4.023   4.769   3.716
 2808SOL     OW 9322   4.483   6.137   4.547
 2808SOL    HW1 9323   4.577   6.165   4.526
 2808SOL    HW2 9324   4.482   6.079   4.628
 2809SOL     OW 9325   5.712   2.645   0.074
 2809SOL    HW1 9326   5.702   2.705   0.153
 2809SOL    HW2 9327   5.795   2.590   0.085
 2810SOL     OW 9328   1.677   1.115   6.541
 2810SOL    HW1 9329   1.644   1.083   6.630
 2810SOL    HW2 9330   1.601   1.153   6.489
 2811SOL     OW 9331   0.372   0.465   3.836
 2811SOL    HW1 9332   0.288   0.473   3.782
 2811SOL    HW2 9333   0.369   0.379   3.888
 2812SOL     OW 9334   5.162   4.632   2.773
 2812SOL    HW1 9335   5.162   4.542   2.815
 2812SOL    HW2 9336   5.220   4.631   2.691
 2813SOL     OW 9337   6.363   1.759   6.316
 2813SOL    HW1 9338   6.287   1.814   6.283
 2813SOL    HW2 9339   6.446   1.814   6.319
 2814SOL     OW 9340   5.517   4.421   4.897
 2814SOL    HW1 9341   5.488   4.500   4.951
 2814SOL    HW2 9342   5.451   4.346   4.910
 2815SOL     OW 9343   0.556   1.149   4.623
 2815SOL    HW1 9344   0.538   1.152   4.721
 2815SOL    HW2 9345   0.510   1.069   4.583
 2816SOL     OW 9346   5.164   6.770   3.076
 2816SOL    HW1 9347   5.086   6.824   3.109
 2816SOL    HW2 9348   5.245   6.794   3.129
 2817SOL     OW 9349   1.477   1.645   1.278
 2817SOL    HW1 9350   1.572   1.613   1.273
 2817SOL    HW2 9351   1.417   1.579   1.232
 2818SOL     OW 9352   1.483   2.884   0.067
 2818SOL    HW1 9353   1.551   2.823   0.028
 2818SOL    HW2 9354   1.399   2.881   0.013
 2819SOL     OW 9355   6.750   2.829   1.314
 2819SOL    HW1 9356   6.814   2.902   1.338
 2819SOL    HW2 9357   6.672   2.833   1.376
 2820SOL     OW 9358   4.957   2.243   3.984
 2820SOL    HW1 9359   4.909   2.156   3.979
 2820SOL    HW2 9360   4.902   2.310   4.034
 2821SOL     OW 9361   1.456   3.425   3.381
 2821SOL    HW1 9362   1.488   3.520   3.383
 2821SOL    HW2 9363   1.484   3.382   3.295
 2822SOL     OW 9364   3.041   1.685   0.579
 2822SOL    HW1 9365   3.090   1.609   0.622
 2822SOL    HW2 9366   2.965   1.648   0.525
 2823SOL     OW 9367   1.504   0.090   4.006
 2823SOL    HW1 9368   1.499   0.146   3.923
 2823SOL    HW2 9369   1.593   0.045   4.011
 2824SOL     OW 9370   3.172   1.898   5.426
 2824SOL    HW1 9371   3.135   1.874   5.516
 2824SOL    HW2 9372   3.126   1.980   5.392
 2825SOL     OW 9373   6.271   6.183   0.642
 2825SOL    HW1 9374   6.260   6.084   0.649
 2825SOL    HW2 9375   6.223   6.217   0.561
 2826SOL     OW 9376   4.911   3.681   3.994
 2826SOL    HW1 9377   4.940   3.588   3.972
 2826SOL    HW2 9378   4.868   3.722   3.914
 2827SOL     OW 9379   0.120   0.332   6.366
 2827SOL    HW1 9380   0.139   0.286   6.279
 2827SOL    HW2 9381   0.061   0.411   6.349
 2828SOL     OW 9382   3.885   2.024   6.557
 2828SOL    HW1 9383   3.857   2.098   6.619
 2828SOL    HW2 9384   3.853   1.936   6.594
 2829SOL     OW 9385   2.983   0.623   6.659
 2829SOL    HW1 9386   2.916   0.600   6.729
 2829SOL    HW2 9387   2.941   0.679   6.588
 2830SOL     OW 9388   3.137   3.654   6.777
 2830SOL    HW1 9389   3.185   3.732   6.816
 2830SOL    HW2 9390   3.070   3.687   6.709
 2831SOL     OW 9391   6.609   6.604   3.825
 2831SOL    HW1 9392   6.691   6.638   3.872
 2831SOL    HW2 9393   6.531   6.661   3.851
 2832SOL     OW 9394   0.246   0.876   2.156
 2832SOL    HW1 9395   0.184   0.810   2.198
 2832SOL    HW2 9396   0.304   0.830   2.089
 2833SOL     OW 9397   6.597   3.471   2.245
 2833SOL    HW1 9398   6.546   3.505   2.324
 2833SOL    HW2 9399   6.532   3.449   2.172
 2834SOL     OW 9400   4.212   0.805   5.515
 2834SOL    HW1 9401   4.146   0.730   5.503
 2834SOL    HW2 9402   4.168   0.879   5.565
 2835SOL     OW 9403   6.357   6.651   3.474
 2835SOL    HW1 9404   6.437   6.594   3.491
 2835SOL    HW2 9405   6.386   6.739   3.437
 2836SOL     OW 9406   6.442   0.566   0.849
 2836SOL    HW1 9407   6.347   0.596   0.852
 2836SOL    HW2 9408   6.446   0.466   0.839
 2837SOL     OW 9409   5.947   3.142   3.310
 2837SOL    HW1 9410   5.947   3.048   3.275
 2837SOL    HW2 9411   6.041   3.172   3.324
 2838SOL     OW 9412   1.648   4.489   4.500
 2838SOL    HW1 9413   1.736   4.446   4.523
 2838SOL    HW2 9414   1.574   4.423   4.512
 2839SOL     OW 9415   4.684   3.032   0.683
 2839SOL    HW1 9416   4.747   3.071   0.616
 2839SOL    HW2 9417   4.731   3.022   0.771
 2840SOL     OW 9418   6.666   2.680   4.968
 2840SOL    HW1 9419   6.629   2.590   4.943
 2840SOL    HW2 9420   6.735   2.707   4.901
 2841SOL     OW 9421   0.157   6.146   0.645
 2841SOL    HW1 9422   0.112   6.058   0.635
 2841SOL    HW2 9423   0.235   6.137   0.707
 2842SOL     OW 9424   5.879   3.600   3.145
 2842SOL    HW1 9425   5.898   3.698   3.153
 2842SOL    HW2 9426   5.782   3.587   3.125
 2843SOL     OW 9427   3.815   1.140   3.990
 2843SOL    HW1 9428   3.825   1.171   3.895
 2843SOL    HW2 9429   3.724   1.101   4.002
 2844SOL     OW 9430   1.254   4.227   5.136
 2844SOL    HW1 9431   1.240   4.222   5.235
 2844SOL    HW2 9432   1.178   4.277   5.094
 2845SOL     OW 9433   0.103   3.824   5.904
 2845SOL    HW1 9434   0.150   3.739   5.879
 2845SOL    HW2 9435   0.004   3.810   5.899
 2846SOL     OW 9436   5.545   1.115   5.741
 2846SOL    HW1 9437   5.562   1.032   5.687
 2846SOL    HW2 9438   5.447   1.122   5.762
 2847SOL     OW 9439   4.267   5.030   4.210
 2847SOL    HW1 9440   4.366   5.045   4.206
 2847SOL    HW2 9441   4.246   4.937   4.182
 2848SOL     OW 9442   1.960   6.669   5.464
 2848SOL    HW1 9443   2.059   6.659   5.470
 2848SOL    HW2 9444   1.916   6.583   5.488
 2849SOL     OW 9445   2.030   3.060   1.746
 2849SOL    HW1 9446   2.011   3.115   1.828
 2849SOL    HW2 9447   2.063   2.970   1.774
 2850SOL     OW 9448   4.113   1.441   0.765
 2850SOL    HW1 9449   4.156   1.413   0.851
 2850SOL    HW2 9450   4.085   1.537   0.771
 2851SOL     OW 9451   2.634   5.609   5.870
 2851SOL    HW1 9452   2.586   5.648   5.949
 2851SOL    HW2 9453   2.724   5.650   5.862
 2852SOL     OW 9454   0.817   2.525   6.734
 2852SOL    HW1 9455   0.797   2.488   6.825
 2852SOL    HW2 9456   0.765   2.474   6.665
 2853SOL     OW 9457   3.530   2.577   1.516
 2853SOL    HW1 9458   3.582   2.497   1.487
 2853SOL    HW2 9459   3.526   2.580   1.616
 2854SOL     OW 9460   0.398   0.664   3.537
 2854SOL    HW1 9461   0.488   0.621   3.540
 2854SOL    HW2 9462   0.335   0.606   3.486
 2855SOL     OW 9463   3.256   1.548   4.525
 2855SOL    HW1 9464   3.310   1.490   4.586
 2855SOL    HW2 9465   3.159   1.538   4.546
 2856SOL     OW 9466   2.478   1.319   5.647
 2856SOL    HW1 9467   2.384   1.314   5.683
 2856SOL    HW2 9468   2.483   1.391   5.578
 2857SOL     OW 9469   3.248   3.432   3.644
 2857SOL    HW1 9470   3.322   3.383   3.689
 2857SOL    HW2 9471   3.180   3.367   3.610
 2858SOL     OW 9472   5.528   2.710   3.285
 2858SOL    HW1 9473   5.562   2.623   3.248
 2858SOL    HW2 9474   5.482   2.761   3.212
 2859SOL     OW 9475   5.750   5.906   0.138
 2859SOL    HW1 9476   5.784   5.896   0.231
 2859SOL    HW2 9477   5.659   5.865   0.131
 2860SOL     OW 9478   4.202   2.148   0.769
 2860SOL    HW1 9479   4.237   2.242   0.771
 2860SOL    HW2 9480   4.116   2.146   0.718
 2861SOL     OW 9481   4.005   4.897   6.065
 2861SOL    HW1 9482   4.098   4.930   6.079
 2861SOL    HW2 9483   3.940   4.968   6.094
 2862SOL     OW 9484   6.553   0.093   3.513
 2862SOL    HW1 9485   6.557   0.136   3.603
 2862SOL    HW2 9486   6.462   0.107   3.474
 2863SOL     OW 9487   6.579   0.468   6.685
 2863SOL    HW1 9488   6.562   0.511   6.596
 2863SOL    HW2 9489   6.508   0.496   6.750
 2864SOL     OW 9490   3.758   1.942   0.795
 2864SOL    HW1 9491   3.788   1.977   0.884
 2864SOL    HW2 9492   3.702   2.012   0.749
 2865SOL     OW 9493   4.548   4.959   4.951
 2865SOL    HW1 9494   4.571   4.920   4.862
 2865SOL    HW2 9495   4.629   4.961   5.009
 2866SOL     OW 9496   0.561   6.742   6.267
 2866SOL    HW1 9497   0.471   6.715   6.303
 2866SOL    HW2 9498   0.615   6.782   6.341
 2867SOL     OW 9499   6.787   4.485   3.742
 2867SOL    HW1 9500   6.772   4.536   3.827
 2867SOL    HW2 9501   6.883   4.490   3.717
 2868SOL     OW 9502   1.976   4.711   4.814
 2868SOL    HW1 9503   1.937   4.772   4.746
 2868SOL    HW2 9504   1.926   4.625   4.815
 2869SOL     OW 9505   6.077   1.404   2.200
 2869SOL    HW1 9506   6.174   1.383   2.199
 2869SOL    HW2 9507   6.053   1.444   2.289
 2870SOL     OW 9508   4.167   2.202   2.496
 2870SOL    HW1 9509   4.164   2.102   2.496
 2870SOL    HW2 9510   4.148   2.236   2.404
 2871SOL     OW 9511   1.263   1.526   6.004
 2871SOL    HW1 9512   1.205   1.511   5.924
 2871SOL    HW2 9513   1.215   1.585   6.069
 2872SOL     OW 9514   2.029   0.458   3.704
 2872SOL    HW1 9515   2.042   0.557   3.701
 2872SOL    HW2 9516   1.945   0.437   3.755
 2873SOL     OW 9517   6.517   5.679   1.665
 2873SOL    HW1 9518   6.467   5.596   1.641
 2873SOL    HW2 9519   6.454   5.746   1.704
 2874SOL     OW 9520   5.511   2.139   1.946
 2874SOL    HW1 9521   5.562   2.091   1.875
 2874SOL    HW2 9522   5.433   2.187   1.904
 2875SOL     OW 9523   3.020   5.050   1.075
 2875SOL    HW1 9524   3.023   5.028   1.173
 2875SOL    HW2 9525   2.935   5.015   1.036
 2876SOL     OW 9526   6.359   2.324   1.853
 2876SOL    HW1 9527   6.353   2.271   1.769
 2876SOL    HW2 9528   6.380   2.264   1.930
 2877SOL     OW 9529   1.888   3.560   5.334
 2877SOL    HW1 9530   1.931   3.483   5.382
 2877SOL    HW2 9531   1.934   3.645   5.360
 2878SOL     OW 9532   3.946   4.972   0.469
 2878SOL    HW1 9533   3.848   4.978   0.488
 2878SOL    HW2 9534   3.961   4.921   0.384
 2879SOL     OW 9535   4.781   4.339   6.822
 2879SOL    HW1 9536   4.698   4.330   6.877
 2879SOL    HW2 9537   4.765   4.304   6.730
 2880SOL     OW 9538   1.868   6.670   3.064
 2880SOL    HW1 9539   1.908   6.671   3.156
 2880SOL    HW2 9540   1.872   6.577   3.027
 2881SOL     OW 9541   0.129   0.255   0.005
 2881SOL    HW1 9542   0.203   0.234   6.966
 2881SOL    HW2 9543   0.042   0.258   6.980
 2882SOL     OW 9544   6.899   3.361   3.414
 2882SOL    HW1 9545   6.947   3.310   3.342
 2882SOL    HW2 9546   6.849   3.298   3.473
 2883SOL     OW 9547   4.151   5.870   2.015
 2883SOL    HW1 9548   4.152   5.831   2.107
 2883SOL    HW2 9549   4.244   5.895   1.988
 2884SOL     OW 9550   2.030   5.408   3.107
 2884SOL    HW1 9551   2.000   5.343   3.177
 2884SOL    HW2 9552   1.951   5.458   3.072
 2885SOL     OW 9553   0.768   2.388   4.366
 2885SOL    HW1 9554   0.840   2.453   4.389
 2885SOL    HW2 9555   0.723   2.356   4.450
 2886SOL     OW 9556   2.834   2.844   6.214
 2886SOL    HW1 9557   2.904   2.869   6.147
 2886SOL    HW2 9558   2.875   2.836   6.305
 2887SOL     OW 9559   2.607   1.612   4.973
 2887SOL    HW1 9560   2.607   1.514   4.996
 2887SOL    HW2 9561   2.572   1.664   5.051
 2888SOL     OW 9562   6.894   5.200   6.885
 2888SOL    HW1 9563   6.868   5.286   6.841
 2888SOL    HW2 9564   6.817   5.136   6.880
 2889SOL     OW 9565   1.328   0.416   0.798
 2889SOL    HW1 9566   1.258   0.488   0.796
 2889SOL    HW2 9567   1.417   0.458   0.819
 2890SOL     OW 9568   3.007   0.473   0.988
 2890SOL    HW1 9569   2.989   0.536   0.912
 2890SOL    HW2 9570   2.962   0.386   0.970
 2891SOL     OW 9571   3.077   4.859   4.980
 2891SOL    HW1 9572   3.049   4.910   4.899
 2891SOL    HW2 9573   3.010   4.787   4.999
 2892SOL     OW 9574   4.136   4.221   5.253
 2892SOL    HW1 9575   4.210   4.265   5.202
 2892SOL    HW2 9576   4.081   4.165   5.191
 2893SOL     OW 9577   3.419   0.817   5.997
 2893SOL    HW1 9578   3.429   0.910   5.961
 2893SOL    HW2 9579   3.468   0.754   5.938
 2894SOL     OW 9580   4.223   2.925   1.167
 2894SOL    HW1 9581   4.183   2.856   1.227
 2894SOL    HW2 9582   4.263   2.998   1.222
 2895SOL     OW 9583   3.571   3.088   0.279
 2895SOL    HW1 9584   3.516   3.010   0.249
 2895SOL    HW2 9585   3.527   3.173   0.250
 2896SOL     OW 9586   1.518   4.630   0.236
 2896SOL    HW1 9587   1.453   4.636   0.160
 2896SOL    HW2 9588   1.566   4.542   0.231
 2897SOL     OW 9589   1.176   6.841   3.868
 2897SOL    HW1 9590   1.244   6.829   3.796
 2897SOL    HW2 9591   1.084   6.834   3.830
 2898SOL     OW 9592   2.156   5.067   2.781
 2898SOL    HW1 9593   2.224   5.109   2.721
 2898SOL    HW2 9594   2.068   5.114   2.770
 2899SOL     OW 9595   5.804   0.698   0.737
 2899SOL    HW1 9596   5.796   0.782   0.791
 2899SOL    HW2 9597   5.877   0.707   0.670
 2900SOL     OW 9598   3.128   5.546   6.286
 2900SOL    HW1 9599   3.142   5.622   6.349
 2900SOL    HW2 9600   3.081   5.471   6.333
 2901SOL     OW 9601   2.469   6.950   1.275
 2901SOL    HW1 9602   2.416   6.912   1.199
 2901SOL    HW2 9603   2.429   6.922   1.362
 2902SOL     OW 9604   4.872   5.200   0.756
 2902SOL    HW1 9605   4.774   5.189   0.737
 2902SOL    HW2 9606   4.915   5.111   0.762
 2903SOL     OW 9607   2.951   2.638   1.715
 2903SOL    HW1 9608   3.006   2.594   1.643
 2903SOL    HW2 9609   2.941   2.574   1.791
 2904SOL     OW 9610   2.546   2.562   4.507
 2904SOL    HW1 9611   2.529   2.540   4.410
 2904SOL    HW2 9612   2.641   2.590   4.518
 2905SOL     OW 9613   1.224   1.642   2.164
 2905SOL    HW1 9614   1.190   1.726   2.207
 2905SOL    HW2 9615   1.208   1.564   2.224
 2906SOL     OW 9616   5.364   5.169   2.283
 2906SOL    HW1 9617   5.310   5.085   2.280
 2906SOL    HW2 9618   5.461   5.146   2.297
 2907SOL     OW 9619   6.121   0.400   4.602
 2907SOL    HW1 9620   6.068   0.316   4.590
 2907SOL    HW2 9621   6.210   0.390   4.557
 2908SOL     OW 9622   3.389   5.823   5.013
 2908SOL    HW1 9623   3.455   5.748   5.022
 2908SOL    HW2 9624   3.433   5.901   4.970
 2909SOL     OW 9625   2.076   6.063   5.911
 2909SOL    HW1 9626   2.078   6.060   6.011
 2909SOL    HW2 9627   2.161   6.102   5.877
 2910SOL     OW 9628   4.638   5.965   5.348
 2910SOL    HW1 9629   4.652   6.060   5.377
 2910SOL    HW2 9630   4.713   5.937   5.288
 2911SOL     OW 9631   2.449   4.449   3.718
 2911SOL    HW1 9632   2.392   4.519   3.675
 2911SOL    HW2 9633   2.393   4.372   3.746
 2912SOL     OW 9634   2.774   5.094   1.283
 2912SOL    HW1 9635   2.740   5.022   1.343
 2912SOL    HW2 9636   2.874   5.102   1.294
 2913SOL     OW 9637   0.784   3.208   2.435
 2913SOL    HW1 9638   0.753   3.137   2.371
 2913SOL    HW2 9639   0.727   3.290   2.423
 2914SOL     OW 9640   5.588   4.706   5.827
 2914SOL    HW1 9641   5.571   4.624   5.881
 2914SOL    HW2 9642   5.501   4.746   5.797
 2915SOL     OW 9643   4.486   1.557   3.579
 2915SOL    HW1 9644   4.429   1.638   3.593
 2915SOL    HW2 9645   4.427   1.478   3.562
 2916SOL     OW 9646   4.835   6.981   4.765
 2916SOL    HW1 9647   4.918   7.004   4.713
 2916SOL    HW2 9648   4.830   6.882   4.777
 2917SOL     OW 9649   4.046   0.566   2.468
 2917SOL    HW1 9650   3.951   0.569   2.497
 2917SOL    HW2 9651   4.091   0.486   2.509
 2918SOL     OW 9652   1.226   2.684   4.687
 2918SOL    HW1 9653   1.156   2.754   4.674
 2918SOL    HW2 9654   1.182   2.593   4.689
 2919SOL     OW 9655   6.483   5.804   0.535
 2919SOL    HW1 9656   6.526   5.730   0.482
 2919SOL    HW2 9657   6.549   5.878   0.548
 2920SOL     OW 9658   4.470   2.008   2.710
 2920SOL    HW1 9659   4.491   1.927   2.765
 2920SOL    HW2 9660   4.502   1.993   2.617
 2921SOL     OW 9661   0.079   1.103   0.945
 2921SOL    HW1 9662   0.071   1.004   0.954
 2921SOL    HW2 9663   0.153   1.135   1.004
 2922SOL     OW 9664   4.113   6.744   5.025
 2922SOL    HW1 9665   4.159   6.664   5.063
 2922SOL    HW2 9666   4.098   6.811   5.097
 2923SOL     OW 9667   6.899   4.645   6.779
 2923SOL    HW1 9668   6.971   4.594   6.826
 2923SOL    HW2 9669   6.940   4.712   6.717
 2924SOL     OW 9670   6.487   6.917   6.039
 2924SOL    HW1 9671   6.445   6.996   5.995
 2924SOL    HW2 9672   6.453   6.833   5.996
 2925SOL     OW 9673   5.907   3.895   0.755
 2925SOL    HW1 9674   5.892   3.796   0.747
 2925SOL    HW2 9675   5.944   3.916   0.846
 2926SOL     OW 9676   0.253   1.157   3.845
 2926SOL    HW1 9677   0.211   1.084   3.899
 2926SOL    HW2 9678   0.348   1.170   3.876
 2927SOL     OW 9679   0.355   3.211   2.772
 2927SOL    HW1 9680   0.292   3.284   2.746
 2927SOL    HW2 9681   0.380   3.220   2.868
 2928SOL     OW 9682   5.495   5.854   0.437
 2928SOL    HW1 9683   5.589   5.871   0.410
 2928SOL    HW2 9684   5.469   5.919   0.509
 2929SOL     OW 9685   0.872   0.283   5.682
 2929SOL    HW1 9686   0.927   0.271   5.764
 2929SOL    HW2 9687   0.931   0.301   5.604
 2930SOL     OW 9688   2.979   6.901   4.431
 2930SOL    HW1 9689   2.893   6.947   4.412
 2930SOL    HW2 9690   2.965   6.802   4.433
 2931SOL     OW 9691   3.924   5.068   6.486
 2931SOL    HW1 9692   4.006   5.124   6.491
 2931SOL    HW2 9693   3.945   4.974   6.513
 2932SOL     OW 9694   1.792   4.635   2.127
 2932SOL    HW1 9695   1.740   4.550   2.133
 2932SOL    HW2 9696   1.771   4.693   2.206
 2933SOL     OW 9697   5.085   2.336   3.485
 2933SOL    HW1 9698   5.084   2.429   3.520
 2933SOL    HW2 9699   5.000   2.318   3.434
 2934SOL     OW 9700   2.099   1.116   0.590
 2934SOL    HW1 9701   2.039   1.187   0.627
 2934SOL    HW2 9702   2.078   1.028   0.633
 2935SOL     OW 9703   6.955   1.496   1.020
 2935SOL    HW1 9704   6.863   1.475   0.985
 2935SOL    HW2 9705   6.976   1.436   1.097
 2936SOL     OW 9706   3.151   5.371   0.261
 2936SOL    HW1 9707   3.248   5.347   0.267
 2936SOL    HW2 9708   3.139   5.467   0.286
 2937SOL     OW 9709   2.756   4.526   0.057
 2937SOL    HW1 9710   2.800   4.601   0.105
 2937SOL    HW2 9711   2.681   4.561   7.024
 2938SOL     OW 9712   5.056   4.564   5.605
 2938SOL    HW1 9713   5.042   4.661   5.624
 2938SOL    HW2 9714   4.971   4.514   5.624
 2939SOL     OW 9715   0.423   6.513   5.951
 2939SOL    HW1 9716   0.426   6.481   5.856
 2939SOL    HW2 9717   0.393   6.609   5.952
 2940SOL     OW 9718   3.571   0.188   5.297
 2940SOL    HW1 9719   3.488   0.131   5.297
 2940SOL    HW2 9720   3.635   0.154   5.366
 2941SOL     OW 9721   3.613   1.786   4.873
 2941SOL    HW1 9722   3.588   1.724   4.947
 2941SOL    HW2 9723   3.592   1.743   4.785
 2942SOL     OW 9724   4.100   6.350   4.233
 2942SOL    HW1 9725   4.193   6.374   4.264
 2942SOL    HW2 9726   4.085   6.253   4.249
 2943SOL     OW 9727   5.620   4.772   3.087
 2943SOL    HW1 9728   5.709   4.764   3.133
 2943SOL    HW2 9729   5.548   4.780   3.156
 2944SOL     OW 9730   4.749   6.066   0.061
 2944SOL    HW1 9731   4.780   6.025   0.147
 2944SOL    HW2 9732   4.686   6.004   0.015
 2945SOL     OW 9733   3.368   4.087   4.144
 2945SOL    HW1 9734   3.456   4.082   4.098
 2945SOL    HW2 9735   3.304   4.021   4.102
 2946SOL     OW 9736   0.696   6.201   6.066
 2946SOL    HW1 9737   0.774   6.172   6.121
 2946SOL    HW2 9738   0.724   6.209   5.970
 2947SOL     OW 9739   0.040   5.307   0.090
 2947SOL    HW1 9740   0.059   5.405   0.086
 2947SOL    HW2 9741   0.019   5.273   7.023
 2948SOL     OW 9742   5.846   3.732   5.717
 2948SOL    HW1 9743   5.901   3.665   5.768
 2948SOL    HW2 9744   5.757   3.693   5.695
 2949SOL     OW 9745   0.719   6.171   0.985
 2949SOL    HW1 9746   0.738   6.232   0.908
 2949SOL    HW2 9747   0.620   6.168   1.002
 2950SOL     OW 9748   4.911   3.445   4.661
 2950SOL    HW1 9749   4.996   3.449   4.608
 2950SOL    HW2 9750   4.879   3.537   4.682
 2951SOL     OW 9751   6.045   0.432   0.692
 2951SOL    HW1 9752   6.127   0.398   0.645
 2951SOL    HW2 9753   5.986   0.479   0.627
 2952SOL     OW 9754   0.777   3.609   1.743
 2952SOL    HW1 9755   0.692   3.632   1.695
 2952SOL    HW2 9756   0.790   3.671   1.820
 2953SOL     OW 9757   5.969   1.869   2.276
 2953SOL    HW1 9758   5.929   1.961   2.277
 2953SOL    HW2 9759   5.896   1.802   2.291
 2954SOL     OW 9760   5.265   6.074   1.507
 2954SOL    HW1 9761   5.342   6.101   1.449
 2954SOL    HW2 9762   5.234   5.983   1.481
 2955SOL     OW 9763   6.329   2.701   0.795
 2955SOL    HW1 9764   6.428   2.685   0.792
 2955SOL    HW2 9765   6.312   2.800   0.800
 2956SOL     OW 9766   6.505   6.030   3.437
 2956SOL    HW1 9767   6.532   6.008   3.530
 2956SOL    HW2 9768   6.469   6.123   3.433
 2957SOL     OW 9769   1.691   4.715   1.493
 2957SOL    HW1 9770   1.608   4.764   1.521
 2957SOL    HW2 9771   1.671   4.618   1.487
 2958SOL     OW 9772   2.721   5.603   6.345
 2958SOL    HW1 9773   2.624   5.579   6.360
 2958SOL    HW2 9774   2.779   5.530   6.380
 2959SOL     OW 9775   3.906   5.522   0.088
 2959SOL    HW1 9776   3.900   5.622   0.087
 2959SOL    HW2 9777   3.930   5.489   7.021
 2960SOL     OW 9778   3.083   1.682   6.878
 2960SOL    HW1 9779   3.127   1.594   6.892
 2960SOL    HW2 9780   3.118   1.748   6.944
 2961SOL     OW 9781   6.137   1.480   4.402
 2961SOL    HW1 9782   6.114   1.385   4.423
 2961SOL    HW2 9783   6.111   1.538   4.480
 2962SOL     OW 9784   4.307   0.681   2.986
 2962SOL    HW1 9785   4.337   0.754   3.047
 2962SOL    HW2 9786   4.380   0.660   2.920
 2963SOL     OW 9787   1.930   3.552   4.841
 2963SOL    HW1 9788   1.975   3.637   4.867
 2963SOL    HW2 9789   1.865   3.526   4.912
 2964SOL     OW 9790   2.910   6.051   0.253
 2964SOL    HW1 9791   2.876   5.978   0.194
 2964SOL    HW2 9792   2.987   6.098   0.209
 2965SOL     OW 9793   0.586   2.585   6.082
 2965SOL    HW1 9794   0.535   2.640   6.148
 2965SOL    HW2 9795   0.648   2.643   6.029
 2966SOL     OW 9796   5.058   4.793   3.553
 2966SOL    HW1 9797   5.095   4.886   3.554
 2966SOL    HW2 9798   5.017   4.775   3.464
 2967SOL     OW 9799   5.453   2.413   3.934
 2967SOL    HW1 9800   5.551   2.417   3.951
 2967SOL    HW2 9801   5.419   2.321   3.954
 2968SOL     OW 9802   6.414   3.679   3.257
 2968SOL    HW1 9803   6.476   3.666   3.335
 2968SOL    HW2 9804   6.464   3.662   3.172
 2969SOL     OW 9805   3.588   1.599   4.652
 2969SOL    HW1 9806   3.520   1.528   4.666
 2969SOL    HW2 9807   3.680   1.561   4.661
 2970SOL     OW 9808   1.186   3.956   6.036
 2970SOL    HW1 9809   1.249   3.947   6.113
 2970SOL    HW2 9810   1.119   4.028   6.056
 2971SOL     OW 9811   5.263   3.793   2.744
 2971SOL    HW1 9812   5.298   3.796   2.838
 2971SOL    HW2 9813   5.210   3.876   2.726
 2972SOL     OW 9814   1.041   4.578   4.821
 2972SOL    HW1 9815   0.966   4.515   4.799
 2972SOL    HW2 9816   1.091   4.601   4.738
 2973SOL     OW 9817   5.894   0.007   4.124
 2973SOL    HW1 9818   5.978   0.019   4.071
 2973SOL    HW2 9819   5.819   7.008   4.062
 2974SOL     OW 9820   6.862   4.403   2.222
 2974SOL    HW1 9821   6.889   4.323   2.168
 2974SOL    HW2 9822   6.876   4.486   2.168
 2975SOL     OW 9823   6.658   1.194   4.140
 2975SOL    HW1 9824   6.571   1.224   4.100
 2975SOL    HW2 9825   6.656   1.095   4.154
 2976SOL     OW 9826   2.422   6.009   1.608
 2976SOL    HW1 9827   2.508   6.005   1.556
 2976SOL    HW2 9828   2.391   6.104   1.613
 2977SOL     OW 9829   3.187   6.677   4.089
 2977SOL    HW1 9830   3.262   6.688   4.154
 2977SOL    HW2 9831   3.124   6.606   4.122
 2978SOL     OW 9832   2.945   0.024   6.343
 2978SOL    HW1 9833   2.856   0.062   6.320
 2978SOL    HW2 9834   2.934   6.960   6.389
 2979SOL     OW 9835   3.115   1.234   2.809
 2979SOL    HW1 9836   3.104   1.254   2.906
 2979SOL    HW2 9837   3.138   1.318   2.759
 2980SOL     OW 9838   6.067   6.715   3.583
 2980SOL    HW1 9839   6.044   6.774   3.661
 2980SOL    HW2 9840   6.157   6.740   3.548
 2981SOL     OW 9841   2.009   1.508   6.242
 2981SOL    HW1 9842   1.918   1.488   6.206
 2981SOL    HW2 9843   2.057   1.569   6.179
 2982SOL     OW 9844   4.890   5.979   2.014
 2982SOL    HW1 9845   4.864   5.883   2.006
 2982SOL    HW2 9846   4.910   6.001   2.110
 2983SOL     OW 9847   6.718   0.922   3.037
 2983SOL    HW1 9848   6.680   0.833   3.011
 2983SOL    HW2 9849   6.809   0.933   2.998
 2984SOL     OW 9850   5.869   4.668   1.585
 2984SOL    HW1 9851   5.852   4.741   1.652
 2984SOL    HW2 9852   5.846   4.580   1.627
 2985SOL     OW 9853   6.744   2.468   3.204
 2985SOL    HW1 9854   6.681   2.406   3.252
 2985SOL    HW2 9855   6.757   2.435   3.110
 2986SOL     OW 9856   2.102   3.489   5.089
 2986SOL    HW1 9857   2.139   3.580   5.067
 2986SOL    HW2 9858   2.004   3.497   5.107
 2987SOL     OW 9859   5.278   1.648   4.875
 2987SOL    HW1 9860   5.279   1.682   4.969
 2987SOL    HW2 9861   5.292   1.724   4.812
 2988SOL     OW 9862   0.751   0.042   2.298
 2988SOL    HW1 9863   0.726   7.021   2.213
 2988SOL    HW2 9864   0.705   0.130   2.304
 2989SOL     OW 9865   6.471   5.227   0.863
 2989SOL    HW1 9866   6.443   5.203   0.770
 2989SOL    HW2 9867   6.525   5.152   0.902
 2990SOL     OW 9868   2.830   1.412   1.664
 2990SOL    HW1 9869   2.907   1.473   1.646
 2990SOL    HW2 9870   2.847   1.324   1.620
 2991SOL     OW 9871   6.588   4.819   0.329
 2991SOL    HW1 9872   6.643   4.894   0.365
 2991SOL    HW2 9873   6.633   4.782   0.247
 2992SOL     OW 9874   4.177   4.433   6.766
 2992SOL    HW1 9875   4.132   4.521   6.781
 2992SOL    HW2 9876   4.220   4.403   6.851
 2993SOL     OW 9877   1.693   4.431   0.167
 2993SOL    HW1 9878   1.751   4.479   0.232
 2993SOL    HW2 9879   1.748   4.366   0.115
 2994SOL     OW 9880   4.220   6.131   0.231
 2994SOL    HW1 9881   4.263   6.147   0.320
 2994SOL    HW2 9882   4.279   6.167   0.159
 2995SOL     OW 9883   2.524   0.350   5.466
 2995SOL    HW1 9884   2.472   0.304   5.394
 2995SOL    HW2 9885   2.461   0.394   5.530
 2996SOL     OW 9886   4.555   6.341   5.819
 2996SOL    HW1 9887   4.511   6.252   5.809
 2996SOL    HW2 9888   4.498   6.401   5.875
 2997SOL     OW 9889   4.279   5.792   0.522
 2997SOL    HW1 9890   4.326   5.731   0.585
 2997SOL    HW2 9891   4.191   5.752   0.496
 2998SOL     OW 9892   6.641   4.923   5.412
 2998SOL    HW1 9893   6.738   4.898   5.414
 2998SOL    HW2 9894   6.588   4.858   5.466
 2999SOL     OW 9895   2.189   1.401   2.086
 2999SOL    HW1 9896   2.119   1.330   2.082
 2999SOL    HW2 9897   2.280   1.359   2.080
 3000SOL     OW 9898   1.117   1.929   4.542
 3000SOL    HW1 9899   1.196   1.942   4.603
 3000SOL    HW2 9900   1.033   1.940   4.594
 3001SOL     OW 9901   4.895   6.680   5.768
 3001SOL    HW1 9902   4.852   6.721   5.688
 3001SOL    HW2 9903   4.881   6.581   5.767
 3002SOL     OW 9904   2.998   0.780   5.677
 3002SOL    HW1 9905   2.916   0.732   5.708
 3002SOL    HW2 9906   3.027   0.745   5.588
 3003SOL     OW 9907   1.795   6.817   5.643
 3003SOL    HW1 9908   1.718   6.754   5.651
 3003SOL    HW2 9909   1.849   6.794   5.562
 3004SOL     OW 9910   6.820   2.849   6.059
 3004SOL    HW1 9911   6.831   2.790   5.980
 3004SOL    HW2 9912   6.728   2.836   6.098
 3005SOL     OW 9913   4.709   2.383   0.758
 3005SOL    HW1 9914   4.809   2.381   0.761
 3005SOL    HW2 9915   4.675   2.293   0.732
 3006SOL     OW 9916   4.548   6.878   1.536
 3006SOL    HW1 9917   4.584   6.801   1.484
 3006SOL    HW2 9918   4.448   6.875   1.535
 3007SOL     OW 9919   5.683   5.362   1.954
 3007SOL    HW1 9920   5.676   5.266   1.978
 3007SOL    HW2 9921   5.610   5.414   1.998
 3008SOL     OW 9922   4.453   5.484   5.529
 3008SOL    HW1 9923   4.535   5.484   5.471
 3008SOL    HW2 9924   4.424   5.577   5.547
 3009SOL     OW 9925   1.381   0.585   2.349
 3009SOL    HW1 9926   1.331   0.502   2.375
 3009SOL    HW2 9927   1.319   0.663   2.350
 3010SOL     OW 9928   2.843   6.916   2.875
 3010SOL    HW1 9929   2.877   6.837   2.927
 3010SOL    HW2 9930   2.920   6.973   2.848
 3011SOL     OW 9931   5.668   0.280   0.309
 3011SOL    HW1 9932   5.713   0.361   0.346
 3011SOL    HW2 9933   5.737   0.211   0.287
 3012SOL     OW 9934   7.007   4.944   1.464
 3012SOL    HW1 9935   0.076   4.978   1.473
 3012SOL    HW2 9936   6.988   4.880   1.539
 3013SOL     OW 9937   6.142   4.064   2.104
 3013SOL    HW1 9938   6.159   4.004   2.182
 3013SOL    HW2 9939   6.128   4.157   2.137
 3014SOL     OW 9940   5.290   0.098   5.830
 3014SOL    HW1 9941   5.363   0.164   5.846
 3014SOL    HW2 9942   5.260   0.059   5.917
 3015SOL     OW 9943   2.648   1.151   0.162
 3015SOL    HW1 9944   2.700   1.073   0.127
 3015SOL    HW2 9945   2.597   1.193   0.086
 3016SOL     OW 9946   3.741   6.310   3.434
 3016SOL    HW1 9947   3.758   6.213   3.449
 3016SOL    HW2 9948   3.642   6.327   3.440
 3017SOL     OW 9949   0.422   5.717   1.356
 3017SOL    HW1 9950   0.345   5.775   1.331
 3017SOL    HW2 9951   0.391   5.623   1.368
 3018SOL     OW 9952   4.019   6.901   6.186
 3018SOL    HW1 9953   3.946   6.852   6.139
 3018SOL    HW2 9954   4.077   6.948   6.119
 3019SOL     OW 9955   5.233   0.015   1.868
 3019SOL    HW1 9956   5.317   0.035   1.817
 3019SOL    HW2 9957   5.185   6.963   1.826
 3020SOL     OW 9958   1.929   0.785   2.015
 3020SOL    HW1 9959   1.985   0.846   2.072
 3020SOL    HW2 9960   1.833   0.810   2.025
 3021SOL     OW 9961   4.245   0.600   6.281
 3021SOL    HW1 9962   4.273   0.670   6.215
 3021SOL    HW2 9963   4.321   0.536   6.296
 3022SOL     OW 9964   6.500   0.424   2.956
 3022SOL    HW1 9965   6.441   0.475   2.894
 3022SOL    HW2 9966   6.504   0.328   2.928
 3023SOL     OW 9967   6.154   0.046   1.518
 3023SOL    HW1 9968   6.169   0.112   1.592
 3023SOL    HW2 9969   6.062   0.008   1.525
 3024SOL     OW 9970   2.713   0.168   6.326
 3024SOL    HW1 9971   2.680   0.157   6.233
 3024SOL    HW2 9972   2.756   0.258   6.335
 3025SOL     OW 9973   1.680   2.567   1.552
 3025SOL    HW1 9974   1.745   2.494   1.531
 3025SOL    HW2 9975   1.662   2.568   1.650
 3026SOL     OW 9976   2.498   5.642   0.481
 3026SOL    HW1 9977   2.570   5.694   0.526
 3026SOL    HW2 9978   2.522   5.545   0.482
 3027SOL     OW 9979   1.309   2.003   3.571
 3027SOL    HW1 9980   1.340   2.031   3.480
 3027SOL    HW2 9981   1.307   2.082   3.631
 3028SOL     OW 9982   0.799   0.640   4.657
 3028SOL    HW1 9983   0.853   0.724   4.654
 3028SOL    HW2 9984   0.833   0.576   4.589
 3029SOL     OW 9985   6.023   5.071   5.650
 3029SOL    HW1 9986   6.111   5.088   5.695
 3029SOL    HW2 9987   6.028   5.103   5.555
 3030SOL     OW 9988   0.950   0.883   5.543
 3030SOL    HW1 9989   0.981   0.899   5.449
 3030SOL    HW2 9990   0.889   0.804   5.544
 3031SOL     OW 9991   0.460   5.484   6.132
 3031SOL    HW1 9992   0.384   5.476   6.197
 3031SOL    HW2 9993   0.423   5.492   6.039
 3032SOL     OW 9994   4.037   6.513   5.859
 3032SOL    HW1 9995   4.112   6.569   5.896
 3032SOL    HW2 9996   3.950   6.543   5.898
 3033SOL     OW 9997   5.827   4.619   5.706
 3033SOL    HW1 9998   5.741   4.637   5.753
 3033SOL    HW2 9999   5.898   4.679   5.741
 3034SOL     OW10000   2.529   6.821   4.518
 3034SOL    HW110001   2.498   6.810   4.423
 3034SOL    HW210002   2.606   6.760   4.535
 3035SOL     OW10003   6.412   6.960   6.804
 3035SOL    HW110004   6.410   6.983   6.901
 3035SOL    HW210005   6.446   0.015   6.752
 3036SOL     OW10006   1.308   4.963   5.412
 3036SOL    HW110007   1.397   4.917   5.421
 3036SOL    HW210008   1.241   4.915   5.469
 3037SOL     OW10009   5.718   6.877   5.841
 3037SOL    HW110010   5.702   6.932   5.759
 3037SOL    HW210011   5.721   6.937   5.921
 3038SOL     OW10012   6.149   6.315   5.865
 3038SOL    HW110013   6.197   6.373   5.799
 3038SOL    HW210014   6.053   6.306   5.838
 3039SOL     OW10015   0.790   4.965   0.549
 3039SOL    HW110016   0.853   4.901   0.594
 3039SOL    HW210017   0.747   4.920   0.471
 3040SOL     OW10018   3.020   1.258   6.788
 3040SOL    HW110019   3.119   1.255   6.794
 3040SOL    HW210020   2.984   1.164   6.782
 3041SOL     OW10021   1.779   2.192   6.376
 3041SOL    HW110022   1.714   2.263   6.404
 3041SOL    HW210023   1.788   2.194   6.276
 3042SOL     OW10024   6.165   6.707   1.317
 3042SOL    HW110025   6.131   6.702   1.411
 3042SOL    HW210026   6.090   6.692   1.253
 3043SOL     OW10027   6.624   5.151   6.591
 3043SOL    HW110028   6.721   5.129   6.577
 3043SOL    HW210029   6.603   5.149   6.689
 3044SOL     OW10030   2.532   3.089   6.431
 3044SOL    HW110031   2.570   3.098   6.339
 3044SOL    HW210032   2.535   3.178   6.477
 3045SOL     OW10033   4.526   2.188   3.677
 3045SOL    HW110034   4.463   2.158   3.749
 3045SOL    HW210035   4.579   2.110   3.644
 3046SOL     OW10036   1.781   2.210   5.833
 3046SOL    HW110037   1.723   2.288   5.812
 3046SOL    HW210038   1.859   2.209   5.770
 3047SOL     OW10039   0.218   4.834   1.286
 3047SOL    HW110040   0.236   4.745   1.245
 3047SOL    HW210041   0.125   4.835   1.323
 3048SOL     OW10042   3.086   2.876   1.790
 3048SOL    HW110043   3.179   2.860   1.756
 3048SOL    HW210044   3.029   2.797   1.769
 3049SOL     OW10045   0.856   0.435   1.706
 3049SOL    HW110046   0.843   0.514   1.646
 3049SOL    HW210047   0.949   0.401   1.696
 3050SOL     OW10048   1.777   0.469   3.949
 3050SOL    HW110049   1.738   0.530   3.880
 3050SOL    HW210050   1.708   0.447   4.018
 3051SOL     OW10051   3.119   4.618   6.346
 3051SOL    HW110052   3.125   4.570   6.259
 3051SOL    HW210053   3.024   4.647   6.362
 3052SOL     OW10054   4.925   0.029   2.455
 3052SOL    HW110055   4.943   0.013   2.552
 3052SOL    HW210056   4.833   7.022   2.433
 3053SOL     OW10057   4.291   0.096   1.852
 3053SOL    HW110058   4.386   0.067   1.839
 3053SOL    HW210059   4.255   0.053   1.935
 3054SOL     OW10060   2.090   4.303   5.267
 3054SOL    HW110061   2.054   4.275   5.356
 3054SOL    HW210062   2.184   4.268   5.257
 3055SOL     OW10063   6.062   6.978   2.874
 3055SOL    HW110064   6.053   6.894   2.821
 3055SOL    HW210065   6.118   6.961   2.955
 3056SOL     OW10066   5.519   0.579   2.021
 3056SOL    HW110067   5.571   0.523   1.956
 3056SOL    HW210068   5.426   0.543   2.029
 3057SOL     OW10069   6.428   5.604   2.366
 3057SOL    HW110070   6.393   5.570   2.453
 3057SOL    HW210071   6.502   5.669   2.383
 3058SOL     OW10072   6.122   5.599   1.436
 3058SOL    HW110073   6.221   5.601   1.422
 3058SOL    HW210074   6.100   5.532   1.507
 3059SOL     OW10075   1.868   2.890   5.915
 3059SOL    HW110076   1.934   2.937   5.857
 3059SOL    HW210077   1.862   2.794   5.887
 3060SOL     OW10078   0.505   6.480   0.385
 3060SOL    HW110079   0.434   6.436   0.329
 3060SOL    HW210080   0.501   6.444   0.478
 3061SOL     OW10081   0.513   0.765   5.956
 3061SOL    HW110082   0.465   0.708   6.023
 3061SOL    HW210083   0.579   0.709   5.906
 3062SOL     OW10084   2.882   5.453   6.157
 3062SOL    HW110085   2.939   5.533   6.176
 3062SOL    HW210086   2.787   5.482   6.145
 3063SOL     OW10087   2.583   6.062   0.658
 3063SOL    HW110088   2.576   6.141   0.598
 3063SOL    HW210089   2.652   6.079   0.728
 3064SOL     OW10090   0.115   4.982   3.345
 3064SOL    HW110091   0.136   4.911   3.412
 3064SOL    HW210092   0.187   4.985   3.275
 3065SOL     OW10093   3.232   1.239   1.100
 3065SOL    HW110094   3.195   1.149   1.123
 3065SOL    HW210095   3.326   1.229   1.067
 3066SOL     OW10096   5.376   5.539   0.297
 3066SOL    HW110097   5.457   5.502   0.252
 3066SOL    HW210098   5.352   5.480   0.375
 3067SOL     OW10099   4.267   0.075   3.164
 3067SOL    HW110100   4.181   0.089   3.116
 3067SOL    HW210101   4.327   0.017   3.108
 3068SOL     OW10102   6.309   4.744   0.194
 3068SOL    HW110103   6.274   4.809   0.262
 3068SOL    HW210104   6.327   4.656   0.239
 3069SOL     OW10105   0.923   4.984   4.077
 3069SOL    HW110106   0.894   4.906   4.132
 3069SOL    HW210107   1.019   5.005   4.098
 3070SOL     OW10108   4.184   1.916   4.111
 3070SOL    HW110109   4.209   2.011   4.135
 3070SOL    HW210110   4.259   1.874   4.060
 3071SOL     OW10111   5.458   0.361   3.967
 3071SOL    HW110112   5.370   0.407   3.955
 3071SOL    HW210113   5.523   0.394   3.899
 3072SOL     OW10114   6.926   0.556   1.718
 3072SOL    HW110115   6.907   0.529   1.812
 3072SOL    HW210116   6.998   0.625   1.717
 3073SOL     OW10117   1.769   2.135   5.138
 3073SOL    HW110118   1.862   2.103   5.127
 3073SOL    HW210119   1.770   2.229   5.175
 3074SOL     OW10120   5.114   3.593   5.730
 3074SOL    HW110121   5.062   3.525   5.781
 3074SOL    HW210122   5.156   3.550   5.651
 3075SOL     OW10123   7.018   5.512   0.852
 3075SOL    HW110124   6.996   5.602   0.813
 3075SOL    HW210125   6.958   5.495   0.930
 3076SOL     OW10126   0.437   0.869   5.186
 3076SOL    HW110127   0.423   0.959   5.226
 3076SOL    HW210128   0.478   0.878   5.095
 3077SOL     OW10129   5.396   4.377   3.557
 3077SOL    HW110130   5.475   4.434   3.578
 3077SOL    HW210131   5.355   4.407   3.471
 3078SOL     OW10132   1.916   2.340   0.315
 3078SOL    HW110133   1.897   2.329   0.217
 3078SOL    HW210134   2.000   2.292   0.339
 3079SOL     OW10135   5.606   2.906   6.321
 3079SOL    HW110136   5.654   2.929   6.405
 3079SOL    HW210137   5.639   2.964   6.246
 3080SOL     OW10138   6.347   6.485   1.360
 3080SOL    HW110139   6.313   6.573   1.330
 3080SOL    HW210140   6.296   6.412   1.315
 3081SOL     OW10141   1.137   4.384   5.955
 3081SOL    HW110142   1.090   4.369   5.868
 3081SOL    HW210143   1.093   4.459   6.005
 3082SOL     OW10144   2.904   0.093   2.349
 3082SOL    HW110145   3.003   0.077   2.357
 3082SOL    HW210146   2.858   0.005   2.333
 3083SOL     OW10147   3.395   0.591   2.283
 3083SOL    HW110148   3.296   0.583   2.285
 3083SOL    HW210149   3.421   0.677   2.240
 3084SOL     OW10150   4.230   6.438   3.972
 3084SOL    HW110151   4.285   6.369   3.926
 3084SOL    HW210152   4.165   6.392   4.034
 3085SOL     OW10153   1.238   5.022   1.986
 3085SOL    HW110154   1.322   4.994   1.941
 3085SOL    HW210155   1.223   5.120   1.971
 3086SOL     OW10156   6.381   1.509   4.295
 3086SOL    HW110157   6.378   1.451   4.214
 3086SOL    HW210158   6.307   1.484   4.357
 3087SOL     OW10159   5.813   3.857   1.699
 3087SOL    HW110160   5.741   3.917   1.667
 3087SOL    HW210161   5.859   3.898   1.778
 3088SOL     OW10162   2.987   3.753   6.565
 3088SOL    HW110163   2.975   3.851   6.547
 3088SOL    HW210164   3.004   3.706   6.478
 3089SOL     OW10165   3.522   1.796   1.750
 3089SOL    HW110166   3.462   1.845   1.687
 3089SOL    HW210167   3.583   1.862   1.795
 3090SOL     OW10168   6.514   1.996   0.801
 3090SOL    HW110169   6.500   1.973   0.705
 3090SOL    HW210170   6.436   1.964   0.855
 3091SOL     OW10171   2.112   6.544   0.286
 3091SOL    HW110172   2.131   6.616   0.353
 3091SOL    HW210173   2.085   6.585   0.199
 3092SOL     OW10174   3.637   5.504   0.219
 3092SOL    HW110175   3.603   5.593   0.250
 3092SOL    HW210176   3.701   5.517   0.143
 3093SOL     OW10177   4.883   6.806   3.293
 3093SOL    HW110178   4.890   6.903   3.268
 3093SOL    HW210179   4.820   6.760   3.230
 3094SOL     OW10180   2.924   5.504   5.440
 3094SOL    HW110181   2.986   5.521   5.517
 3094SOL    HW210182   2.968   5.443   5.375
 3095SOL     OW10183   1.804   5.107   5.276
 3095SOL    HW110184   1.780   5.075   5.184
 3095SOL    HW210185   1.876   5.176   5.268
 3096SOL     OW10186   0.216   1.061   5.675
 3096SOL    HW110187   0.250   0.983   5.728
 3096SOL    HW210188   0.172   1.028   5.592
 3097SOL     OW10189   2.151   1.397   0.012
 3097SOL    HW110190   2.113   1.331   0.077
 3097SOL    HW210191   2.122   1.373   6.944
 3098SOL     OW10192   4.076   2.563   0.689
 3098SOL    HW110193   4.143   2.493   0.715
 3098SOL    HW210194   3.999   2.520   0.642
 3099SOL     OW10195   1.376   5.998   5.449
 3099SOL    HW110196   1.457   6.005   5.391
 3099SOL    HW210197   1.300   5.959   5.396
 3100SOL     OW10198   6.294   6.592   6.145
 3100SOL    HW110199   6.330   6.576   6.237
 3100SOL    HW210200   6.199   6.562   6.140
 3101SOL     OW10201   3.656   0.059   1.117
 3101SOL    HW110202   3.660   0.138   1.177
 3101SOL    HW210203   3.595   7.014   1.156
 3102SOL     OW10204   0.505   6.132   0.619
 3102SOL    HW110205   0.513   6.109   0.522
 3102SOL    HW210206   0.519   6.050   0.674
 3103SOL     OW10207   4.344   4.346   1.621
 3103SOL    HW110208   4.405   4.307   1.691
 3103SOL    HW210209   4.263   4.288   1.612
 3104SOL     OW10210   6.091   5.806   3.867
 3104SOL    HW110211   6.079   5.748   3.786
 3104SOL    HW210212   6.028   5.884   3.861
 3105SOL     OW10213   6.093   5.675   3.611
 3105SOL    HW110214   6.133   5.583   3.602
 3105SOL    HW210215   6.121   5.731   3.533
 3106SOL     OW10216   6.384   2.798   4.903
 3106SOL    HW110217   6.385   2.838   4.812
 3106SOL    HW210218   6.475   2.764   4.927
 3107SOL     OW10219   2.561   6.941   4.080
 3107SOL    HW110220   2.660   6.956   4.085
 3107SOL    HW210221   2.539   6.898   3.993
 3108SOL     OW10222   2.381   0.858   2.825
 3108SOL    HW110223   2.429   0.775   2.795
 3108SOL    HW210224   2.366   0.918   2.746
 3109SOL     OW10225   4.676   5.971   3.452
 3109SOL    HW110226   4.746   5.924   3.399
 3109SOL    HW210227   4.694   5.959   3.550
 3110SOL     OW10228   1.248   2.900   1.705
 3110SOL    HW110229   1.206   2.846   1.778
 3110SOL    HW210230   1.178   2.931   1.641
 3111SOL     OW10231   0.210   4.971   2.664
 3111SOL    HW110232   0.212   4.895   2.729
 3111SOL    HW210233   0.149   5.043   2.699
 3112SOL     OW10234   2.706   3.874   6.099
 3112SOL    HW110235   2.710   3.871   6.199
 3112SOL    HW210236   2.613   3.854   6.069
 3113SOL     OW10237   4.033   6.609   4.045
 3113SOL    HW110238   4.101   6.555   3.996
 3113SOL    HW210239   4.032   6.583   4.141
 3114SOL     OW10240   5.385   5.659   0.576
 3114SOL    HW110241   5.415   5.724   0.507
 3114SOL    HW210242   5.325   5.590   0.535
 3115SOL     OW10243   2.692   3.338   1.818
 3115SOL    HW110244   2.617   3.272   1.822
 3115SOL    HW210245   2.747   3.332   1.901
 3116SOL     OW10246   0.360   1.181   6.892
 3116SOL    HW110247   0.292   1.171   6.820
 3116SOL    HW210248   0.447   1.141   6.862
 3117SOL     OW10249   3.664   4.150   5.642
 3117SOL    HW110250   3.631   4.060   5.614
 3117SOL    HW210251   3.610   4.184   5.719
 3118SOL     OW10252   6.282   5.386   6.986
 3118SOL    HW110253   6.306   5.417   6.894
 3118SOL    HW210254   6.236   5.460   0.011
 3119SOL     OW10255   2.167   4.273   0.084
 3119SOL    HW110256   2.114   4.297   0.003
 3119SOL    HW210257   2.247   4.333   0.091
 3120SOL     OW10258   2.719   5.344   6.631
 3120SOL    HW110259   2.635   5.398   6.635
 3120SOL    HW210260   2.737   5.302   6.720
 3121SOL     OW10261   0.433   6.078   3.389
 3121SOL    HW110262   0.350   6.065   3.443
 3121SOL    HW210263   0.512   6.053   3.444
 3122SOL     OW10264   3.148   5.774   1.019
 3122SOL    HW110265   3.159   5.681   0.984
 3122SOL    HW210266   3.222   5.832   0.984
 3123SOL     OW10267   3.892   6.515   4.343
 3123SOL    HW110268   3.796   6.491   4.360
 3123SOL    HW210269   3.941   6.434   4.311
 3124SOL     OW10270   3.759   6.999   6.336
 3124SOL    HW110271   3.779   0.020   6.423
 3124SOL    HW210272   3.844   6.964   6.295
 3125SOL     OW10273   0.294   2.596   5.727
 3125SOL    HW110274   0.218   2.536   5.750
 3125SOL    HW210275   0.379   2.544   5.730
 3126SOL     OW10276   3.672   6.101   6.509
 3126SOL    HW110277   3.697   6.191   6.544
 3126SOL    HW210278   3.574   6.098   6.491
 3127SOL     OW10279   1.298   1.527   3.881
 3127SOL    HW110280   1.328   1.595   3.815
 3127SOL    HW210281   1.220   1.562   3.933
 3128SOL     OW10282   1.823   0.497   1.381
 3128SOL    HW110283   1.762   0.503   1.302
 3128SOL    HW210284   1.916   0.477   1.349
 3129SOL     OW10285   1.151   3.074   3.194
 3129SOL    HW110286   1.235   3.124   3.216
 3129SOL    HW210287   1.157   3.039   3.100
 3130SOL     OW10288   2.446   5.448   3.207
 3130SOL    HW110289   2.540   5.426   3.181
 3130SOL    HW210290   2.382   5.388   3.157
 3131SOL     OW10291   1.006   2.836   4.627
 3131SOL    HW110292   0.929   2.826   4.690
 3131SOL    HW210293   1.022   2.934   4.611
 3132SOL     OW10294   5.323   4.591   5.574
 3132SOL    HW110295   5.226   4.579   5.593
 3132SOL    HW210296   5.365   4.646   5.646
 3133SOL     OW10297   2.214   1.837   3.462
 3133SOL    HW110298   2.266   1.803   3.384
 3133SOL    HW210299   2.123   1.797   3.462
 3134SOL     OW10300   5.574   2.887   1.482
 3134SOL    HW110301   5.637   2.918   1.553
 3134SOL    HW210302   5.524   2.965   1.444
 3135SOL     OW10303   2.027   2.078   3.405
 3135SOL    HW110304   2.027   1.979   3.414
 3135SOL    HW210305   1.963   2.118   3.470
 3136SOL     OW10306   6.108   6.958   4.963
 3136SOL    HW110307   6.169   6.882   4.946
 3136SOL    HW210308   6.159   0.009   5.005
 3137SOL     OW10309   0.421   1.722   4.324
 3137SOL    HW110310   0.421   1.642   4.265
 3137SOL    HW210311   0.327   1.751   4.343
 3138SOL     OW10312   5.732   2.113   4.520
 3138SOL    HW110313   5.817   2.165   4.523
 3138SOL    HW210314   5.728   2.050   4.598
 3139SOL     OW10315   4.662   5.510   5.346
 3139SOL    HW110316   4.723   5.586   5.325
 3139SOL    HW210317   4.642   5.459   5.262
 3140SOL     OW10318   5.676   6.077   6.225
 3140SOL    HW110319   5.702   6.075   6.321
 3140SOL    HW210320   5.582   6.109   6.216
 3141SOL     OW10321   1.000   5.611   2.058
 3141SOL    HW110322   0.930   5.642   1.994
 3141SOL    HW210323   1.086   5.659   2.039
 3142SOL     OW10324   3.851   6.969   0.290
 3142SOL    HW110325   3.763   7.010   0.265
 3142SOL    HW210326   3.921   0.016   0.295
 3143SOL     OW10327   0.337   1.664   1.030
 3143SOL    HW110328   0.431   1.631   1.029
 3143SOL    HW210329   0.335   1.757   1.068
 3144SOL     OW10330   1.839   2.944   0.140
 3144SOL    HW110331   1.768   2.973   0.075
 3144SOL    HW210332   1.861   2.848   0.124
 3145SOL     OW10333   3.103   5.158   3.440
 3145SOL    HW110334   3.155   5.098   3.501
 3145SOL    HW210335   3.120   5.253   3.466
 3146SOL     OW10336   2.415   0.015   3.697
 3146SOL    HW110337   2.448   0.108   3.715
 3146SOL    HW210338   2.444   6.978   3.771
 3147SOL     OW10339   3.759   4.472   0.817
 3147SOL    HW110340   3.775   4.433   0.907
 3147SOL    HW210341   3.661   4.473   0.797
 3148SOL     OW10342   3.135   6.063   4.785
 3148SOL    HW110343   3.167   5.991   4.846
 3148SOL    HW210344   3.186   6.060   4.699
 3149SOL     OW10345   2.504   6.573   5.715
 3149SOL    HW110346   2.454   6.511   5.654
 3149SOL    HW210347   2.550   6.519   5.786
 3150SOL     OW10348   6.920   6.848   4.313
 3150SOL    HW110349   6.953   6.795   4.391
 3150SOL    HW210350   6.995   6.862   4.248
 3151SOL     OW10351   3.941   6.907   1.603
 3151SOL    HW110352   3.942   6.974   1.677
 3151SOL    HW210353   3.846   6.882   1.583
 3152SOL     OW10354   1.568   4.572   6.227
 3152SOL    HW110355   1.634   4.542   6.296
 3152SOL    HW210356   1.494   4.506   6.220
 3153SOL     OW10357   6.509   4.508   2.968
 3153SOL    HW110358   6.445   4.574   3.006
 3153SOL    HW210359   6.602   4.544   2.973
 3154SOL     OW10360   5.749   2.421   6.206
 3154SOL    HW110361   5.660   2.376   6.216
 3154SOL    HW210362   5.735   2.518   6.186
 3155SOL     OW10363   4.574   6.078   0.620
 3155SOL    HW110364   4.669   6.075   0.653
 3155SOL    HW210365   4.531   6.162   0.651
 3156SOL     OW10366   3.842   3.372   3.453
 3156SOL    HW110367   3.906   3.297   3.437
 3156SOL    HW210368   3.892   3.458   3.459
 3157SOL     OW10369   2.093   2.504   4.990
 3157SOL    HW110370   2.028   2.460   4.928
 3157SOL    HW210371   2.185   2.466   4.975
 3158SOL     OW10372   4.597   6.658   1.304
 3158SOL    HW110373   4.618   6.736   1.246
 3158SOL    HW210374   4.653   6.580   1.277
 3159SOL     OW10375   5.162   4.748   0.190
 3159SOL    HW110376   5.163   4.746   0.090
 3159SOL    HW210377   5.242   4.699   0.225
 3160SOL     OW10378   6.158   4.723   0.536
 3160SOL    HW110379   6.166   4.642   0.478
 3160SOL    HW210380   6.207   4.708   0.621
 3161SOL     OW10381   1.241   1.507   3.531
 3161SOL    HW110382   1.162   1.561   3.560
 3161SOL    HW210383   1.228   1.411   3.558
 3162SOL     OW10384   6.901   0.027   5.834
 3162SOL    HW110385   6.975   6.987   5.853
 3162SOL    HW210386   6.827   0.014   5.900
 3163SOL     OW10387   2.040   4.561   5.348
 3163SOL    HW110388   2.079   4.478   5.308
 3163SOL    HW210389   2.107   4.635   5.341
 3164SOL     OW10390   6.269   5.152   5.743
 3164SOL    HW110391   6.230   5.208   5.817
 3164SOL    HW210392   6.326   5.210   5.685
 3165SOL     OW10393   0.547   2.825   1.983
 3165SOL    HW110394   0.511   2.868   1.901
 3165SOL    HW210395   0.524   2.880   2.063
 3166SOL     OW10396   4.461   2.864   6.232
 3166SOL    HW110397   4.369   2.844   6.264
 3166SOL    HW210398   4.525   2.863   6.309
 3167SOL     OW10399   0.350   4.629   1.858
 3167SOL    HW110400   0.315   4.682   1.781
 3167SOL    HW210401   0.315   4.666   1.943
 3168SOL     OW10402   6.280   2.961   0.783
 3168SOL    HW110403   6.312   3.012   0.863
 3168SOL    HW210404   6.351   2.960   0.714
 3169SOL     OW10405   2.401   1.950   5.707
 3169SOL    HW110406   2.408   1.957   5.807
 3169SOL    HW210407   2.408   2.042   5.667
 3170SOL     OW10408   3.893   6.749   5.435
 3170SOL    HW110409   3.794   6.745   5.446
 3170SOL    HW210410   3.927   6.661   5.403
 3171SOL     OW10411   5.726   6.237   2.855
 3171SOL    HW110412   5.654   6.271   2.917
 3171SOL    HW210413   5.789   6.312   2.834
 3172SOL     OW10414   6.165   6.690   5.638
 3172SOL    HW110415   6.107   6.714   5.716
 3172SOL    HW210416   6.109   6.688   5.555
 3173SOL     OW10417   2.089   1.088   1.751
 3173SOL    HW110418   2.116   1.180   1.724
 3173SOL    HW210419   2.170   1.031   1.762
 3174SOL     OW10420   2.170   3.010   6.998
 3174SOL    HW110421   2.150   3.108   6.993
 3174SOL    HW210422   2.131   2.973   0.059
 3175SOL     OW10423   0.348   6.298   0.216
 3175SOL    HW110424   0.255   6.320   0.243
 3175SOL    HW210425   0.349   6.210   0.170
 3176SOL     OW10426   1.067   5.527   0.063
 3176SOL    HW110427   1.088   5.597   7.018
 3176SOL    HW210428   0.988   5.557   0.116
 3177SOL     OW10429   0.712   6.659   4.366
 3177SOL    HW110430   0.643   6.662   4.439
 3177SOL    HW210431   0.793   6.610   4.400
 3178SOL     OW10432   3.185   3.439   6.928
 3178SOL    HW110433   3.158   3.529   6.895
 3178SOL    HW210434   3.109   3.375   6.917
 3179SOL     OW10435   1.667   2.222   4.139
 3179SOL    HW110436   1.753   2.247   4.184
 3179SOL    HW210437   1.684   2.196   4.045
 3180SOL     OW10438   6.408   1.571   6.549
 3180SOL    HW110439   6.395   1.639   6.477
 3180SOL    HW210440   6.354   1.489   6.527
 3181SOL     OW10441   0.902   1.583   2.789
 3181SOL    HW110442   0.874   1.557   2.697
 3181SOL    HW210443   0.885   1.680   2.804
 3182SOL     OW10444   1.733   4.426   5.708
 3182SOL    HW110445   1.756   4.483   5.629
 3182SOL    HW210446   1.816   4.407   5.761
 3183SOL     OW10447   4.209   3.342   1.090
 3183SOL    HW110448   4.248   3.297   1.010
 3183SOL    HW210449   4.259   3.427   1.108
 3184SOL     OW10450   0.841   1.919   3.417
 3184SOL    HW110451   0.904   1.948   3.345
 3184SOL    HW210452   0.873   1.953   3.506
 3185SOL     OW10453   0.521   6.327   6.890
 3185SOL    HW110454   0.558   6.295   6.803
 3185SOL    HW210455   0.533   6.426   6.897
 3186SOL     OW10456   3.199   0.404   1.509
 3186SOL    HW110457   3.156   0.492   1.491
 3186SOL    HW210458   3.170   0.370   1.598
 3187SOL     OW10459   3.087   4.352   0.273
 3187SOL    HW110460   3.138   4.414   0.214
 3187SOL    HW210461   2.999   4.331   0.231
 3188SOL     OW10462   3.669   6.958   3.048
 3188SOL    HW110463   3.727   7.002   3.115
 3188SOL    HW210464   3.576   6.948   3.084
 3189SOL     OW10465   6.134   6.303   2.295
 3189SOL    HW110466   6.059   6.271   2.236
 3189SOL    HW210467   6.109   6.290   2.391
 3190SOL     OW10468   1.090   6.885   1.742
 3190SOL    HW110469   1.148   6.831   1.681
 3190SOL    HW210470   1.054   6.964   1.692
 3191SOL     OW10471   3.935   1.324   0.215
 3191SOL    HW110472   3.838   1.348   0.219
 3191SOL    HW210473   3.968   1.304   0.307
 3192SOL     OW10474   5.424   2.357   4.236
 3192SOL    HW110475   5.453   2.433   4.294
 3192SOL    HW210476   5.391   2.393   4.148
 3193SOL     OW10477   5.261   4.461   1.102
 3193SOL    HW110478   5.294   4.555   1.105
 3193SOL    HW210479   5.183   4.451   1.164
 3194SOL     OW10480   2.410   5.545   5.012
 3194SOL    HW110481   2.404   5.635   4.970
 3194SOL    HW210482   2.319   5.502   5.011
 3195SOL     OW10483   0.058   4.534   3.800
 3195SOL    HW110484   0.099   4.526   3.709
 3195SOL    HW210485   0.025   4.627   3.814
 3196SOL     OW10486   0.179   6.451   6.181
 3196SOL    HW110487   0.199   6.407   6.093
 3196SOL    HW210488   0.140   6.542   6.164
 3197SOL     OW10489   0.958   4.696   5.046
 3197SOL    HW110490   1.021   4.686   4.969
 3197SOL    HW210491   0.873   4.646   5.027
 3198SOL     OW10492   6.066   0.110   0.540
 3198SOL    HW110493   6.120   0.182   0.497
 3198SOL    HW210494   6.125   0.033   0.562
 3199SOL     OW10495   3.168   1.381   3.074
 3199SOL    HW110496   3.252   1.432   3.056
 3199SOL    HW210497   3.106   1.437   3.128
 3200SOL     OW10498   6.485   1.965   0.493
 3200SOL    HW110499   6.412   1.900   0.513
 3200SOL    HW210500   6.562   1.916   0.451
 3201SOL     OW10501   4.427   4.693   3.000
 3201SOL    HW110502   4.342   4.685   2.949
 3201SOL    HW210503   4.407   4.703   3.097
 3202SOL     OW10504   1.625   5.172   1.708
 3202SOL    HW110505   1.705   5.163   1.768
 3202SOL    HW210506   1.600   5.268   1.700
 3203SOL     OW10507   4.725   0.053   0.581
 3203SOL    HW110508   4.748   0.150   0.589
 3203SOL    HW210509   4.688   0.020   0.668
 3204SOL     OW10510   6.310   6.346   1.934
 3204SOL    HW110511   6.350   6.341   1.843
 3204SOL    HW210512   6.211   6.335   1.929
 3205SOL     OW10513   0.979   3.734   4.461
 3205SOL    HW110514   0.884   3.701   4.459
 3205SOL    HW210515   1.041   3.657   4.448
 3206SOL     OW10516   1.791   6.850   6.883
 3206SOL    HW110517   1.865   6.807   6.831
 3206SOL    HW210518   1.781   6.804   6.971
 3207SOL     OW10519   1.542   1.621   2.940
 3207SOL    HW110520   1.560   1.606   2.843
 3207SOL    HW210521   1.596   1.556   2.994
 3208SOL     OW10522   6.308   6.670   5.356
 3208SOL    HW110523   6.208   6.665   5.359
 3208SOL    HW210524   6.335   6.752   5.305
 3209SOL     OW10525   0.971   6.911   3.424
 3209SOL    HW110526   0.982   7.005   3.393
 3209SOL    HW210527   1.055   6.881   3.469
 3210SOL     OW10528   0.835   5.623   2.270
 3210SOL    HW110529   0.913   5.607   2.210
 3210SOL    HW210530   0.763   5.671   2.219
 3211SOL     OW10531   0.091   4.477   3.536
 3211SOL    HW110532   0.161   4.544   3.508
 3211SOL    HW210533   0.051   4.435   3.454
 3212SOL     OW10534   4.634   2.748   4.959
 3212SOL    HW110535   4.645   2.757   4.860
 3212SOL    HW210536   4.549   2.700   4.979
 3213SOL     OW10537   5.594   6.626   1.456
 3213SOL    HW110538   5.613   6.712   1.409
 3213SOL    HW210539   5.659   6.613   1.531
 3214SOL     OW10540   4.354   4.146   7.008
 3214SOL    HW110541   4.338   4.073   0.051
 3214SOL    HW210542   4.429   4.119   6.948
 3215SOL     OW10543   6.165   1.314   0.007
 3215SOL    HW110544   6.122   1.251   6.966
 3215SOL    HW210545   6.119   1.402   0.003
 3216SOL     OW10546   4.976   6.255   4.908
 3216SOL    HW110547   5.044   6.207   4.963
 3216SOL    HW210548   4.945   6.196   4.834
 3217SOL     OW10549   6.684   4.256   6.890
 3217SOL    HW110550   6.687   4.342   6.940
 3217SOL    HW210551   6.623   4.265   6.811
 3218SOL     OW10552   4.096   2.064   1.778
 3218SOL    HW110553   4.048   2.130   1.835
 3218SOL    HW210554   4.030   2.008   1.728
 3219SOL     OW10555   0.285   1.218   3.077
 3219SOL    HW110556   0.364   1.206   3.136
 3219SOL    HW210557   0.313   1.262   2.992
 3220SOL     OW10558   6.155   2.914   6.655
 3220SOL    HW110559   6.210   2.960   6.724
 3220SOL    HW210560   6.067   2.962   6.645
 3221SOL     OW10561   3.670   0.650   1.939
 3221SOL    HW110562   3.703   0.724   1.997
 3221SOL    HW210563   3.594   0.682   1.883
 3222SOL     OW10564   6.489   4.129   2.151
 3222SOL    HW110565   6.396   4.103   2.175
 3222SOL    HW210566   6.492   4.153   2.054
 3223SOL     OW10567   1.774   4.272   4.685
 3223SOL    HW110568   1.820   4.229   4.763
 3223SOL    HW210569   1.704   4.334   4.718
 3224SOL     OW10570   3.198   6.200   1.010
 3224SOL    HW110571   3.199   6.299   1.021
 3224SOL    HW210572   3.237   6.157   1.091
 3225SOL     OW10573   1.678   2.828   0.785
 3225SOL    HW110574   1.704   2.851   0.878
 3225SOL    HW210575   1.644   2.734   0.781
 3226SOL     OW10576   6.460   1.017   4.013
 3226SOL    HW110577   6.514   0.935   3.994
 3226SOL    HW210578   6.381   0.993   4.068
 3227SOL     OW10579   2.452   1.503   5.471
 3227SOL    HW110580   2.511   1.534   5.396
 3227SOL    HW210581   2.381   1.571   5.488
 3228SOL     OW10582   5.037   3.528   5.035
 3228SOL    HW110583   5.108   3.589   4.998
 3228SOL    HW210584   4.948   3.574   5.032
 3229SOL     OW10585   4.846   1.580   5.020
 3229SOL    HW110586   4.838   1.482   5.005
 3229SOL    HW210587   4.772   1.612   5.079
 3230SOL     OW10588   1.326   0.307   3.502
 3230SOL    HW110589   1.328   0.375   3.428
 3230SOL    HW210590   1.305   0.353   3.588
 3231SOL     OW10591   4.471   4.669   0.758
 3231SOL    HW110592   4.474   4.594   0.824
 3231SOL    HW210593   4.376   4.683   0.728
 3232SOL     OW10594   0.848   3.918   3.009
 3232SOL    HW110595   0.792   3.878   3.081
 3232SOL    HW210596   0.912   3.984   3.048
 3233SOL     OW10597   2.182   4.292   0.884
 3233SOL    HW110598   2.095   4.252   0.854
 3233SOL    HW210599   2.202   4.262   0.977
 3234SOL     OW10600   0.042   1.912   4.849
 3234SOL    HW110601   6.968   1.899   4.861
 3234SOL    HW210602   0.060   1.951   4.759
 3235SOL     OW10603   5.958   0.785   2.604
 3235SOL    HW110604   5.885   0.782   2.536
 3235SOL    HW210605   6.042   0.821   2.561
 3236SOL     OW10606   0.446   2.098   1.428
 3236SOL    HW110607   0.475   2.009   1.391
 3236SOL    HW210608   0.499   2.171   1.384
 3237SOL     OW10609   2.903   5.962   4.679
 3237SOL    HW110610   2.891   6.038   4.614
 3237SOL    HW210611   2.986   5.977   4.732
 3238SOL     OW10612   6.700   6.689   6.805
 3238SOL    HW110613   6.736   6.654   6.719
 3238SOL    HW210614   6.774   6.693   6.873
 3239SOL     OW10615   1.647   6.205   5.977
 3239SOL    HW110616   1.566   6.152   6.002
 3239SOL    HW210617   1.619   6.290   5.933
 3240SOL     OW10618   0.706   2.171   4.686
 3240SOL    HW110619   0.689   2.169   4.784
 3240SOL    HW210620   0.656   2.248   4.645
 3241SOL     OW10621   3.854   6.588   5.134
 3241SOL    HW110622   3.899   6.668   5.093
 3241SOL    HW210623   3.919   6.541   5.194
 3242SOL     OW10624   3.244   0.347   0.943
 3242SOL    HW110625   3.227   0.300   1.029
 3242SOL    HW210626   3.166   0.407   0.922
 3243SOL     OW10627   4.236   5.255   1.595
 3243SOL    HW110628   4.265   5.171   1.549
 3243SOL    HW210629   4.182   5.231   1.676
 3244SOL     OW10630   1.007   0.222   5.207
 3244SOL    HW110631   1.050   0.140   5.172
 3244SOL    HW210632   1.058   0.255   5.287
 3245SOL     OW10633   3.289   1.606   5.859
 3245SOL    HW110634   3.224   1.636   5.928
 3245SOL    HW210635   3.358   1.677   5.845
 3246SOL     OW10636   5.254   6.376   2.880
 3246SOL    HW110637   5.176   6.345   2.827
 3246SOL    HW210638   5.222   6.416   2.966
 3247SOL     OW10639   6.047   3.231   5.658
 3247SOL    HW110640   5.963   3.248   5.607
 3247SOL    HW210641   6.056   3.133   5.676
 3248SOL     OW10642   5.039   4.236   3.216
 3248SOL    HW110643   4.977   4.287   3.156
 3248SOL    HW210644   4.985   4.182   3.280
 3249SOL     OW10645   3.194   5.304   5.595
 3249SOL    HW110646   3.267   5.243   5.627
 3249SOL    HW210647   3.149   5.262   5.515
 3250SOL     OW10648   4.141   4.548   1.148
 3250SOL    HW110649   4.167   4.634   1.105
 3250SOL    HW210650   4.122   4.480   1.077
 3251SOL     OW10651   3.119   1.201   3.478
 3251SOL    HW110652   3.078   1.283   3.437
 3251SOL    HW210653   3.175   1.155   3.409
 3252SOL     OW10654   3.098   2.012   2.878
 3252SOL    HW110655   3.014   1.961   2.866
 3252SOL    HW210656   3.123   2.056   2.791
 3253SOL     OW10657   5.109   4.237   1.544
 3253SOL    HW110658   5.135   4.244   1.640
 3253SOL    HW210659   5.026   4.181   1.537
 3254SOL     OW10660   6.362   4.702   2.701
 3254SOL    HW110661   6.415   4.643   2.640
 3254SOL    HW210662   6.304   4.762   2.646
 3255SOL     OW10663   3.576   5.056   0.801
 3255SOL    HW110664   3.485   5.021   0.781
 3255SOL    HW210665   3.580   5.154   0.779
 3256SOL     OW10666   6.354   0.261   5.272
 3256SOL    HW110667   6.350   0.186   5.338
 3256SOL    HW210668   6.337   0.348   5.320
 3257SOL     OW10669   2.424   1.095   1.413
 3257SOL    HW110670   2.374   1.036   1.349
 3257SOL    HW210671   2.452   1.041   1.493
 3258SOL     OW10672   5.269   6.475   1.792
 3258SOL    HW110673   5.298   6.400   1.851
 3258SOL    HW210674   5.179   6.508   1.821
 3259SOL     OW10675   5.599   5.685   3.118
 3259SOL    HW110676   5.623   5.781   3.133
 3259SOL    HW210677   5.570   5.644   3.205
 3260SOL     OW10678   2.468   1.543   1.253
 3260SOL    HW110679   2.388   1.536   1.192
 3260SOL    HW210680   2.530   1.467   1.235
 3261SOL     OW10681   4.972   6.816   3.752
 3261SOL    HW110682   4.978   6.862   3.840
 3261SOL    HW210683   4.908   6.739   3.758
 3262SOL     OW10684   4.727   2.037   3.545
 3262SOL    HW110685   4.751   1.975   3.470
 3262SOL    HW210686   4.764   2.000   3.631
 3263SOL     OW10687   3.205   4.871   3.347
 3263SOL    HW110688   3.235   4.864   3.442
 3263SOL    HW210689   3.105   4.866   3.343
 3264SOL     OW10690   5.565   4.635   6.291
 3264SOL    HW110691   5.525   4.543   6.300
 3264SOL    HW210692   5.541   4.673   6.202
 3265SOL     OW10693   5.357   6.801   5.393
 3265SOL    HW110694   5.313   6.792   5.304
 3265SOL    HW210695   5.290   6.787   5.465
 3266SOL     OW10696   1.207   2.947   7.003
 3266SOL    HW110697   1.141   2.873   6.990
 3266SOL    HW210698   1.218   2.965   0.077
 3267SOL     OW10699   5.305   3.886   2.033
 3267SOL    HW110700   5.325   3.981   2.056
 3267SOL    HW210701   5.268   3.839   2.114
 3268SOL     OW10702   1.579   5.394   0.415
 3268SOL    HW110703   1.600   5.473   0.473
 3268SOL    HW210704   1.539   5.426   0.328
 3269SOL     OW10705   4.126   3.783   0.786
 3269SOL    HW110706   4.133   3.685   0.806
 3269SOL    HW210707   4.033   3.805   0.757
 3270SOL     OW10708   6.725   5.643   3.726
 3270SOL    HW110709   6.706   5.657   3.629
 3270SOL    HW210710   6.659   5.695   3.780
 3271SOL     OW10711   4.770   6.760   0.925
 3271SOL    HW110712   4.864   6.734   0.901
 3271SOL    HW210713   4.771   6.811   1.011
 3272SOL     OW10714   4.689   6.020   6.344
 3272SOL    HW110715   4.777   5.989   6.380
 3272SOL    HW210716   4.631   6.051   6.420
 3273SOL     OW10717   0.260   0.204   2.748
 3273SOL    HW110718   0.185   0.158   2.795
 3273SOL    HW210719   0.325   0.137   2.713
 3274SOL     OW10720   3.080   1.243   0.539
 3274SOL    HW110721   3.030   1.329   0.532
 3274SOL    HW210722   3.081   1.212   0.634
 3275SOL     OW10723   4.330   0.182   6.880
 3275SOL    HW110724   4.346   0.270   6.925
 3275SOL    HW210725   4.260   0.131   6.931
 3276SOL     OW10726   1.415   6.014   1.036
 3276SOL    HW110727   1.479   6.087   1.010
 3276SOL    HW210728   1.462   5.948   1.095
 3277SOL     OW10729   0.208   6.315   6.927
 3277SOL    HW110730   0.246   6.393   6.977
 3277SOL    HW210731   0.268   6.292   6.850
 3278SOL     OW10732   1.007   0.056   0.237
 3278SOL    HW110733   0.970   0.109   0.313
 3278SOL    HW210734   1.103   0.034   0.255
 3279SOL     OW10735   2.350   6.876   1.516
 3279SOL    HW110736   2.254   6.897   1.528
 3279SOL    HW210737   2.369   6.783   1.549
 3280SOL     OW10738   2.742   6.039   3.709
 3280SOL    HW110739   2.678   5.993   3.770
 3280SOL    HW210740   2.832   5.997   3.717
 3281SOL     OW10741   1.160   6.078   0.994
 3281SOL    HW110742   1.255   6.091   1.020
 3281SOL    HW210743   1.138   5.981   0.993
 3282SOL     OW10744   1.864   4.884   3.039
 3282SOL    HW110745   1.848   4.937   2.955
 3282SOL    HW210746   1.777   4.847   3.072
 3283SOL     OW10747   1.696   0.573   3.689
 3283SOL    HW110748   1.712   0.474   3.686
 3283SOL    HW210749   1.598   0.591   3.683
 3284SOL     OW10750   1.484   5.754   5.694
 3284SOL    HW110751   1.447   5.680   5.637
 3284SOL    HW210752   1.411   5.818   5.716
 3285SOL     OW10753   0.572   2.586   4.311
 3285SOL    HW110754   0.501   2.581   4.380
 3285SOL    HW210755   0.656   2.545   4.345
 3286SOL     OW10756   4.784   4.511   6.119
 3286SOL    HW110757   4.819   4.487   6.210
 3286SOL    HW210758   4.704   4.570   6.128
 3287SOL     OW10759   0.261   3.095   1.969
 3287SOL    HW110760   0.186   3.034   1.993
 3287SOL    HW210761   0.248   3.130   1.877
 3288SOL     OW10762   0.641   0.222   0.608
 3288SOL    HW110763   0.689   0.265   0.684
 3288SOL    HW210764   0.667   0.125   0.603
 3289SOL     OW10765   1.471   0.230   3.779
 3289SOL    HW110766   1.382   0.246   3.735
 3289SOL    HW210767   1.537   0.201   3.710
 3290SOL     OW10768   0.031   4.817   3.851
 3290SOL    HW110769   6.993   4.860   3.786
 3290SOL    HW210770   0.026   4.866   3.938
 3291SOL     OW10771   1.276   1.996   1.745
 3291SOL    HW110772   1.185   2.026   1.773
 3291SOL    HW210773   1.341   2.015   1.819
 3292SOL     OW10774   0.736   6.023   4.534
 3292SOL    HW110775   0.738   5.933   4.578
 3292SOL    HW210776   0.822   6.038   4.485
 3293SOL     OW10777   5.586   0.549   3.164
 3293SOL    HW110778   5.519   0.608   3.209
 3293SOL    HW210779   5.578   0.560   3.065
 3294SOL     OW10780   6.690   0.210   0.758
 3294SOL    HW110781   6.596   0.222   0.790
 3294SOL    HW210782   6.753   0.212   0.836
 3295SOL     OW10783   2.774   2.970   5.843
 3295SOL    HW110784   2.800   3.064   5.865
 3295SOL    HW210785   2.682   2.970   5.805
 3296SOL     OW10786   1.007   6.674   1.909
 3296SOL    HW110787   1.043   6.645   1.998
 3296SOL    HW210788   1.046   6.763   1.885
 3297SOL     OW10789   3.473   1.225   5.719
 3297SOL    HW110790   3.482   1.236   5.620
 3297SOL    HW210791   3.483   1.314   5.763
 3298SOL     OW10792   0.512   4.858   3.021
 3298SOL    HW110793   0.533   4.890   2.929
 3298SOL    HW210794   0.518   4.758   3.024
 3299SOL     OW10795   1.388   1.362   4.147
 3299SOL    HW110796   1.344   1.408   4.070
 3299SOL    HW210797   1.326   1.360   4.225
 3300SOL     OW10798   0.079   6.749   4.984
 3300SOL    HW110799   0.010   6.747   4.912
 3300SOL    HW210800   0.118   6.841   4.991
 3301SOL     OW10801   6.105   4.355   2.288
 3301SOL    HW110802   6.116   4.440   2.340
 3301SOL    HW210803   6.083   4.281   2.351
 3302SOL     OW10804   1.199   5.873   5.258
 3302SOL    HW110805   1.161   5.791   5.214
 3302SOL    HW210806   1.135   5.949   5.248
 3303SOL     OW10807   3.357   3.638   4.898
 3303SOL    HW110808   3.397   3.600   4.815
 3303SOL    HW210809   3.361   3.738   4.893
 3304SOL     OW10810   1.621   0.962   3.699
 3304SOL    HW110811   1.670   0.921   3.776
 3304SOL    HW210812   1.656   0.925   3.613
 3305SOL     OW10813   0.984   2.635   0.536
 3305SOL    HW110814   0.989   2.642   0.636
 3305SOL    HW210815   0.891   2.655   0.506
 3306SOL     OW10816   1.923   1.642   1.077
 3306SOL    HW110817   1.930   1.548   1.043
 3306SOL    HW210818   1.995   1.658   1.144
 3307SOL     OW10819   0.616   0.117   6.765
 3307SOL    HW110820   0.695   0.055   6.767
 3307SOL    HW210821   0.536   0.068   6.729
 3308SOL     OW10822   5.172   5.999   0.729
 3308SOL    HW110823   5.120   6.078   0.760
 3308SOL    HW210824   5.225   5.962   0.806
 3309SOL     OW10825   1.487   4.432   1.865
 3309SOL    HW110826   1.564   4.386   1.819
 3309SOL    HW210827   1.510   4.528   1.880
 3310SOL     OW10828   1.919   6.206   2.029
 3310SOL    HW110829   1.906   6.108   2.012
 3310SOL    HW210830   1.886   6.229   2.121
 3311SOL     OW10831   3.997   5.314   0.715
 3311SOL    HW110832   4.063   5.319   0.640
 3311SOL    HW210833   4.022   5.380   0.786
 3312SOL     OW10834   1.558   2.341   6.435
 3312SOL    HW110835   1.582   2.399   6.357
 3312SOL    HW210836   1.468   2.301   6.420
 3313SOL     OW10837   5.518   6.366   5.133
 3313SOL    HW110838   5.569   6.423   5.197
 3313SOL    HW210839   5.420   6.387   5.139
 3314SOL     OW10840   0.475   4.146   6.327
 3314SOL    HW110841   0.476   4.101   6.238
 3314SOL    HW210842   0.454   4.244   6.315
 3315SOL     OW10843   6.068   3.203   2.883
 3315SOL    HW110844   5.994   3.161   2.831
 3315SOL    HW210845   6.044   3.298   2.904
 3316SOL     OW10846   3.824   0.315   6.742
 3316SOL    HW110847   3.744   0.345   6.793
 3316SOL    HW210848   3.866   0.394   6.696
 3317SOL     OW10849   4.867   2.548   1.050
 3317SOL    HW110850   4.887   2.603   0.969
 3317SOL    HW210851   4.952   2.509   1.086
 3318SOL     OW10852   2.431   5.010   6.472
 3318SOL    HW110853   2.529   5.009   6.452
 3318SOL    HW210854   2.391   5.095   6.440
 3319SOL     OW10855   0.618   6.136   6.339
 3319SOL    HW110856   0.715   6.160   6.339
 3319SOL    HW210857   0.564   6.216   6.367
 3320SOL     OW10858   1.229   0.727   1.177
 3320SOL    HW110859   1.318   0.691   1.203
 3320SOL    HW210860   1.164   0.713   1.251
 3321SOL     OW10861   3.654   3.568   4.264
 3321SOL    HW110862   3.609   3.611   4.342
 3321SOL    HW210863   3.588   3.508   4.217
 3322SOL     OW10864   4.944   3.531   2.761
 3322SOL    HW110865   4.927   3.526   2.663
 3322SOL    HW210866   4.902   3.613   2.798
 3323SOL     OW10867   1.554   4.545   0.855
 3323SOL    HW110868   1.498   4.628   0.848
 3323SOL    HW210869   1.513   4.484   0.923
 3324SOL     OW10870   6.341   3.210   1.734
 3324SOL    HW110871   6.262   3.270   1.723
 3324SOL    HW210872   6.364   3.168   1.646
 3325SOL     OW10873   0.990   4.894   4.672
 3325SOL    HW110874   0.906   4.842   4.655
 3325SOL    HW210875   1.036   4.858   4.753
 3326SOL     OW10876   4.941   6.972   2.143
 3326SOL    HW110877   4.953   6.961   2.242
 3326SOL    HW210878   5.006   0.016   2.110
 3327SOL     OW10879   4.722   6.289   1.398
 3327SOL    HW110880   4.747   6.369   1.343
 3327SOL    HW210881   4.673   6.318   1.480
 3328SOL     OW10882   5.849   6.308   4.001
 3328SOL    HW110883   5.933   6.310   4.056
 3328SOL    HW210884   5.854   6.378   3.930
 3329SOL     OW10885   5.435   0.382   6.071
 3329SOL    HW110886   5.379   0.306   6.102
 3329SOL    HW210887   5.513   0.395   6.133
 3330SOL     OW10888   5.900   0.377   2.848
 3330SOL    HW110889   5.890   0.373   2.948
 3330SOL    HW210890   5.810   0.376   2.805
 3331SOL     OW10891   1.035   3.356   2.472
 3331SOL    HW110892   1.014   3.454   2.467
 3331SOL    HW210893   0.951   3.304   2.467
 3332SOL     OW10894   4.139   4.991   0.661
 3332SOL    HW110895   4.167   4.899   0.687
 3332SOL    HW210896   4.057   4.986   0.604
 3333SOL     OW10897   2.406   4.308   0.718
 3333SOL    HW110898   2.450   4.218   0.722
 3333SOL    HW210899   2.338   4.315   0.791
 3334SOL     OW10900   1.959   2.726   2.600
 3334SOL    HW110901   1.931   2.820   2.617
 3334SOL    HW210902   2.058   2.718   2.606
 3335SOL     OW10903   4.368   4.273   6.201
 3335SOL    HW110904   4.299   4.236   6.140
 3335SOL    HW210905   4.379   4.371   6.184
 3336SOL     OW10906   3.565   5.618   6.028
 3336SOL    HW110907   3.519   5.568   6.102
 3336SOL    HW210908   3.497   5.655   5.966
 3337SOL     OW10909   3.026   3.880   4.147
 3337SOL    HW110910   3.026   3.780   4.149
 3337SOL    HW210911   2.990   3.915   4.233
 3338SOL     OW10912   3.308   3.091   1.698
 3338SOL    HW110913   3.239   3.134   1.757
 3338SOL    HW210914   3.272   3.084   1.605
 3339SOL     OW10915   1.013   6.699   6.261
 3339SOL    HW110916   1.070   6.683   6.181
 3339SOL    HW210917   0.960   6.783   6.248
 3340SOL     OW10918   4.942   1.224   6.606
 3340SOL    HW110919   4.964   1.277   6.524
 3340SOL    HW210920   4.892   1.141   6.580
 3341SOL     OW10921   1.341   4.287   1.321
 3341SOL    HW110922   1.367   4.238   1.239
 3341SOL    HW210923   1.281   4.363   1.297
 3342SOL     OW10924   5.885   0.204   2.260
 3342SOL    HW110925   5.853   0.235   2.171
 3342SOL    HW210926   5.956   0.135   2.248
 3343SOL     OW10927   3.386   4.792   1.020
 3343SOL    HW110928   3.414   4.828   1.108
 3343SOL    HW210929   3.286   4.786   1.017
 3344SOL     OW10930   1.250   3.189   1.544
 3344SOL    HW110931   1.269   3.221   1.452
 3344SOL    HW210932   1.324   3.216   1.605
 3345SOL     OW10933   5.049   5.333   0.918
 3345SOL    HW110934   5.002   5.361   0.835
 3345SOL    HW210935   5.070   5.235   0.914
 3346SOL     OW10936   1.334   1.221   6.630
 3346SOL    HW110937   1.326   1.299   6.693
 3346SOL    HW210938   1.243   1.181   6.616
 3347SOL     OW10939   0.858   3.298   5.400
 3347SOL    HW110940   0.925   3.369   5.421
 3347SOL    HW210941   0.898   3.208   5.419
 3348SOL     OW10942   3.412   3.837   5.978
 3348SOL    HW110943   3.419   3.757   6.037
 3348SOL    HW210944   3.491   3.897   5.991
 3349SOL     OW10945   1.986   5.400   1.839
 3349SOL    HW110946   1.981   5.300   1.847
 3349SOL    HW210947   2.078   5.430   1.864
 3350SOL     OW10948   2.990   5.784   4.404
 3350SOL    HW110949   2.991   5.724   4.484
 3350SOL    HW210950   3.084   5.804   4.376
 3351SOL     OW10951   5.834   6.557   1.582
 3351SOL    HW110952   5.751   6.531   1.631
 3351SOL    HW210953   5.853   6.489   1.511
 3352SOL     OW10954   5.810   1.017   0.164
 3352SOL    HW110955   5.835   1.108   0.196
 3352SOL    HW210956   5.734   1.024   0.098
 3353SOL     OW10957   4.043   0.430   6.170
 3353SOL    HW110958   3.962   0.426   6.229
 3353SOL    HW210959   4.086   0.520   6.177
 3354SOL     OW10960   2.662   2.114   0.162
 3354SOL    HW110961   2.647   2.056   0.243
 3354SOL    HW210962   2.760   2.131   0.152
 3355SOL     OW10963   1.084   1.695   5.005
 3355SOL    HW110964   1.122   1.785   5.025
 3355SOL    HW210965   1.116   1.665   4.915
 3356SOL     OW10966   3.329   0.698   5.725
 3356SOL    HW110967   3.408   0.673   5.781
 3356SOL    HW210968   3.317   0.798   5.727
 3357SOL     OW10969   3.386   4.172   4.405
 3357SOL    HW110970   3.351   4.265   4.422
 3357SOL    HW210971   3.396   4.158   4.306
 3358SOL     OW10972   0.108   1.886   1.711
 3358SOL    HW110973   0.082   1.792   1.731
 3358SOL    HW210974   0.040   1.949   1.750
 3359SOL     OW10975   1.299   6.950   4.085
 3359SOL    HW110976   1.377   7.008   4.063
 3359SOL    HW210977   1.242   6.938   4.003
 3360SOL     OW10978   1.109   5.325   4.867
 3360SOL    HW110979   1.201   5.345   4.835
 3360SOL    HW210980   1.113   5.301   4.964
 3361SOL     OW10981   0.425   6.970   4.204
 3361SOL    HW110982   0.467   6.936   4.120
 3361SOL    HW210983   0.464   0.035   4.227
 3362SOL     OW10984   2.884   1.020   5.165
 3362SOL    HW110985   2.938   1.075   5.230
 3362SOL    HW210986   2.934   0.937   5.142
 3363SOL     OW10987   4.680   3.821   0.449
 3363SOL    HW110988   4.740   3.831   0.527
 3363SOL    HW210989   4.681   3.904   0.394
 3364SOL     OW10990   1.801   3.032   1.313
 3364SOL    HW110991   1.703   3.043   1.297
 3364SOL    HW210992   1.847   3.015   1.226
 3365SOL     OW10993   0.751   2.508   2.843
 3365SOL    HW110994   0.821   2.525   2.912
 3365SOL    HW210995   0.737   2.591   2.789
 3366SOL     OW10996   5.978   3.859   4.024
 3366SOL    HW110997   5.917   3.816   3.958
 3366SOL    HW210998   6.010   3.791   4.090
 3367SOL     OW10999   3.233   3.934   3.916
 3367SOL    HW111000   3.141   3.907   3.887
 3367SOL    HW211001   3.273   3.861   3.973
 3368SOL     OW11002   1.948   1.031   3.423
 3368SOL    HW111003   1.859   1.001   3.458
 3368SOL    HW211004   1.999   1.077   3.496
 3369SOL     OW11005   5.567   3.006   0.507
 3369SOL    HW111006   5.483   2.970   0.546
 3369SOL    HW211007   5.560   3.105   0.498
 3370SOL     OW11008   0.424   5.817   3.241
 3370SOL    HW111009   0.410   5.834   3.144
 3370SOL    HW211010   0.413   5.902   3.292
 3371SOL     OW11011   2.590   3.038   1.171
 3371SOL    HW111012   2.645   2.967   1.215
 3371SOL    HW211013   2.650   3.108   1.132
 3372SOL     OW11014   4.853   3.026   3.049
 3372SOL    HW111015   4.845   3.121   3.020
 3372SOL    HW211016   4.888   3.021   3.142
 3373SOL     OW11017   0.571   4.767   0.708
 3373SOL    HW111018   0.585   4.777   0.806
 3373SOL    HW211019   0.650   4.806   0.659
 3374SOL     OW11020   1.330   5.658   4.021
 3374SOL    HW111021   1.272   5.583   3.990
 3374SOL    HW211022   1.317   5.673   4.119
 3375SOL     OW11023   6.876   6.729   5.711
 3375SOL    HW111024   6.828   6.642   5.718
 3375SOL    HW211025   6.950   6.722   5.643
 3376SOL     OW11026   3.645   3.883   4.691
 3376SOL    HW111027   3.636   3.892   4.790
 3376SOL    HW211028   3.736   3.913   4.663
 3377SOL     OW11029   0.299   5.544   4.025
 3377SOL    HW111030   0.389   5.509   4.050
 3377SOL    HW211031   0.230   5.473   4.042
 3378SOL     OW11032   1.005   5.870   0.427
 3378SOL    HW111033   0.945   5.819   0.489
 3378SOL    HW211034   0.959   5.883   0.339
 3379SOL     OW11035   6.268   4.664   3.569
 3379SOL    HW111036   6.278   4.638   3.473
 3379SOL    HW211037   6.257   4.582   3.625
 3380SOL     OW11038   1.610   4.779   2.330
 3380SOL    HW111039   1.700   4.774   2.373
 3380SOL    HW211040   1.540   4.748   2.395
 3381SOL     OW11041   3.043   4.240   6.898
 3381SOL    HW111042   3.083   4.324   6.934
 3381SOL    HW211043   3.104   4.200   6.830
 3382SOL     OW11044   0.523   3.940   6.519
 3382SOL    HW111045   0.425   3.924   6.509
 3382SOL    HW211046   0.552   4.012   6.456
 3383SOL     OW11047   3.488   6.018   0.343
 3383SOL    HW111048   3.390   6.028   0.365
 3383SOL    HW211049   3.540   6.090   0.389
 3384SOL     OW11050   3.466   2.452   5.883
 3384SOL    HW111051   3.396   2.414   5.822
 3384SOL    HW211052   3.434   2.540   5.920
 3385SOL     OW11053   5.765   2.548   4.734
 3385SOL    HW111054   5.860   2.568   4.755
 3385SOL    HW211055   5.760   2.465   4.678
 3386SOL     OW11056   0.630   4.713   5.362
 3386SOL    HW111057   0.582   4.774   5.299
 3386SOL    HW211058   0.594   4.725   5.455
 3387SOL     OW11059   5.623   0.559   2.885
 3387SOL    HW111060   5.550   0.539   2.819
 3387SOL    HW211061   5.664   0.648   2.864
 3388SOL     OW11062   0.964   3.930   0.709
 3388SOL    HW111063   0.874   3.914   0.667
 3388SOL    HW211064   1.029   3.960   0.639
 3389SOL     OW11065   6.230   5.316   5.963
 3389SOL    HW111066   6.186   5.233   5.998
 3389SOL    HW211067   6.184   5.397   6.000
 3390SOL     OW11068   3.043   4.981   1.322
 3390SOL    HW111069   2.991   4.981   1.407
 3390SOL    HW211070   3.083   4.891   1.307
 3391SOL     OW11071   5.386   3.907   5.672
 3391SOL    HW111072   5.331   3.870   5.747
 3391SOL    HW211073   5.439   3.985   5.705
 3392SOL     OW11074   4.807   6.133   5.592
 3392SOL    HW111075   4.883   6.082   5.633
 3392SOL    HW211076   4.722   6.111   5.640
 3393SOL     OW11077   3.515   0.403   0.943
 3393SOL    HW111078   3.493   0.501   0.945
 3393SOL    HW211079   3.431   0.351   0.926
 3394SOL     OW11080   2.648   5.633   1.361
 3394SOL    HW111081   2.725   5.580   1.397
 3394SOL    HW211082   2.566   5.614   1.416
 3395SOL     OW11083   2.032   6.054   3.325
 3395SOL    HW111084   1.975   6.007   3.258
 3395SOL    HW211085   2.013   6.018   3.417
 3396SOL     OW11086   3.864   0.814   4.144
 3396SOL    HW111087   3.849   0.798   4.241
 3396SOL    HW211088   3.777   0.836   4.100
 3397SOL     OW11089   2.465   6.169   1.277
 3397SOL    HW111090   2.366   6.167   1.290
 3397SOL    HW211091   2.487   6.150   1.181
 3398SOL     OW11092   6.528   0.403   0.153
 3398SOL    HW111093   6.546   0.470   0.081
 3398SOL    HW211094   6.596   0.412   0.225
 3399SOL     OW11095   6.673   6.201   1.964
 3399SOL    HW111096   6.646   6.230   2.056
 3399SOL    HW211097   6.677   6.281   1.903
 3400SOL     OW11098   3.389   3.054   5.725
 3400SOL    HW111099   3.306   3.055   5.781
 3400SOL    HW211100   3.396   2.966   5.678
 3401SOL     OW11101   6.652   3.772   4.360
 3401SOL    HW111102   6.639   3.709   4.436
 3401SOL    HW211103   6.729   3.743   4.304
 3402SOL     OW11104   6.093   3.459   0.172
 3402SOL    HW111105   6.050   3.457   0.262
 3402SOL    HW211106   6.182   3.414   0.176
 3403SOL     OW11107   5.613   6.631   3.638
 3403SOL    HW111108   5.642   6.718   3.599
 3403SOL    HW211109   5.545   6.648   3.710
 3404SOL     OW11110   5.659   4.948   3.440
 3404SOL    HW111111   5.658   4.954   3.540
 3404SOL    HW211112   5.731   5.007   3.404
 3405SOL     OW11113   4.273   6.893   1.171
 3405SOL    HW111114   4.192   6.904   1.228
 3405SOL    HW211115   4.344   6.956   1.201
 3406SOL     OW11116   4.192   5.106   0.895
 3406SOL    HW111117   4.290   5.090   0.895
 3406SOL    HW211118   4.152   5.067   0.812
 3407SOL     OW11119   1.649   1.480   0.794
 3407SOL    HW111120   1.631   1.555   0.858
 3407SOL    HW211121   1.726   1.505   0.735
 3408SOL     OW11122   3.631   0.234   3.849
 3408SOL    HW111123   3.591   0.143   3.854
 3408SOL    HW211124   3.722   0.228   3.806
 3409SOL     OW11125   4.383   2.013   6.733
 3409SOL    HW111126   4.453   1.961   6.685
 3409SOL    HW211127   4.384   1.990   6.830
 3410SOL     OW11128   6.650   0.997   2.706
 3410SOL    HW111129   6.707   0.934   2.758
 3410SOL    HW211130   6.688   1.009   2.614
 3411SOL     OW11131   5.486   3.211   6.596
 3411SOL    HW111132   5.429   3.268   6.656
 3411SOL    HW211133   5.499   3.259   6.509
 3412SOL     OW11134   4.850   3.182   3.650
 3412SOL    HW111135   4.791   3.138   3.719
 3412SOL    HW211136   4.945   3.160   3.670
 3413SOL     OW11137   1.141   2.464   1.115
 3413SOL    HW111138   1.231   2.505   1.095
 3413SOL    HW211139   1.072   2.537   1.120
 3414SOL     OW11140   3.864   3.035   2.087
 3414SOL    HW111141   3.834   3.122   2.050
 3414SOL    HW211142   3.933   2.995   2.027
 3415SOL     OW11143   2.434   0.443   6.577
 3415SOL    HW111144   2.456   0.354   6.617
 3415SOL    HW211145   2.511   0.506   6.590
 3416SOL     OW11146   5.519   6.611   6.105
 3416SOL    HW111147   5.559   6.554   6.032
 3416SOL    HW211148   5.420   6.604   6.102
 3417SOL     OW11149   6.056   1.079   2.360
 3417SOL    HW111150   6.025   1.047   2.271
 3417SOL    HW211151   5.978   1.110   2.414
 3418SOL     OW11152   4.427   5.024   1.510
 3418SOL    HW111153   4.390   4.932   1.516
 3418SOL    HW211154   4.503   5.034   1.574
 3419SOL     OW11155   3.002   4.811   5.270
 3419SOL    HW111156   2.962   4.719   5.264
 3419SOL    HW211157   3.021   4.845   5.178
 3420SOL     OW11158   4.646   1.194   1.635
 3420SOL    HW111159   4.649   1.098   1.606
 3420SOL    HW211160   4.565   1.208   1.693
 3421SOL     OW11161   0.459   1.456   4.206
 3421SOL    HW111162   0.531   1.476   4.139
 3421SOL    HW211163   0.480   1.370   4.253
 3422SOL     OW11164   3.176   5.336   1.454
 3422SOL    HW111165   3.109   5.356   1.383
 3422SOL    HW211166   3.144   5.259   1.510
 3423SOL     OW11167   1.874   4.508   6.210
 3423SOL    HW111168   1.966   4.468   6.204
 3423SOL    HW211169   1.858   4.543   6.302
 3424SOL     OW11170   5.584   6.277   2.395
 3424SOL    HW111171   5.603   6.216   2.318
 3424SOL    HW211172   5.582   6.225   2.480
 3425SOL     OW11173   5.516   2.658   6.364
 3425SOL    HW111174   5.554   2.749   6.349
 3425SOL    HW211175   5.550   2.621   6.451
 3426SOL     OW11176   6.715   5.926   6.210
 3426SOL    HW111177   6.627   5.971   6.199
 3426SOL    HW211178   6.738   5.877   6.125
 3427SOL     OW11179   1.708   1.556   7.001
 3427SOL    HW111180   1.733   1.560   0.074
 3427SOL    HW211181   1.743   1.637   6.954
 3428SOL     OW11182   4.317   0.765   3.883
 3428SOL    HW111183   4.298   0.841   3.944
 3428SOL    HW211184   4.232   0.717   3.860
 3429SOL     OW11185   4.981   5.428   0.336
 3429SOL    HW111186   4.949   5.522   0.328
 3429SOL    HW211187   5.043   5.420   0.414
 3430SOL     OW11188   2.889   4.261   0.102
 3430SOL    HW111189   2.825   4.327   0.061
 3430SOL    HW211190   2.915   4.193   0.034
 3431SOL     OW11191   1.455   4.211   2.188
 3431SOL    HW111192   1.496   4.120   2.192
 3431SOL    HW211193   1.355   4.202   2.192
 3432SOL     OW11194   0.398   5.327   6.493
 3432SOL    HW111195   0.348   5.395   6.440
 3432SOL    HW211196   0.484   5.304   6.446
 3433SOL     OW11197   0.614   1.527   0.034
 3433SOL    HW111198   0.713   1.522   0.025
 3433SOL    HW211199   0.571   1.462   6.995
 3434SOL     OW11200   4.187   2.267   2.217
 3434SOL    HW111201   4.169   2.171   2.193
 3434SOL    HW211202   4.148   2.327   2.147
 3435SOL     OW11203   3.226   2.819   1.303
 3435SOL    HW111204   3.297   2.752   1.284
 3435SOL    HW211205   3.138   2.773   1.311
 3436SOL     OW11206   4.300   5.744   5.371
 3436SOL    HW111207   4.346   5.798   5.301
 3436SOL    HW211208   4.241   5.676   5.326
 3437SOL     OW11209   2.174   6.295   0.766
 3437SOL    HW111210   2.183   6.196   0.755
 3437SOL    HW211211   2.193   6.320   0.861
 3438SOL     OW11212   2.702   4.391   0.495
 3438SOL    HW111213   2.722   4.293   0.501
 3438SOL    HW211214   2.661   4.412   0.407
 3439SOL     OW11215   3.009   6.182   0.792
 3439SOL    HW111216   3.024   6.148   0.700
 3439SOL    HW211217   3.089   6.165   0.849
 3440SOL     OW11218   4.057   4.430   5.644
 3440SOL    HW111219   4.042   4.501   5.712
 3440SOL    HW211220   4.024   4.342   5.679
 3441SOL     OW11221   0.341   5.085   5.473
 3441SOL    HW111222   0.279   5.037   5.411
 3441SOL    HW211223   0.310   5.074   5.567
 3442SOL     OW11224   1.393   2.186   0.528
 3442SOL    HW111225   1.457   2.120   0.489
 3442SOL    HW211226   1.304   2.143   0.540
 3443SOL     OW11227   7.008   5.943   2.234
 3443SOL    HW111228   0.022   5.851   2.245
 3443SOL    HW211229   6.920   5.937   2.187
 3444SOL     OW11230   1.033   3.742   5.967
 3444SOL    HW111231   0.962   3.716   6.032
 3444SOL    HW211232   1.089   3.815   6.007
 3445SOL     OW11233   6.039   5.293   4.824
 3445SOL    HW111234   6.118   5.351   4.842
 3445SOL    HW211235   5.995   5.322   4.739
 3446SOL     OW11236   5.031   1.631   0.629
 3446SOL    HW111237   5.078   1.718   0.642
 3446SOL    HW211238   5.034   1.579   0.715
 3447SOL     OW11239   5.102   1.808   6.008
 3447SOL    HW111240   5.133   1.723   5.965
 3447SOL    HW211241   5.165   1.833   6.081
 3448SOL     OW11242   0.956   5.539   4.766
 3448SOL    HW111243   1.013   5.462   4.795
 3448SOL    HW211244   0.892   5.562   4.840
 3449SOL     OW11245   1.441   3.996   4.814
 3449SOL    HW111246   1.374   4.063   4.780
 3449SOL    HW211247   1.487   4.033   4.894
 3450SOL     OW11248   1.958   7.014   2.801
 3450SOL    HW111249   1.994   6.936   2.851
 3450SOL    HW211250   1.996   0.074   2.838
 3451SOL     OW11251   2.286   1.889   0.788
 3451SOL    HW111252   2.281   1.790   0.800
 3451SOL    HW211253   2.301   1.932   0.877
 3452SOL     OW11254   4.472   0.992   5.320
 3452SOL    HW111255   4.531   1.067   5.292
 3452SOL    HW211256   4.439   1.008   5.414
 3453SOL     OW11257   4.312   6.613   5.210
 3453SOL    HW111258   4.360   6.538   5.255
 3453SOL    HW211259   4.369   6.650   5.136
 3454SOL     OW11260   1.155   3.325   3.950
 3454SOL    HW111261   1.214   3.359   4.024
 3454SOL    HW211262   1.183   3.233   3.925
 3455SOL     OW11263   1.428   3.771   6.210
 3455SOL    HW111264   1.434   3.716   6.293
 3455SOL    HW211265   1.459   3.717   6.132
 3456SOL     OW11266   4.412   5.297   2.409
 3456SOL    HW111267   4.330   5.264   2.361
 3456SOL    HW211268   4.493   5.276   2.355
 3457SOL     OW11269   3.606   3.873   0.172
 3457SOL    HW111270   3.703   3.869   0.195
 3457SOL    HW211271   3.568   3.781   0.168
 3458SOL     OW11272   3.941   1.647   1.145
 3458SOL    HW111273   3.956   1.709   1.223
 3458SOL    HW211274   3.949   1.699   1.060
 3459SOL     OW11275   6.512   0.568   3.218
 3459SOL    HW111276   6.595   0.531   3.259
 3459SOL    HW211277   6.517   0.557   3.118
 3460SOL     OW11278   5.038   1.408   5.170
 3460SOL    HW111279   4.997   1.380   5.083
 3460SOL    HW211280   5.026   1.506   5.183
 3461SOL     OW11281   4.207   4.735   3.600
 3461SOL    HW111282   4.229   4.830   3.622
 3461SOL    HW211283   4.292   4.684   3.585
 3462SOL     OW11284   1.323   4.431   6.494
 3462SOL    HW111285   1.226   4.440   6.519
 3462SOL    HW211286   1.364   4.522   6.485
 3463SOL     OW11287   6.182   4.392   6.817
 3463SOL    HW111288   6.247   4.440   6.876
 3463SOL    HW211289   6.179   4.295   6.841
 3464SOL     OW11290   6.721   4.948   4.048
 3464SOL    HW111291   6.769   5.030   4.079
 3464SOL    HW211292   6.673   4.906   4.125
 3465SOL     OW11293   0.803   2.710   1.863
 3465SOL    HW111294   0.787   2.682   1.768
 3465SOL    HW211295   0.724   2.761   1.896
 3466SOL     OW11296   5.811   3.833   3.392
 3466SOL    HW111297   5.876   3.809   3.465
 3466SOL    HW211298   5.744   3.760   3.383
 3467SOL     OW11299   1.963   1.423   5.897
 3467SOL    HW111300   1.977   1.333   5.939
 3467SOL    HW211301   1.895   1.474   5.949
 3468SOL     OW11302   5.335   4.999   1.732
 3468SOL    HW111303   5.319   5.080   1.789
 3468SOL    HW211304   5.339   4.918   1.790
 3469SOL     OW11305   5.756   3.794   0.251
 3469SOL    HW111306   5.676   3.763   0.199
 3469SOL    HW211307   5.779   3.887   0.223
 3470SOL     OW11308   6.562   6.039   0.023
 3470SOL    HW111309   6.612   6.021   6.963
 3470SOL    HW211310   6.503   6.118   0.011
 3471SOL     OW11311   4.419   6.643   4.710
 3471SOL    HW111312   4.322   6.634   4.730
 3471SOL    HW211313   4.440   6.739   4.690
 3472SOL     OW11314   3.785   1.035   4.491
 3472SOL    HW111315   3.729   1.069   4.416
 3472SOL    HW211316   3.818   0.943   4.469
 3473SOL     OW11317   4.578   0.015   4.328
 3473SOL    HW111318   4.532   6.973   4.269
 3473SOL    HW211319   4.592   6.999   4.419
 3474SOL     OW11320   4.983   4.834   0.371
 3474SOL    HW111321   5.064   4.798   0.325
 3474SOL    HW211322   5.010   4.912   0.428
 3475SOL     OW11323   1.679   5.689   5.393
 3475SOL    HW111324   1.678   5.683   5.493
 3475SOL    HW211325   1.585   5.691   5.359
 3476SOL     OW11326   3.245   1.881   3.559
 3476SOL    HW111327   3.206   1.869   3.467
 3476SOL    HW211328   3.318   1.814   3.573
 3477SOL     OW11329   4.392   5.523   2.992
 3477SOL    HW111330   4.491   5.511   2.999
 3477SOL    HW211331   4.350   5.438   2.961
 3478SOL     OW11332   3.771   4.631   0.261
 3478SOL    HW111333   3.807   4.639   0.354
 3478SOL    HW211334   3.782   4.537   0.229
 3479SOL     OW11335   1.743   0.519   0.288
 3479SOL    HW111336   1.658   0.467   0.284
 3479SOL    HW211337   1.815   0.468   0.241
 3480SOL     OW11338   1.178   6.275   3.778
 3480SOL    HW111339   1.167   6.292   3.876
 3480SOL    HW211340   1.174   6.362   3.728
 3481SOL     OW11341   2.577   4.492   0.276
 3481SOL    HW111342   2.551   4.586   0.299
 3481SOL    HW211343   2.636   4.492   0.196
 3482SOL     OW11344   0.373   2.010   2.079
 3482SOL    HW111345   0.330   2.099   2.062
 3482SOL    HW211346   0.309   1.937   2.054
 3483SOL     OW11347   3.885   1.525   1.452
 3483SOL    HW111348   3.830   1.503   1.533
 3483SOL    HW211349   3.926   1.616   1.464
 3484SOL     OW11350   3.353   4.111   3.471
 3484SOL    HW111351   3.372   4.086   3.566
 3484SOL    HW211352   3.270   4.167   3.466
 3485SOL     OW11353   5.818   2.359   4.340
 3485SOL    HW111354   5.832   2.262   4.322
 3485SOL    HW211355   5.735   2.390   4.295
 3486SOL     OW11356   6.250   1.341   3.034
 3486SOL    HW111357   6.305   1.297   2.962
 3486SOL    HW211358   6.159   1.360   2.998
 3487SOL     OW11359   1.757   6.897   0.880
 3487SOL    HW111360   1.680   6.849   0.923
 3487SOL    HW211361   1.728   6.988   0.852
 3488SOL     OW11362   6.195   3.615   5.515
 3488SOL    HW111363   6.112   3.671   5.522
 3488SOL    HW211364   6.224   3.612   5.419
 3489SOL     OW11365   2.992   5.429   6.832
 3489SOL    HW111366   2.920   5.498   6.826
 3489SOL    HW211367   3.002   5.399   6.927
 3490SOL     OW11368   5.251   3.378   0.280
 3490SOL    HW111369   5.195   3.452   0.243
 3490SOL    HW211370   5.342   3.413   0.303
 3491SOL     OW11371   5.824   2.564   5.199
 3491SOL    HW111372   5.843   2.489   5.137
 3491SOL    HW211373   5.891   2.564   5.274
 3492SOL     OW11374   0.136   4.765   6.427
 3492SOL    HW111375   0.078   4.769   6.346
 3492SOL    HW211376   0.223   4.723   6.404
 3493SOL     OW11377   6.590   4.717   1.132
 3493SOL    HW111378   6.684   4.746   1.149
 3493SOL    HW211379   6.565   4.645   1.197
 3494SOL     OW11380   3.677   0.383   1.162
 3494SOL    HW111381   3.754   0.447   1.157
 3494SOL    HW211382   3.626   0.385   1.075
 3495SOL     OW11383   6.198   4.346   6.257
 3495SOL    HW111384   6.223   4.281   6.185
 3495SOL    HW211385   6.269   4.346   6.327
 3496SOL     OW11386   0.494   5.939   1.510
 3496SOL    HW111387   0.470   5.859   1.455
 3496SOL    HW211388   0.481   6.022   1.455
 3497SOL     OW11389   2.856   0.397   5.143
 3497SOL    HW111390   2.877   0.426   5.049
 3497SOL    HW211391   2.924   0.330   5.173
 3498SOL     OW11392   0.858   1.725   0.207
 3498SOL    HW111393   0.952   1.720   0.172
 3498SOL    HW211394   0.795   1.732   0.130
 3499SOL     OW11395   6.359   4.030   2.984
 3499SOL    HW111396   6.338   3.971   3.061
 3499SOL    HW211397   6.274   4.053   2.935
 3500SOL     OW11398   6.624   2.859   1.031
 3500SOL    HW111399   6.686   2.811   0.969
 3500SOL    HW211400   6.667   2.870   1.121
 3501SOL     OW11401   6.982   5.298   3.329
 3501SOL    HW111402   6.935   5.212   3.348
 3501SOL    HW211403   6.957   5.330   3.237
 3502SOL     OW11404   0.673   6.325   1.402
 3502SOL    HW111405   0.742   6.270   1.354
 3502SOL    HW211406   0.676   6.419   1.367
 3503SOL     OW11407   3.228   0.402   3.690
 3503SOL    HW111408   3.315   0.449   3.686
 3503SOL    HW211409   3.197   0.381   3.597
 3504SOL     OW11410   2.087   3.123   2.668
 3504SOL    HW111411   2.011   3.066   2.698
 3504SOL    HW211412   2.053   3.195   2.607
 3505SOL     OW11413   4.505   6.474   4.529
 3505SOL    HW111414   4.458   6.533   4.594
 3505SOL    HW211415   4.438   6.432   4.468
 3506SOL     OW11416   6.757   4.017   2.747
 3506SOL    HW111417   6.697   4.072   2.805
 3506SOL    HW211418   6.823   4.077   2.701
 3507SOL     OW11419   6.798   0.415   5.256
 3507SOL    HW111420   6.842   0.495   5.298
 3507SOL    HW211421   6.857   0.377   5.186
 3508SOL     OW11422   0.070   4.523   6.918
 3508SOL    HW111423   0.163   4.549   6.895
 3508SOL    HW211424   0.067   4.491   7.013
 3509SOL     OW11425   4.638   6.900   6.518
 3509SOL    HW111426   4.729   6.907   6.558
 3509SOL    HW211427   4.597   6.991   6.509
 3510SOL     OW11428   2.061   1.184   2.473
 3510SOL    HW111429   2.120   1.228   2.405
 3510SOL    HW211430   1.971   1.229   2.473
 3511SOL     OW11431   0.742   0.889   4.335
 3511SOL    HW111432   0.760   0.966   4.396
 3511SOL    HW211433   0.825   0.835   4.325
 3512SOL     OW11434   3.360   3.432   1.971
 3512SOL    HW111435   3.382   3.500   2.041
 3512SOL    HW211436   3.271   3.453   1.931
 3513SOL     OW11437   6.678   4.473   1.273
 3513SOL    HW111438   6.778   4.469   1.265
 3513SOL    HW211439   6.648   4.416   1.349
 3514SOL     OW11440   3.335   5.941   3.081
 3514SOL    HW111441   3.250   5.973   3.125
 3514SOL    HW211442   3.331   5.842   3.071
 3515SOL     OW11443   4.026   5.714   3.629
 3515SOL    HW111444   3.960   5.639   3.635
 3515SOL    HW211445   4.088   5.697   3.552
 3516SOL     OW11446   0.816   1.320   0.237
 3516SOL    HW111447   0.868   1.376   0.301
 3516SOL    HW211448   0.718   1.330   0.256
 3517SOL     OW11449   0.468   0.493   6.975
 3517SOL    HW111450   0.388   0.464   6.922
 3517SOL    HW211451   0.551   0.456   6.932
 3518SOL     OW11452   4.258   3.668   6.274
 3518SOL    HW111453   4.317   3.743   6.304
 3518SOL    HW211454   4.313   3.585   6.265
 3519SOL     OW11455   4.289   0.274   0.148
 3519SOL    HW111456   4.346   0.357   0.146
 3519SOL    HW211457   4.338   0.201   0.196
 3520SOL     OW11458   3.919   4.924   1.602
 3520SOL    HW111459   3.998   4.895   1.548
 3520SOL    HW211460   3.890   5.015   1.572
 3521SOL     OW11461   0.436   2.178   5.426
 3521SOL    HW111462   0.374   2.186   5.504
 3521SOL    HW211463   0.520   2.230   5.445
 3522SOL     OW11464   2.207   0.080   0.779
 3522SOL    HW111465   2.157   0.101   0.695
 3522SOL    HW211466   2.269   0.156   0.801
 3523SOL     OW11467   2.083   4.017   5.155
 3523SOL    HW111468   2.061   4.107   5.193
 3523SOL    HW211469   2.173   4.019   5.113
 3524SOL     OW11470   2.583   2.134   3.536
 3524SOL    HW111471   2.498   2.112   3.488
 3524SOL    HW211472   2.657   2.143   3.470
 3525SOL     OW11473   1.677   2.912   3.658
 3525SOL    HW111474   1.618   2.915   3.578
 3525SOL    HW211475   1.625   2.882   3.738
 3526SOL     OW11476   3.375   5.764   3.525
 3526SOL    HW111477   3.382   5.676   3.571
 3526SOL    HW211478   3.429   5.762   3.441
 3527SOL     OW11479   6.826   4.067   6.335
 3527SOL    HW111480   6.792   3.996   6.397
 3527SOL    HW211481   6.838   4.152   6.386
 3528SOL     OW11482   0.753   6.569   4.115
 3528SOL    HW111483   0.669   6.584   4.063
 3528SOL    HW211484   0.736   6.591   4.212
 3529SOL     OW11485   3.290   5.600   0.505
 3529SOL    HW111486   3.321   5.597   0.410
 3529SOL    HW211487   3.349   5.543   0.561
 3530SOL     OW11488   2.470   5.541   2.808
 3530SOL    HW111489   2.381   5.500   2.824
 3530SOL    HW211490   2.498   5.593   2.889
 3531SOL     OW11491   5.175   4.786   6.547
 3531SOL    HW111492   5.245   4.840   6.594
 3531SOL    HW211493   5.101   4.846   6.517
 3532SOL     OW11494   2.331   6.433   0.153
 3532SOL    HW111495   2.398   6.373   0.198
 3532SOL    HW211496   2.254   6.449   0.214
 3533SOL     OW11497   1.181   1.046   3.392
 3533SOL    HW111498   1.115   1.119   3.373
 3533SOL    HW211499   1.146   0.960   3.356
 3534SOL     OW11500   5.096   6.969   4.257
 3534SOL    HW111501   5.054   6.961   4.167
 3534SOL    HW211502   5.127   6.879   4.288
 3535SOL     OW11503   4.572   5.064   6.846
 3535SOL    HW111504   4.630   5.001   6.897
 3535SOL    HW211505   4.505   5.105   6.907
 3536SOL     OW11506   2.036   3.312   2.434
 3536SOL    HW111507   2.061   3.321   2.338
 3536SOL    HW211508   1.943   3.274   2.441
 3537SOL     OW11509   3.398   4.968   2.162
 3537SOL    HW111510   3.346   4.949   2.245
 3537SOL    HW211511   3.492   4.934   2.173
 3538SOL     OW11512   3.263   0.072   3.226
 3538SOL    HW111513   3.314   0.151   3.260
 3538SOL    HW211514   3.195   0.044   3.294
 3539SOL     OW11515   5.310   5.366   5.582
 3539SOL    HW111516   5.256   5.311   5.646
 3539SOL    HW211517   5.257   5.381   5.498
 3540SOL     OW11518   4.377   4.085   6.583
 3540SOL    HW111519   4.417   4.168   6.545
 3540SOL    HW211520   4.280   4.100   6.604
 3541SOL     OW11521   0.752   3.006   2.628
 3541SOL    HW111522   0.776   3.078   2.562
 3541SOL    HW211523   0.653   3.003   2.639
 3542SOL     OW11524   5.709   1.435   6.956
 3542SOL    HW111525   5.745   1.379   0.006
 3542SOL    HW211526   5.609   1.426   6.953
 3543SOL     OW11527   0.104   3.049   4.875
 3543SOL    HW111528   0.115   3.033   4.777
 3543SOL    HW211529   0.076   3.143   4.890
 3544SOL     OW11530   3.413   4.874   5.859
 3544SOL    HW111531   3.350   4.822   5.802
 3544SOL    HW211532   3.472   4.811   5.910
 3545SOL     OW11533   2.723   6.871   1.099
 3545SOL    HW111534   2.708   6.786   1.048
 3545SOL    HW211535   2.650   6.882   1.167
 3546SOL     OW11536   0.230   4.649   0.928
 3546SOL    HW111537   0.260   4.744   0.935
 3546SOL    HW211538   0.269   4.607   0.846
 3547SOL     OW11539   1.678   3.685   4.309
 3547SOL    HW111540   1.741   3.718   4.378
 3547SOL    HW211541   1.703   3.723   4.220
 3548SOL     OW11542   6.414   0.060   5.443
 3548SOL    HW111543   6.356   0.047   5.523
 3548SOL    HW211544   6.509   0.071   5.473
 3549SOL     OW11545   2.026   6.723   6.794
 3549SOL    HW111546   2.041   6.817   6.764
 3549SOL    HW211547   2.028   6.662   6.715
 3550SOL     OW11548   6.482   2.254   5.295
 3550SOL    HW111549   6.549   2.320   5.330
 3550SOL    HW211550   6.392   2.296   5.289
 3551SOL     OW11551   6.450   1.041   4.979
 3551SOL    HW111552   6.532   1.092   5.008
 3551SOL    HW211553   6.390   1.028   5.058
 3552SOL     OW11554   6.192   1.268   3.718
 3552SOL    HW111555   6.147   1.230   3.799
 3552SOL    HW211556   6.288   1.288   3.740
 3553SOL     OW11557   5.436   6.223   6.200
 3553SOL    HW111558   5.429   6.229   6.100
 3553SOL    HW211559   5.347   6.197   6.237
 3554SOL     OW11560   5.637   3.846   6.608
 3554SOL    HW111561   5.561   3.804   6.558
 3554SOL    HW211562   5.663   3.787   6.685
 3555SOL     OW11563   3.446   1.401   5.438
 3555SOL    HW111564   3.400   1.462   5.502
 3555SOL    HW211565   3.378   1.350   5.386
 3556SOL     OW11566   5.578   1.091   1.207
 3556SOL    HW111567   5.587   1.120   1.302
 3556SOL    HW211568   5.596   0.993   1.200
 3557SOL     OW11569   4.882   0.065   1.385
 3557SOL    HW111570   4.944   0.094   1.458
 3557SOL    HW211571   4.931   0.063   1.298
 3558SOL     OW11572   3.885   5.599   2.961
 3558SOL    HW111573   3.900   5.598   2.862
 3558SOL    HW211574   3.961   5.645   3.006
 3559SOL     OW11575   4.177   6.193   6.523
 3559SOL    HW111576   4.253   6.221   6.464
 3559SOL    HW211577   4.197   6.220   6.617
 3560SOL     OW11578   2.061   6.106   4.252
 3560SOL    HW111579   2.046   6.169   4.328
 3560SOL    HW211580   1.985   6.042   4.246
 3561SOL     OW11581   3.899   2.478   5.944
 3561SOL    HW111582   3.971   2.501   6.009
 3561SOL    HW211583   3.923   2.393   5.897
 3562SOL     OW11584   2.763   0.905   0.129
 3562SOL    HW111585   2.738   0.832   0.065
 3562SOL    HW211586   2.862   0.920   0.125
 3563SOL     OW11587   6.891   2.324   6.558
 3563SOL    HW111588   6.963   2.257   6.577
 3563SOL    HW211589   6.838   2.340   6.642
 3564SOL     OW11590   5.753   2.974   3.173
 3564SOL    HW111591   5.751   2.875   3.159
 3564SOL    HW211592   5.706   3.020   3.098
 3565SOL     OW11593   4.892   6.706   4.775
 3565SOL    HW111594   4.985   6.690   4.741
 3565SOL    HW211595   4.826   6.656   4.718
 3566SOL     OW11596   0.477   1.017   4.922
 3566SOL    HW111597   0.433   0.956   4.856
 3566SOL    HW211598   0.409   1.081   4.959
 3567SOL     OW11599   0.616   4.522   6.569
 3567SOL    HW111600   0.552   4.453   6.605
 3567SOL    HW211601   0.564   4.598   6.530
 3568SOL     OW11602   2.874   4.200   5.851
 3568SOL    HW111603   2.821   4.220   5.769
 3568SOL    HW211604   2.867   4.276   5.915
 3569SOL     OW11605   0.821   0.690   3.114
 3569SOL    HW111606   0.872   0.696   3.028
 3569SOL    HW211607   0.761   0.769   3.124
 3570SOL     OW11608   0.144   2.270   4.911
 3570SOL    HW111609   0.234   2.312   4.922
 3570SOL    HW211610   0.152   2.188   4.855
 3571SOL     OW11611   6.583   5.300   4.861
 3571SOL    HW111612   6.640   5.229   4.820
 3571SOL    HW211613   6.490   5.266   4.873
 3572SOL     OW11614   5.806   6.028   5.601
 3572SOL    HW111615   5.815   6.071   5.511
 3572SOL    HW211616   5.847   5.937   5.598
 3573SOL     OW11617   0.725   2.719   2.290
 3573SOL    HW111618   0.745   2.663   2.370
 3573SOL    HW211619   0.667   2.667   2.227
 3574SOL     OW11620   6.819   3.814   0.176
 3574SOL    HW111621   6.811   3.801   0.078
 3574SOL    HW211622   6.728   3.823   0.217
 3575SOL     OW11623   6.223   0.155   2.768
 3575SOL    HW111624   6.222   0.254   2.754
 3575SOL    HW211625   6.132   0.124   2.796
 3576SOL     OW11626   0.481   1.251   0.786
 3576SOL    HW111627   0.419   1.213   0.716
 3576SOL    HW211628   0.506   1.344   0.761
 3577SOL     OW11629   2.340   4.718   0.388
 3577SOL    HW111630   2.341   4.620   0.406
 3577SOL    HW211631   2.318   4.767   0.473
 3578SOL     OW11632   3.375   4.579   1.621
 3578SOL    HW111633   3.408   4.638   1.695
 3578SOL    HW211634   3.280   4.553   1.639
 3579SOL     OW11635   2.233   2.916   6.427
 3579SOL    HW111636   2.148   2.934   6.477
 3579SOL    HW211637   2.302   2.984   6.452
 3580SOL     OW11638   5.950   1.605   1.800
 3580SOL    HW111639   5.994   1.613   1.711
 3580SOL    HW211640   5.895   1.686   1.818
 3581SOL     OW11641   6.946   1.079   2.931
 3581SOL    HW111642   6.990   1.025   2.859
 3581SOL    HW211643   6.879   1.141   2.889
 3582SOL     OW11644   0.697   0.536   5.893
 3582SOL    HW111645   0.713   0.601   5.819
 3582SOL    HW211646   0.649   0.456   5.857
 3583SOL     OW11647   1.549   6.838   1.535
 3583SOL    HW111648   1.485   6.769   1.569
 3583SOL    HW211649   1.498   6.921   1.509
 3584SOL     OW11650   5.212   0.662   4.589
 3584SOL    HW111651   5.161   0.618   4.514
 3584SOL    HW211652   5.172   0.635   4.676
 3585SOL     OW11653   2.621   4.536   3.940
 3585SOL    HW111654   2.570   4.505   3.860
 3585SOL    HW211655   2.703   4.584   3.912
 3586SOL     OW11656   1.315   1.110   0.048
 3586SOL    HW111657   1.278   1.062   6.993
 3586SOL    HW211658   1.242   1.121   0.116
 3587SOL     OW11659   3.737   6.873   5.744
 3587SOL    HW111660   3.836   6.866   5.760
 3587SOL    HW211661   3.712   6.817   5.666
 3588SOL     OW11662   2.532   2.578   5.509
 3588SOL    HW111663   2.520   2.641   5.433
 3588SOL    HW211664   2.507   2.485   5.480
 3589SOL     OW11665   3.144   6.648   4.562
 3589SOL    HW111666   3.102   6.636   4.652
 3589SOL    HW211667   3.073   6.649   4.492
 3590SOL     OW11668   0.822   5.769   6.903
 3590SOL    HW111669   0.919   5.742   6.902
 3590SOL    HW211670   0.815   5.868   6.916
 3591SOL     OW11671   5.317   1.328   5.473
 3591SOL    HW111672   5.312   1.397   5.402
 3591SOL    HW211673   5.365   1.247   5.438
 3592SOL     OW11674   5.602   1.535   2.150
 3592SOL    HW111675   5.562   1.607   2.093
 3592SOL    HW211676   5.696   1.518   2.120
 3593SOL     OW11677   0.831   5.323   4.128
 3593SOL    HW111678   0.772   5.270   4.066
 3593SOL    HW211679   0.775   5.372   4.194
 3594SOL     OW11680   4.312   1.559   4.045
 3594SOL    HW111681   4.214   1.575   4.061
 3594SOL    HW211682   4.323   1.496   3.969
 3595SOL     OW11683   2.368   6.251   6.054
 3595SOL    HW111684   2.360   6.159   6.091
 3595SOL    HW211685   2.299   6.310   6.097
 3596SOL     OW11686   6.469   3.520   2.488
 3596SOL    HW111687   6.443   3.613   2.515
 3596SOL    HW211688   6.395   3.456   2.511
 3597SOL     OW11689   4.104   0.564   4.088
 3597SOL    HW111690   4.010   0.530   4.091
 3597SOL    HW211691   4.166   0.493   4.119
 3598SOL     OW11692   2.324   0.192   0.368
 3598SOL    HW111693   2.385   0.137   0.311
 3598SOL    HW211694   2.301   0.276   0.320
 3599SOL     OW11695   0.068   2.218   4.444
 3599SOL    HW111696   0.166   2.197   4.441
 3599SOL    HW211697   0.022   2.156   4.507
 3600SOL     OW11698   6.403   6.432   1.626
 3600SOL    HW111699   6.429   6.436   1.530
 3600SOL    HW211700   6.303   6.438   1.633
 3601SOL     OW11701   6.806   3.391   5.755
 3601SOL    HW111702   6.840   3.396   5.661
 3601SOL    HW211703   6.709   3.414   5.757
 3602SOL     OW11704   3.159   2.557   1.501
 3602SOL    HW111705   3.203   2.600   1.580
 3602SOL    HW211706   3.228   2.536   1.432
 3603SOL     OW11707   3.875   5.428   4.509
 3603SOL    HW111708   3.888   5.378   4.423
 3603SOL    HW211709   3.923   5.381   4.583
 3604SOL     OW11710   6.138   4.414   2.751
 3604SOL    HW111711   6.110   4.400   2.846
 3604SOL    HW211712   6.234   4.388   2.741
 3605SOL     OW11713   5.878   1.575   6.373
 3605SOL    HW111714   5.805   1.566   6.440
 3605SOL    HW211715   5.911   1.484   6.347
 3606SOL     OW11716   2.001   3.990   2.988
 3606SOL    HW111717   2.010   3.909   2.930
 3606SOL    HW211718   1.925   4.046   2.956
 3607SOL     OW11719   4.128   0.045   5.663
 3607SOL    HW111720   4.118   0.029   5.565
 3607SOL    HW211721   4.067   0.119   5.691
 3608SOL     OW11722   0.108   2.968   3.173
 3608SOL    HW111723   0.076   2.883   3.214
 3608SOL    HW211724   0.148   2.949   3.083
 3609SOL     OW11725   6.803   0.738   3.572
 3609SOL    HW111726   6.872   0.810   3.560
 3609SOL    HW211727   6.724   0.775   3.619
 3610SOL     OW11728   1.601   4.889   5.708
 3610SOL    HW111729   1.699   4.885   5.725
 3610SOL    HW211730   1.567   4.798   5.683
 3611SOL     OW11731   5.037   4.825   5.650
 3611SOL    HW111732   5.097   4.876   5.588
 3611SOL    HW211733   5.000   4.887   5.719
 3612SOL     OW11734   1.905   6.168   1.241
 3612SOL    HW111735   1.937   6.143   1.149
 3612SOL    HW211736   1.873   6.087   1.288
 3613SOL     OW11737   5.535   5.023   6.179
 3613SOL    HW111738   5.630   5.040   6.202
 3613SOL    HW211739   5.495   4.960   6.245
 3614SOL     OW11740   3.512   3.090   4.805
 3614SOL    HW111741   3.466   3.175   4.830
 3614SOL    HW211742   3.444   3.018   4.790
 3615SOL     OW11743   5.660   6.784   6.233
 3615SOL    HW111744   5.614   6.777   6.321
 3615SOL    HW211745   5.624   6.715   6.171
 3616SOL     OW11746   6.491   1.226   4.558
 3616SOL    HW111747   6.587   1.253   4.566
 3616SOL    HW211748   6.432   1.300   4.591
 3617SOL     OW11749   0.269   0.488   0.670
 3617SOL    HW111750   0.346   0.523   0.722
 3617SOL    HW211751   0.301   0.417   0.607
 3618SOL     OW11752   3.794   5.575   6.308
 3618SOL    HW111753   3.761   5.526   6.227
 3618SOL    HW211754   3.726   5.643   6.336
 3619SOL     OW11755   4.952   3.370   3.982
 3619SOL    HW111756   4.918   3.279   4.006
 3619SOL    HW211757   5.042   3.383   4.022
 3620SOL     OW11758   6.290   1.789   5.036
 3620SOL    HW111759   6.210   1.777   4.977
 3620SOL    HW211760   6.261   1.832   5.122
 3621SOL     OW11761   1.624   2.498   6.221
 3621SOL    HW111762   1.716   2.533   6.207
 3621SOL    HW211763   1.562   2.574   6.244
 3622SOL     OW11764   1.118   3.807   0.922
 3622SOL    HW111765   1.060   3.876   0.879
 3622SOL    HW211766   1.145   3.739   0.853
 3623SOL     OW11767   6.418   4.729   4.689
 3623SOL    HW111768   6.321   4.712   4.672
 3623SOL    HW211769   6.467   4.642   4.690
 3624SOL     OW11770   1.586   0.560   1.780
 3624SOL    HW111771   1.659   0.531   1.718
 3624SOL    HW211772   1.590   0.506   1.864
 3625SOL     OW11773   1.464   2.390   4.985
 3625SOL    HW111774   1.398   2.399   5.060
 3625SOL    HW211775   1.498   2.481   4.960
 3626SOL     OW11776   2.124   3.547   5.506
 3626SOL    HW111777   2.189   3.567   5.579
 3626SOL    HW211778   2.164   3.479   5.444
 3627SOL     OW11779   3.408   3.185   4.537
 3627SOL    HW111780   3.373   3.255   4.599
 3627SOL    HW211781   3.501   3.209   4.509
 3628SOL     OW11782   2.651   5.908   3.935
 3628SOL    HW111783   2.734   5.963   3.947
 3628SOL    HW211784   2.652   5.832   3.999
 3629SOL     OW11785   5.554   3.415   4.681
 3629SOL    HW111786   5.600   3.503   4.666
 3629SOL    HW211787   5.622   3.347   4.707
 3630SOL     OW11788   6.187   1.895   5.265
 3630SOL    HW111789   6.171   1.991   5.243
 3630SOL    HW211790   6.103   1.854   5.299
 3631SOL     OW11791   1.865   0.690   4.093
 3631SOL    HW111792   1.848   0.601   4.050
 3631SOL    HW211793   1.953   0.689   4.139
 3632SOL     OW11794   4.821   6.741   6.018
 3632SOL    HW111795   4.722   6.737   6.029
 3632SOL    HW211796   4.845   6.721   5.923
 3633SOL     OW11797   0.855   2.726   5.518
 3633SOL    HW111798   0.798   2.678   5.453
 3633SOL    HW211799   0.799   2.760   5.594
 3634SOL     OW11800   3.139   4.943   6.128
 3634SOL    HW111801   3.210   4.876   6.150
 3634SOL    HW211802   3.081   4.907   6.054
 3635SOL     OW11803   2.354   1.823   4.509
 3635SOL    HW111804   2.350   1.915   4.549
 3635SOL    HW211805   2.363   1.831   4.409
 3636SOL     OW11806   1.008   6.473   1.715
 3636SOL    HW111807   0.975   6.492   1.622
 3636SOL    HW211808   0.991   6.551   1.774
 3637SOL     OW11809   4.868   1.154   2.016
 3637SOL    HW111810   4.836   1.182   2.107
 3637SOL    HW211811   4.911   1.064   2.022
 3638SOL     OW11812   6.867   5.059   3.334
 3638SOL    HW111813   6.955   5.017   3.358
 3638SOL    HW211814   6.799   4.988   3.319
 3639SOL     OW11815   2.810   6.446   6.825
 3639SOL    HW111816   2.748   6.486   6.758
 3639SOL    HW211817   2.763   6.373   6.874
 3640SOL     OW11818   2.165   6.729   1.841
 3640SOL    HW111819   2.140   6.779   1.759
 3640SOL    HW211820   2.175   6.793   1.917
 3641SOL     OW11821   1.845   1.443   5.110
 3641SOL    HW111822   1.762   1.476   5.154
 3641SOL    HW211823   1.917   1.433   5.179
 3642SOL     OW11824   6.247   6.766   2.311
 3642SOL    HW111825   6.290   6.771   2.221
 3642SOL    HW211826   6.268   6.848   2.363
 3643SOL     OW11827   3.847   6.741   4.496
 3643SOL    HW111828   3.881   6.667   4.437
 3643SOL    HW211829   3.924   6.791   4.534
 3644SOL     OW11830   6.096   0.056   2.209
 3644SOL    HW111831   6.103   0.013   2.119
 3644SOL    HW211832   6.184   0.095   2.235
 3645SOL     OW11833   4.367   6.240   3.740
 3645SOL    HW111834   4.293   6.197   3.792
 3645SOL    HW211835   4.329   6.283   3.658
 3646SOL     OW11836   0.458   5.098   4.871
 3646SOL    HW111837   0.483   5.186   4.910
 3646SOL    HW211838   0.441   5.109   4.773
 3647SOL     OW11839   2.875   2.821   0.676
 3647SOL    HW111840   2.845   2.881   0.601
 3647SOL    HW211841   2.920   2.740   0.638
 3648SOL     OW11842   2.852   6.486   3.282
 3648SOL    HW111843   2.777   6.541   3.245
 3648SOL    HW211844   2.834   6.465   3.378
 3649SOL     OW11845   3.154   3.061   2.527
 3649SOL    HW111846   3.157   2.993   2.454
 3649SOL    HW211847   3.061   3.097   2.535
 3650SOL     OW11848   5.926   6.431   1.141
 3650SOL    HW111849   5.957   6.524   1.122
 3650SOL    HW211850   5.912   6.382   1.055
 3651SOL     OW11851   2.144   5.986   2.117
 3651SOL    HW111852   2.200   6.069   2.104
 3651SOL    HW211853   2.117   5.979   2.213
 3652SOL     OW11854   4.229   6.382   3.554
 3652SOL    HW111855   4.239   6.480   3.570
 3652SOL    HW211856   4.132   6.358   3.554
 3653SOL     OW11857   6.853   3.039   3.858
 3653SOL    HW111858   6.812   2.954   3.823
 3653SOL    HW211859   6.920   3.016   3.929
 3654SOL     OW11860   2.224   6.908   2.080
 3654SOL    HW111861   2.230   7.007   2.068
 3654SOL    HW211862   2.162   6.887   2.157
 3655SOL     OW11863   6.491   1.234   3.824
 3655SOL    HW111864   6.506   1.143   3.863
 3655SOL    HW211865   6.579   1.273   3.794
 3656SOL     OW11866   2.143   1.938   2.849
 3656SOL    HW111867   2.135   1.918   2.947
 3656SOL    HW211868   2.130   2.036   2.835
 3657SOL     OW11869   5.038   5.524   1.935
 3657SOL    HW111870   5.109   5.539   1.866
 3657SOL    HW211871   5.081   5.493   2.020
 3658SOL     OW11872   2.605   4.768   5.665
 3658SOL    HW111873   2.519   4.782   5.714
 3658SOL    HW211874   2.639   4.857   5.633
 3659SOL     OW11875   1.645   4.109   6.640
 3659SOL    HW111876   1.620   4.169   6.564
 3659SOL    HW211877   1.640   4.014   6.610
 3660SOL     OW11878   4.534   4.075   0.674
 3660SOL    HW111879   4.474   4.027   0.738
 3660SOL    HW211880   4.530   4.173   0.693
 3661SOL     OW11881   5.812   1.371   1.630
 3661SOL    HW111882   5.861   1.288   1.606
 3661SOL    HW211883   5.853   1.411   1.712
 3662SOL     OW11884   1.054   6.295   4.130
 3662SOL    HW111885   1.015   6.334   4.046
 3662SOL    HW211886   0.994   6.318   4.207
 3663SOL     OW11887   1.982   2.809   6.163
 3663SOL    HW111888   2.075   2.774   6.146
 3663SOL    HW211889   1.937   2.826   6.075
 3664SOL     OW11890   3.520   0.547   2.522
 3664SOL    HW111891   3.485   0.465   2.565
 3664SOL    HW211892   3.482   0.556   2.430
 3665SOL     OW11893   2.232   1.276   5.199
 3665SOL    HW111894   2.203   1.321   5.114
 3665SOL    HW211895   2.209   1.178   5.194
 3666SOL     OW11896   0.574   4.552   3.443
 3666SOL    HW111897   0.545   4.634   3.492
 3666SOL    HW211898   0.615   4.579   3.355
 3667SOL     OW11899   0.391   1.214   0.133
 3667SOL    HW111900   0.475   1.187   0.179
 3667SOL    HW211901   0.388   1.171   0.042
 3668SOL     OW11902   1.975   6.584   2.025
 3668SOL    HW111903   1.904   6.523   1.989
 3668SOL    HW211904   2.000   6.650   1.954
 3669SOL     OW11905   5.496   1.390   3.960
 3669SOL    HW111906   5.579   1.378   3.905
 3669SOL    HW211907   5.475   1.488   3.968
 3670SOL     OW11908   3.152   5.212   6.137
 3670SOL    HW111909   3.090   5.255   6.071
 3670SOL    HW211910   3.134   5.114   6.141
 3671SOL     OW11911   2.292   0.987   3.381
 3671SOL    HW111912   2.239   1.068   3.406
 3671SOL    HW211913   2.231   0.920   3.338
 3672SOL     OW11914   6.362   6.829   0.257
 3672SOL    HW111915   6.450   6.787   0.236
 3672SOL    HW211916   6.332   6.800   0.348
 3673SOL     OW11917   4.528   6.677   6.371
 3673SOL    HW111918   4.559   6.749   6.434
 3673SOL    HW211919   4.445   6.635   6.407
 3674SOL     OW11920   0.890   5.990   1.038
 3674SOL    HW111921   0.976   6.038   1.022
 3674SOL    HW211922   0.814   6.051   1.016
 3675SOL     OW11923   2.117   2.107   4.309
 3675SOL    HW111924   2.154   2.200   4.301
 3675SOL    HW211925   2.101   2.069   4.218
 3676SOL     OW11926   1.742   5.294   2.848
 3676SOL    HW111927   1.749   5.198   2.821
 3676SOL    HW211928   1.692   5.301   2.934
 3677SOL     OW11929   5.717   0.506   3.852
 3677SOL    HW111930   5.750   0.414   3.873
 3677SOL    HW211931   5.769   0.544   3.775
 3678SOL     OW11932   1.262   2.490   4.199
 3678SOL    HW111933   1.226   2.408   4.154
 3678SOL    HW211934   1.293   2.465   4.291
 3679SOL     OW11935   6.440   1.173   1.941
 3679SOL    HW111936   6.407   1.229   2.017
 3679SOL    HW211937   6.444   1.229   1.858
 3680SOL     OW11938   5.809   4.336   4.499
 3680SOL    HW111939   5.898   4.295   4.520
 3680SOL    HW211940   5.821   4.406   4.429
 3681SOL     OW11941   5.349   6.773   5.056
 3681SOL    HW111942   5.298   6.859   5.046
 3681SOL    HW211943   5.442   6.794   5.085
 3682SOL     OW11944   0.522   2.296   6.792
 3682SOL    HW111945   0.616   2.266   6.776
 3682SOL    HW211946   0.465   2.272   6.713
 3683SOL     OW11947   4.903   6.055   3.010
 3683SOL    HW111948   4.828   6.120   3.003
 3683SOL    HW211949   4.990   6.104   3.006
 3684SOL     OW11950   2.070   3.987   1.552
 3684SOL    HW111951   2.091   3.976   1.650
 3684SOL    HW211952   2.086   3.900   1.505
 3685SOL     OW11953   5.378   6.275   5.920
 3685SOL    HW111954   5.428   6.202   5.873
 3685SOL    HW211955   5.381   6.358   5.864
 3686SOL     OW11956   6.999   4.123   0.321
 3686SOL    HW111957   0.054   4.179   0.346
 3686SOL    HW211958   0.005   4.046   0.265
 3687SOL     OW11959   4.214   1.140   0.359
 3687SOL    HW111960   4.280   1.193   0.306
 3687SOL    HW211961   4.238   1.043   0.356
 3688SOL     OW11962   0.199   3.549   0.696
 3688SOL    HW111963   0.221   3.523   0.602
 3688SOL    HW211964   0.099   3.554   0.706
 3689SOL     OW11965   1.950   6.685   3.318
 3689SOL    HW111966   1.993   6.605   3.360
 3689SOL    HW211967   1.913   6.744   3.390
 3690SOL     OW11968   4.876   4.967   5.823
 3690SOL    HW111969   4.883   5.026   5.903
 3690SOL    HW211970   4.866   4.872   5.853
 3691SOL     OW11971   3.090   2.729   5.602
 3691SOL    HW111972   3.054   2.812   5.644
 3691SOL    HW211973   3.172   2.751   5.548
 3692SOL     OW11974   0.208   0.198   5.516
 3692SOL    HW111975   0.275   0.268   5.542
 3692SOL    HW211976   0.124   0.211   5.570
 3693SOL     OW11977   1.521   1.488   3.486
 3693SOL    HW111978   1.564   1.415   3.539
 3693SOL    HW211979   1.422   1.484   3.498
 3694SOL     OW11980   1.939   4.912   3.491
 3694SOL    HW111981   1.894   4.981   3.434
 3694SOL    HW211982   1.986   4.958   3.567
 3695SOL     OW11983   1.848   2.538   0.518
 3695SOL    HW111984   1.760   2.585   0.528
 3695SOL    HW211985   1.838   2.459   0.458
 3696SOL     OW11986   2.795   6.282   5.532
 3696SOL    HW111987   2.830   6.274   5.625
 3696SOL    HW211988   2.852   6.228   5.470
 3697SOL     OW11989   5.013   1.169   3.757
 3697SOL    HW111990   4.975   1.120   3.836
 3697SOL    HW211991   5.112   1.167   3.761
 3698SOL     OW11992   3.283   6.898   6.632
 3698SOL    HW111993   3.218   6.971   6.610
 3698SOL    HW211994   3.363   6.938   6.677
 3699SOL     OW11995   1.028   5.146   2.144
 3699SOL    HW111996   1.122   5.115   2.161
 3699SOL    HW211997   0.970   5.121   2.222
 3700SOL     OW11998   6.046   0.390   3.687
 3700SOL    HW111999   6.142   0.401   3.661
 3700SOL    HW212000   6.005   0.479   3.705
 3701SOL     OW12001   4.695   1.002   4.085
 3701SOL    HW112002   4.656   1.026   3.997
 3701SOL    HW212003   4.625   0.959   4.142
 3702SOL     OW12004   5.232   1.023   6.709
 3702SOL    HW112005   5.174   1.057   6.783
 3702SOL    HW212006   5.188   1.041   6.621
 3703SOL     OW12007   3.926   4.836   1.081
 3703SOL    HW112008   4.018   4.841   1.120
 3703SOL    HW212009   3.904   4.923   1.037
 3704SOL     OW12010   3.328   6.133   1.258
 3704SOL    HW112011   3.251   6.085   1.299
 3704SOL    HW212012   3.388   6.067   1.213
 3705SOL     OW12013   6.933   1.124   4.690
 3705SOL    HW112014   6.998   1.170   4.631
 3705SOL    HW212015   6.981   1.073   4.761
 3706SOL     OW12016   3.014   2.234   3.143
 3706SOL    HW112017   2.942   2.254   3.077
 3706SOL    HW212018   3.101   2.219   3.094
 3707SOL     OW12019   4.322   2.407   5.443
 3707SOL    HW112020   4.337   2.342   5.518
 3707SOL    HW212021   4.401   2.469   5.436
 3708SOL     OW12022   6.568   0.602   6.982
 3708SOL    HW112023   6.470   0.597   6.966
 3708SOL    HW212024   6.608   0.674   6.925
 3709SOL     OW12025   0.121   6.841   6.780
 3709SOL    HW112026   0.072   6.925   6.802
 3709SOL    HW212027   0.218   6.852   6.800
 3710SOL     OW12028   0.373   4.859   6.748
 3710SOL    HW112029   0.282   4.898   6.762
 3710SOL    HW212030   0.380   4.772   6.797
 3711SOL     OW12031   0.054   5.651   2.194
 3711SOL    HW112032   0.130   5.595   2.160
 3711SOL    HW212033   7.001   5.592   2.215
 3712SOL     OW12034   1.724   0.180   6.915
 3712SOL    HW112035   1.675   0.101   6.879
 3712SOL    HW212036   1.758   0.236   6.839
 3713SOL     OW12037   3.566   5.394   5.852
 3713SOL    HW112038   3.561   5.470   5.917
 3713SOL    HW212039   3.532   5.424   5.763
 3714SOL     OW12040   5.003   1.810   4.944
 3714SOL    HW112041   5.068   1.839   5.014
 3714SOL    HW212042   4.941   1.741   4.981
 3715SOL     OW12043   4.935   3.858   3.335
 3715SOL    HW112044   4.876   3.936   3.359
 3715SOL    HW212045   5.009   3.851   3.402
 3716SOL     OW12046   1.142   1.320   3.788
 3716SOL    HW112047   1.192   1.285   3.708
 3716SOL    HW212048   1.196   1.390   3.833
 3717SOL     OW12049   5.977   0.685   6.545
 3717SOL    HW112050   6.077   0.689   6.545
 3717SOL    HW212051   5.944   0.707   6.637
 3718SOL     OW12052   0.929   6.502   6.659
 3718SOL    HW112053   1.011   6.551   6.686
 3718SOL    HW212054   0.952   6.406   6.639
 3719SOL     OW12055   3.235   4.486   0.625
 3719SOL    HW112056   3.221   4.508   0.528
 3719SOL    HW212057   3.148   4.461   0.666
 3720SOL     OW12058   0.044   1.183   6.158
 3720SOL    HW112059   0.095   1.213   6.078
 3720SOL    HW212060   0.094   1.210   6.241
 3721SOL     OW12061   4.698   2.901   0.324
 3721SOL    HW112062   4.758   2.845   0.382
 3721SOL    HW212063   4.747   2.984   0.297
 3722SOL     OW12064   5.132   5.769   1.396
 3722SOL    HW112065   5.035   5.761   1.421
 3722SOL    HW212066   5.174   5.679   1.394
 3723SOL     OW12067   4.750   1.205   0.720
 3723SOL    HW112068   4.700   1.291   0.729
 3723SOL    HW212069   4.843   1.224   0.687
 3724SOL     OW12070   0.874   4.150   5.881
 3724SOL    HW112071   0.946   4.206   5.839
 3724SOL    HW212072   0.869   4.062   5.833
 3725SOL     OW12073   5.629   6.369   1.376
 3725SOL    HW112074   5.565   6.437   1.413
 3725SOL    HW212075   5.716   6.414   1.354
 3726SOL     OW12076   6.070   2.628   1.576
 3726SOL    HW112077   5.971   2.646   1.571
 3726SOL    HW212078   6.119   2.716   1.575
 3727SOL     OW12079   2.935   3.016   5.378
 3727SOL    HW112080   2.949   3.102   5.328
 3727SOL    HW212081   2.977   2.941   5.327
 3728SOL     OW12082   0.579   4.069   6.851
 3728SOL    HW112083   0.583   4.039   6.756
 3728SOL    HW212084   0.671   4.092   6.882
 3729SOL     OW12085   0.843   2.857   3.727
 3729SOL    HW112086   0.920   2.817   3.776
 3729SOL    HW212087   0.829   2.951   3.758
 3730SOL     OW12088   2.062   0.435   1.228
 3730SOL    HW112089   2.104   0.486   1.152
 3730SOL    HW212090   2.104   0.345   1.234
 3731SOL     OW12091   2.414   5.457   6.840
 3731SOL    HW112092   2.422   5.544   6.791
 3731SOL    HW212093   2.416   5.473   6.938
 3732SOL     OW12094   2.100   3.926   4.519
 3732SOL    HW112095   2.138   4.017   4.499
 3732SOL    HW212096   2.156   3.856   4.474
 3733SOL     OW12097   3.188   4.034   1.533
 3733SOL    HW112098   3.195   3.985   1.620
 3733SOL    HW212099   3.096   4.021   1.495
 3734SOL     OW12100   4.422   0.843   3.158
 3734SOL    HW112101   4.502   0.806   3.205
 3734SOL    HW212102   4.406   0.937   3.189
 3735SOL     OW12103   3.907   2.095   2.060
 3735SOL    HW112104   3.919   2.030   2.135
 3735SOL    HW212105   3.812   2.127   2.059
 3736SOL     OW12106   4.923   0.859   6.289
 3736SOL    HW112107   4.874   0.777   6.260
 3736SOL    HW212108   4.861   0.919   6.339
 3737SOL     OW12109   3.217   0.048   3.814
 3737SOL    HW112110   3.203   0.138   3.856
 3737SOL    HW212111   3.276   7.018   3.873
 3738SOL     OW12112   0.052   0.384   4.100
 3738SOL    HW112113   0.121   0.457   4.106
 3738SOL    HW212114   0.098   0.295   4.105
 3739SOL     OW12115   0.187   3.300   1.375
 3739SOL    HW112116   0.173   3.220   1.317
 3739SOL    HW212117   0.282   3.300   1.407
 3740SOL     OW12118   5.737   6.964   0.227
 3740SOL    HW112119   5.780   0.022   0.263
 3740SOL    HW212120   5.794   6.926   0.153
 3741SOL     OW12121   3.745   1.642   6.925
 3741SOL    HW112122   3.647   1.625   6.930
 3741SOL    HW212123   3.777   1.685   7.009
 3742SOL     OW12124   3.596   3.329   6.062
 3742SOL    HW112125   3.692   3.321   6.092
 3742SOL    HW212126   3.544   3.252   6.098
 3743SOL     OW12127   0.690   5.679   6.215
 3743SOL    HW112128   0.692   5.709   6.120
 3743SOL    HW212129   0.619   5.610   6.227
 3744SOL     OW12130   6.664   4.914   3.150
 3744SOL    HW112131   6.733   4.980   3.119
 3744SOL    HW212132   6.575   4.938   3.112
 3745SOL     OW12133   5.192   4.931   1.508
 3745SOL    HW112134   5.255   4.968   1.576
 3745SOL    HW212135   5.121   4.998   1.489
 3746SOL     OW12136   4.201   1.817   1.512
 3746SOL    HW112137   4.237   1.903   1.549
 3746SOL    HW212138   4.255   1.792   1.431
 3747SOL     OW12139   2.339   0.282   0.894
 3747SOL    HW112140   2.438   0.288   0.881
 3747SOL    HW212141   2.310   0.349   0.962
 3748SOL     OW12142   6.138   0.306   2.031
 3748SOL    HW112143   6.188   0.390   2.056
 3748SOL    HW212144   6.040   0.323   2.038
 3749SOL     OW12145   0.900   0.480   4.025
 3749SOL    HW112146   0.977   0.489   4.088
 3749SOL    HW212147   0.919   0.532   3.942
 3750SOL     OW12148   0.546   3.706   6.674
 3750SOL    HW112149   0.498   3.740   6.755
 3750SOL    HW212150   0.551   3.778   6.606
 3751SOL     OW12151   1.832   5.209   1.511
 3751SOL    HW112152   1.812   5.229   1.416
 3751SOL    HW212153   1.749   5.179   1.557
 3752SOL     OW12154   4.952   5.948   6.412
 3752SOL    HW112155   4.925   5.937   6.508
 3752SOL    HW212156   5.023   5.882   6.390
 3753SOL     OW12157   0.600   0.532   3.175
 3753SOL    HW112158   0.669   0.603   3.163
 3753SOL    HW212159   0.584   0.487   3.087
 3754SOL     OW12160   3.197   1.812   1.373
 3754SOL    HW112161   3.104   1.823   1.407
 3754SOL    HW212162   3.258   1.789   1.448
 3755SOL     OW12163   2.328   6.043   4.320
 3755SOL    HW112164   2.232   6.040   4.293
 3755SOL    HW212165   2.344   5.979   4.395
 3756SOL     OW12166   1.359   6.450   0.705
 3756SOL    HW112167   1.433   6.418   0.645
 3756SOL    HW212168   1.379   6.542   0.736
 3757SOL     OW12169   0.661   4.848   0.326
 3757SOL    HW112170   0.662   4.868   0.228
 3757SOL    HW212171   0.569   4.821   0.354
 3758SOL     OW12172   0.411   6.151   3.686
 3758SOL    HW112173   0.316   6.176   3.665
 3758SOL    HW212174   0.413   6.057   3.722
 3759SOL     OW12175   4.706   0.717   3.542
 3759SOL    HW112176   4.775   0.760   3.600
 3759SOL    HW212177   4.686   0.625   3.575
 3760SOL     OW12178   0.627   0.953   2.865
 3760SOL    HW112179   0.529   0.956   2.885
 3760SOL    HW212180   0.649   1.023   2.797
 3761SOL     OW12181   4.638   1.210   5.229
 3761SOL    HW112182   4.718   1.150   5.216
 3761SOL    HW212183   4.615   1.254   5.143
 3762SOL     OW12184   0.397   2.294   4.230
 3762SOL    HW112185   0.363   2.259   4.143
 3762SOL    HW212186   0.483   2.342   4.216
 3763SOL     OW12187   0.891   6.356   0.308
 3763SOL    HW112188   0.958   6.391   0.242
 3763SOL    HW212189   0.847   6.433   0.354
 3764SOL     OW12190   2.956   1.594   2.516
 3764SOL    HW112191   3.043   1.563   2.478
 3764SOL    HW212192   2.961   1.693   2.532
 3765SOL     OW12193   5.662   3.720   2.674
 3765SOL    HW112194   5.586   3.689   2.617
 3765SOL    HW212195   5.706   3.798   2.631
 3766SOL     OW12196   1.588   2.734   2.112
 3766SOL    HW112197   1.539   2.809   2.157
 3766SOL    HW212198   1.597   2.657   2.176
 3767SOL     OW12199   1.765   5.745   6.356
 3767SOL    HW112200   1.830   5.670   6.352
 3767SOL    HW212201   1.758   5.788   6.266
 3768SOL     OW12202   1.611   6.732   3.162
 3768SOL    HW112203   1.616   6.639   3.125
 3768SOL    HW212204   1.565   6.792   3.097
 3769SOL     OW12205   5.193   4.958   5.446
 3769SOL    HW112206   5.124   5.018   5.405
 3769SOL    HW212207   5.281   4.971   5.401
 3770SOL     OW12208   2.790   6.978   0.797
 3770SOL    HW112209   2.716   6.961   0.862
 3770SOL    HW212210   2.858   6.905   0.803
 3771SOL     OW12211   6.384   5.853   5.411
 3771SOL    HW112212   6.398   5.769   5.464
 3771SOL    HW212213   6.383   5.931   5.472
 3772SOL     OW12214   2.817   5.889   1.909
 3772SOL    HW112215   2.845   5.950   1.983
 3772SOL    HW212216   2.896   5.866   1.852
 3773SOL     OW12217   4.970   4.572   6.644
 3773SOL    HW112218   5.068   4.591   6.632
 3773SOL    HW212219   4.955   4.535   6.736
 3774SOL     OW12220   6.937   4.445   1.279
 3774SOL    HW112221   6.920   4.346   1.284
 3774SOL    HW212222   0.010   4.463   1.285
 3775SOL     OW12223   5.546   6.057   4.636
 3775SOL    HW112224   5.640   6.048   4.671
 3775SOL    HW212225   5.484   6.074   4.712
 3776SOL     OW12226   4.534   2.233   6.724
 3776SOL    HW112227   4.575   2.207   6.636
 3776SOL    HW212228   4.459   2.171   6.746
 3777SOL     OW12229   3.044   5.121   3.978
 3777SOL    HW112230   3.113   5.166   3.921
 3777SOL    HW212231   3.083   5.039   4.020
 3778SOL     OW12232   2.976   5.376   6.513
 3778SOL    HW112233   3.014   5.403   6.602
 3778SOL    HW212234   2.877   5.370   6.519
 3779SOL     OW12235   0.034   4.799   5.907
 3779SOL    HW112236   0.107   4.846   5.956
 3779SOL    HW212237   6.984   4.863   5.889
 3780SOL     OW12238   6.266   2.753   2.154
 3780SOL    HW112239   6.190   2.816   2.140
 3780SOL    HW212240   6.259   2.711   2.245
 3781SOL     OW12241   1.129   6.651   5.995
 3781SOL    HW112242   1.094   6.578   5.936
 3781SOL    HW212243   1.218   6.681   5.962
 3782SOL     OW12244   3.672   5.411   6.947
 3782SOL    HW112245   3.574   5.399   6.961
 3782SOL    HW212246   3.721   5.333   6.987
 3783SOL     OW12247   4.526   4.715   5.724
 3783SOL    HW112248   4.474   4.638   5.687
 3783SOL    HW212249   4.475   4.758   5.798
 3784SOL     OW12250   5.780   3.310   4.738
 3784SOL    HW112251   5.863   3.336   4.689
 3784SOL    HW212252   5.799   3.306   4.836
 3785SOL     OW12253   0.880   3.277   2.727
 3785SOL    HW112254   0.905   3.198   2.671
 3785SOL    HW212255   0.844   3.245   2.815
 3786SOL     OW12256   2.468   2.985   6.015
 3786SOL    HW112257   2.386   3.042   6.012
 3786SOL    HW212258   2.489   2.952   5.923
 3787SOL     OW12259   4.982   5.922   4.996
 3787SOL    HW112260   4.920   5.971   4.934
 3787SOL    HW212261   4.945   5.925   5.089
 3788SOL     OW12262   5.947   3.103   6.243
 3788SOL    HW112263   6.018   3.109   6.173
 3788SOL    HW212264   5.960   3.021   6.298
 3789SOL     OW12265   1.755   4.091   1.014
 3789SOL    HW112266   1.740   4.157   0.941
 3789SOL    HW212267   1.789   4.005   0.975
 3790SOL     OW12268   2.088   6.869   1.613
 3790SOL    HW112269   2.110   6.957   1.572
 3790SOL    HW212270   1.993   6.846   1.594
 3791SOL     OW12271   4.791   0.804   4.532
 3791SOL    HW112272   4.850   0.795   4.452
 3791SOL    HW212273   4.736   0.887   4.523
 3792SOL     OW12274   6.060   0.119   3.327
 3792SOL    HW112275   5.995   0.044   3.315
 3792SOL    HW212276   6.010   0.205   3.336
 3793SOL     OW12277   5.063   3.575   0.121
 3793SOL    HW112278   5.113   3.661   0.115
 3793SOL    HW212279   5.067   3.528   0.032
 3794SOL     OW12280   1.082   4.936   5.930
 3794SOL    HW112281   1.095   4.890   5.843
 3794SOL    HW212282   1.028   4.877   5.991
 3795SOL     OW12283   3.209   6.091   0.356
 3795SOL    HW112284   3.174   6.078   0.448
 3795SOL    HW212285   3.227   6.189   0.340
 3796SOL     OW12286   5.504   0.547   0.299
 3796SOL    HW112287   5.465   0.523   0.388
 3796SOL    HW212288   5.461   0.493   0.227
 3797SOL     OW12289   6.898   3.055   1.409
 3797SOL    HW112290   6.919   3.036   1.504
 3797SOL    HW212291   6.878   3.152   1.398
 3798SOL     OW12292   0.798   5.021   3.428
 3798SOL    HW112293   0.814   4.922   3.433
 3798SOL    HW212294   0.728   5.039   3.360
 3799SOL     OW12295   6.808   1.737   2.653
 3799SOL    HW112296   6.795   1.812   2.588
 3799SOL    HW212297   6.808   1.773   2.746
 3800SOL     OW12298   5.231   3.150   2.310
 3800SOL    HW112299   5.303   3.125   2.376
 3800SOL    HW212300   5.182   3.230   2.344
 3801SOL     OW12301   5.861   1.338   0.907
 3801SOL    HW112302   5.764   1.331   0.930
 3801SOL    HW212303   5.916   1.316   0.987
 3802SOL     OW12304   6.050   3.490   2.919
 3802SOL    HW112305   5.997   3.554   2.864
 3802SOL    HW212306   6.011   3.485   3.011
 3803SOL     OW12307   4.150   3.783   5.809
 3803SOL    HW112308   4.212   3.851   5.769
 3803SOL    HW212309   4.120   3.814   5.899
 3804SOL     OW12310   3.127   6.021   3.209
 3804SOL    HW112311   3.086   5.978   3.289
 3804SOL    HW212312   3.106   6.119   3.209
 3805SOL     OW12313   2.617   2.258   6.626
 3805SOL    HW112314   2.534   2.283   6.675
 3805SOL    HW212315   2.603   2.271   6.528
 3806SOL     OW12316   1.889   3.752   2.303
 3806SOL    HW112317   1.837   3.746   2.217
 3806SOL    HW212318   1.971   3.694   2.295
 3807SOL     OW12319   0.570   4.252   4.114
 3807SOL    HW112320   0.655   4.230   4.067
 3807SOL    HW212321   0.543   4.176   4.173
 3808SOL     OW12322   2.600   6.379   5.925
 3808SOL    HW112323   2.518   6.327   5.951
 3808SOL    HW212324   2.617   6.451   5.991
 3809SOL     OW12325   5.512   1.218   1.894
 3809SOL    HW112326   5.510   1.214   1.993
 3809SOL    HW212327   5.510   1.314   1.865
 3810SOL     OW12328   5.419   2.018   3.242
 3810SOL    HW112329   5.501   2.075   3.230
 3810SOL    HW212330   5.343   2.060   3.193
 3811SOL     OW12331   0.474   5.794   5.583
 3811SOL    HW112332   0.530   5.721   5.544
 3811SOL    HW212333   0.457   5.864   5.513
 3812SOL     OW12334   4.124   5.653   0.236
 3812SOL    HW112335   4.214   5.613   0.253
 3812SOL    HW212336   4.063   5.583   0.199
 3813SOL     OW12337   6.298   3.108   6.857
 3813SOL    HW112338   6.338   3.054   6.931
 3813SOL    HW212339   6.199   3.114   6.871
 3814SOL     OW12340   7.000   0.350   5.053
 3814SOL    HW112341   0.062   0.353   5.103
 3814SOL    HW212342   7.006   0.411   4.974
 3815SOL     OW12343   4.657   1.993   5.509
 3815SOL    HW112344   4.684   1.929   5.581
 3815SOL    HW212345   4.680   2.086   5.537
 3816SOL     OW12346   6.848   6.915   1.078
 3816SOL    HW112347   6.896   6.904   0.992
 3816SOL    HW212348   6.908   6.960   1.145
 3817SOL     OW12349   3.784   3.550   2.060
 3817SOL    HW112350   3.771   3.619   1.990
 3817SOL    HW212351   3.864   3.573   2.116
 3818SOL     OW12352   4.321   5.402   2.661
 3818SOL    HW112353   4.371   5.488   2.661
 3818SOL    HW212354   4.349   5.347   2.582
 3819SOL     OW12355   6.240   3.126   3.258
 3819SOL    HW112356   6.320   3.068   3.274
 3819SOL    HW212357   6.269   3.221   3.252
 3820SOL     OW12358   2.955   6.611   6.017
 3820SOL    HW112359   2.884   6.680   6.004
 3820SOL    HW212360   2.936   6.559   6.100
 3821SOL     OW12361   1.914   6.893   1.100
 3821SOL    HW112362   1.940   6.798   1.114
 3821SOL    HW212363   1.843   6.898   1.029
 3822SOL     OW12364   5.891   0.061   1.629
 3822SOL    HW112365   5.884   6.986   1.636
 3822SOL    HW212366   5.873   0.103   1.718
 3823SOL     OW12367   5.184   5.688   5.052
 3823SOL    HW112368   5.220   5.672   5.144
 3823SOL    HW212369   5.159   5.784   5.042
 3824SOL     OW12370   2.051   2.279   0.706
 3824SOL    HW112371   2.017   2.370   0.730
 3824SOL    HW212372   1.977   2.224   0.668
 3825SOL     OW12373   0.755   4.486   5.274
 3825SOL    HW112374   0.713   4.568   5.310
 3825SOL    HW212375   0.740   4.481   5.175
 3826SOL     OW12376   4.922   4.031   3.862
 3826SOL    HW112377   4.951   3.945   3.819
 3826SOL    HW212378   4.989   4.057   3.931
 3827SOL     OW12379   0.467   1.444   6.859
 3827SOL    HW112380   0.416   1.360   6.876
 3827SOL    HW212381   0.404   1.522   6.862
 3828SOL     OW12382   3.186   3.800   5.342
 3828SOL    HW112383   3.132   3.882   5.322
 3828SOL    HW212384   3.126   3.730   5.379
 3829SOL     OW12385   0.282   3.227   1.723
 3829SOL    HW112386   0.336   3.299   1.681
 3829SOL    HW212387   0.196   3.265   1.757
 3830SOL     OW12388   5.376   6.897   3.531
 3830SOL    HW112389   5.347   6.819   3.586
 3830SOL    HW212390   5.295   6.950   3.504
 3831SOL     OW12391   5.212   2.162   3.977
 3831SOL    HW112392   5.201   2.064   3.995
 3831SOL    HW212393   5.131   2.211   4.009
 3832SOL     OW12394   6.419   1.338   4.074
 3832SOL    HW112395   6.414   1.320   3.976
 3832SOL    HW212396   6.380   1.261   4.125
 3833SOL     OW12397   1.718   3.042   6.098
 3833SOL    HW112398   1.693   2.987   6.178
 3833SOL    HW212399   1.773   2.986   6.036
 3834SOL     OW12400   5.285   4.579   0.736
 3834SOL    HW112401   5.236   4.547   0.655
 3834SOL    HW212402   5.220   4.607   0.806
 3835SOL     OW12403   4.452   5.235   4.887
 3835SOL    HW112404   4.458   5.155   4.948
 3835SOL    HW212405   4.544   5.264   4.862
 3836SOL     OW12406   0.276   6.932   4.513
 3836SOL    HW112407   0.218   6.999   4.558
 3836SOL    HW212408   0.343   6.978   4.456
 3837SOL     OW12409   4.805   4.454   5.699
 3837SOL    HW112410   4.753   4.427   5.618
 3837SOL    HW212411   4.783   4.393   5.775
 3838SOL     OW12412   6.796   0.938   4.187
 3838SOL    HW112413   6.800   0.839   4.193
 3838SOL    HW212414   6.818   0.978   4.276
 3839SOL     OW12415   4.576   1.273   3.686
 3839SOL    HW112416   4.663   1.321   3.696
 3839SOL    HW212417   4.581   1.211   3.607
 3840SOL     OW12418   3.933   1.265   6.411
 3840SOL    HW112419   3.851   1.315   6.383
 3840SOL    HW212420   4.013   1.304   6.365
 3841SOL     OW12421   5.731   4.375   3.264
 3841SOL    HW112422   5.795   4.347   3.336
 3841SOL    HW212423   5.666   4.301   3.247
 3842SOL     OW12424   2.043   3.874   5.385
 3842SOL    HW112425   1.944   3.865   5.397
 3842SOL    HW212426   2.063   3.903   5.291
 3843SOL     OW12427   5.900   2.194   6.228
 3843SOL    HW112428   5.877   2.282   6.185
 3843SOL    HW212429   5.834   2.174   6.301
 3844SOL     OW12430   6.563   6.740   0.913
 3844SOL    HW112431   6.572   6.719   1.010
 3844SOL    HW212432   6.642   6.794   0.883
 3845SOL     OW12433   2.233   5.300   0.284
 3845SOL    HW112434   2.289   5.343   0.213
 3845SOL    HW212435   2.147   5.267   0.244
 3846SOL     OW12436   6.672   3.417   2.825
 3846SOL    HW112437   6.613   3.339   2.809
 3846SOL    HW212438   6.693   3.424   2.923
 3847SOL     OW12439   0.672   1.550   6.698
 3847SOL    HW112440   0.702   1.630   6.748
 3847SOL    HW212441   0.595   1.507   6.745
 3848SOL     OW12442   6.303   5.081   1.968
 3848SOL    HW112443   6.225   5.143   1.976
 3848SOL    HW212444   6.271   4.992   1.935
 3849SOL     OW12445   0.729   3.690   5.620
 3849SOL    HW112446   0.683   3.610   5.580
 3849SOL    HW212447   0.704   3.698   5.717
 3850SOL     OW12448   3.302   3.059   1.193
 3850SOL    HW112449   3.352   3.033   1.110
 3850SOL    HW212450   3.288   2.979   1.251
 3851SOL     OW12451   0.299   5.826   2.947
 3851SOL    HW112452   0.288   5.876   2.861
 3851SOL    HW212453   0.341   5.738   2.929
 3852SOL     OW12454   2.268   0.680   4.986
 3852SOL    HW112455   2.171   0.683   4.962
 3852SOL    HW212456   2.316   0.755   4.941
 3853SOL     OW12457   2.359   1.083   2.974
 3853SOL    HW112458   2.384   1.013   2.907
 3853SOL    HW212459   2.269   1.062   3.013
 3854SOL     OW12460   0.768   2.049   2.090
 3854SOL    HW112461   0.684   2.089   2.125
 3854SOL    HW212462   0.783   1.959   2.133
 3855SOL     OW12463   2.847   6.427   6.210
 3855SOL    HW112464   2.903   6.448   6.290
 3855SOL    HW212465   2.846   6.329   6.194
 3856SOL     OW12466   6.647   2.773   6.810
 3856SOL    HW112467   6.744   2.755   6.791
 3856SOL    HW212468   6.593   2.749   6.730
 3857SOL     OW12469   1.905   0.160   6.562
 3857SOL    HW112470   1.823   0.107   6.585
 3857SOL    HW212471   1.904   0.182   6.464
 3858SOL     OW12472   3.718   1.229   5.080
 3858SOL    HW112473   3.625   1.214   5.114
 3858SOL    HW212474   3.734   1.327   5.070
 3859SOL     OW12475   6.085   0.338   2.430
 3859SOL    HW112476   6.167   0.316   2.377
 3859SOL    HW212477   6.022   0.260   2.427
 3860SOL     OW12478   1.468   6.567   4.647
 3860SOL    HW112479   1.527   6.538   4.571
 3860SOL    HW212480   1.402   6.635   4.614
 3861SOL     OW12481   3.293   5.727   2.296
 3861SOL    HW112482   3.304   5.814   2.345
 3861SOL    HW212483   3.345   5.731   2.210
 3862SOL     OW12484   1.191   0.518   4.533
 3862SOL    HW112485   1.153   0.522   4.625
 3862SOL    HW212486   1.287   0.545   4.534
 3863SOL     OW12487   4.148   0.710   0.665
 3863SOL    HW112488   4.085   0.671   0.598
 3863SOL    HW212489   4.111   0.796   0.700
 3864SOL     OW12490   0.773   6.934   4.291
 3864SOL    HW112491   0.857   6.879   4.295
 3864SOL    HW212492   0.695   6.873   4.276
 3865SOL     OW12493   5.151   1.002   1.077
 3865SOL    HW112494   5.118   1.089   1.112
 3865SOL    HW212495   5.089   0.970   1.005
 3866SOL     OW12496   3.192   0.901   6.842
 3866SOL    HW112497   3.187   0.870   6.747
 3866SOL    HW212498   3.287   0.922   6.865
 3867SOL     OW12499   6.802   3.268   2.507
 3867SOL    HW112500   6.766   3.192   2.562
 3867SOL    HW212501   6.774   3.355   2.548
 3868SOL     OW12502   3.802   0.336   0.065
 3868SOL    HW112503   3.834   0.244   0.044
 3868SOL    HW212504   3.875   0.388   0.110
 3869SOL     OW12505   3.945   1.272   4.183
 3869SOL    HW112506   3.920   1.201   4.117
 3869SOL    HW212507   4.014   1.237   4.245
 3870SOL     OW12508   6.984   1.807   5.637
 3870SOL    HW112509   6.966   1.832   5.542
 3870SOL    HW212510   0.033   1.739   5.640
 3871SOL     OW12511   2.655   5.651   4.072
 3871SOL    HW112512   2.564   5.611   4.063
 3871SOL    HW212513   2.678   5.661   4.168
 3872SOL     OW12514   2.868   4.022   5.228
 3872SOL    HW112515   2.861   3.980   5.137
 3872SOL    HW212516   2.781   4.013   5.276
 3873SOL     OW12517   5.009   1.840   7.004
 3873SOL    HW112518   5.084   1.906   7.008
 3873SOL    HW212519   4.924   1.884   0.012
 3874SOL     OW12520   2.603   1.308   1.241
 3874SOL    HW112521   2.675   1.312   1.172
 3874SOL    HW212522   2.566   1.215   1.246
 3875SOL     OW12523   1.197   1.662   6.556
 3875SOL    HW112524   1.264   1.612   6.501
 3875SOL    HW212525   1.124   1.600   6.585
 3876SOL     OW12526   3.568   5.490   2.721
 3876SOL    HW112527   3.577   5.576   2.772
 3876SOL    HW212528   3.547   5.510   2.625
 3877SOL     OW12529   0.597   1.514   5.641
 3877SOL    HW112530   0.516   1.570   5.624
 3877SOL    HW212531   0.586   1.464   5.727
 3878SOL     OW12532   4.899   1.286   4.981
 3878SOL    HW112533   4.943   1.223   4.917
 3878SOL    HW212534   4.800   1.281   4.970
 3879SOL     OW12535   5.248   5.696   0.132
 3879SOL    HW112536   5.296   5.641   0.200
 3879SOL    HW212537   5.169   5.740   0.174
 3880SOL     OW12538   5.039   4.833   4.017
 3880SOL    HW112539   5.106   4.906   4.030
 3880SOL    HW212540   5.053   4.762   4.086
 3881SOL     OW12541   1.341   3.240   0.309
 3881SOL    HW112542   1.310   3.265   0.401
 3881SOL    HW212543   1.381   3.320   0.264
 3882SOL     OW12544   0.515   2.421   5.742
 3882SOL    HW112545   0.557   2.362   5.811
 3882SOL    HW212546   0.564   2.412   5.656
 3883SOL     OW12547   4.303   5.994   4.119
 3883SOL    HW112548   4.323   5.911   4.067
 3883SOL    HW212549   4.304   5.974   4.216
 3884SOL     OW12550   0.435   3.614   2.292
 3884SOL    HW112551   0.361   3.549   2.274
 3884SOL    HW212552   0.400   3.690   2.347
 3885SOL     OW12553   4.321   5.607   2.069
 3885SOL    HW112554   4.396   5.660   2.030
 3885SOL    HW212555   4.316   5.624   2.167
 3886SOL     OW12556   2.431   5.721   5.655
 3886SOL    HW112557   2.407   5.646   5.592
 3886SOL    HW212558   2.531   5.728   5.660
 3887SOL     OW12559   1.883   5.666   1.824
 3887SOL    HW112560   1.955   5.734   1.837
 3887SOL    HW212561   1.923   5.575   1.828
 3888SOL     OW12562   5.253   5.277   3.955
 3888SOL    HW112563   5.341   5.232   3.967
 3888SOL    HW212564   5.187   5.237   4.019
 3889SOL     OW12565   5.578   4.434   0.163
 3889SOL    HW112566   5.607   4.511   0.219
 3889SOL    HW212567   5.567   4.353   0.221
 3890SOL     OW12568   5.787   3.779   3.853
 3890SOL    HW112569   5.728   3.729   3.917
 3890SOL    HW212570   5.738   3.791   3.766
 3891SOL     OW12571   4.847   5.411   3.956
 3891SOL    HW112572   4.874   5.315   3.948
 3891SOL    HW212573   4.826   5.431   4.052
 3892SOL     OW12574   6.684   2.145   1.325
 3892SOL    HW112575   6.753   2.165   1.394
 3892SOL    HW212576   6.690   2.212   1.251
 3893SOL     OW12577   4.057   3.202   3.433
 3893SOL    HW112578   4.106   3.241   3.355
 3893SOL    HW212579   4.105   3.225   3.517
 3894SOL     OW12580   4.272   0.802   6.045
 3894SOL    HW112581   4.180   0.785   6.010
 3894SOL    HW212582   4.272   0.885   6.100
 3895SOL     OW12583   0.434   0.011   3.777
 3895SOL    HW112584   0.363   0.069   3.819
 3895SOL    HW212585   0.391   6.966   3.720
 3896SOL     OW12586   2.081   1.283   6.384
 3896SOL    HW112587   2.149   1.289   6.457
 3896SOL    HW212588   2.064   1.374   6.347
 3897SOL     OW12589   4.032   5.687   1.201
 3897SOL    HW112590   4.130   5.703   1.184
 3897SOL    HW212591   3.987   5.774   1.217
 3898SOL     OW12592   3.421   2.982   1.935
 3898SOL    HW112593   3.387   2.997   1.842
 3898SOL    HW212594   3.357   2.925   1.986
 3899SOL     OW12595   3.004   0.270   5.479
 3899SOL    HW112596   3.077   0.249   5.413
 3899SOL    HW212597   3.040   0.264   5.572
 3900SOL     OW12598   4.645   4.909   2.983
 3900SOL    HW112599   4.610   4.978   2.919
 3900SOL    HW212600   4.590   4.826   2.976
 3901SOL     OW12601   2.885   1.016   6.818
 3901SOL    HW112602   2.847   1.048   6.905
 3901SOL    HW212603   2.965   0.960   6.835
 3902SOL     OW12604   5.350   3.201   3.206
 3902SOL    HW112605   5.370   3.191   3.109
 3902SOL    HW212606   5.262   3.157   3.226
 3903SOL     OW12607   3.070   4.447   6.129
 3903SOL    HW112608   2.973   4.461   6.111
 3903SOL    HW212609   3.084   4.355   6.167
 3904SOL     OW12610   2.139   6.698   0.497
 3904SOL    HW112611   2.205   6.649   0.554
 3904SOL    HW212612   2.069   6.740   0.554
 3905SOL     OW12613   6.952   6.242   4.887
 3905SOL    HW112614   6.995   6.194   4.964
 3905SOL    HW212615   6.863   6.279   4.916
 3906SOL     OW12616   6.976   6.078   5.171
 3906SOL    HW112617   6.996   6.029   5.086
 3906SOL    HW212618   0.005   6.038   5.246
 3907SOL     OW12619   5.789   2.127   3.716
 3907SOL    HW112620   5.794   2.062   3.641
 3907SOL    HW212621   5.694   2.135   3.747
 3908SOL     OW12622   2.709   4.381   6.330
 3908SOL    HW112623   2.639   4.361   6.261
 3908SOL    HW212624   2.698   4.475   6.363
 3909SOL     OW12625   5.798   5.884   3.462
 3909SOL    HW112626   5.894   5.875   3.435
 3909SOL    HW212627   5.789   5.956   3.531
 3910SOL     OW12628   3.650   3.262   2.862
 3910SOL    HW112629   3.698   3.180   2.892
 3910SOL    HW212630   3.643   3.263   2.763
 3911SOL     OW12631   5.866   2.296   5.914
 3911SOL    HW112632   5.958   2.297   5.877
 3911SOL    HW212633   5.840   2.202   5.937
 3912SOL     OW12634   5.396   2.694   6.129
 3912SOL    HW112635   5.321   2.630   6.146
 3912SOL    HW212636   5.461   2.690   6.204
 3913SOL     OW12637   1.255   6.814   1.312
 3913SOL    HW112638   1.264   6.783   1.407
 3913SOL    HW212639   1.332   6.875   1.289
 3914SOL     OW12640   2.798   5.865   5.722
 3914SOL    HW112641   2.897   5.880   5.719
 3914SOL    HW212642   2.773   5.795   5.656
 3915SOL     OW12643   0.174   5.880   1.555
 3915SOL    HW112644   0.128   5.926   1.631
 3915SOL    HW212645   0.257   5.932   1.531
 3916SOL     OW12646   0.620   0.216   3.163
 3916SOL    HW112647   0.579   0.129   3.132
 3916SOL    HW212648   0.631   0.277   3.085
 3917SOL     OW12649   2.595   6.999   6.519
 3917SOL    HW112650   2.668   6.941   6.556
 3917SOL    HW212651   2.635   0.043   6.457
 3918SOL     OW12652   5.724   3.273   6.790
 3918SOL    HW112653   5.667   3.245   6.713
 3918SOL    HW212654   5.691   3.230   6.873
 3919SOL     OW12655   3.287   6.536   0.768
 3919SOL    HW112656   3.264   6.626   0.732
 3919SOL    HW212657   3.360   6.495   0.713
 3920SOL     OW12658   2.185   1.102   6.930
 3920SOL    HW112659   2.109   1.146   6.882
 3920SOL    HW212660   2.269   1.117   6.878
 3921SOL     OW12661   0.664   3.592   1.430
 3921SOL    HW112662   0.753   3.634   1.444
 3921SOL    HW212663   0.595   3.641   1.483
 3922SOL     OW12664   1.431   5.228   1.362
 3922SOL    HW112665   1.525   5.246   1.333
 3922SOL    HW212666   1.401   5.301   1.424
 3923SOL     OW12667   6.596   0.392   1.077
 3923SOL    HW112668   6.651   0.317   1.041
 3923SOL    HW212669   6.499   0.373   1.061
 3924SOL     OW12670   6.590   4.928   4.585
 3924SOL    HW112671   6.682   4.896   4.604
 3924SOL    HW212672   6.524   4.866   4.627
 3925SOL     OW12673   1.569   4.729   1.846
 3925SOL    HW112674   1.523   4.731   1.757
 3925SOL    HW212675   1.630   4.808   1.853
 3926SOL     OW12676   3.528   5.254   3.168
 3926SOL    HW112677   3.604   5.318   3.158
 3926SOL    HW212678   3.442   5.301   3.150
 3927SOL     OW12679   1.593   2.949   6.600
 3927SOL    HW112680   1.558   3.041   6.613
 3927SOL    HW212681   1.517   2.885   6.590
 3928SOL     OW12682   6.211   6.388   6.440
 3928SOL    HW112683   6.175   6.309   6.390
 3928SOL    HW212684   6.136   6.433   6.489
 3929SOL     OW12685   0.883   1.490   4.196
 3929SOL    HW112686   0.904   1.581   4.230
 3929SOL    HW212687   0.799   1.494   4.141
 3930SOL     OW12688   2.805   2.017   3.804
 3930SOL    HW112689   2.849   2.103   3.829
 3930SOL    HW212690   2.752   2.030   3.720
 3931SOL     OW12691   4.569   0.151   2.253
 3931SOL    HW112692   4.614   0.066   2.224
 3931SOL    HW212693   4.627   0.229   2.230
 3932SOL     OW12694   1.592   2.455   3.955
 3932SOL    HW112695   1.596   2.375   4.015
 3932SOL    HW212696   1.518   2.516   3.986
 3933SOL     OW12697   1.802   0.556   5.963
 3933SOL    HW112698   1.805   0.640   6.018
 3933SOL    HW212699   1.735   0.566   5.890
 3934SOL     OW12700   5.575   6.328   6.945
 3934SOL    HW112701   5.625   6.412   6.925
 3934SOL    HW212702   5.508   6.311   6.873
 3935SOL     OW12703   5.124   6.429   1.520
 3935SOL    HW112704   5.165   6.364   1.456
 3935SOL    HW212705   5.182   6.510   1.527
 3936SOL     OW12706   0.584   4.523   2.585
 3936SOL    HW112707   0.614   4.467   2.508
 3936SOL    HW212708   0.662   4.542   2.645
 3937SOL     OW12709   0.436   2.372   2.227
 3937SOL    HW112710   0.481   2.434   2.163
 3937SOL    HW212711   0.491   2.364   2.310
 3938SOL     OW12712   6.748   2.637   3.546
 3938SOL    HW112713   6.756   2.709   3.615
 3938SOL    HW212714   6.792   2.667   3.461
 3939SOL     OW12715   2.206   1.786   1.459
 3939SOL    HW112716   2.221   1.872   1.412
 3939SOL    HW212717   2.294   1.741   1.476
 3940SOL     OW12718   4.449   3.931   1.115
 3940SOL    HW112719   4.505   3.887   1.044
 3940SOL    HW212720   4.479   3.900   1.205
 3941SOL     OW12721   4.834   3.121   6.695
 3941SOL    HW112722   4.867   3.028   6.684
 3941SOL    HW212723   4.811   3.160   6.606
 3942SOL     OW12724   7.002   0.450   0.611
 3942SOL    HW112725   0.054   0.454   0.674
 3942SOL    HW212726   7.010   0.523   0.543
 3943SOL     OW12727   6.385   3.083   5.414
 3943SOL    HW112728   6.365   3.155   5.347
 3943SOL    HW212729   6.325   3.093   5.492
 3944SOL     OW12730   5.685   1.353   4.686
 3944SOL    HW112731   5.745   1.308   4.752
 3944SOL    HW212732   5.590   1.330   4.707
 3945SOL     OW12733   0.139   0.527   0.978
 3945SOL    HW112734   0.059   0.475   0.949
 3945SOL    HW212735   0.214   0.464   1.000
 3946SOL     OW12736   3.795   5.207   3.467
 3946SOL    HW112737   3.695   5.209   3.456
 3946SOL    HW212738   3.838   5.208   3.377
 3947SOL     OW12739   6.575   4.230   6.295
 3947SOL    HW112740   6.547   4.153   6.353
 3947SOL    HW212741   6.655   4.204   6.241
 3948SOL     OW12742   6.307   3.963   0.696
 3948SOL    HW112743   6.363   4.012   0.763
 3948SOL    HW212744   6.302   3.866   0.722
 3949SOL     OW12745   5.451   6.175   3.352
 3949SOL    HW112746   5.393   6.212   3.279
 3949SOL    HW212747   5.547   6.182   3.325
 3950SOL     OW12748   1.591   6.003   0.751
 3950SOL    HW112749   1.542   6.024   0.666
 3950SOL    HW212750   1.679   5.961   0.730
 3951SOL     OW12751   5.682   6.019   1.877
 3951SOL    HW112752   5.692   5.966   1.961
 3951SOL    HW212753   5.688   5.958   1.798
 3952SOL     OW12754   6.153   1.738   6.625
 3952SOL    HW112755   6.124   1.656   6.673
 3952SOL    HW212756   6.100   1.747   6.540
 3953SOL     OW12757   3.339   4.127   2.915
 3953SOL    HW112758   3.291   4.148   3.000
 3953SOL    HW212759   3.272   4.111   2.842
 3954SOL     OW12760   3.869   5.072   5.617
 3954SOL    HW112761   3.893   5.007   5.689
 3954SOL    HW212762   3.777   5.108   5.634
 3955SOL     OW12763   3.825   1.490   4.648
 3955SOL    HW112764   3.920   1.512   4.670
 3955SOL    HW212765   3.817   1.392   4.632
 3956SOL     OW12766   2.301   1.355   1.442
 3956SOL    HW112767   2.334   1.261   1.429
 3956SOL    HW212768   2.327   1.411   1.364
 3957SOL     OW12769   3.276   1.158   3.981
 3957SOL    HW112770   3.282   1.233   4.046
 3957SOL    HW212771   3.262   1.195   3.889
 3958SOL     OW12772   5.623   6.775   5.417
 3958SOL    HW112773   5.527   6.797   5.401
 3958SOL    HW212774   5.629   6.691   5.472
 3959SOL     OW12775   5.549   5.312   6.745
 3959SOL    HW112776   5.520   5.306   6.650
 3959SOL    HW212777   5.609   5.391   6.757
 3960SOL     OW12778   6.112   2.064   4.836
 3960SOL    HW112779   6.085   1.982   4.886
 3960SOL    HW212780   6.209   2.058   4.812
 3961SOL     OW12781   5.341   6.418   4.476
 3961SOL    HW112782   5.428   6.371   4.461
 3961SOL    HW212783   5.357   6.516   4.488
 3962SOL     OW12784   6.700   5.395   5.090
 3962SOL    HW112785   6.654   5.369   5.005
 3962SOL    HW212786   6.679   5.327   5.161
 3963SOL     OW12787   4.515   6.883   2.129
 3963SOL    HW112788   4.450   6.874   2.054
 3963SOL    HW212789   4.608   6.868   2.094
 3964SOL     OW12790   5.142   2.998   3.591
 3964SOL    HW112791   5.197   2.918   3.568
 3964SOL    HW212792   5.084   3.022   3.513
 3965SOL     OW12793   4.849   3.875   4.197
 3965SOL    HW112794   4.824   3.826   4.280
 3965SOL    HW212795   4.873   3.810   4.125
 3966SOL     OW12796   2.154   6.770   6.465
 3966SOL    HW112797   2.114   6.679   6.474
 3966SOL    HW212798   2.154   6.816   6.554
 3967SOL     OW12799   1.640   4.348   3.945
 3967SOL    HW112800   1.688   4.435   3.935
 3967SOL    HW212801   1.706   4.273   3.945
 3968SOL     OW12802   3.946   0.034   0.674
 3968SOL    HW112803   4.040   0.010   0.696
 3968SOL    HW212804   3.906   6.987   0.616
 3969SOL     OW12805   0.326   5.255   3.304
 3969SOL    HW112806   0.304   5.345   3.266
 3969SOL    HW212807   0.244   5.216   3.347
 3970SOL     OW12808   5.141   5.736   1.736
 3970SOL    HW112809   5.086   5.732   1.819
 3970SOL    HW212810   5.091   5.786   1.665
 3971SOL     OW12811   1.711   6.354   3.349
 3971SOL    HW112812   1.653   6.315   3.421
 3971SOL    HW212813   1.788   6.401   3.391
 3972SOL     OW12814   1.367   3.768   6.990
 3972SOL    HW112815   1.438   3.790   0.032
 3972SOL    HW212816   1.354   3.845   6.927
 3973SOL     OW12817   1.864   4.746   0.783
 3973SOL    HW112818   1.854   4.735   0.881
 3973SOL    HW212819   1.920   4.671   0.746
 3974SOL     OW12820   2.899   1.393   5.728
 3974SOL    HW112821   2.914   1.369   5.632
 3974SOL    HW212822   2.804   1.375   5.752
 3975SOL     OW12823   6.318   3.058   6.478
 3975SOL    HW112824   6.273   3.002   6.549
 3975SOL    HW212825   6.320   3.153   6.507
 3976SOL     OW12826   1.981   4.517   2.467
 3976SOL    HW112827   1.985   4.576   2.548
 3976SOL    HW212828   2.064   4.462   2.461
 3977SOL     OW12829   0.867   3.333   0.155
 3977SOL    HW112830   0.886   3.236   0.142
 3977SOL    HW212831   0.830   3.349   0.247
 3978SOL     OW12832   6.355   4.784   4.248
 3978SOL    HW112833   6.291   4.838   4.194
 3978SOL    HW212834   6.430   4.842   4.280
 3979SOL     OW12835   4.450   6.101   5.999
 3979SOL    HW112836   4.378   6.038   5.972
 3979SOL    HW212837   4.413   6.169   6.062
 3980SOL     OW12838   5.519   5.252   6.028
 3980SOL    HW112839   5.528   5.161   6.069
 3980SOL    HW212840   5.528   5.245   5.928
 3981SOL     OW12841   4.462   5.597   6.991
 3981SOL    HW112842   4.378   5.630   6.948
 3981SOL    HW212843   4.449   5.592   0.065
 3982SOL     OW12844   2.951   5.908   3.409
 3982SOL    HW112845   2.870   5.850   3.419
 3982SOL    HW212846   2.940   5.990   3.465
 3983SOL     OW12847   3.520   5.821   4.127
 3983SOL    HW112848   3.456   5.861   4.061
 3983SOL    HW212849   3.613   5.851   4.106
 3984SOL     OW12850   6.447   2.943   3.272
 3984SOL    HW112851   6.529   2.966   3.325
 3984SOL    HW212852   6.471   2.936   3.175
 3985SOL     OW12853   3.969   5.349   6.645
 3985SOL    HW112854   3.966   5.250   6.653
 3985SOL    HW212855   4.011   5.388   6.727
 3986SOL     OW12856   5.102   0.560   2.710
 3986SOL    HW112857   5.052   0.559   2.623
 3986SOL    HW212858   5.159   0.642   2.715
 3987SOL     OW12859   3.890   5.767   4.858
 3987SOL    HW112860   3.885   5.819   4.944
 3987SOL    HW212861   3.977   5.785   4.813
 3988SOL     OW12862   4.510   5.403   0.849
 3988SOL    HW112863   4.605   5.426   0.868
 3988SOL    HW212864   4.464   5.382   0.936
 3989SOL     OW12865   6.219   3.022   1.187
 3989SOL    HW112866   6.164   3.091   1.233
 3989SOL    HW212867   6.160   2.962   1.133
 3990SOL     OW12868   0.095   1.394   1.874
 3990SOL    HW112869   0.003   1.413   1.910
 3990SOL    HW212870   0.129   1.308   1.911
 3991SOL     OW12871   5.429   0.852   2.898
 3991SOL    HW112872   5.485   0.803   2.966
 3991SOL    HW212873   5.388   0.932   2.941
 3992SOL     OW12874   3.805   2.042   1.069
 3992SOL    HW112875   3.904   2.029   1.068
 3992SOL    HW212876   3.761   1.969   1.121
 3993SOL     OW12877   1.013   3.099   1.795
 3993SOL    HW112878   1.058   3.187   1.808
 3993SOL    HW212879   1.032   3.065   1.703
 3994SOL     OW12880   2.378   6.268   4.194
 3994SOL    HW112881   2.385   6.250   4.096
 3994SOL    HW212882   2.369   6.182   4.244
 3995SOL     OW12883   1.941   1.558   4.528
 3995SOL    HW112884   2.034   1.590   4.548
 3995SOL    HW212885   1.892   1.543   4.614
 3996SOL     OW12886   0.235   6.073   4.568
 3996SOL    HW112887   0.335   6.081   4.563
 3996SOL    HW212888   0.211   5.980   4.597
 3997SOL     OW12889   2.957   1.079   3.667
 3997SOL    HW112890   2.867   1.100   3.628
 3997SOL    HW212891   3.029   1.117   3.608
 3998SOL     OW12892   4.520   2.454   3.152
 3998SOL    HW112893   4.500   2.373   3.208
 3998SOL    HW212894   4.522   2.428   3.056
 3999SOL     OW12895   5.014   1.871   4.028
 3999SOL    HW112896   4.927   1.847   3.984
 3999SOL    HW212897   5.028   1.814   4.108
 4000SOL     OW12898   4.010   5.794   4.082
 4000SOL    HW112899   4.060   5.739   4.149
 4000SOL    HW212900   4.063   5.797   3.997
 4001SOL     OW12901   0.653   1.516   4.012
 4001SOL    HW112902   0.690   1.600   3.972
 4001SOL    HW212903   0.626   1.453   3.940
 4002SOL     OW12904   2.066   4.446   1.246
 4002SOL    HW112905   2.117   4.419   1.327
 4002SOL    HW212906   1.983   4.391   1.238
 4003SOL     OW12907   4.113   2.136   4.987
 4003SOL    HW112908   4.086   2.230   4.968
 4003SOL    HW212909   4.147   2.129   5.081
 4004SOL     OW12910   6.574   1.785   6.028
 4004SOL    HW112911   6.482   1.770   5.993
 4004SOL    HW212912   6.569   1.823   6.121
 4005SOL     OW12913   5.744   4.188   5.250
 4005SOL    HW112914   5.653   4.197   5.291
 4005SOL    HW212915   5.753   4.251   5.173
 4006SOL     OW12916   3.736   6.000   2.854
 4006SOL    HW112917   3.800   6.077   2.858
 4006SOL    HW212918   3.723   5.963   2.947
 4007SOL     OW12919   0.430   1.802   6.000
 4007SOL    HW112920   0.344   1.842   5.969
 4007SOL    HW212921   0.416   1.704   6.017
 4008SOL     OW12922   3.174   1.624   5.467
 4008SOL    HW112923   3.123   1.574   5.397
 4008SOL    HW212924   3.188   1.719   5.436
 4009SOL     OW12925   3.754   3.583   3.102
 4009SOL    HW112926   3.702   3.667   3.088
 4009SOL    HW212927   3.851   3.602   3.095
 4010SOL     OW12928   1.394   3.457   0.147
 4010SOL    HW112929   1.402   3.506   0.233
 4010SOL    HW212930   1.302   3.417   0.139
 4011SOL     OW12931   0.708   2.808   0.747
 4011SOL    HW112932   0.633   2.762   0.700
 4011SOL    HW212933   0.789   2.750   0.746
 4012SOL     OW12934   5.603   3.381   3.711
 4012SOL    HW112935   5.608   3.317   3.788
 4012SOL    HW212936   5.516   3.370   3.663
 4013SOL     OW12937   5.389   2.872   3.120
 4013SOL    HW112938   5.292   2.859   3.138
 4013SOL    HW212939   5.404   2.961   3.077
 4014SOL     OW12940   5.402   5.772   2.060
 4014SOL    HW112941   5.417   5.867   2.088
 4014SOL    HW212942   5.413   5.764   1.961
 4015SOL     OW12943   4.611   3.962   0.116
 4015SOL    HW112944   4.658   4.044   0.148
 4015SOL    HW212945   4.514   3.967   0.143
 4016SOL     OW12946   3.393   6.019   4.582
 4016SOL    HW112947   3.404   5.919   4.585
 4016SOL    HW212948   3.469   6.059   4.531
 4017SOL     OW12949   6.261   0.010   6.234
 4017SOL    HW112950   6.249   7.009   6.138
 4017SOL    HW212951   6.245   6.954   6.292
 4018SOL     OW12952   2.213   0.112   6.861
 4018SOL    HW112953   2.153   0.038   6.892
 4018SOL    HW212954   2.307   0.093   6.891
 4019SOL     OW12955   4.971   5.839   3.394
 4019SOL    HW112956   5.052   5.895   3.404
 4019SOL    HW212957   4.936   5.847   3.301
 4020SOL     OW12958   5.521   2.058   4.906
 4020SOL    HW112959   5.501   2.003   4.987
 4020SOL    HW212960   5.493   2.153   4.922
 4021SOL     OW12961   4.883   3.599   6.718
 4021SOL    HW112962   4.824   3.668   6.676
 4021SOL    HW212963   4.959   3.645   6.765
 4022SOL     OW12964   5.613   0.508   0.752
 4022SOL    HW112965   5.689   0.572   0.742
 4022SOL    HW212966   5.539   0.551   0.804
 4023SOL     OW12967   6.520   6.485   5.951
 4023SOL    HW112968   6.476   6.528   5.872
 4023SOL    HW212969   6.463   6.499   6.032
 4024SOL     OW12970   4.568   4.613   5.050
 4024SOL    HW112971   4.603   4.543   5.112
 4024SOL    HW212972   4.471   4.600   5.034
 4025SOL     OW12973   0.584   4.034   4.274
 4025SOL    HW112974   0.652   3.970   4.237
 4025SOL    HW212975   0.546   3.997   4.358
 4026SOL     OW12976   5.156   0.356   5.661
 4026SOL    HW112977   5.147   0.305   5.746
 4026SOL    HW212978   5.152   0.293   5.584
 4027SOL     OW12979   3.365   5.184   2.433
 4027SOL    HW112980   3.387   5.227   2.521
 4027SOL    HW212981   3.405   5.237   2.359
 4028SOL     OW12982   2.345   5.740   3.223
 4028SOL    HW112983   2.370   5.644   3.211
 4028SOL    HW212984   2.428   5.796   3.222
 4029SOL     OW12985   1.743   4.256   3.513
 4029SOL    HW112986   1.831   4.302   3.504
 4029SOL    HW212987   1.742   4.204   3.599
 4030SOL     OW12988   1.942   1.581   6.653
 4030SOL    HW112989   2.003   1.579   6.573
 4030SOL    HW212990   1.871   1.512   6.643
 4031SOL     OW12991   6.488   5.863   4.140
 4031SOL    HW112992   6.547   5.826   4.211
 4031SOL    HW212993   6.538   5.931   4.087
 4032SOL     OW12994   3.556   0.519   5.046
 4032SOL    HW112995   3.616   0.515   4.967
 4032SOL    HW212996   3.577   0.601   5.099
 4033SOL     OW12997   4.074   3.784   6.098
 4033SOL    HW112998   4.146   3.733   6.144
 4033SOL    HW212999   3.985   3.755   6.133
 4034SOL     OW13000   5.903   3.486   5.028
 4034SOL    HW113001   5.940   3.394   5.015
 4034SOL    HW213002   5.803   3.483   5.019
 4035SOL     OW13003   0.309   6.383   1.783
 4035SOL    HW113004   0.352   6.382   1.873
 4035SOL    HW213005   0.321   6.295   1.738
 4036SOL     OW13006   6.336   5.849   1.741
 4036SOL    HW113007   6.248   5.894   1.725
 4036SOL    HW213008   6.405   5.917   1.765
 4037SOL     OW13009   0.401   3.600   5.688
 4037SOL    HW113010   0.413   3.512   5.644
 4037SOL    HW213011   0.405   3.673   5.619
 4038SOL     OW13012   6.133   5.225   3.002
 4038SOL    HW113013   6.158   5.320   3.018
 4038SOL    HW213014   6.038   5.219   2.971
 4039SOL     OW13015   2.484   5.539   1.138
 4039SOL    HW113016   2.482   5.614   1.203
 4039SOL    HW213017   2.570   5.488   1.148
 4040SOL     OW13018   3.387   6.680   6.916
 4040SOL    HW113019   3.433   6.740   6.851
 4040SOL    HW213020   3.427   6.690   7.007
 4041SOL     OW13021   0.606   5.717   2.991
 4041SOL    HW113022   0.606   5.810   2.954
 4041SOL    HW213023   0.697   5.695   3.026
 4042SOL     OW13024   6.221   5.949   2.023
 4042SOL    HW113025   6.281   6.029   2.015
 4042SOL    HW213026   6.212   5.905   1.934
 4043SOL     OW13027   6.398   3.772   1.154
 4043SOL    HW113028   6.389   3.678   1.122
 4043SOL    HW213029   6.353   3.782   1.242
 4044SOL     OW13030   5.639   5.059   1.983
 4044SOL    HW113031   5.583   5.006   2.046
 4044SOL    HW213032   5.735   5.055   2.012
 4045SOL     OW13033   2.745   4.683   5.919
 4045SOL    HW113034   2.829   4.735   5.905
 4045SOL    HW213035   2.677   4.711   5.852
 4046SOL     OW13036   0.464   3.196   0.571
 4046SOL    HW113037   0.472   3.118   0.633
 4046SOL    HW213038   0.508   3.276   0.611
 4047SOL     OW13039   2.925   3.537   2.841
 4047SOL    HW113040   2.980   3.608   2.796
 4047SOL    HW213041   2.890   3.573   2.928
 4048SOL     OW13042   4.402   2.457   0.475
 4048SOL    HW113043   4.357   2.534   0.429
 4048SOL    HW213044   4.497   2.480   0.494
 4049SOL     OW13045   6.759   6.912   0.127
 4049SOL    HW113046   6.692   6.971   0.082
 4049SOL    HW213047   6.825   6.968   0.177
 4050SOL     OW13048   2.673   0.545   2.688
 4050SOL    HW113049   2.651   0.641   2.704
 4050SOL    HW213050   2.714   0.506   2.770
 4051SOL     OW13051   1.870   3.870   1.214
 4051SOL    HW113052   1.946   3.829   1.163
 4051SOL    HW213053   1.895   3.877   1.310
 4052SOL     OW13054   1.081   0.024   1.331
 4052SOL    HW113055   1.108   0.094   1.398
 4052SOL    HW213056   1.152   6.979   1.325
 4053SOL     OW13057   3.033   5.390   3.093
 4053SOL    HW113058   3.019   5.395   2.994
 4053SOL    HW213059   3.036   5.294   3.121
 4054SOL     OW13060   5.447   1.513   6.695
 4054SOL    HW113061   5.404   1.602   6.684
 4054SOL    HW213062   5.425   1.476   6.786
 4055SOL     OW13063   4.734   3.387   0.482
 4055SOL    HW113064   4.796   3.441   0.425
 4055SOL    HW213065   4.645   3.380   0.437
 4056SOL     OW13066   4.491   2.872   0.011
 4056SOL    HW113067   4.532   2.934   6.968
 4056SOL    HW213068   4.518   2.900   0.103
 4057SOL     OW13069   6.279   2.562   0.490
 4057SOL    HW113070   6.293   2.617   0.572
 4057SOL    HW213071   6.287   2.465   0.513
 4058SOL     OW13072   1.073   2.820   3.887
 4058SOL    HW113073   1.135   2.742   3.887
 4058SOL    HW213074   1.021   2.823   3.972
 4059SOL     OW13075   6.810   2.168   4.989
 4059SOL    HW113076   6.834   2.250   4.937
 4059SOL    HW213077   6.820   2.088   4.930
 4060SOL     OW13078   3.014   6.922   5.772
 4060SOL    HW113079   3.065   6.979   5.836
 4060SOL    HW213080   3.068   6.841   5.748
 4061SOL     OW13081   2.331   3.175   1.187
 4061SOL    HW113082   2.426   3.146   1.197
 4061SOL    HW213083   2.308   3.238   1.261
 4062SOL     OW13084   3.063   6.882   2.678
 4062SOL    HW113085   3.063   6.796   2.729
 4062SOL    HW213086   3.141   6.938   2.706
 4063SOL     OW13087   3.205   5.832   6.138
 4063SOL    HW113088   3.221   5.734   6.128
 4063SOL    HW213089   3.292   5.881   6.128
 4064SOL     OW13090   6.296   6.785   4.375
 4064SOL    HW113091   6.311   6.863   4.435
 4064SOL    HW213092   6.205   6.747   4.392
 4065SOL     OW13093   1.409   4.352   5.837
 4065SOL    HW113094   1.416   4.417   5.761
 4065SOL    HW213095   1.327   4.370   5.890
 4066SOL     OW13096   5.138   5.481   1.412
 4066SOL    HW113097   5.236   5.466   1.427
 4066SOL    HW213098   5.108   5.427   1.333
 4067SOL     OW13099   5.835   0.741   1.107
 4067SOL    HW113100   5.756   0.771   1.160
 4067SOL    HW213101   5.873   0.818   1.057
 4068SOL     OW13102   5.214   0.843   4.949
 4068SOL    HW113103   5.293   0.788   4.976
 4068SOL    HW213104   5.241   0.938   4.938
 4069SOL     OW13105   6.564   6.108   0.713
 4069SOL    HW113106   6.477   6.132   0.668
 4069SOL    HW213107   6.610   6.192   0.742
 4070SOL     OW13108   6.427   3.773   2.552
 4070SOL    HW113109   6.498   3.844   2.554
 4070SOL    HW213110   6.350   3.802   2.608
 4071SOL     OW13111   2.659   0.624   4.567
 4071SOL    HW113112   2.653   0.702   4.629
 4071SOL    HW213113   2.573   0.614   4.518
 4072SOL     OW13114   0.639   0.188   4.271
 4072SOL    HW113115   0.721   0.131   4.259
 4072SOL    HW213116   0.640   0.262   4.205
 4073SOL     OW13117   2.508   4.924   2.372
 4073SOL    HW113118   2.546   4.895   2.285
 4073SOL    HW213119   2.537   5.018   2.393
 4074SOL     OW13120   0.328   2.884   0.897
 4074SOL    HW113121   0.396   2.847   0.960
 4074SOL    HW213122   0.236   2.873   0.935
 4075SOL     OW13123   6.230   6.984   3.617
 4075SOL    HW113124   6.264   0.016   3.692
 4075SOL    HW213125   6.135   7.007   3.598
 4076SOL     OW13126   1.511   2.948   3.385
 4076SOL    HW113127   1.476   3.041   3.391
 4076SOL    HW213128   1.451   2.894   3.326
 4077SOL     OW13129   3.536   0.728   1.197
 4077SOL    HW113130   3.563   0.814   1.239
 4077SOL    HW213131   3.437   0.715   1.210
 4078SOL     OW13132   4.802   4.512   3.077
 4078SOL    HW113133   4.901   4.518   3.067
 4078SOL    HW213134   4.758   4.564   3.003
 4079SOL     OW13135   4.957   1.070   3.997
 4079SOL    HW113136   5.016   1.066   4.078
 4079SOL    HW213137   4.865   1.097   4.023
 4080SOL     OW13138   3.481   4.144   4.830
 4080SOL    HW113139   3.574   4.143   4.795
 4080SOL    HW213140   3.477   4.202   4.912
 4081SOL     OW13141   2.570   0.583   6.987
 4081SOL    HW113142   2.517   0.534   6.918
 4081SOL    HW213143   2.522   0.667   7.013
 4082SOL     OW13144   1.094   1.021   5.863
 4082SOL    HW113145   1.001   1.038   5.830
 4082SOL    HW213146   1.155   1.007   5.785
 4083SOL     OW13147   6.103   5.197   2.230
 4083SOL    HW113148   6.143   5.276   2.183
 4083SOL    HW213149   6.175   5.145   2.275
 4084SOL     OW13150   4.412   6.559   2.239
 4084SOL    HW113151   4.388   6.544   2.335
 4084SOL    HW213152   4.359   6.636   2.204
 4085SOL     OW13153   2.236   4.410   2.966
 4085SOL    HW113154   2.262   4.399   3.062
 4085SOL    HW213155   2.145   4.450   2.961
 4086SOL     OW13156   5.621   5.132   5.088
 4086SOL    HW113157   5.719   5.142   5.105
 4086SOL    HW213158   5.584   5.218   5.054
 4087SOL     OW13159   1.613   1.175   1.896
 4087SOL    HW113160   1.595   1.253   1.956
 4087SOL    HW213161   1.710   1.171   1.875
 4088SOL     OW13162   0.231   2.238   5.628
 4088SOL    HW113163   0.139   2.212   5.655
 4088SOL    HW213164   0.266   2.308   5.691
 4089SOL     OW13165   0.918   0.526   2.582
 4089SOL    HW113166   0.977   0.446   2.588
 4089SOL    HW213167   0.825   0.501   2.608
 4090SOL     OW13168   3.131   2.485   5.458
 4090SOL    HW113169   3.071   2.545   5.509
 4090SOL    HW213170   3.080   2.442   5.383
 4091SOL     OW13171   3.801   6.394   2.396
 4091SOL    HW113172   3.743   6.394   2.315
 4091SOL    HW213173   3.789   6.308   2.446
 4092SOL     OW13174   5.648   1.574   6.170
 4092SOL    HW113175   5.594   1.509   6.223
 4092SOL    HW213176   5.714   1.619   6.229
 4093SOL     OW13177   5.798   4.073   2.372
 4093SOL    HW113178   5.861   4.150   2.375
 4093SOL    HW213179   5.822   4.007   2.444
 4094SOL     OW13180   6.619   6.780   0.322
 4094SOL    HW113181   6.671   6.848   0.271
 4094SOL    HW213182   6.677   6.700   0.340
 4095SOL     OW13183   1.544   5.082   0.892
 4095SOL    HW113184   1.525   5.180   0.901
 4095SOL    HW213185   1.639   5.064   0.918
 4096SOL     OW13186   0.749   6.864   5.952
 4096SOL    HW113187   0.650   6.856   5.947
 4096SOL    HW213188   0.777   6.884   6.047
 4097SOL     OW13189   1.266   3.959   5.059
 4097SOL    HW113190   1.283   4.053   5.088
 4097SOL    HW213191   1.169   3.937   5.070
 4098SOL     OW13192   1.504   5.870   2.116
 4098SOL    HW113193   1.424   5.842   2.062
 4098SOL    HW213194   1.474   5.926   2.193
 4099SOL     OW13195   6.766   2.664   5.826
 4099SOL    HW113196   6.819   2.579   5.834
 4099SOL    HW213197   6.772   2.698   5.733
 4100SOL     OW13198   2.573   0.639   3.758
 4100SOL    HW113199   2.483   0.618   3.797
 4100SOL    HW213200   2.573   0.615   3.661
 4101SOL     OW13201   6.401   6.221   5.919
 4101SOL    HW113202   6.461   6.301   5.921
 4101SOL    HW213203   6.306   6.251   5.921
 4102SOL     OW13204   2.263   5.308   0.832
 4102SOL    HW113205   2.236   5.397   0.794
 4102SOL    HW213206   2.250   5.237   0.763
 4103SOL     OW13207   2.515   5.033   3.096
 4103SOL    HW113208   2.456   5.097   3.046
 4103SOL    HW213209   2.549   5.078   3.179
 4104SOL     OW13210   1.996   5.828   5.878
 4104SOL    HW113211   2.026   5.921   5.897
 4104SOL    HW213212   1.904   5.830   5.838
 4105SOL     OW13213   3.574   6.922   1.351
 4105SOL    HW113214   3.583   7.002   1.409
 4105SOL    HW213215   3.609   6.841   1.399
 4106SOL     OW13216   1.188   6.911   2.798
 4106SOL    HW113217   1.252   6.976   2.760
 4106SOL    HW213218   1.154   6.850   2.726
 4107SOL     OW13219   1.933   2.102   0.908
 4107SOL    HW113220   1.981   2.151   0.835
 4107SOL    HW213221   1.952   2.004   0.900
 4108SOL     OW13222   0.913   6.106   4.951
 4108SOL    HW113223   0.945   6.064   4.866
 4108SOL    HW213224   0.844   6.175   4.930
 4109SOL     OW13225   4.824   6.929   5.161
 4109SOL    HW113226   4.737   6.977   5.159
 4109SOL    HW213227   4.899   6.995   5.155
 4110SOL     OW13228   4.236   2.629   0.367
 4110SOL    HW113229   4.151   2.681   0.365
 4110SOL    HW213230   4.271   2.617   0.274
 4111SOL     OW13231   6.210   4.930   3.625
 4111SOL    HW113232   6.215   4.832   3.608
 4111SOL    HW213233   6.281   4.977   3.573
 4112SOL     OW13234   4.063   5.736   5.560
 4112SOL    HW113235   4.059   5.636   5.558
 4112SOL    HW213236   4.136   5.767   5.499
 4113SOL     OW13237   4.836   5.248   5.706
 4113SOL    HW113238   4.864   5.157   5.676
 4113SOL    HW213239   4.866   5.316   5.639
 4114SOL     OW13240   6.566   1.574   3.042
 4114SOL    HW113241   6.478   1.591   3.085
 4114SOL    HW213242   6.635   1.635   3.081
 4115SOL     OW13243   4.055   6.409   4.657
 4115SOL    HW113244   3.993   6.480   4.689
 4115SOL    HW213245   4.149   6.434   4.680
 4116SOL     OW13246   6.462   3.827   3.640
 4116SOL    HW113247   6.374   3.781   3.655
 4116SOL    HW213248   6.524   3.804   3.715
 4117SOL     OW13249   0.357   2.171   2.788
 4117SOL    HW113250   0.447   2.147   2.826
 4117SOL    HW213251   0.324   2.096   2.731
 4118SOL     OW13252   1.284   0.145   1.818
 4118SOL    HW113253   1.356   0.080   1.842
 4118SOL    HW213254   1.274   0.212   1.891
 4119SOL     OW13255   6.772   0.913   4.866
 4119SOL    HW113256   6.833   0.885   4.940
 4119SOL    HW213257   6.801   1.003   4.832
 4120SOL     OW13258   1.684   0.593   6.405
 4120SOL    HW113259   1.716   0.634   6.491
 4120SOL    HW213260   1.739   0.629   6.329
 4121SOL     OW13261   6.875   0.857   1.004
 4121SOL    HW113262   6.881   0.911   1.088
 4121SOL    HW213263   6.816   0.778   1.020
 4122SOL     OW13264   0.933   4.759   3.677
 4122SOL    HW113265   0.902   4.712   3.759
 4122SOL    HW213266   0.954   4.692   3.606
 4123SOL     OW13267   5.784   4.381   1.720
 4123SOL    HW113268   5.799   4.318   1.644
 4123SOL    HW213269   5.717   4.342   1.783
 4124SOL     OW13270   6.094   6.764   0.134
 4124SOL    HW113271   6.066   6.705   0.209
 4124SOL    HW213272   6.189   6.793   0.147
 4125SOL     OW13273   0.277   2.963   6.763
 4125SOL    HW113274   0.325   2.910   6.832
 4125SOL    HW213275   0.238   2.902   6.694
 4126SOL     OW13276   0.835   4.105   3.700
 4126SOL    HW113277   0.920   4.076   3.656
 4126SOL    HW213278   0.834   4.205   3.706
 4127SOL     OW13279   4.307   2.365   4.014
 4127SOL    HW113280   4.327   2.350   4.111
 4127SOL    HW213281   4.349   2.452   3.986
 4128SOL     OW13282   6.531   2.360   6.549
 4128SOL    HW113283   6.589   2.387   6.626
 4128SOL    HW213284   6.437   2.345   6.581
 4129SOL     OW13285   3.580   0.388   2.295
 4129SOL    HW113286   3.502   0.451   2.286
 4129SOL    HW213287   3.648   0.410   2.225
 4130SOL     OW13288   5.351   2.257   0.436
 4130SOL    HW113289   5.391   2.199   0.365
 4130SOL    HW213290   5.390   2.349   0.430
 4131SOL     OW13291   5.104   6.425   3.404
 4131SOL    HW113292   5.046   6.502   3.432
 4131SOL    HW213293   5.056   6.340   3.423
 4132SOL     OW13294   6.079   3.855   2.900
 4132SOL    HW113295   6.160   3.801   2.921
 4132SOL    HW213296   6.103   3.952   2.898
 4133SOL     OW13297   5.765   6.414   3.694
 4133SOL    HW113298   5.703   6.491   3.710
 4133SOL    HW213299   5.830   6.437   3.621
 4134SOL     OW13300   1.168   2.999   1.277
 4134SOL    HW113301   1.070   3.017   1.271
 4134SOL    HW213302   1.190   2.917   1.225
 4135SOL     OW13303   6.051   1.364   0.699
 4135SOL    HW113304   5.988   1.388   0.774
 4135SOL    HW213305   5.998   1.333   0.620
 4136SOL     OW13306   0.936   4.597   0.405
 4136SOL    HW113307   1.012   4.537   0.378
 4136SOL    HW213308   0.928   4.672   0.340
 4137SOL     OW13309   0.264   2.802   5.507
 4137SOL    HW113310   0.277   2.717   5.557
 4137SOL    HW213311   0.188   2.791   5.443
 4138SOL     OW13312   6.124   6.820   6.083
 4138SOL    HW113313   6.068   6.807   6.165
 4138SOL    HW213314   6.183   6.740   6.070
 4139SOL     OW13315   1.712   3.840   2.478
 4139SOL    HW113316   1.773   3.797   2.413
 4139SOL    HW213317   1.738   3.814   2.571
 4140SOL     OW13318   2.258   6.465   6.916
 4140SOL    HW113319   2.344   6.459   6.866
 4140SOL    HW213320   2.275   6.496   7.009
 4141SOL     OW13321   5.350   0.133   6.173
 4141SOL    HW113322   5.342   0.061   6.104
 4141SOL    HW213323   5.314   0.099   6.260
 4142SOL     OW13324   6.983   6.727   1.477
 4142SOL    HW113325   0.024   6.689   1.543
 4142SOL    HW213326   6.891   6.694   1.499
 4143SOL     OW13327   6.700   3.738   6.951
 4143SOL    HW113328   6.710   3.774   6.858
 4143SOL    HW213329   6.603   3.724   6.970
 4144SOL     OW13330   3.862   0.582   1.683
 4144SOL    HW113331   3.865   0.504   1.620
 4144SOL    HW213332   3.772   0.586   1.726
 4145SOL     OW13333   5.340   0.820   1.474
 4145SOL    HW113334   5.390   0.778   1.550
 4145SOL    HW213335   5.281   0.893   1.509
 4146SOL     OW13336   3.897   0.241   2.630
 4146SOL    HW113337   3.987   0.266   2.593
 4146SOL    HW213338   3.909   0.189   2.715
 4147SOL     OW13339   4.728   3.947   6.622
 4147SOL    HW113340   4.822   3.930   6.652
 4147SOL    HW213341   4.716   4.044   6.603
 4148SOL     OW13342   3.201   1.252   5.972
 4148SOL    HW113343   3.202   1.229   5.874
 4148SOL    HW213344   3.132   1.196   6.018
 4149SOL     OW13345   1.635   3.448   0.020
 4149SOL    HW113346   1.536   3.451   0.033
 4149SOL    HW213347   1.681   3.495   0.095
 4150SOL     OW13348   6.351   1.236   0.557
 4150SOL    HW113349   6.294   1.250   0.475
 4150SOL    HW213350   6.297   1.257   0.639
 4151SOL     OW13351   2.950   5.682   4.675
 4151SOL    HW113352   2.940   5.631   4.761
 4151SOL    HW213353   2.934   5.779   4.694
 4152SOL     OW13354   2.544   3.879   1.068
 4152SOL    HW113355   2.617   3.923   1.120
 4152SOL    HW213356   2.471   3.851   1.131
 4153SOL     OW13357   6.714   6.122   1.003
 4153SOL    HW113358   6.716   6.050   0.934
 4153SOL    HW213359   6.765   6.202   0.970
 4154SOL     OW13360   0.193   6.350   4.203
 4154SOL    HW113361   0.231   6.316   4.117
 4154SOL    HW213362   0.130   6.282   4.240
 4155SOL     OW13363   5.872   1.480   2.054
 4155SOL    HW113364   5.951   1.447   2.106
 4155SOL    HW213365   5.904   1.528   1.972
 4156SOL     OW13366   0.870   4.722   5.733
 4156SOL    HW113367   0.958   4.675   5.747
 4156SOL    HW213368   0.886   4.808   5.685
 4157SOL     OW13369   5.316   5.891   0.935
 4157SOL    HW113370   5.317   5.955   1.011
 4157SOL    HW213371   5.410   5.870   0.908
 4158SOL     OW13372   6.620   1.924   6.900
 4158SOL    HW113373   6.654   1.956   6.989
 4158SOL    HW213374   6.571   1.999   6.854
 4159SOL     OW13375   2.945   0.688   4.848
 4159SOL    HW113376   3.011   0.721   4.781
 4159SOL    HW213377   2.944   0.588   4.847
 4160SOL     OW13378   1.502   6.966   5.790
 4160SOL    HW113379   1.534   6.970   5.696
 4160SOL    HW213380   1.511   0.033   5.831
 4161SOL     OW13381   3.294   2.929   4.794
 4161SOL    HW113382   3.250   2.845   4.761
 4161SOL    HW213383   3.229   3.004   4.793
 4162SOL     OW13384   4.808   5.914   1.508
 4162SOL    HW113385   4.847   5.944   1.595
 4162SOL    HW213386   4.809   5.814   1.504
 4163SOL     OW13387   3.705   5.710   1.021
 4163SOL    HW113388   3.740   5.744   0.933
 4163SOL    HW213389   3.772   5.648   1.062
 4164SOL     OW13390   5.452   1.327   6.924
 4164SOL    HW113391   5.473   1.251   6.862
 4164SOL    HW213392   5.450   1.293   7.018
 4165SOL     OW13393   3.150   2.152   3.983
 4165SOL    HW113394   3.245   2.132   4.007
 4165SOL    HW213395   3.138   2.144   3.884
 4166SOL     OW13396   6.082   2.522   2.843
 4166SOL    HW113397   6.041   2.584   2.909
 4166SOL    HW213398   6.011   2.464   2.803
 4167SOL     OW13399   3.815   6.539   4.679
 4167SOL    HW113400   3.729   6.496   4.651
 4167SOL    HW213401   3.825   6.627   4.633
 4168SOL     OW13402   4.776   3.770   6.061
 4168SOL    HW113403   4.727   3.813   5.985
 4168SOL    HW213404   4.818   3.685   6.030
 4169SOL     OW13405   4.993   3.932   6.629
 4169SOL    HW113406   5.066   3.996   6.603
 4169SOL    HW213407   5.023   3.876   6.706
 4170SOL     OW13408   1.471   3.149   5.122
 4170SOL    HW113409   1.432   3.094   5.195
 4170SOL    HW213410   1.543   3.096   5.075
 4171SOL     OW13411   0.431   1.005   6.292
 4171SOL    HW113412   0.400   1.028   6.200
 4171SOL    HW213413   0.494   0.927   6.288
 4172SOL     OW13414   2.787   2.958   6.882
 4172SOL    HW113415   2.702   2.909   6.864
 4172SOL    HW213416   2.796   2.974   6.980
 4173SOL     OW13417   5.377   1.078   5.301
 4173SOL    HW113418   5.397   0.983   5.322
 4173SOL    HW213419   5.278   1.090   5.291
 4174SOL     OW13420   2.998   6.886   3.894
 4174SOL    HW113421   3.059   6.965   3.881
 4174SOL    HW213422   3.005   6.826   3.815
 4175SOL     OW13423   0.933   4.823   6.116
 4175SOL    HW113424   0.919   4.725   6.102
 4175SOL    HW213425   0.893   4.851   6.203
 4176SOL     OW13426   4.661   0.043   5.749
 4176SOL    HW113427   4.642   0.111   5.678
 4176SOL    HW213428   4.657   6.976   5.709
 4177SOL     OW13429   4.200   5.904   3.383
 4177SOL    HW113430   4.147   5.987   3.365
 4177SOL    HW213431   4.297   5.921   3.363
 4178SOL     OW13432   3.958   6.797   0.903
 4178SOL    HW113433   3.916   6.806   0.993
 4178SOL    HW213434   3.902   6.844   0.835
 4179SOL     OW13435   4.497   1.759   6.769
 4179SOL    HW113436   4.406   1.728   6.741
 4179SOL    HW213437   4.559   1.680   6.774
 4180SOL     OW13438   3.713   4.242   6.796
 4180SOL    HW113439   3.708   4.148   6.832
 4180SOL    HW213440   3.738   4.304   6.870
 4181SOL     OW13441   5.314   6.324   5.427
 4181SOL    HW113442   5.251   6.330   5.505
 4181SOL    HW213443   5.264   6.337   5.342
 4182SOL     OW13444   6.874   5.305   5.560
 4182SOL    HW113445   6.820   5.221   5.572
 4182SOL    HW213446   6.812   5.382   5.543
 4183SOL     OW13447   5.098   2.632   0.232
 4183SOL    HW113448   5.015   2.653   0.181
 4183SOL    HW213449   5.133   2.543   0.203
 4184SOL     OW13450   3.521   5.767   3.280
 4184SOL    HW113451   3.563   5.682   3.312
 4184SOL    HW213452   3.499   5.758   3.182
 4185SOL     OW13453   4.727   4.340   3.262
 4185SOL    HW113454   4.756   4.420   3.209
 4185SOL    HW213455   4.705   4.265   3.200
 4186SOL     OW13456   1.565   4.870   6.949
 4186SOL    HW113457   1.465   4.875   6.961
 4186SOL    HW213458   1.605   4.957   6.978
 4187SOL     OW13459   2.268   3.927   6.621
 4187SOL    HW113460   2.282   3.984   6.702
 4187SOL    HW213461   2.172   3.900   6.615
 4188SOL     OW13462   5.275   0.496   6.428
 4188SOL    HW113463   5.241   0.588   6.411
 4188SOL    HW213464   5.246   0.435   6.354
 4189SOL     OW13465   4.582   5.646   3.199
 4189SOL    HW113466   4.508   5.632   3.265
 4189SOL    HW213467   4.648   5.571   3.206
 4190SOL     OW13468   6.610   6.047   1.538
 4190SOL    HW113469   6.684   6.113   1.550
 4190SOL    HW213470   6.544   6.082   1.471
 4191SOL     OW13471   4.632   2.476   5.938
 4191SOL    HW113472   4.651   2.524   5.852
 4191SOL    HW213473   4.657   2.534   6.015
 4192SOL     OW13474   1.464   3.561   6.371
 4192SOL    HW113475   1.504   3.478   6.410
 4192SOL    HW213476   1.373   3.576   6.411
 4193SOL     OW13477   6.135   6.708   1.580
 4193SOL    HW113478   6.142   6.618   1.622
 4193SOL    HW213479   6.057   6.757   1.619
 4194SOL     OW13480   5.474   0.399   6.873
 4194SOL    HW113481   5.492   0.435   6.781
 4194SOL    HW213482   5.382   0.360   6.875
 4195SOL     OW13483   2.298   5.737   0.648
 4195SOL    HW113484   2.325   5.833   0.655
 4195SOL    HW213485   2.343   5.696   0.568
 4196SOL     OW13486   6.710   3.168   3.654
 4196SOL    HW113487   6.618   3.149   3.690
 4196SOL    HW213488   6.779   3.126   3.713
 4197SOL     OW13489   4.461   0.504   0.132
 4197SOL    HW113490   4.542   0.477   0.081
 4197SOL    HW213491   4.448   0.603   0.123
 4198SOL     OW13492   6.990   2.385   1.452
 4198SOL    HW113493   0.055   2.356   1.417
 4198SOL    HW213494   6.946   2.309   1.500
 4199SOL     OW13495   1.059   4.147   6.673
 4199SOL    HW113496   1.001   4.151   6.591
 4199SOL    HW213497   1.001   4.135   6.753
 4200SOL     OW13498   5.547   1.784   2.719
 4200SOL    HW113499   5.454   1.754   2.698
 4200SOL    HW213500   5.545   1.855   2.790
 4201SOL     OW13501   5.062   6.989   4.635
 4201SOL    HW113502   5.139   7.002   4.697
 4201SOL    HW213503   5.077   0.020   4.552
 4202SOL     OW13504   4.477   4.018   1.648
 4202SOL    HW113505   4.462   4.110   1.686
 4202SOL    HW213506   4.411   3.955   1.689
 4203SOL     OW13507   5.803   3.882   4.854
 4203SOL    HW113508   5.726   3.912   4.911
 4203SOL    HW213509   5.874   3.843   4.912
 4204SOL     OW13510   2.248   4.444   6.005
 4204SOL    HW113511   2.210   4.362   6.049
 4204SOL    HW213512   2.293   4.419   5.920
 4205SOL     OW13513   5.745   6.262   6.024
 4205SOL    HW113514   5.737   6.202   6.104
 4205SOL    HW213515   5.736   6.357   6.052
 4206SOL     OW13516   2.345   2.404   4.904
 4206SOL    HW113517   2.414   2.344   4.944
 4206SOL    HW213518   2.385   2.454   4.828
 4207SOL     OW13519   2.120   2.735   1.183
 4207SOL    HW113520   2.159   2.643   1.173
 4207SOL    HW213521   2.052   2.750   1.111
 4208SOL     OW13522   2.573   2.400   2.989
 4208SOL    HW113523   2.565   2.388   3.088
 4208SOL    HW213524   2.498   2.458   2.956
 4209SOL     OW13525   6.517   5.778   2.616
 4209SOL    HW113526   6.464   5.862   2.607
 4209SOL    HW213527   6.591   5.778   2.549
 4210SOL     OW13528   2.944   4.886   5.804
 4210SOL    HW113529   3.008   4.830   5.752
 4210SOL    HW213530   2.909   4.959   5.745
 4211SOL     OW13531   4.371   2.414   5.924
 4211SOL    HW113532   4.346   2.356   6.002
 4211SOL    HW213533   4.470   2.430   5.925
 4212SOL     OW13534   0.929   2.762   3.017
 4212SOL    HW113535   1.011   2.705   3.023
 4212SOL    HW213536   0.874   2.749   3.099
 4213SOL     OW13537   3.490   0.751   3.329
 4213SOL    HW113538   3.561   0.786   3.268
 4213SOL    HW213539   3.474   0.818   3.402
 4214SOL     OW13540   6.395   6.740   4.019
 4214SOL    HW113541   6.374   6.764   3.924
 4214SOL    HW213542   6.392   6.823   4.075
 4215SOL     OW13543   5.639   0.296   5.262
 4215SOL    HW113544   5.653   0.351   5.344
 4215SOL    HW213545   5.584   0.216   5.284
 4216SOL     OW13546   2.582   5.613   2.566
 4216SOL    HW113547   2.525   5.586   2.644
 4216SOL    HW213548   2.536   5.587   2.481
 4217SOL     OW13549   0.657   0.493   2.598
 4217SOL    HW113550   0.617   0.538   2.518
 4217SOL    HW213551   0.609   0.407   2.616
 4218SOL     OW13552   2.789   0.477   1.850
 4218SOL    HW113553   2.826   0.384   1.849
 4218SOL    HW213554   2.843   0.535   1.790
 4219SOL     OW13555   3.240   5.159   2.902
 4219SOL    HW113556   3.180   5.118   2.833
 4219SOL    HW213557   3.261   5.091   2.972
 4220SOL     OW13558   6.048   2.044   1.249
 4220SOL    HW113559   5.985   2.120   1.263
 4220SOL    HW213560   6.008   1.979   1.184
 4221SOL     OW13561   0.527   6.597   0.930
 4221SOL    HW113562   0.438   6.580   0.974
 4221SOL    HW213563   0.512   6.648   0.846
 4222SOL     OW13564   5.106   3.494   4.456
 4222SOL    HW113565   5.199   3.468   4.483
 4222SOL    HW213566   5.109   3.541   4.368
 4223SOL     OW13567   3.217   4.080   3.151
 4223SOL    HW113568   3.177   4.056   3.239
 4223SOL    HW213569   3.182   4.017   3.081
 4224SOL     OW13570   4.813   4.425   4.726
 4224SOL    HW113571   4.836   4.442   4.630
 4224SOL    HW213572   4.717   4.449   4.742
 4225SOL     OW13573   0.746   1.913   6.450
 4225SOL    HW113574   0.688   1.857   6.391
 4225SOL    HW213575   0.842   1.887   6.438
 4226SOL     OW13576   5.280   4.928   4.446
 4226SOL    HW113577   5.332   4.879   4.517
 4226SOL    HW213578   5.226   4.863   4.393
 4227SOL     OW13579   5.612   5.457   1.181
 4227SOL    HW113580   5.591   5.540   1.128
 4227SOL    HW213581   5.665   5.482   1.262
 4228SOL     OW13582   1.376   4.022   3.739
 4228SOL    HW113583   1.393   3.997   3.834
 4228SOL    HW213584   1.464   4.028   3.690
 4229SOL     OW13585   6.167   6.181   5.518
 4229SOL    HW113586   6.095   6.147   5.458
 4229SOL    HW213587   6.175   6.121   5.598
 4230SOL     OW13588   0.417   1.073   2.210
 4230SOL    HW113589   0.499   1.020   2.235
 4230SOL    HW213590   0.337   1.013   2.211
 4231SOL     OW13591   0.602   0.512   6.323
 4231SOL    HW113592   0.610   0.458   6.407
 4231SOL    HW213593   0.602   0.452   6.244
 4232SOL     OW13594   1.507   4.543   3.149
 4232SOL    HW113595   1.413   4.563   3.121
 4232SOL    HW213596   1.509   4.523   3.247
 4233SOL     OW13597   4.123   5.090   2.556
 4233SOL    HW113598   4.185   5.155   2.510
 4233SOL    HW213599   4.151   4.997   2.534
 4234SOL     OW13600   3.601   5.211   6.172
 4234SOL    HW113601   3.550   5.168   6.098
 4234SOL    HW213602   3.567   5.176   6.260
 4235SOL     OW13603   6.819   6.199   6.645
 4235SOL    HW113604   6.831   6.183   6.547
 4235SOL    HW213605   6.887   6.265   6.677
 4236SOL     OW13606   0.326   5.456   3.094
 4236SOL    HW113607   0.346   5.528   3.161
 4236SOL    HW213608   0.325   5.494   3.002
 4237SOL     OW13609   6.676   4.533   3.469
 4237SOL    HW113610   6.652   4.438   3.451
 4237SOL    HW213611   6.708   4.542   3.563
 4238SOL     OW13612   3.076   5.918   2.820
 4238SOL    HW113613   3.033   5.892   2.734
 4238SOL    HW213614   3.053   5.850   2.890
 4239SOL     OW13615   3.976   0.868   3.189
 4239SOL    HW113616   4.024   0.790   3.231
 4239SOL    HW213617   3.886   0.839   3.159
 4240SOL     OW13618   5.499   0.167   2.113
 4240SOL    HW113619   5.549   0.177   2.027
 4240SOL    HW213620   5.463   0.074   2.120
 4241SOL     OW13621   0.020   4.471   0.179
 4241SOL    HW113622   0.112   4.471   0.218
 4241SOL    HW213623   6.980   4.511   0.244
 4242SOL     OW13624   3.481   1.973   2.981
 4242SOL    HW113625   3.425   1.892   2.997
 4242SOL    HW213626   3.500   1.982   2.883
 4243SOL     OW13627   3.352   2.022   2.488
 4243SOL    HW113628   3.442   2.063   2.473
 4243SOL    HW213629   3.338   1.947   2.423
 4244SOL     OW13630   3.162   3.600   5.087
 4244SOL    HW113631   3.227   3.587   5.162
 4244SOL    HW213632   3.210   3.604   5.000
 4245SOL     OW13633   6.713   0.555   6.173
 4245SOL    HW113634   6.684   0.604   6.091
 4245SOL    HW213635   6.704   0.457   6.158
 4246SOL     OW13636   0.675   4.477   6.135
 4246SOL    HW113637   0.608   4.542   6.099
 4246SOL    HW213638   0.661   4.387   6.093
 4247SOL     OW13639   0.288   5.246   5.114
 4247SOL    HW113640   0.306   5.289   5.203
 4247SOL    HW213641   0.309   5.312   5.041
 4248SOL     OW13642   2.259   3.606   6.698
 4248SOL    HW113643   2.299   3.532   6.754
 4248SOL    HW213644   2.280   3.589   6.602
 4249SOL     OW13645   5.299   2.885   6.350
 4249SOL    HW113646   5.335   2.842   6.268
 4249SOL    HW213647   5.370   2.941   6.393
 4250SOL     OW13648   6.542   4.331   3.717
 4250SOL    HW113649   6.623   4.386   3.697
 4250SOL    HW213650   6.549   4.243   3.670
 4251SOL     OW13651   6.247   4.790   6.086
 4251SOL    HW113652   6.208   4.698   6.082
 4251SOL    HW213653   6.337   4.786   6.129
 4252SOL     OW13654   6.969   4.951   5.430
 4252SOL    HW113655   0.015   4.939   5.360
 4252SOL    HW213656   6.934   5.045   5.426
 4253SOL     OW13657   3.350   6.476   3.215
 4253SOL    HW113658   3.288   6.546   3.251
 4253SOL    HW213659   3.324   6.454   3.120
 4254SOL     OW13660   3.106   3.180   2.128
 4254SOL    HW113661   3.192   3.135   2.102
 4254SOL    HW213662   3.122   3.238   2.208
 4255SOL     OW13663   0.337   2.204   3.961
 4255SOL    HW113664   0.262   2.137   3.961
 4255SOL    HW213665   0.418   2.163   3.918
 4256SOL     OW13666   1.580   1.346   2.095
 4256SOL    HW113667   1.616   1.429   2.053
 4256SOL    HW213668   1.602   1.345   2.192
 4257SOL     OW13669   4.187   2.139   5.264
 4257SOL    HW113670   4.125   2.064   5.291
 4257SOL    HW213671   4.280   2.117   5.294
 4258SOL     OW13672   5.182   6.181   2.341
 4258SOL    HW113673   5.167   6.239   2.262
 4258SOL    HW213674   5.168   6.234   2.425
 4259SOL     OW13675   2.575   3.512   1.322
 4259SOL    HW113676   2.597   3.609   1.333
 4259SOL    HW213677   2.566   3.471   1.413
 4260SOL     OW13678   4.233   5.946   4.396
 4260SOL    HW113679   4.208   5.856   4.431
 4260SOL    HW213680   4.268   6.003   4.471
 4261SOL     OW13681   1.022   1.256   3.342
 4261SOL    HW113682   0.966   1.314   3.402
 4261SOL    HW213683   1.086   1.314   3.291
 4262SOL     OW13684   0.760   6.187   5.808
 4262SOL    HW113685   0.814   6.155   5.729
 4262SOL    HW213686   0.680   6.128   5.818
 4263SOL     OW13687   4.195   5.163   6.442
 4263SOL    HW113688   4.237   5.080   6.407
 4263SOL    HW213689   4.250   5.200   6.518
 4264SOL     OW13690   0.702   0.053   1.457
 4264SOL    HW113691   0.741   0.016   1.373
 4264SOL    HW213692   0.687   0.152   1.446
 4265SOL     OW13693   1.449   1.230   0.491
 4265SOL    HW113694   1.495   1.226   0.403
 4265SOL    HW213695   1.507   1.187   0.561
 4266SOL     OW13696   3.005   4.666   0.884
 4266SOL    HW113697   3.006   4.577   0.840
 4266SOL    HW213698   3.059   4.730   0.830
 4267SOL     OW13699   1.546   4.001   5.730
 4267SOL    HW113700   1.588   3.980   5.818
 4267SOL    HW213701   1.576   4.092   5.699
 4268SOL     OW13702   1.287   1.376   1.575
 4268SOL    HW113703   1.197   1.382   1.617
 4268SOL    HW213704   1.357   1.366   1.647
 4269SOL     OW13705   2.956   3.660   1.073
 4269SOL    HW113706   3.002   3.572   1.084
 4269SOL    HW213707   3.008   3.731   1.120
 4270SOL     OW13708   4.018   2.965   6.667
 4270SOL    HW113709   4.000   3.050   6.717
 4270SOL    HW213710   4.116   2.957   6.649
 4271SOL     OW13711   1.598   0.626   1.147
 4271SOL    HW113712   1.555   0.716   1.145
 4271SOL    HW213713   1.551   0.568   1.213
 4272SOL     OW13714   0.111   3.865   3.793
 4272SOL    HW113715   0.088   3.929   3.865
 4272SOL    HW213716   0.183   3.904   3.735
 4273SOL     OW13717   5.757   6.994   3.837
 4273SOL    HW113718   5.685   6.934   3.801
 4273SOL    HW213719   5.725   0.065   3.836
 4274SOL     OW13720   2.227   0.314   3.870
 4274SOL    HW113721   2.157   0.290   3.803
 4274SOL    HW213722   2.315   0.325   3.824
 4275SOL     OW13723   0.411   0.447   5.324
 4275SOL    HW113724   0.493   0.413   5.279
 4275SOL    HW213725   0.426   0.449   5.423
 4276SOL     OW13726   2.236   4.123   2.915
 4276SOL    HW113727   2.246   4.217   2.946
 4276SOL    HW213728   2.147   4.088   2.944
 4277SOL     OW13729   0.775   5.315   5.479
 4277SOL    HW113730   0.723   5.234   5.451
 4277SOL    HW213731   0.860   5.286   5.523
 4278SOL     OW13732   1.364   6.134   6.490
 4278SOL    HW113733   1.411   6.121   6.403
 4278SOL    HW213734   1.345   6.232   6.503
 4279SOL     OW13735   3.025   6.102   3.605
 4279SOL    HW113736   3.107   6.056   3.637
 4279SOL    HW213737   2.987   6.158   3.679
 4280SOL     OW13738   5.325   2.370   3.299
 4280SOL    HW113739   5.280   2.443   3.349
 4280SOL    HW213740   5.409   2.343   3.345
 4281SOL     OW13741   1.767   3.959   5.192
 4281SOL    HW113742   1.862   3.956   5.162
 4281SOL    HW213743   1.760   4.016   5.275
 4282SOL     OW13744   0.301   2.065   0.519
 4282SOL    HW113745   0.299   1.981   0.573
 4282SOL    HW213746   0.217   2.117   0.535
 4283SOL     OW13747   2.368   1.073   4.489
 4283SOL    HW113748   2.446   1.130   4.515
 4283SOL    HW213749   2.347   1.088   4.392
 4284SOL     OW13750   6.551   2.006   3.188
 4284SOL    HW113751   6.464   1.960   3.175
 4284SOL    HW213752   6.537   2.104   3.198
 4285SOL     OW13753   0.968   6.141   4.434
 4285SOL    HW113754   1.034   6.175   4.500
 4285SOL    HW213755   0.940   6.216   4.373
 4286SOL     OW13756   4.207   5.704   6.547
 4286SOL    HW113757   4.256   5.660   6.472
 4286SOL    HW213758   4.109   5.685   6.539
 4287SOL     OW13759   3.744   5.567   5.604
 4287SOL    HW113760   3.645   5.559   5.605
 4287SOL    HW213761   3.774   5.636   5.670
 4288SOL     OW13762   1.275   5.912   3.547
 4288SOL    HW113763   1.208   5.916   3.622
 4288SOL    HW213764   1.229   5.886   3.462
 4289SOL     OW13765   0.424   4.281   7.000
 4289SOL    HW113766   0.486   4.346   0.021
 4289SOL    HW213767   0.472   4.195   6.986
 4290SOL     OW13768   1.928   1.505   3.181
 4290SOL    HW113769   1.875   1.534   3.261
 4290SOL    HW213770   2.020   1.478   3.209
 4291SOL     OW13771   0.160   4.069   1.444
 4291SOL    HW113772   0.214   4.039   1.522
 4291SOL    HW213773   0.220   4.116   1.379
 4292SOL     OW13774   5.841   5.299   5.241
 4292SOL    HW113775   5.869   5.265   5.151
 4292SOL    HW213776   5.804   5.391   5.231
 4293SOL     OW13777   0.488   2.083   6.968
 4293SOL    HW113778   0.405   2.031   6.948
 4293SOL    HW213779   0.495   2.160   6.904
 4294SOL     OW13780   5.425   1.397   6.252
 4294SOL    HW113781   5.400   1.375   6.347
 4294SOL    HW213782   5.361   1.351   6.190
 4295SOL     OW13783   3.723   5.965   5.711
 4295SOL    HW113784   3.752   5.873   5.735
 4295SOL    HW213785   3.754   6.029   5.781
 4296SOL     OW13786   2.310   1.300   2.641
 4296SOL    HW113787   2.284   1.395   2.657
 4296SOL    HW213788   2.295   1.277   2.545
 4297SOL     OW13789   6.222   0.326   0.514
 4297SOL    HW113790   6.205   0.419   0.481
 4297SOL    HW213791   6.320   0.305   0.506
 4298SOL     OW13792   1.835   4.839   1.912
 4298SOL    HW113793   1.855   4.883   2.000
 4298SOL    HW213794   1.811   4.743   1.927
 4299SOL     OW13795   1.450   5.417   5.363
 4299SOL    HW113796   1.493   5.332   5.395
 4299SOL    HW213797   1.352   5.413   5.381
 4300SOL     OW13798   6.260   6.972   5.638
 4300SOL    HW113799   6.279   6.876   5.618
 4300SOL    HW213800   6.181   7.003   5.585
 4301SOL     OW13801   3.039   0.690   0.820
 4301SOL    HW113802   3.114   0.686   0.754
 4301SOL    HW213803   2.979   0.767   0.797
 4302SOL     OW13804   0.695   0.633   6.646
 4302SOL    HW113805   0.600   0.664   6.651
 4302SOL    HW213806   0.697   0.533   6.652
 4303SOL     OW13807   0.294   4.347   1.670
 4303SOL    HW113808   0.296   4.257   1.626
 4303SOL    HW213809   0.375   4.399   1.644
 4304SOL     OW13810   3.024   3.648   5.542
 4304SOL    HW113811   2.939   3.698   5.533
 4304SOL    HW213812   3.006   3.550   5.537
 4305SOL     OW13813   0.142   1.448   5.425
 4305SOL    HW113814   0.078   1.385   5.380
 4305SOL    HW213815   0.236   1.416   5.411
 4306SOL     OW13816   6.036   5.432   5.616
 4306SOL    HW113817   6.058   5.373   5.539
 4306SOL    HW213818   6.085   5.519   5.608
 4307SOL     OW13819   5.761   3.347   0.146
 4307SOL    HW113820   5.747   3.432   0.094
 4307SOL    HW213821   5.804   3.368   0.234
 4308SOL     OW13822   3.337   0.010   5.328
 4308SOL    HW113823   3.306   0.002   5.423
 4308SOL    HW213824   3.274   0.071   5.278
 4309SOL     OW13825   1.422   0.455   1.566
 4309SOL    HW113826   1.475   0.397   1.628
 4309SOL    HW213827   1.365   0.518   1.619
 4310SOL     OW13828   1.666   0.085   3.020
 4310SOL    HW113829   1.573   0.077   3.057
 4310SOL    HW213830   1.683   0.181   2.995
 4311SOL     OW13831   1.344   5.431   4.276
 4311SOL    HW113832   1.398   5.430   4.360
 4311SOL    HW213833   1.374   5.357   4.216
 4312SOL     OW13834   1.345   5.658   1.747
 4312SOL    HW113835   1.443   5.644   1.758
 4312SOL    HW213836   1.328   5.724   1.674
 4313SOL     OW13837   5.003   0.641   1.527
 4313SOL    HW113838   5.001   0.545   1.500
 4313SOL    HW213839   4.992   0.699   1.445
 4314SOL     OW13840   5.945   3.438   1.163
 4314SOL    HW113841   5.950   3.351   1.113
 4314SOL    HW213842   5.855   3.480   1.147
 4315SOL     OW13843   2.323   1.298   2.375
 4315SOL    HW113844   2.346   1.395   2.378
 4315SOL    HW213845   2.372   1.254   2.299
 4316SOL     OW13846   0.619   1.312   2.386
 4316SOL    HW113847   0.548   1.254   2.426
 4316SOL    HW213848   0.576   1.391   2.341
 4317SOL     OW13849   3.950   0.448   3.268
 4317SOL    HW113850   3.885   0.519   3.296
 4317SOL    HW213851   4.038   0.490   3.246
 4318SOL     OW13852   6.693   2.479   5.252
 4318SOL    HW113853   6.681   2.578   5.248
 4318SOL    HW213854   6.740   2.448   5.169
 4319SOL     OW13855   3.686   2.533   6.095
 4319SOL    HW113856   3.606   2.536   6.035
 4319SOL    HW213857   3.767   2.510   6.042
 4320SOL     OW13858   6.967   6.324   3.270
 4320SOL    HW113859   0.015   6.269   3.313
 4320SOL    HW213860   7.008   6.386   3.203
 4321SOL     OW13861   0.643   0.485   4.823
 4321SOL    HW113862   0.683   0.393   4.824
 4321SOL    HW213863   0.690   0.541   4.755
 4322SOL     OW13864   5.847   1.465   1.265
 4322SOL    HW113865   5.863   1.371   1.235
 4322SOL    HW213866   5.914   1.525   1.223
 4323SOL     OW13867   6.701   1.999   3.769
 4323SOL    HW113868   6.706   1.983   3.670
 4323SOL    HW213869   6.605   1.998   3.798
 4324SOL     OW13870   5.520   2.668   5.688
 4324SOL    HW113871   5.582   2.633   5.759
 4324SOL    HW213872   5.444   2.604   5.675
 4325SOL     OW13873   1.692   2.465   6.659
 4325SOL    HW113874   1.635   2.394   6.618
 4325SOL    HW213875   1.763   2.422   6.716
 4326SOL     OW13876   6.321   2.607   5.128
 4326SOL    HW113877   6.376   2.611   5.044
 4326SOL    HW213878   6.315   2.511   5.158
 4327SOL     OW13879   4.817   1.177   2.814
 4327SOL    HW113880   4.890   1.238   2.783
 4327SOL    HW213881   4.729   1.224   2.804
 4328SOL     OW13882   5.883   4.769   0.451
 4328SOL    HW113883   5.938   4.836   0.400
 4328SOL    HW213884   5.939   4.728   0.523
 4329SOL     OW13885   5.238   1.862   0.348
 4329SOL    HW113886   5.247   1.848   0.446
 4329SOL    HW213887   5.323   1.835   0.302
 4330SOL     OW13888   1.083   1.106   6.644
 4330SOL    HW113889   0.993   1.141   6.669
 4330SOL    HW213890   1.084   1.007   6.654
 4331SOL     OW13891   5.267   2.180   6.525
 4331SOL    HW113892   5.178   2.151   6.559
 4331SOL    HW213893   5.294   2.265   6.571
 4332SOL     OW13894   5.423   3.852   1.774
 4332SOL    HW113895   5.358   3.859   1.849
 4332SOL    HW213896   5.511   3.820   1.808
 4333SOL     OW13897   6.450   1.565   4.958
 4333SOL    HW113898   6.540   1.554   4.999
 4333SOL    HW213899   6.405   1.645   4.997
 4334SOL     OW13900   3.785   0.297   1.896
 4334SOL    HW113901   3.776   0.343   1.984
 4334SOL    HW213902   3.700   0.308   1.844
 4335SOL     OW13903   3.619   4.492   5.786
 4335SOL    HW113904   3.679   4.472   5.709
 4335SOL    HW213905   3.652   4.574   5.833
 4336SOL     OW13906   1.055   6.927   5.583
 4336SOL    HW113907   1.038   6.941   5.681
 4336SOL    HW213908   1.112   6.847   5.570
 4337SOL     OW13909   0.491   5.785   6.941
 4337SOL    HW113910   0.531   5.821   6.856
 4337SOL    HW213911   0.405   5.738   6.920
 4338SOL     OW13912   5.455   6.576   3.172
 4338SOL    HW113913   5.482   6.539   3.261
 4338SOL    HW213914   5.358   6.560   3.157
 4339SOL     OW13915   6.593   1.285   6.547
 4339SOL    HW113916   6.610   1.324   6.638
 4339SOL    HW213917   6.677   1.289   6.493
 4340SOL     OW13918   4.347   3.755   1.686
 4340SOL    HW113919   4.446   3.750   1.695
 4340SOL    HW213920   4.318   3.706   1.603
 4341SOL     OW13921   1.227   3.439   0.798
 4341SOL    HW113922   1.187   3.433   0.889
 4341SOL    HW213923   1.216   3.532   0.763
 4342SOL     OW13924   0.098   2.093   3.268
 4342SOL    HW113925   0.029   2.148   3.222
 4342SOL    HW213926   0.173   2.072   3.205
 4343SOL     OW13927   2.916   1.861   0.805
 4343SOL    HW113928   2.931   1.957   0.779
 4343SOL    HW213929   2.930   1.802   0.726
 4344SOL     OW13930   1.931   3.640   1.951
 4344SOL    HW113931   1.860   3.674   1.889
 4344SOL    HW213932   1.906   3.550   1.985
 4345SOL     OW13933   2.724   1.255   6.184
 4345SOL    HW113934   2.649   1.268   6.119
 4345SOL    HW213935   2.782   1.336   6.185
 4346SOL     OW13936   6.690   3.925   1.398
 4346SOL    HW113937   6.656   3.842   1.442
 4346SOL    HW213938   6.788   3.934   1.417
 4347SOL     OW13939   4.644   5.586   2.668
 4347SOL    HW113940   4.704   5.635   2.605
 4347SOL    HW213941   4.649   5.628   2.759
 4348SOL     OW13942   1.269   3.794   0.428
 4348SOL    HW113943   1.206   3.818   0.354
 4348SOL    HW213944   1.361   3.827   0.405
 4349SOL     OW13945   6.647   1.005   1.425
 4349SOL    HW113946   6.726   0.967   1.377
 4349SOL    HW213947   6.621   0.946   1.501
 4350SOL     OW13948   4.103   0.724   2.744
 4350SOL    HW113949   4.084   0.628   2.725
 4350SOL    HW213950   4.200   0.743   2.727
 4351SOL     OW13951   3.053   6.758   6.687
 4351SOL    HW113952   3.140   6.803   6.664
 4351SOL    HW213953   3.064   6.659   6.683
 4352SOL     OW13954   6.732   1.932   2.508
 4352SOL    HW113955   6.713   1.981   2.422
 4352SOL    HW213956   6.656   1.945   2.571
 4353SOL     OW13957   3.263   5.568   1.253
 4353SOL    HW113958   3.338   5.589   1.190
 4353SOL    HW213959   3.221   5.482   1.227
 4354SOL     OW13960   3.004   0.617   1.204
 4354SOL    HW113961   3.004   0.556   1.125
 4354SOL    HW213962   2.911   0.621   1.242
 4355SOL     OW13963   5.021   6.842   0.220
 4355SOL    HW113964   4.923   6.858   0.221
 4355SOL    HW213965   5.058   6.852   0.312
 4356SOL     OW13966   3.561   3.631   1.038
 4356SOL    HW113967   3.523   3.591   0.955
 4356SOL    HW213968   3.594   3.559   1.098
 4357SOL     OW13969   5.732   0.626   0.127
 4357SOL    HW113970   5.689   0.563   0.191
 4357SOL    HW213971   5.726   0.719   0.164
 4358SOL     OW13972   6.173   0.868   1.309
 4358SOL    HW113973   6.180   0.819   1.222
 4358SOL    HW213974   6.160   0.966   1.292
 4359SOL     OW13975   0.065   4.140   4.497
 4359SOL    HW113976   0.118   4.114   4.579
 4359SOL    HW213977   6.998   4.102   4.504
 4360SOL     OW13978   2.192   3.791   0.835
 4360SOL    HW113979   2.160   3.719   0.773
 4360SOL    HW213980   2.292   3.785   0.845
 4361SOL     OW13981   5.782   2.714   2.537
 4361SOL    HW113982   5.866   2.767   2.553
 4361SOL    HW213983   5.711   2.774   2.502
 4362SOL     OW13984   5.180   4.040   2.561
 4362SOL    HW113985   5.234   3.979   2.503
 4362SOL    HW213986   5.094   3.995   2.585
 4363SOL     OW13987   5.144   0.431   6.682
 4363SOL    HW113988   5.049   0.440   6.651
 4363SOL    HW213989   5.206   0.460   6.609
 4364SOL     OW13990   3.748   4.159   4.820
 4364SOL    HW113991   3.829   4.141   4.765
 4364SOL    HW213992   3.775   4.187   4.912
 4365SOL     OW13993   4.271   2.143   0.126
 4365SOL    HW113994   4.358   2.164   0.172
 4365SOL    HW213995   4.211   2.095   0.190
 4366SOL     OW13996   5.082   4.675   6.872
 4366SOL    HW113997   5.165   4.727   6.891
 4366SOL    HW213998   5.015   4.735   6.829
 4367SOL     OW13999   6.732   0.159   1.097
 4367SOL    HW114000   6.788   0.078   1.080
 4367SOL    HW214001   6.661   0.137   1.164
 4368SOL     OW14002   4.247   4.638   2.091
 4368SOL    HW114003   4.337   4.594   2.088
 4368SOL    HW214004   4.226   4.664   2.185
 4369SOL     OW14005   3.388   5.341   1.630
 4369SOL    HW114006   3.484   5.356   1.607
 4369SOL    HW214007   3.332   5.357   1.548
 4370SOL     OW14008   5.178   4.512   1.831
 4370SOL    HW114009   5.122   4.589   1.799
 4370SOL    HW214010   5.274   4.539   1.835
 4371SOL     OW14011   1.186   1.752   2.636
 4371SOL    HW114012   1.206   1.839   2.590
 4371SOL    HW214013   1.241   1.745   2.719
 4372SOL     OW14014   4.708   0.060   3.677
 4372SOL    HW114015   4.752   6.996   3.696
 4372SOL    HW214016   4.614   0.044   3.647
 4373SOL     OW14017   6.991   1.542   6.085
 4373SOL    HW114018   0.056   1.535   6.130
 4373SOL    HW214019   6.976   1.636   6.056
 4374SOL     OW14020   3.435   1.458   0.295
 4374SOL    HW114021   3.458   1.409   0.379
 4374SOL    HW214022   3.336   1.452   0.278
 4375SOL     OW14023   3.645   5.438   4.050
 4375SOL    HW114024   3.740   5.467   4.038
 4375SOL    HW214025   3.624   5.430   4.148
 4376SOL     OW14026   0.063   2.183   4.148
 4376SOL    HW114027   0.076   2.223   4.239
 4376SOL    HW214028   0.126   2.106   4.136
 4377SOL     OW14029   6.723   4.559   5.986
 4377SOL    HW114030   6.665   4.529   5.910
 4377SOL    HW214031   6.701   4.653   6.010
 4378SOL     OW14032   3.090   1.799   4.145
 4378SOL    HW114033   3.087   1.807   4.245
 4378SOL    HW214034   2.998   1.808   4.108
 4379SOL     OW14035   3.890   2.016   6.272
 4379SOL    HW114036   3.883   2.032   6.370
 4379SOL    HW214037   3.955   1.943   6.254
 4380SOL     OW14038   0.481   2.316   3.098
 4380SOL    HW114039   0.447   2.354   3.184
 4380SOL    HW214040   0.454   2.375   3.022
 4381SOL     OW14041   1.389   5.475   0.188
 4381SOL    HW114042   1.370   5.556   0.133
 4381SOL    HW214043   1.319   5.464   0.258
 4382SOL     OW14044   1.090   5.596   4.329
 4382SOL    HW114045   1.042   5.579   4.243
 4382SOL    HW214046   1.172   5.539   4.333
 4383SOL     OW14047   7.023   4.107   0.666
 4383SOL    HW114048   6.977   4.033   0.617
 4383SOL    HW214049   0.082   4.133   0.617
 4384SOL     OW14050   5.012   0.036   3.555
 4384SOL    HW114051   4.952   0.100   3.506
 4384SOL    HW214052   4.956   6.997   3.608
 4385SOL     OW14053   4.462   1.026   5.800
 4385SOL    HW114054   4.419   1.055   5.715
 4385SOL    HW214055   4.487   0.930   5.795
 4386SOL     OW14056   2.116   3.741   4.171
 4386SOL    HW114057   2.099   3.676   4.245
 4386SOL    HW214058   2.110   3.693   4.083
 4387SOL     OW14059   5.613   2.025   0.961
 4387SOL    HW114060   5.635   1.928   0.946
 4387SOL    HW214061   5.648   2.055   1.049
 4388SOL     OW14062   5.519   3.465   0.283
 4388SOL    HW114063   5.552   3.516   0.204
 4388SOL    HW214064   5.532   3.519   0.367
 4389SOL     OW14065   2.485   1.066   6.836
 4389SOL    HW114066   2.534   1.145   6.873
 4389SOL    HW214067   2.453   1.087   6.744
 4390SOL     OW14068   6.878   1.776   0.799
 4390SOL    HW114069   6.822   1.783   0.881
 4390SOL    HW214070   6.974   1.769   0.825
 4391SOL     OW14071   0.451   6.180   1.377
 4391SOL    HW114072   0.443   6.141   1.285
 4391SOL    HW214073   0.534   6.234   1.383
 4392SOL     OW14074   1.244   2.740   5.974
 4392SOL    HW114075   1.316   2.808   5.964
 4392SOL    HW214076   1.270   2.674   6.044
 4393SOL     OW14077   6.222   0.430   2.639
 4393SOL    HW114078   6.166   0.403   2.561
 4393SOL    HW214079   6.168   0.487   2.701
 4394SOL     OW14080   0.292   0.125   2.272
 4394SOL    HW114081   0.239   0.209   2.287
 4394SOL    HW214082   0.238   0.046   2.304
 4395SOL     OW14083   1.448   3.582   2.023
 4395SOL    HW114084   1.532   3.573   2.077
 4395SOL    HW214085   1.392   3.655   2.062
 4396SOL     OW14086   2.793   1.396   3.021
 4396SOL    HW114087   2.713   1.456   3.019
 4396SOL    HW214088   2.828   1.385   2.928
 4397SOL     OW14089   3.712   1.254   5.448
 4397SOL    HW114090   3.767   1.178   5.412
 4397SOL    HW214091   3.621   1.251   5.406
 4398SOL     OW14092   2.374   3.319   5.759
 4398SOL    HW114093   2.393   3.264   5.678
 4398SOL    HW214094   2.454   3.315   5.820
 4399SOL     OW14095   2.965   6.192   1.469
 4399SOL    HW114096   2.971   6.280   1.517
 4399SOL    HW214097   2.970   6.208   1.371
 4400SOL     OW14098   1.675   6.122   4.980
 4400SOL    HW114099   1.775   6.114   4.980
 4400SOL    HW214100   1.646   6.167   5.064
 4401SOL     OW14101   2.373   6.533   6.302
 4401SOL    HW114102   2.463   6.538   6.257
 4401SOL    HW214103   2.363   6.611   6.364
 4402SOL     OW14104   1.422   0.633   2.648
 4402SOL    HW114105   1.443   0.567   2.575
 4402SOL    HW214106   1.475   0.610   2.730
 4403SOL     OW14107   6.774   5.725   2.948
 4403SOL    HW114108   6.749   5.645   2.895
 4403SOL    HW214109   6.857   5.766   2.910
 4404SOL     OW14110   0.607   6.655   5.734
 4404SOL    HW114111   0.624   6.568   5.689
 4404SOL    HW214112   0.677   6.671   5.804
 4405SOL     OW14113   1.485   5.024   2.629
 4405SOL    HW114114   1.415   5.086   2.665
 4405SOL    HW214115   1.500   5.043   2.532
 4406SOL     OW14116   6.392   4.679   2.375
 4406SOL    HW114117   6.356   4.725   2.294
 4406SOL    HW214118   6.451   4.603   2.346
 4407SOL     OW14119   6.276   6.497   0.981
 4407SOL    HW114120   6.320   6.451   0.904
 4407SOL    HW214121   6.242   6.428   1.045
 4408SOL     OW14122   4.840   0.869   1.039
 4408SOL    HW114123   4.760   0.880   0.979
 4408SOL    HW214124   4.810   0.862   1.134
 4409SOL     OW14125   3.151   1.121   4.355
 4409SOL    HW114126   3.072   1.164   4.310
 4409SOL    HW214127   3.206   1.073   4.287
 4410SOL     OW14128   0.792   0.351   0.816
 4410SOL    HW114129   0.728   0.294   0.867
 4410SOL    HW214130   0.885   0.313   0.826
 4411SOL     OW14131   4.423   4.779   5.245
 4411SOL    HW114132   4.483   4.764   5.167
 4411SOL    HW214133   4.455   4.725   5.324
 4412SOL     OW14134   4.358   6.031   1.926
 4412SOL    HW114135   4.445   6.041   1.877
 4412SOL    HW214136   4.289   6.090   1.885
 4413SOL     OW14137   4.848   6.187   4.165
 4413SOL    HW114138   4.835   6.088   4.158
 4413SOL    HW214139   4.928   6.214   4.112
 4414SOL     OW14140   5.736   3.882   1.302
 4414SOL    HW114141   5.777   3.973   1.298
 4414SOL    HW214142   5.637   3.889   1.290
 4415SOL     OW14143   1.734   4.100   1.305
 4415SOL    HW114144   1.791   4.171   1.343
 4415SOL    HW214145   1.760   4.084   1.209
 4416SOL     OW14146   5.038   2.895   4.623
 4416SOL    HW114147   4.967   2.940   4.677
 4416SOL    HW214148   5.100   2.965   4.585
 4417SOL     OW14149   0.224   4.301   1.935
 4417SOL    HW114150   0.154   4.232   1.914
 4417SOL    HW214151   0.274   4.323   1.852
 4418SOL     OW14152   6.352   1.561   5.264
 4418SOL    HW114153   6.309   1.565   5.354
 4418SOL    HW214154   6.330   1.643   5.212
 4419SOL     OW14155   6.664   6.422   6.532
 4419SOL    HW114156   6.671   6.518   6.562
 4419SOL    HW214157   6.746   6.397   6.481
 4420SOL     OW14158   3.854   1.409   1.056
 4420SOL    HW114159   3.861   1.421   0.957
 4420SOL    HW214160   3.899   1.486   1.102
 4421SOL     OW14161   2.352   2.754   0.030
 4421SOL    HW114162   2.402   2.840   0.045
 4421SOL    HW214163   2.290   2.765   6.976
 4422SOL     OW14164   0.538   2.984   6.093
 4422SOL    HW114165   0.567   3.045   6.167
 4422SOL    HW214166   0.457   2.933   6.121
 4423SOL     OW14167   5.483   4.726   4.550
 4423SOL    HW114168   5.503   4.739   4.453
 4423SOL    HW214169   5.445   4.634   4.564
 4424SOL     OW14170   4.118   5.790   2.752
 4424SOL    HW114171   4.211   5.810   2.782
 4424SOL    HW214172   4.114   5.696   2.718
 4425SOL     OW14173   0.412   6.536   1.593
 4425SOL    HW114174   0.377   6.506   1.682
 4425SOL    HW214175   0.465   6.620   1.605
 4426SOL     OW14176   0.330   0.303   4.616
 4426SOL    HW114177   0.392   0.245   4.563
 4426SOL    HW214178   0.255   0.248   4.652
 4427SOL     OW14179   3.029   5.601   2.318
 4427SOL    HW114180   2.949   5.636   2.269
 4427SOL    HW214181   3.108   5.661   2.301
 4428SOL     OW14182   6.311   5.956   3.917
 4428SOL    HW114183   6.398   5.909   3.930
 4428SOL    HW214184   6.247   5.896   3.868
 4429SOL     OW14185   2.745   6.153   3.197
 4429SOL    HW114186   2.821   6.213   3.223
 4429SOL    HW214187   2.680   6.147   3.272
 4430SOL     OW14188   6.365   3.497   4.978
 4430SOL    HW114189   6.409   3.417   5.018
 4430SOL    HW214190   6.296   3.467   4.911
 4431SOL     OW14191   4.448   6.904   5.075
 4431SOL    HW114192   4.354   6.925   5.049
 4431SOL    HW214193   4.464   6.805   5.069
 4432SOL     OW14194   1.281   3.442   6.615
 4432SOL    HW114195   1.184   3.429   6.596
 4432SOL    HW214196   1.303   3.540   6.611
 4433SOL     OW14197   0.848   0.406   4.457
 4433SOL    HW114198   0.885   0.355   4.534
 4433SOL    HW214199   0.843   0.346   4.377
 4434SOL     OW14200   6.682   1.349   2.183
 4434SOL    HW114201   6.713   1.314   2.095
 4434SOL    HW214202   6.746   1.321   2.255
 4435SOL     OW14203   2.683   4.457   1.027
 4435SOL    HW114204   2.676   4.551   1.062
 4435SOL    HW214205   2.679   4.460   0.927
 4436SOL     OW14206   4.835   2.196   1.594
 4436SOL    HW114207   4.864   2.280   1.548
 4436SOL    HW214208   4.739   2.176   1.570
 4437SOL     OW14209   6.520   4.787   0.047
 4437SOL    HW114210   6.496   4.859   7.006
 4437SOL    HW214211   6.444   4.773   0.110
 4438SOL     OW14212   4.379   1.706   4.554
 4438SOL    HW114213   4.294   1.654   4.561
 4438SOL    HW214214   4.374   1.787   4.612
 4439SOL     OW14215   2.594   5.174   2.424
 4439SOL    HW114216   2.573   5.224   2.340
 4439SOL    HW214217   2.692   5.159   2.430
 4440SOL     OW14218   1.703   5.373   5.812
 4440SOL    HW114219   1.673   5.307   5.743
 4440SOL    HW214220   1.653   5.356   5.898
 4441SOL     OW14221   6.902   1.459   1.589
 4441SOL    HW114222   6.995   1.423   1.598
 4441SOL    HW214223   6.853   1.448   1.675
 4442SOL     OW14224   1.805   4.995   0.955
 4442SOL    HW114225   1.890   5.046   0.964
 4442SOL    HW214226   1.820   4.900   0.980
 4443SOL     OW14227   1.018   5.666   5.488
 4443SOL    HW114228   0.925   5.632   5.501
 4443SOL    HW214229   1.026   5.758   5.527
 4444SOL     OW14230   5.539   5.656   7.000
 4444SOL    HW114231   5.548   5.756   7.007
 4444SOL    HW214232   5.577   5.614   0.058
 4445SOL     OW14233   2.318   3.942   0.466
 4445SOL    HW114234   2.363   3.940   0.556
 4445SOL    HW214235   2.379   3.905   0.397
 4446SOL     OW14236   4.800   1.991   2.234
 4446SOL    HW114237   4.871   1.933   2.274
 4446SOL    HW214238   4.726   2.003   2.301
 4447SOL     OW14239   4.838   5.719   5.269
 4447SOL    HW114240   4.911   5.681   5.325
 4447SOL    HW214241   4.862   5.812   5.242
 4448SOL     OW14242   3.108   6.376   2.321
 4448SOL    HW114243   3.052   6.408   2.244
 4448SOL    HW214244   3.083   6.282   2.344
 4449SOL     OW14245   4.142   1.733   5.320
 4449SOL    HW114246   4.177   1.710   5.411
 4449SOL    HW214247   4.074   1.664   5.292
 4450SOL     OW14248   2.054   5.925   0.392
 4450SOL    HW114249   2.021   5.831   0.401
 4450SOL    HW214250   1.978   5.986   0.372
 4451SOL     OW14251   4.886   5.698   3.608
 4451SOL    HW114252   4.923   5.752   3.532
 4451SOL    HW214253   4.945   5.709   3.688
 4452SOL     OW14254   5.267   4.470   3.762
 4452SOL    HW114255   5.327   4.539   3.803
 4452SOL    HW214256   5.316   4.423   3.688
 4453SOL     OW14257   0.588   4.830   1.245
 4453SOL    HW114258   0.641   4.760   1.292
 4453SOL    HW214259   0.505   4.850   1.298
 4454SOL     OW14260   0.556   1.930   0.210
 4454SOL    HW114261   0.497   1.850   0.215
 4454SOL    HW214262   0.532   1.984   0.130
 4455SOL     OW14263   1.208   0.340   3.785
 4455SOL    HW114264   1.113   0.359   3.758
 4455SOL    HW214265   1.215   0.344   3.885
 4456SOL     OW14266   1.577   5.835   4.149
 4456SOL    HW114267   1.539   5.848   4.058
 4456SOL    HW214268   1.507   5.857   4.217
 4457SOL     OW14269   1.401   1.762   4.332
 4457SOL    HW114270   1.409   1.662   4.333
 4457SOL    HW214271   1.307   1.788   4.312
 4458SOL     OW14272   2.077   2.497   6.464
 4458SOL    HW114273   2.150   2.470   6.401
 4458SOL    HW214274   2.113   2.561   6.531
 4459SOL     OW14275   0.344   4.012   2.994
 4459SOL    HW114276   0.386   4.099   3.023
 4459SOL    HW214277   0.344   4.007   2.894
 4460SOL     OW14278   6.752   3.183   4.800
 4460SOL    HW114279   6.789   3.178   4.893
 4460SOL    HW214280   6.653   3.190   4.803
 4461SOL     OW14281   1.996   0.551   0.792
 4461SOL    HW114282   1.923   0.520   0.853
 4461SOL    HW214283   2.025   0.475   0.733
 4462SOL     OW14284   6.748   4.132   2.311
 4462SOL    HW114285   6.702   4.086   2.235
 4462SOL    HW214286   6.760   4.229   2.290
 4463SOL     OW14287   5.856   1.839   6.936
 4463SOL    HW114288   5.954   1.836   6.953
 4463SOL    HW214289   5.836   1.802   6.846
 4464SOL     OW14290   0.497   3.625   1.212
 4464SOL    HW114291   0.551   3.624   1.295
 4464SOL    HW214292   0.409   3.579   1.228
 4465SOL     OW14293   4.541   5.073   1.759
 4465SOL    HW114294   4.559   4.996   1.820
 4465SOL    HW214295   4.456   5.118   1.785
 4466SOL     OW14296   0.388   2.967   2.616
 4466SOL    HW114297   0.398   3.011   2.527
 4466SOL    HW214298   0.372   3.037   2.686
 4467SOL     OW14299   5.171   4.714   1.380
 4467SOL    HW114300   5.251   4.655   1.396
 4467SOL    HW214301   5.182   4.799   1.431
 4468SOL     OW14302   1.494   3.396   0.680
 4468SOL    HW114303   1.415   3.341   0.650
 4468SOL    HW214304   1.462   3.472   0.737
 4469SOL     OW14305   1.930   6.285   1.733
 4469SOL    HW114306   1.943   6.199   1.783
 4469SOL    HW214307   1.989   6.356   1.772
 4470SOL     OW14308   1.090   6.882   2.503
 4470SOL    HW114309   1.078   6.872   2.404
 4470SOL    HW214310   1.037   6.960   2.536
 4471SOL     OW14311   1.185   0.917   6.908
 4471SOL    HW114312   1.204   0.872   6.821
 4471SOL    HW214313   1.086   0.926   6.921
 4472SOL     OW14314   1.603   2.586   0.751
 4472SOL    HW114315   1.504   2.599   0.759
 4472SOL    HW214316   1.635   2.529   0.826
 4473SOL     OW14317   0.622   2.501   4.970
 4473SOL    HW114318   0.559   2.424   4.982
 4473SOL    HW214319   0.677   2.512   5.053
 4474SOL     OW14320   2.254   6.353   1.037
 4474SOL    HW114321   2.349   6.325   1.029
 4474SOL    HW214322   2.220   6.331   1.129
 4475SOL     OW14323   1.019   3.749   0.273
 4475SOL    HW114324   1.021   3.655   0.308
 4475SOL    HW214325   0.930   3.790   0.292
 4476SOL     OW14326   4.941   0.545   3.729
 4476SOL    HW114327   4.896   0.456   3.739
 4476SOL    HW214328   4.900   0.610   3.792
 4477SOL     OW14329   6.903   1.291   4.082
 4477SOL    HW114330   6.812   1.255   4.103
 4477SOL    HW214331   6.972   1.224   4.108
 4478SOL     OW14332   1.643   0.635   2.253
 4478SOL    HW114333   1.687   0.717   2.290
 4478SOL    HW214334   1.556   0.619   2.300
 4479SOL     OW14335   2.403   2.535   0.213
 4479SOL    HW114336   2.427   2.624   0.174
 4479SOL    HW214337   2.332   2.492   0.157
 4480SOL     OW14338   6.655   6.819   3.265
 4480SOL    HW114339   6.698   6.730   3.272
 4480SOL    HW214340   6.703   6.885   3.323
 4481SOL     OW14341   2.410   4.045   5.947
 4481SOL    HW114342   2.419   3.949   5.972
 4481SOL    HW214343   2.429   4.057   5.850
 4482SOL     OW14344   2.925   0.162   1.191
 4482SOL    HW114345   2.891   0.086   1.246
 4482SOL    HW214346   3.020   0.181   1.216
 4483SOL     OW14347   0.694   3.330   1.268
 4483SOL    HW114348   0.693   3.417   1.318
 4483SOL    HW214349   0.722   3.347   1.173
 4484SOL     OW14350   3.752   0.811   0.678
 4484SOL    HW114351   3.755   0.718   0.714
 4484SOL    HW214352   3.698   0.813   0.593
 4485SOL     OW14353   0.404   3.157   4.963
 4485SOL    HW114354   0.358   3.190   5.045
 4485SOL    HW214355   0.362   3.198   4.882
 4486SOL     OW14356   4.940   4.706   3.297
 4486SOL    HW114357   5.018   4.756   3.258
 4486SOL    HW214358   4.951   4.608   3.279
 4487SOL     OW14359   0.701   2.784   6.647
 4487SOL    HW114360   0.773   2.796   6.715
 4487SOL    HW214361   0.718   2.701   6.593
 4488SOL     OW14362   6.037   4.443   4.170
 4488SOL    HW114363   6.118   4.455   4.228
 4488SOL    HW214364   5.964   4.503   4.203
 4489SOL     OW14365   3.402   6.171   6.584
 4489SOL    HW114366   3.411   6.265   6.552
 4489SOL    HW214367   3.385   6.171   6.683
 4490SOL     OW14368   5.521   1.795   1.959
 4490SOL    HW114369   5.560   1.856   2.028
 4490SOL    HW214370   5.433   1.832   1.929
 4491SOL     OW14371   0.082   3.914   3.004
 4491SOL    HW114372   0.034   3.955   3.082
 4491SOL    HW214373   0.181   3.922   3.019
 4492SOL     OW14374   6.397   1.335   2.187
 4492SOL    HW114375   6.365   1.304   2.276
 4492SOL    HW214376   6.495   1.315   2.177
 4493SOL     OW14377   5.483   1.314   5.962
 4493SOL    HW114378   5.571   1.279   5.995
 4493SOL    HW214379   5.440   1.246   5.903
 4494SOL     OW14380   1.407   1.397   2.542
 4494SOL    HW114381   1.315   1.427   2.568
 4494SOL    HW214382   1.408   1.298   2.530
 4495SOL     OW14383   4.398   6.377   0.939
 4495SOL    HW114384   4.303   6.402   0.956
 4495SOL    HW214385   4.430   6.318   1.012
 4496SOL     OW14386   2.311   5.784   5.893
 4496SOL    HW114387   2.371   5.764   5.815
 4496SOL    HW214388   2.216   5.768   5.865
 4497SOL     OW14389   4.350   6.952   5.778
 4497SOL    HW114390   4.291   7.012   5.724
 4497SOL    HW214391   4.441   6.992   5.784
 4498SOL     OW14392   1.542   4.662   4.154
 4498SOL    HW114393   1.635   4.643   4.186
 4498SOL    HW214394   1.507   4.743   4.199
 4499SOL     OW14395   6.023   2.233   1.999
 4499SOL    HW114396   5.996   2.207   2.091
 4499SOL    HW214397   6.084   2.313   2.003
 4500SOL     OW14398   3.512   6.446   6.724
 4500SOL    HW114399   3.462   6.391   6.791
 4500SOL    HW214400   3.466   6.441   6.635
 4501SOL     OW14401   6.469   0.160   2.891
 4501SOL    HW114402   6.375   0.142   2.862
 4501SOL    HW214403   6.493   0.101   2.968
 4502SOL     OW14404   1.244   3.977   6.832
 4502SOL    HW114405   1.195   3.910   6.776
 4502SOL    HW214406   1.196   4.064   6.829
 4503SOL     OW14407   3.601   1.210   2.792
 4503SOL    HW114408   3.692   1.179   2.820
 4503SOL    HW214409   3.609   1.297   2.743
 4504SOL     OW14410   1.825   2.610   3.958
 4504SOL    HW114411   1.748   2.551   3.980
 4504SOL    HW214412   1.839   2.612   3.859
 4505SOL     OW14413   6.684   3.017   3.406
 4505SOL    HW114414   6.773   2.972   3.411
 4505SOL    HW214415   6.679   3.089   3.475
 4506SOL     OW14416   4.085   3.840   0.063
 4506SOL    HW114417   4.004   3.788   0.036
 4506SOL    HW214418   4.118   3.892   7.009
 4507SOL     OW14419   6.036   2.485   3.270
 4507SOL    HW114420   6.000   2.505   3.361
 4507SOL    HW214421   6.029   2.567   3.213
 4508SOL     OW14422   6.405   5.160   0.586
 4508SOL    HW114423   6.395   5.093   0.512
 4508SOL    HW214424   6.400   5.253   0.548
 4509SOL     OW14425   4.884   2.296   2.284
 4509SOL    HW114426   4.837   2.382   2.305
 4509SOL    HW214427   4.983   2.309   2.293
 4510SOL     OW14428   4.887   1.957   3.783
 4510SOL    HW114429   4.902   1.861   3.760
 4510SOL    HW214430   4.960   2.013   3.743
 4511SOL     OW14431   0.751   4.507   6.808
 4511SOL    HW114432   0.688   4.556   6.868
 4511SOL    HW214433   0.719   4.514   6.713
 4512SOL     OW14434   2.992   3.386   6.058
 4512SOL    HW114435   2.927   3.327   6.012
 4512SOL    HW214436   2.982   3.480   6.024
 4513SOL     OW14437   0.402   0.896   1.273
 4513SOL    HW114438   0.481   0.839   1.293
 4513SOL    HW214439   0.374   0.882   1.178
 4514SOL     OW14440   4.475   4.640   6.531
 4514SOL    HW114441   4.422   4.713   6.575
 4514SOL    HW214442   4.573   4.656   6.545
 4515SOL     OW14443   4.471   0.021   6.044
 4515SOL    HW114444   4.531   0.066   6.110
 4515SOL    HW214445   4.376   0.046   6.062
 4516SOL     OW14446   3.374   1.870   5.198
 4516SOL    HW114447   3.301   1.872   5.267
 4516SOL    HW214448   3.343   1.919   5.117
 4517SOL     OW14449   3.571   0.833   4.107
 4517SOL    HW114450   3.518   0.824   4.191
 4517SOL    HW214451   3.571   0.929   4.078
 4518SOL     OW14452   0.073   0.078   0.842
 4518SOL    HW114453   0.116   0.109   0.757
 4518SOL    HW214454   0.050   0.157   0.899
 4519SOL     OW14455   5.051   0.197   6.227
 4519SOL    HW114456   5.079   0.220   6.134
 4519SOL    HW214457   5.104   0.119   6.259
 4520SOL     OW14458   4.468   5.180   5.276
 4520SOL    HW114459   4.381   5.156   5.233
 4520SOL    HW214460   4.530   5.218   5.208
 4521SOL     OW14461   4.485   2.601   3.956
 4521SOL    HW114462   4.430   2.660   3.898
 4521SOL    HW214463   4.574   2.643   3.973
 4522SOL     OW14464   5.569   4.000   3.474
 4522SOL    HW114465   5.661   4.002   3.434
 4522SOL    HW214466   5.515   3.928   3.429
 4523SOL     OW14467   0.339   2.964   6.453
 4523SOL    HW114468   0.427   2.970   6.502
 4523SOL    HW214469   0.304   3.056   6.437
 4524SOL     OW14470   2.110   3.946   1.813
 4524SOL    HW114471   2.012   3.934   1.832
 4524SOL    HW214472   2.161   3.943   1.899
 4525SOL     OW14473   3.981   1.638   6.156
 4525SOL    HW114474   3.987   1.546   6.118
 4525SOL    HW214475   3.982   1.632   6.256
 4526SOL     OW14476   1.363   0.152   5.052
 4526SOL    HW114477   1.421   0.073   5.033
 4526SOL    HW214478   1.273   0.121   5.083
 4527SOL     OW14479   0.804   2.232   2.806
 4527SOL    HW114480   0.872   2.215   2.735
 4527SOL    HW214481   0.799   2.331   2.823
 4528SOL     OW14482   5.689   1.899   4.742
 4528SOL    HW114483   5.650   1.807   4.740
 4528SOL    HW214484   5.641   1.954   4.811
 4529SOL     OW14485   1.580   1.959   3.799
 4529SOL    HW114486   1.574   1.867   3.760
 4529SOL    HW214487   1.578   2.026   3.725
 4530SOL     OW14488   3.916   4.862   5.788
 4530SOL    HW114489   3.968   4.800   5.729
 4530SOL    HW214490   3.954   4.862   5.880
 4531SOL     OW14491   1.307   6.654   5.237
 4531SOL    HW114492   1.360   6.598   5.301
 4531SOL    HW214493   1.369   6.705   5.177
 4532SOL     OW14494   5.529   1.269   2.184
 4532SOL    HW114495   5.542   1.367   2.167
 4532SOL    HW214496   5.442   1.256   2.231
 4533SOL     OW14497   2.986   6.247   1.196
 4533SOL    HW114498   3.046   6.216   1.122
 4533SOL    HW214499   2.923   6.316   1.161
 4534SOL     OW14500   5.649   0.926   4.756
 4534SOL    HW114501   5.637   0.973   4.669
 4534SOL    HW214502   5.746   0.908   4.771
 4535SOL     OW14503   1.184   0.698   0.037
 4535SOL    HW114504   1.196   0.782   7.007
 4535SOL    HW214505   1.140   0.721   0.124
 4536SOL     OW14506   3.785   0.775   5.704
 4536SOL    HW114507   3.824   0.852   5.754
 4536SOL    HW214508   3.756   0.806   5.613
 4537SOL     OW14509   3.281   3.667   3.472
 4537SOL    HW114510   3.291   3.592   3.538
 4537SOL    HW214511   3.191   3.710   3.485
 4538SOL     OW14512   1.161   3.007   0.243
 4538SOL    HW114513   1.206   3.089   0.279
 4538SOL    HW214514   1.172   2.932   0.308
 4539SOL     OW14515   1.298   4.987   4.461
 4539SOL    HW114516   1.222   4.938   4.418
 4539SOL    HW214517   1.266   5.075   4.496
 4540SOL     OW14518   2.053   1.736   0.376
 4540SOL    HW114519   2.094   1.812   0.427
 4540SOL    HW214520   2.093   1.732   0.284
 4541SOL     OW14521   3.978   3.078   0.078
 4541SOL    HW114522   3.928   3.109   7.021
 4541SOL    HW214523   4.029   2.995   0.056
 4542SOL     OW14524   6.548   1.669   0.805
 4542SOL    HW114525   6.630   1.725   0.812
 4542SOL    HW214526   6.537   1.616   0.889
 4543SOL     OW14527   4.353   1.363   1.285
 4543SOL    HW114528   4.338   1.270   1.321
 4543SOL    HW214529   4.271   1.418   1.302
 4544SOL     OW14530   5.190   5.911   0.343
 4544SOL    HW114531   5.155   6.003   0.361
 4544SOL    HW214532   5.285   5.905   0.374
 4545SOL     OW14533   3.202   3.280   5.434
 4545SOL    HW114534   3.272   3.337   5.477
 4545SOL    HW214535   3.116   3.291   5.483
 4546SOL     OW14536   4.965   6.909   6.147
 4546SOL    HW114537   4.945   7.000   6.110
 4546SOL    HW214538   4.915   6.840   6.094
 4547SOL     OW14539   6.747   1.192   0.277
 4547SOL    HW114540   6.736   1.291   0.293
 4547SOL    HW214541   6.709   1.142   0.354
 4548SOL     OW14542   3.230   1.341   2.122
 4548SOL    HW114543   3.212   1.372   2.028
 4548SOL    HW214544   3.314   1.287   2.123
 4549SOL     OW14545   6.542   4.931   3.850
 4549SOL    HW114546   6.525   4.841   3.811
 4549SOL    HW214547   6.621   4.927   3.910
 4550SOL     OW14548   2.749   5.209   6.941
 4550SOL    HW114549   2.683   5.134   6.949
 4550SOL    HW214550   2.829   5.178   6.891
 4551SOL     OW14551   3.812   2.982   5.971
 4551SOL    HW114552   3.851   3.049   5.908
 4551SOL    HW214553   3.815   2.891   5.930
 4552SOL     OW14554   5.105   0.550   6.911
 4552SOL    HW114555   5.083   0.486   6.985
 4552SOL    HW214556   5.129   0.499   6.829
 4553SOL     OW14557   0.150   0.010   0.345
 4553SOL    HW114558   0.191   0.040   0.258
 4553SOL    HW214559   0.146   6.935   0.346
 4554SOL     OW14560   5.395   6.431   2.673
 4554SOL    HW114561   5.437   6.350   2.630
 4554SOL    HW214562   5.355   6.405   2.761
 4555SOL     OW14563   0.658   0.379   2.920
 4555SOL    HW114564   0.654   0.452   2.851
 4555SOL    HW214565   0.715   0.304   2.887
 4556SOL     OW14566   5.072   4.753   4.605
 4556SOL    HW114567   5.085   4.838   4.657
 4556SOL    HW214568   4.976   4.743   4.580
 4557SOL     OW14569   0.097   5.568   4.945
 4557SOL    HW114570   0.178   5.604   4.991
 4557SOL    HW214571   0.024   5.555   5.012
 4558SOL     OW14572   0.909   4.548   4.137
 4558SOL    HW114573   0.995   4.595   4.155
 4558SOL    HW214574   0.910   4.459   4.181
 4559SOL     OW14575   0.240   3.515   4.351
 4559SOL    HW114576   0.329   3.519   4.395
 4559SOL    HW214577   0.250   3.535   4.253
 4560SOL     OW14578   6.298   4.282   3.163
 4560SOL    HW114579   6.367   4.255   3.096
 4560SOL    HW214580   6.318   4.237   3.250
 4561SOL     OW14581   4.850   3.131   4.131
 4561SOL    HW114582   4.923   3.062   4.127
 4561SOL    HW214583   4.877   3.205   4.193
 4562SOL     OW14584   4.790   1.048   1.321
 4562SOL    HW114585   4.737   1.003   1.393
 4562SOL    HW214586   4.771   1.146   1.323
 4563SOL     OW14587   0.919   4.139   1.810
 4563SOL    HW114588   0.987   4.193   1.860
 4563SOL    HW214589   0.965   4.065   1.761
 4564SOL     OW14590   2.118   3.594   2.286
 4564SOL    HW114591   2.151   3.573   2.194
 4564SOL    HW214592   2.115   3.510   2.340
 4565SOL     OW14593   2.224   6.897   5.244
 4565SOL    HW114594   2.283   6.943   5.178
 4565SOL    HW214595   2.200   6.961   5.318
 4566SOL     OW14596   6.860   5.097   3.054
 4566SOL    HW114597   6.940   5.043   3.079
 4566SOL    HW214598   6.884   5.194   3.057
 4567SOL     OW14599   0.823   0.001   0.637
 4567SOL    HW114600   0.847   6.934   0.604
 4567SOL    HW214601   0.870   0.018   0.724
 4568SOL     OW14602   0.279   4.203   3.490
 4568SOL    HW114603   0.360   4.259   3.507
 4568SOL    HW214604   0.232   4.185   3.577
 4569SOL     OW14605   0.859   2.824   3.423
 4569SOL    HW114606   0.787   2.843   3.356
 4569SOL    HW214607   0.834   2.863   3.511
 4570SOL     OW14608   4.883   6.083   1.001
 4570SOL    HW114609   4.895   6.180   0.979
 4570SOL    HW214610   4.911   6.067   1.095
 4571SOL     OW14611   2.031   2.686   5.443
 4571SOL    HW114612   1.932   2.703   5.450
 4571SOL    HW214613   2.080   2.765   5.480
 4572SOL     OW14614   4.470   3.101   1.655
 4572SOL    HW114615   4.417   3.185   1.651
 4572SOL    HW214616   4.523   3.098   1.740
 4573SOL     OW14617   2.032   5.067   1.074
 4573SOL    HW114618   2.130   5.062   1.051
 4573SOL    HW214619   2.012   5.003   1.148
 4574SOL     OW14620   5.362   0.329   1.707
 4574SOL    HW114621   5.448   0.340   1.659
 4574SOL    HW214622   5.370   0.366   1.800
 4575SOL     OW14623   0.169   1.745   5.356
 4575SOL    HW114624   0.188   1.755   5.258
 4575SOL    HW214625   0.153   1.648   5.377
 4576SOL     OW14626   2.974   3.885   0.209
 4576SOL    HW114627   2.973   3.859   0.113
 4576SOL    HW214628   3.042   3.957   0.224
 4577SOL     OW14629   0.683   1.648   1.795
 4577SOL    HW114630   0.631   1.725   1.833
 4577SOL    HW214631   0.780   1.663   1.810
 4578SOL     OW14632   1.581   0.724   3.180
 4578SOL    HW114633   1.511   0.766   3.238
 4578SOL    HW214634   1.599   0.784   3.102
 4579SOL     OW14635   4.561   1.252   2.796
 4579SOL    HW114636   4.535   1.317   2.725
 4579SOL    HW214637   4.545   1.293   2.886
 4580SOL     OW14638   0.641   0.396   1.862
 4580SOL    HW114639   0.550   0.429   1.837
 4580SOL    HW214640   0.709   0.434   1.799
 4581SOL     OW14641   2.911   0.649   1.666
 4581SOL    HW114642   2.846   0.587   1.622
 4581SOL    HW214643   2.998   0.646   1.617
 4582SOL     OW14644   5.966   0.590   4.439
 4582SOL    HW114645   5.985   0.547   4.350
 4582SOL    HW214646   6.005   0.533   4.511
 4583SOL     OW14647   1.793   6.488   7.011
 4583SOL    HW114648   1.781   6.438   0.073
 4583SOL    HW214649   1.800   6.422   6.935
 4584SOL     OW14650   0.165   1.225   4.567
 4584SOL    HW114651   0.138   1.221   4.471
 4584SOL    HW214652   0.244   1.286   4.577
 4585SOL     OW14653   0.936   2.986   2.868
 4585SOL    HW114654   0.944   2.891   2.899
 4585SOL    HW214655   0.908   2.988   2.772
 4586SOL     OW14656   0.073   5.297   5.767
 4586SOL    HW114657   0.021   5.304   5.852
 4586SOL    HW214658   0.011   5.312   5.690
 4587SOL     OW14659   4.153   3.290   5.775
 4587SOL    HW114660   4.128   3.238   5.857
 4587SOL    HW214661   4.246   3.266   5.747
 4588SOL     OW14662   2.680   4.198   6.522
 4588SOL    HW114663   2.690   4.272   6.456
 4588SOL    HW214664   2.600   4.142   6.499
 4589SOL     OW14665   5.209   6.276   1.994
 4589SOL    HW114666   5.124   6.283   2.046
 4589SOL    HW214667   5.198   6.212   1.918
 4590SOL     OW14668   2.460   4.920   1.809
 4590SOL    HW114669   2.485   5.016   1.804
 4590SOL    HW214670   2.541   4.865   1.826
 4591SOL     OW14671   1.983   1.080   4.647
 4591SOL    HW114672   1.970   1.150   4.718
 4591SOL    HW214673   2.022   1.122   4.565
 4592SOL     OW14674   2.532   2.362   3.264
 4592SOL    HW114675   2.496   2.425   3.333
 4592SOL    HW214676   2.617   2.321   3.297
 4593SOL     OW14677   1.608   6.035   4.538
 4593SOL    HW114678   1.660   6.119   4.554
 4593SOL    HW214679   1.612   5.977   4.620
 4594SOL     OW14680   1.100   5.912   3.755
 4594SOL    HW114681   1.042   5.990   3.734
 4594SOL    HW214682   1.130   5.918   3.850
 4595SOL     OW14683   5.945   2.183   6.604
 4595SOL    HW114684   5.884   2.213   6.530
 4595SOL    HW214685   6.006   2.112   6.570
 4596SOL     OW14686   0.792   1.512   2.551
 4596SOL    HW114687   0.770   1.425   2.506
 4596SOL    HW214688   0.723   1.580   2.526
 4597SOL     OW14689   2.128   5.520   0.696
 4597SOL    HW114690   2.172   5.609   0.700
 4597SOL    HW214691   2.078   5.511   0.610
 4598SOL     OW14692   0.349   2.730   6.949
 4598SOL    HW114693   0.369   2.738   0.022
 4598SOL    HW214694   0.425   2.685   6.902
 4599SOL     OW14695   3.026   6.684   3.133
 4599SOL    HW114696   3.031   6.728   3.223
 4599SOL    HW214697   2.999   6.588   3.145
 4600SOL     OW14698   0.871   6.439   5.904
 4600SOL    HW114699   0.835   6.346   5.894
 4600SOL    HW214700   0.821   6.485   5.978
 4601SOL     OW14701   1.158   1.177   5.254
 4601SOL    HW114702   1.199   1.241   5.190
 4601SOL    HW214703   1.229   1.117   5.291
 4602SOL     OW14704   4.211   0.612   6.564
 4602SOL    HW114705   4.247   0.637   6.474
 4602SOL    HW214706   4.223   0.514   6.578
 4603SOL     OW14707   4.239   6.812   0.925
 4603SOL    HW114708   4.258   6.841   1.019
 4603SOL    HW214709   4.142   6.825   0.905
 4604SOL     OW14710   0.951   6.448   3.001
 4604SOL    HW114711   0.892   6.385   3.051
 4604SOL    HW214712   0.930   6.542   3.028
 4605SOL     OW14713   4.476   1.284   1.894
 4605SOL    HW114714   4.439   1.326   1.977
 4605SOL    HW214715   4.431   1.197   1.878
 4606SOL     OW14716   6.630   6.889   4.459
 4606SOL    HW114717   6.672   6.956   4.520
 4606SOL    HW214718   6.700   6.849   4.400
 4607SOL     OW14719   3.058   1.942   1.045
 4607SOL    HW114720   3.012   1.881   0.981
 4607SOL    HW214721   2.992   1.979   1.110
 4608SOL     OW14722   0.657   2.326   5.522
 4608SOL    HW114723   0.676   2.389   5.447
 4608SOL    HW214724   0.742   2.288   5.557
 4609SOL     OW14725   6.126   5.097   6.078
 4609SOL    HW114726   6.046   5.052   6.039
 4609SOL    HW214727   6.153   5.049   6.162
 4610SOL     OW14728   5.345   4.476   6.419
 4610SOL    HW114729   5.275   4.452   6.352
 4610SOL    HW214730   5.305   4.535   6.489
 4611SOL     OW14731   0.153   0.532   6.674
 4611SOL    HW114732   0.097   0.560   6.596
 4611SOL    HW214733   0.124   0.582   6.756
 4612SOL     OW14734   2.075   1.038   2.981
 4612SOL    HW114735   2.090   0.978   2.903
 4612SOL    HW214736   2.075   1.133   2.951
 4613SOL     OW14737   1.211   4.897   3.345
 4613SOL    HW114738   1.165   4.982   3.317
 4613SOL    HW214739   1.152   4.819   3.324
 4614SOL     OW14740   0.251   4.718   2.824
 4614SOL    HW114741   0.252   4.618   2.837
 4614SOL    HW214742   0.240   4.762   2.913
 4615SOL     OW14743   1.335   4.543   0.019
 4615SOL    HW114744   1.360   4.456   7.001
 4615SOL    HW214745   1.277   4.526   0.099
 4616SOL     OW14746   1.451   4.040   6.180
 4616SOL    HW114747   1.447   3.944   6.207
 4616SOL    HW214748   1.451   4.097   6.262
 4617SOL     OW14749   0.307   4.301   4.067
 4617SOL    HW114750   0.297   4.400   4.059
 4617SOL    HW214751   0.404   4.277   4.076
 4618SOL     OW14752   2.387   3.999   5.633
 4618SOL    HW114753   2.295   3.962   5.634
 4618SOL    HW214754   2.395   4.067   5.560
 4619SOL     OW14755   4.237   5.936   6.670
 4619SOL    HW114756   4.252   5.848   6.625
 4619SOL    HW214757   4.188   5.997   6.608
 4620SOL     OW14758   1.420   4.791   1.619
 4620SOL    HW114759   1.346   4.727   1.641
 4620SOL    HW214760   1.389   4.855   1.549
 4621SOL     OW14761   2.876   0.209   2.834
 4621SOL    HW114762   2.913   0.230   2.743
 4621SOL    HW214763   2.777   0.198   2.828
 4622SOL     OW14764   6.105   0.135   0.114
 4622SOL    HW114765   6.181   0.072   0.125
 4622SOL    HW214766   6.136   0.229   0.130
 4623SOL     OW14767   3.077   4.880   2.863
 4623SOL    HW114768   3.029   4.904   2.779
 4623SOL    HW214769   3.014   4.835   2.926
 4624SOL     OW14770   5.232   1.752   0.917
 4624SOL    HW114771   5.310   1.692   0.898
 4624SOL    HW214772   5.231   1.776   1.014
 4625SOL     OW14773   0.436   6.335   2.029
 4625SOL    HW114774   0.510   6.401   2.037
 4625SOL    HW214775   0.472   6.248   1.996
 4626SOL     OW14776   4.055   3.707   2.086
 4626SOL    HW114777   4.046   3.623   2.139
 4626SOL    HW214778   4.049   3.786   2.147
 4627SOL     OW14779   6.042   6.681   4.400
 4627SOL    HW114780   5.978   6.692   4.324
 4627SOL    HW214781   6.073   6.585   4.404
 4628SOL     OW14782   6.855   4.662   2.893
 4628SOL    HW114783   6.805   4.747   2.874
 4628SOL    HW214784   6.914   4.676   2.972
 4629SOL     OW14785   1.285   4.993   0.977
 4629SOL    HW114786   1.227   4.978   0.897
 4629SOL    HW214787   1.379   5.013   0.946
 4630SOL     OW14788   2.069   3.734   1.449
 4630SOL    HW114789   2.020   3.655   1.485
 4630SOL    HW214790   2.153   3.703   1.404
 4631SOL     OW14791   6.551   1.987   2.698
 4631SOL    HW114792   6.466   1.957   2.741
 4631SOL    HW214793   6.628   1.964   2.758
 4632SOL     OW14794   3.034   4.816   3.754
 4632SOL    HW114795   2.970   4.756   3.803
 4632SOL    HW214796   2.983   4.884   3.702
 4633SOL     OW14797   5.275   2.633   3.881
 4633SOL    HW114798   5.202   2.665   3.941
 4633SOL    HW214799   5.326   2.560   3.926
 4634SOL     OW14800   3.520   3.136   5.493
 4634SOL    HW114801   3.596   3.072   5.507
 4634SOL    HW214802   3.463   3.139   5.575
 4635SOL     OW14803   4.190   0.014   2.530
 4635SOL    HW114804   4.246   0.097   2.524
 4635SOL    HW214805   4.142   7.024   2.444
 4636SOL     OW14806   1.658   5.393   6.600
 4636SOL    HW114807   1.627   5.469   6.658
 4636SOL    HW214808   1.737   5.421   6.546
 4637SOL     OW14809   1.853   2.596   3.503
 4637SOL    HW114810   1.903   2.651   3.570
 4637SOL    HW214811   1.917   2.562   3.434
 4638SOL     OW14812   4.101   4.300   0.015
 4638SOL    HW114813   4.150   4.222   7.000
 4638SOL    HW214814   4.115   4.301   0.114
 4639SOL     OW14815   4.373   2.094   1.943
 4639SOL    HW114816   4.295   2.042   1.908
 4639SOL    HW214817   4.382   2.080   2.041
 4640SOL     OW14818   0.059   2.839   0.888
 4640SOL    HW114819   0.020   2.811   0.975
 4640SOL    HW214820   0.030   2.775   0.816
 4641SOL     OW14821   1.017   5.928   4.761
 4641SOL    HW114822   1.081   5.871   4.813
 4641SOL    HW214823   1.041   5.923   4.664
 4642SOL     OW14824   6.074   1.257   6.339
 4642SOL    HW114825   6.166   1.228   6.367
 4642SOL    HW214826   6.081   1.336   6.279
 4643SOL     OW14827   0.798   2.182   6.796
 4643SOL    HW114828   0.869   2.245   6.828
 4643SOL    HW214829   0.793   2.104   6.857
 4644SOL     OW14830   1.340   1.442   1.191
 4644SOL    HW114831   1.250   1.471   1.222
 4644SOL    HW214832   1.345   1.342   1.190
 4645SOL     OW14833   5.549   2.321   5.524
 4645SOL    HW114834   5.509   2.277   5.444
 4645SOL    HW214835   5.508   2.412   5.535
 4646SOL     OW14836   1.565   4.208   2.509
 4646SOL    HW114837   1.585   4.148   2.431
 4646SOL    HW214838   1.572   4.155   2.594
 4647SOL     OW14839   2.067   6.166   2.666
 4647SOL    HW114840   2.132   6.241   2.669
 4647SOL    HW214841   2.076   6.110   2.749
 4648SOL     OW14842   2.576   0.878   4.409
 4648SOL    HW114843   2.500   0.942   4.423
 4648SOL    HW214844   2.542   0.795   4.365
 4649SOL     OW14845   4.865   2.714   0.726
 4649SOL    HW114846   4.930   2.747   0.794
 4649SOL    HW214847   4.772   2.737   0.755
 4650SOL     OW14848   3.788   5.344   0.376
 4650SOL    HW114849   3.734   5.416   0.332
 4650SOL    HW214850   3.761   5.255   0.339
 4651SOL     OW14851   1.114   3.918   0.075
 4651SOL    HW114852   1.106   3.826   0.113
 4651SOL    HW214853   1.184   3.919   0.003
 4652SOL     OW14854   0.398   0.373   5.601
 4652SOL    HW114855   0.469   0.373   5.671
 4652SOL    HW214856   0.310   0.397   5.642
 4653SOL     OW14857   0.253   6.449   0.788
 4653SOL    HW114858   0.218   6.373   0.843
 4653SOL    HW214859   0.176   6.507   0.760
 4654SOL     OW14860   0.420   1.361   5.419
 4654SOL    HW114861   0.421   1.458   5.394
 4654SOL    HW214862   0.513   1.325   5.419
 4655SOL     OW14863   5.697   5.058   3.103
 4655SOL    HW114864   5.660   4.993   3.037
 4655SOL    HW214865   5.674   5.028   3.195
 4656SOL     OW14866   5.829   0.438   1.641
 4656SOL    HW114867   5.889   0.509   1.678
 4656SOL    HW214868   5.875   0.392   1.565
 4657SOL     OW14869   3.339   1.722   2.743
 4657SOL    HW114870   3.406   1.702   2.672
 4657SOL    HW214871   3.272   1.787   2.708
 4658SOL     OW14872   1.140   1.740   0.168
 4658SOL    HW114873   1.149   1.770   0.263
 4658SOL    HW214874   1.172   1.645   0.161
 4659SOL     OW14875   2.296   4.921   0.612
 4659SOL    HW114876   2.254   5.008   0.585
 4659SOL    HW214877   2.260   4.893   0.701
 4660SOL     OW14878   0.232   5.040   4.278
 4660SOL    HW114879   0.291   5.121   4.271
 4660SOL    HW214880   0.250   4.992   4.363
 4661SOL     OW14881   1.102   0.752   5.958
 4661SOL    HW114882   1.189   0.734   6.004
 4661SOL    HW214883   1.101   0.846   5.925
 4662SOL     OW14884   3.124   0.700   5.994
 4662SOL    HW114885   3.219   0.727   5.980
 4662SOL    HW214886   3.115   0.601   5.984
 4663SOL     OW14887   0.622   0.637   1.331
 4663SOL    HW114888   0.626   0.708   1.400
 4663SOL    HW214889   0.688   0.656   1.258
 4664SOL     OW14890   5.785   6.033   4.768
 4664SOL    HW114891   5.871   5.996   4.735
 4664SOL    HW214892   5.800   6.127   4.801
 4665SOL     OW14893   6.588   0.721   2.930
 4665SOL    HW114894   6.623   0.660   2.858
 4665SOL    HW214895   6.489   0.709   2.939
 4666SOL     OW14896   1.724   2.106   6.104
 4666SOL    HW114897   1.801   2.135   6.048
 4666SOL    HW214898   1.642   2.102   6.047
 4667SOL     OW14899   6.445   3.233   1.204
 4667SOL    HW114900   6.424   3.151   1.150
 4667SOL    HW214901   6.413   3.314   1.155
 4668SOL     OW14902   4.942   1.330   6.046
 4668SOL    HW114903   4.928   1.395   6.121
 4668SOL    HW214904   4.930   1.378   5.959
 4669SOL     OW14905   5.578   0.140   6.316
 4669SOL    HW114906   5.496   0.156   6.260
 4669SOL    HW214907   5.551   0.105   6.406
 4670SOL     OW14908   0.528   3.294   0.114
 4670SOL    HW114909   0.556   3.389   0.124
 4670SOL    HW214910   0.434   3.290   0.078
 4671SOL     OW14911   6.671   2.030   1.847
 4671SOL    HW114912   6.678   1.980   1.933
 4671SOL    HW214913   6.720   2.117   1.855
 4672SOL     OW14914   3.290   3.076   0.636
 4672SOL    HW114915   3.307   3.012   0.711
 4672SOL    HW214916   3.269   3.024   0.553
 4673SOL     OW14917   5.397   1.050   0.981
 4673SOL    HW114918   5.299   1.027   0.980
 4673SOL    HW214919   5.430   1.048   1.075
 4674SOL     OW14920   1.187   3.237   0.591
 4674SOL    HW114921   1.173   3.293   0.672
 4674SOL    HW214922   1.170   3.141   0.614
 4675SOL     OW14923   1.462   5.704   0.370
 4675SOL    HW114924   1.365   5.694   0.393
 4675SOL    HW214925   1.472   5.705   0.270
 4676SOL     OW14926   1.297   5.769   4.774
 4676SOL    HW114927   1.308   5.687   4.717
 4676SOL    HW214928   1.252   5.744   4.859
 4677SOL     OW14929   4.507   0.007   7.002
 4677SOL    HW114930   4.438   0.070   6.966
 4677SOL    HW214931   4.597   0.036   6.971
 4678SOL     OW14932   2.579   4.817   0.311
 4678SOL    HW114933   2.485   4.803   0.341
 4678SOL    HW214934   2.637   4.835   0.390
 4679SOL     OW14935   2.425   6.676   4.812
 4679SOL    HW114936   2.494   6.663   4.883
 4679SOL    HW214937   2.444   6.760   4.761
 4680SOL     OW14938   0.596   5.007   6.359
 4680SOL    HW114939   0.623   5.065   6.436
 4680SOL    HW214940   0.538   5.059   6.297
 4681SOL     OW14941   6.824   5.787   5.035
 4681SOL    HW114942   6.771   5.824   5.111
 4681SOL    HW214943   6.831   5.687   5.044
 4682SOL     OW14944   3.282   0.657   1.100
 4682SOL    HW114945   3.190   0.633   1.131
 4682SOL    HW214946   3.299   0.619   1.009
 4683SOL     OW14947   0.450   4.686   3.737
 4683SOL    HW114948   0.443   4.589   3.712
 4683SOL    HW214949   0.454   4.695   3.836
 4684SOL     OW14950   1.920   1.312   4.794
 4684SOL    HW114951   1.866   1.374   4.737
 4684SOL    HW214952   1.860   1.266   4.859
 4685SOL     OW14953   5.386   4.032   4.293
 4685SOL    HW114954   5.455   4.042   4.365
 4685SOL    HW214955   5.370   4.121   4.251
 4686SOL     OW14956   5.072   5.459   6.404
 4686SOL    HW114957   5.059   5.470   6.503
 4686SOL    HW214958   5.096   5.547   6.363
 4687SOL     OW14959   4.602   0.430   4.550
 4687SOL    HW114960   4.626   0.519   4.590
 4687SOL    HW214961   4.527   0.389   4.602
 4688SOL     OW14962   6.613   1.162   0.520
 4688SOL    HW114963   6.639   1.071   0.552
 4688SOL    HW214964   6.513   1.168   0.514
 4689SOL     OW14965   1.966   5.703   4.099
 4689SOL    HW114966   1.909   5.623   4.083
 4689SOL    HW214967   1.917   5.767   4.159
 4690SOL     OW14968   2.411   1.394   0.770
 4690SOL    HW114969   2.360   1.357   0.848
 4690SOL    HW214970   2.391   1.341   0.688
 4691SOL     OW14971   3.406   4.525   0.217
 4691SOL    HW114972   3.481   4.554   0.277
 4691SOL    HW214973   3.319   4.560   0.251
 4692SOL     OW14974   1.259   5.087   3.609
 4692SOL    HW114975   1.227   4.996   3.584
 4692SOL    HW214976   1.230   5.153   3.540
 4693SOL     OW14977   0.781   1.517   2.111
 4693SOL    HW114978   0.801   1.558   2.022
 4693SOL    HW214979   0.815   1.423   2.113
 4694SOL     OW14980   1.287   1.187   4.865
 4694SOL    HW114981   1.295   1.252   4.941
 4694SOL    HW214982   1.377   1.148   4.845
 4695SOL     OW14983   3.317   3.743   2.901
 4695SOL    HW114984   3.242   3.775   2.959
 4695SOL    HW214985   3.281   3.686   2.827
 4696SOL     OW14986   6.788   3.474   0.650
 4696SOL    HW114987   6.701   3.524   0.656
 4696SOL    HW214988   6.784   3.393   0.708
 4697SOL     OW14989   0.948   5.982   6.603
 4697SOL    HW114990   0.868   5.954   6.549
 4697SOL    HW214991   0.931   5.962   6.699
 4698SOL     OW14992   6.135   3.116   2.100
 4698SOL    HW114993   6.229   3.111   2.068
 4698SOL    HW214994   6.102   3.024   2.124
 4699SOL     OW14995   6.780   6.982   3.460
 4699SOL    HW114996   6.818   6.949   3.546
 4699SOL    HW214997   6.710   0.026   3.479
 4700SOL     OW14998   4.960   6.574   6.555
 4700SOL    HW114999   4.958   6.606   6.649
 4700SOL    HW215000   5.010   6.640   6.498
 4701SOL     OW15001   2.030   0.603   6.773
 4701SOL    HW115002   2.017   0.504   6.780
 4701SOL    HW215003   1.949   0.645   6.733
 4702SOL     OW15004   3.321   2.922   0.856
 4702SOL    HW115005   3.226   2.920   0.886
 4702SOL    HW215006   3.366   2.836   0.880
 4703SOL     OW15007   0.999   6.845   2.224
 4703SOL    HW115008   0.929   6.774   2.235
 4703SOL    HW215009   0.971   6.908   2.152
 4704SOL     OW15010   4.721   6.458   6.483
 4704SOL    HW115011   4.736   6.362   6.507
 4704SOL    HW215012   4.804   6.510   6.500
 4705SOL     OW15013   3.798   2.931   4.807
 4705SOL    HW115014   3.814   2.837   4.779
 4705SOL    HW215015   3.868   2.990   4.769
 4706SOL     OW15016   5.745   3.511   6.950
 4706SOL    HW115017   5.808   3.583   6.922
 4706SOL    HW215018   5.747   3.437   6.882
 4707SOL     OW15019   2.569   5.191   0.902
 4707SOL    HW115020   2.639   5.263   0.901
 4707SOL    HW215021   2.483   5.229   0.934
 4708SOL     OW15022   1.664   2.934   2.442
 4708SOL    HW115023   1.654   2.990   2.361
 4708SOL    HW215024   1.577   2.889   2.463
 4709SOL     OW15025   2.996   4.269   0.523
 4709SOL    HW115026   3.036   4.302   0.437
 4709SOL    HW215027   2.994   4.169   0.523
 4710SOL     OW15028   4.652   3.373   1.232
 4710SOL    HW115029   4.745   3.353   1.262
 4710SOL    HW215030   4.619   3.298   1.174
 4711SOL     OW15031   2.824   0.118   3.502
 4711SOL    HW115032   2.908   0.157   3.538
 4711SOL    HW215033   2.830   0.111   3.402
 4712SOL     OW15034   1.615   3.681   6.836
 4712SOL    HW115035   1.698   3.655   6.886
 4712SOL    HW215036   1.538   3.685   6.900
 4713SOL     OW15037   0.978   5.153   0.762
 4713SOL    HW115038   0.891   5.133   0.807
 4713SOL    HW215039   1.027   5.067   0.745
 4714SOL     OW15040   4.139   2.502   1.315
 4714SOL    HW115041   4.102   2.591   1.343
 4714SOL    HW215042   4.235   2.495   1.343
 4715SOL     OW15043   4.855   3.885   4.905
 4715SOL    HW115044   4.807   3.962   4.949
 4715SOL    HW215045   4.842   3.802   4.960
 4716SOL     OW15046   2.498   5.567   6.519
 4716SOL    HW115047   2.401   5.545   6.532
 4716SOL    HW215048   2.523   5.644   6.577
 4717SOL     OW15049   2.022   5.349   4.611
 4717SOL    HW115050   2.095   5.321   4.549
 4717SOL    HW215051   2.055   5.423   4.670
 4718SOL     OW15052   4.639   6.704   7.021
 4718SOL    HW115053   4.678   6.617   6.992
 4718SOL    HW215054   4.557   6.688   0.051
 4719SOL     OW15055   4.354   3.356   1.653
 4719SOL    HW115056   4.316   3.397   1.736
 4719SOL    HW215057   4.430   3.411   1.620
 4720SOL     OW15058   2.384   1.799   2.773
 4720SOL    HW115059   2.339   1.886   2.750
 4720SOL    HW215060   2.328   1.751   2.841
 4721SOL     OW15061   1.694   1.352   1.665
 4721SOL    HW115062   1.751   1.432   1.689
 4721SOL    HW215063   1.640   1.325   1.745
 4722SOL     OW15064   2.897   0.549   2.522
 4722SOL    HW115065   2.817   0.551   2.582
 4722SOL    HW215066   2.965   0.615   2.556
 4723SOL     OW15067   3.119   0.193   5.242
 4723SOL    HW115068   3.074   0.111   5.206
 4723SOL    HW215069   3.137   0.256   5.167
 4724SOL     OW15070   4.653   4.973   0.986
 4724SOL    HW115071   4.689   5.060   1.021
 4724SOL    HW215072   4.706   4.945   0.906
 4725SOL     OW15073   6.053   5.561   2.839
 4725SOL    HW115074   5.980   5.495   2.860
 4725SOL    HW215075   6.017   5.654   2.848
 4726SOL     OW15076   0.212   6.366   4.627
 4726SOL    HW115077   0.136   6.314   4.666
 4726SOL    HW215078   0.243   6.434   4.693
 4727SOL     OW15079   5.638   6.584   1.989
 4727SOL    HW115080   5.582   6.511   2.028
 4727SOL    HW215081   5.647   6.658   2.055
 4728SOL     OW15082   6.838   0.416   6.679
 4728SOL    HW115083   6.864   0.334   6.627
 4728SOL    HW215084   6.740   0.431   6.672
 4729SOL     OW15085   3.468   0.866   0.738
 4729SOL    HW115086   3.564   0.886   0.723
 4729SOL    HW215087   3.413   0.910   0.667
 4730SOL     OW15088   1.924   0.338   6.045
 4730SOL    HW115089   1.997   0.324   5.979
 4730SOL    HW215090   1.886   0.430   6.034
 4731SOL     OW15091   4.686   1.231   5.977
 4731SOL    HW115092   4.785   1.236   5.985
 4731SOL    HW215093   4.660   1.230   5.881
 4732SOL     OW15094   0.622   0.144   0.300
 4732SOL    HW115095   0.664   0.163   0.389
 4732SOL    HW215096   0.662   0.061   0.261
 4733SOL     OW15097   6.244   3.655   3.490
 4733SOL    HW115098   6.278   3.567   3.524
 4733SOL    HW215099   6.289   3.677   3.404
 4734SOL     OW15100   6.399   4.262   5.499
 4734SOL    HW115101   6.425   4.273   5.403
 4734SOL    HW215102   6.307   4.298   5.513
 4735SOL     OW15103   0.287   3.917   3.595
 4735SOL    HW115104   0.259   3.916   3.499
 4735SOL    HW215105   0.347   3.996   3.611
 4736SOL     OW15106   1.637   0.165   2.597
 4736SOL    HW115107   1.640   0.130   2.504
 4736SOL    HW215108   1.730   0.180   2.631
 4737SOL     OW15109   3.666   4.947   2.141
 4737SOL    HW115110   3.653   4.892   2.058
 4737SOL    HW215111   3.703   5.036   2.116
 4738SOL     OW15112   0.857   7.015   2.555
 4738SOL    HW115113   0.834   0.074   2.604
 4738SOL    HW215114   0.828   7.023   2.460
 4739SOL     OW15115   3.673   0.198   1.438
 4739SOL    HW115116   3.594   0.230   1.385
 4739SOL    HW215117   3.650   0.199   1.536
 4740SOL     OW15118   0.723   1.782   3.895
 4740SOL    HW115119   0.717   1.812   3.800
 4740SOL    HW215120   0.670   1.844   3.953
 4741SOL     OW15121   4.126   3.688   2.902
 4741SOL    HW115122   4.185   3.709   2.824
 4741SOL    HW215123   4.036   3.729   2.889
 4742SOL     OW15124   5.112   0.823   1.871
 4742SOL    HW115125   5.077   0.902   1.822
 4742SOL    HW215126   5.150   0.757   1.806
 4743SOL     OW15127   1.243   5.186   1.173
 4743SOL    HW115128   1.324   5.216   1.224
 4743SOL    HW215129   1.260   5.096   1.133
 4744SOL     OW15130   1.731   5.586   1.537
 4744SOL    HW115131   1.826   5.619   1.538
 4744SOL    HW215132   1.720   5.521   1.461
 4745SOL     OW15133   1.580   3.090   0.413
 4745SOL    HW115134   1.620   3.004   0.380
 4745SOL    HW215135   1.491   3.103   0.370
 4746SOL     OW15136   5.279   5.274   4.251
 4746SOL    HW115137   5.206   5.321   4.301
 4746SOL    HW215138   5.345   5.342   4.217
 4747SOL     OW15139   4.143   0.595   0.354
 4747SOL    HW115140   4.107   0.555   0.270
 4747SOL    HW215141   4.165   0.522   0.419
 4748SOL     OW15142   2.081   6.951   3.063
 4748SOL    HW115143   1.998   6.940   3.118
 4748SOL    HW215144   2.151   6.889   3.096
 4749SOL     OW15145   2.314   1.256   0.987
 4749SOL    HW115146   2.239   1.211   1.035
 4749SOL    HW215147   2.389   1.192   0.975
 4750SOL     OW15148   4.957   3.193   6.338
 4750SOL    HW115149   4.976   3.291   6.327
 4750SOL    HW215150   4.963   3.148   6.249
 4751SOL     OW15151   4.648   1.506   2.379
 4751SOL    HW115152   4.694   1.422   2.350
 4751SOL    HW215153   4.600   1.490   2.465
 4752SOL     OW15154   5.859   0.741   6.787
 4752SOL    HW115155   5.916   0.767   6.865
 4752SOL    HW215156   5.764   0.734   6.815
 4753SOL     OW15157   2.682   6.091   5.221
 4753SOL    HW115158   2.652   5.998   5.243
 4753SOL    HW215159   2.696   6.099   5.122
 4754SOL     OW15160   5.318   4.515   6.690
 4754SOL    HW115161   5.329   4.581   6.765
 4754SOL    HW215162   5.292   4.426   6.728
 4755SOL     OW15163   0.639   0.818   1.545
 4755SOL    HW115164   0.649   0.915   1.524
 4755SOL    HW215165   0.629   0.807   1.644
 4756SOL     OW15166   7.012   3.486   5.517
 4756SOL    HW115167   0.048   3.531   5.452
 4756SOL    HW215168   7.008   3.388   5.496
 4757SOL     OW15169   2.105   3.077   0.764
 4757SOL    HW115170   2.133   3.050   0.857
 4757SOL    HW215171   2.050   3.003   0.724
 4758SOL     OW15172   1.939   5.008   2.538
 4758SOL    HW115173   1.974   5.099   2.517
 4758SOL    HW215174   2.006   4.959   2.594
 4759SOL     OW15175   0.479   6.727   2.291
 4759SOL    HW115176   0.387   6.699   2.262
 4759SOL    HW215177   0.492   6.823   2.270
 4760SOL     OW15178   1.704   6.625   1.822
 4760SOL    HW115179   1.665   6.613   1.914
 4760SOL    HW215180   1.730   6.721   1.809
 4761SOL     OW15181   4.462   6.252   1.753
 4761SOL    HW115182   4.518   6.188   1.804
 4761SOL    HW215183   4.407   6.306   1.816
 4762SOL     OW15184   1.043   1.126   2.562
 4762SOL    HW115185   1.127   1.079   2.590
 4762SOL    HW215186   1.027   1.204   2.622
 4763SOL     OW15187   5.435   5.204   1.483
 4763SOL    HW115188   5.418   5.247   1.572
 4763SOL    HW215189   5.461   5.109   1.497
 4764SOL     OW15190   4.785   2.770   6.658
 4764SOL    HW115191   4.855   2.745   6.725
 4764SOL    HW215192   4.695   2.748   6.695
 4765SOL     OW15193   4.219   1.179   5.958
 4765SOL    HW115194   4.229   1.119   5.879
 4765SOL    HW215195   4.277   1.146   6.032
 4766SOL     OW15196   0.700   1.252   4.204
 4766SOL    HW115197   0.734   1.180   4.264
 4766SOL    HW215198   0.766   1.328   4.203
 4767SOL     OW15199   2.416   4.899   3.643
 4767SOL    HW115200   2.477   4.924   3.568
 4767SOL    HW215201   2.399   4.800   3.642
 4768SOL     OW15202   4.553   1.587   6.376
 4768SOL    HW115203   4.481   1.554   6.437
 4768SOL    HW215204   4.570   1.519   6.305
 4769SOL     OW15205   2.149   2.902   0.476
 4769SOL    HW115206   2.201   2.825   0.513
 4769SOL    HW215207   2.116   2.878   0.384
 4770SOL     OW15208   6.502   1.587   3.703
 4770SOL    HW115209   6.576   1.627   3.757
 4770SOL    HW215210   6.423   1.648   3.704
 4771SOL     OW15211   2.861   0.844   4.045
 4771SOL    HW115212   2.915   0.762   4.029
 4771SOL    HW215213   2.909   0.923   4.007
 4772SOL     OW15214   2.937   4.771   3.085
 4772SOL    HW115215   2.945   4.839   3.158
 4772SOL    HW215216   2.850   4.723   3.094
 4773SOL     OW15217   2.960   5.365   4.260
 4773SOL    HW115218   3.045   5.320   4.288
 4773SOL    HW215219   2.883   5.326   4.311
 4774SOL     OW15220   0.845   4.552   0.827
 4774SOL    HW115221   0.810   4.607   0.903
 4774SOL    HW215222   0.874   4.463   0.861
 4775SOL     OW15223   6.030   4.918   4.503
 4775SOL    HW115224   5.983   4.987   4.559
 4775SOL    HW215225   6.117   4.956   4.470
 4776SOL     OW15226   6.681   1.791   5.405
 4776SOL    HW115227   6.774   1.815   5.375
 4776SOL    HW215228   6.617   1.858   5.370
 4777SOL     OW15229   1.260   6.867   3.574
 4777SOL    HW115230   1.261   6.955   3.525
 4777SOL    HW215231   1.314   6.800   3.523
 4778SOL     OW15232   1.655   0.657   0.505
 4778SOL    HW115233   1.562   0.692   0.506
 4778SOL    HW215234   1.684   0.642   0.410
 4779SOL     OW15235   4.846   1.342   4.628
 4779SOL    HW115236   4.757   1.366   4.589
 4779SOL    HW215237   4.875   1.414   4.691
 4780SOL     OW15238   5.002   2.681   4.909
 4780SOL    HW115239   4.931   2.739   4.948
 4780SOL    HW215240   5.003   2.593   4.955
 4781SOL     OW15241   2.095   5.358   2.153
 4781SOL    HW115242   2.183   5.378   2.196
 4781SOL    HW215243   2.023   5.405   2.204
 4782SOL     OW15244   1.097   5.859   3.054
 4782SOL    HW115245   1.061   5.952   3.061
 4782SOL    HW215246   1.182   5.861   3.000
 4783SOL     OW15247   0.789   3.552   6.715
 4783SOL    HW115248   0.800   3.537   6.814
 4783SOL    HW215249   0.746   3.641   6.700
 4784SOL     OW15250   5.630   3.151   7.013
 4784SOL    HW115251   5.673   3.204   0.062
 4784SOL    HW215252   5.648   3.054   0.002
 4785SOL     OW15253   6.953   0.663   4.137
 4785SOL    HW115254   6.969   0.722   4.217
 4785SOL    HW215255   7.001   0.576   4.151
 4786SOL     OW15256   0.972   5.413   0.368
 4786SOL    HW115257   0.926   5.470   0.299
 4786SOL    HW215258   1.046   5.466   0.409
 4787SOL     OW15259   5.062   1.116   5.199
 4787SOL    HW115260   4.988   1.077   5.146
 4787SOL    HW215261   5.064   1.215   5.186
 4788SOL     OW15262   6.698   5.918   1.197
 4788SOL    HW115263   6.723   6.012   1.175
 4788SOL    HW215264   6.680   5.867   1.113
 4789SOL     OW15265   6.019   1.121   2.764
 4789SOL    HW115266   5.958   1.132   2.686
 4789SOL    HW215267   5.966   1.105   2.847
 4790SOL     OW15268   6.806   2.443   5.494
 4790SOL    HW115269   6.773   2.445   5.400
 4790SOL    HW215270   6.872   2.369   5.505
 4791SOL     OW15271   0.833   0.824   6.503
 4791SOL    HW115272   0.775   0.752   6.542
 4791SOL    HW215273   0.924   0.787   6.487
 4792SOL     OW15274   0.216   3.661   1.542
 4792SOL    HW115275   0.297   3.616   1.504
 4792SOL    HW215276   0.172   3.717   1.472
 4793SOL     OW15277   1.136   3.266   5.218
 4793SOL    HW115278   1.176   3.305   5.135
 4793SOL    HW215279   1.187   3.298   5.298
 4794SOL     OW15280   5.500   1.115   6.735
 4794SOL    HW115281   5.531   1.157   6.650
 4794SOL    HW215282   5.402   1.097   6.730
 4795SOL     OW15283   0.156   0.892   6.902
 4795SOL    HW115284   0.111   0.837   6.972
 4795SOL    HW215285   0.248   0.916   6.932
 4796SOL     OW15286   5.943   0.771   5.545
 4796SOL    HW115287   5.913   0.866   5.552
 4796SOL    HW215288   5.896   0.727   5.469
 4797SOL     OW15289   2.698   4.980   5.510
 4797SOL    HW115290   2.733   4.984   5.417
 4797SOL    HW215291   2.705   5.071   5.552
 4798SOL     OW15292   3.126   6.104   0.017
 4798SOL    HW115293   3.138   6.198   0.048
 4798SOL    HW215294   3.092   6.103   6.947
 4799SOL     OW15295   3.986   3.507   1.041
 4799SOL    HW115296   3.969   3.505   0.943
 4799SOL    HW215297   4.066   3.450   1.062
 4800SOL     OW15298   0.985   4.834   0.004
 4800SOL    HW115299   1.021   4.874   6.945
 4800SOL    HW215300   1.013   4.889   0.083
 4801SOL     OW15301   4.896   2.746   3.378
 4801SOL    HW115302   4.843   2.766   3.460
 4801SOL    HW215303   4.856   2.668   3.331
 4802SOL     OW15304   6.900   1.010   5.394
 4802SOL    HW115305   6.834   1.032   5.466
 4802SOL    HW215306   6.961   1.088   5.380
 4803SOL     OW15307   5.154   3.182   5.617
 4803SOL    HW115308   5.134   3.275   5.586
 4803SOL    HW215309   5.249   3.176   5.648
 4804SOL     OW15310   5.307   2.601   0.722
 4804SOL    HW115311   5.238   2.674   0.715
 4804SOL    HW215312   5.261   2.513   0.737
 4805SOL     OW15313   5.603   0.945   6.554
 4805SOL    HW115314   5.530   0.960   6.488
 4805SOL    HW215315   5.568   0.961   6.646
 4806SOL     OW15316   1.320   2.741   3.510
 4806SOL    HW115317   1.231   2.755   3.467
 4806SOL    HW215318   1.392   2.777   3.450
 4807SOL     OW15319   0.881   3.855   6.930
 4807SOL    HW115320   0.836   3.933   6.886
 4807SOL    HW215321   0.931   3.887   7.011
 4808SOL     OW15322   3.554   6.468   2.552
 4808SOL    HW115323   3.495   6.534   2.504
 4808SOL    HW215324   3.647   6.477   2.519
 4809SOL     OW15325   3.031   3.593   0.251
 4809SOL    HW115326   2.988   3.568   0.164
 4809SOL    HW215327   3.059   3.689   0.249
 4810SOL     OW15328   1.902   4.887   4.614
 4810SOL    HW115329   1.835   4.944   4.661
 4810SOL    HW215330   1.914   4.921   4.520
 4811SOL     OW15331   3.196   3.251   4.356
 4811SOL    HW115332   3.273   3.207   4.403
 4811SOL    HW215333   3.184   3.344   4.390
 4812SOL     OW15334   2.577   6.514   1.767
 4812SOL    HW115335   2.676   6.520   1.754
 4812SOL    HW215336   2.556   6.526   1.864
 4813SOL     OW15337   0.961   2.603   4.426
 4813SOL    HW115338   1.022   2.545   4.480
 4813SOL    HW215339   1.015   2.663   4.368
 4814SOL     OW15340   5.603   1.377   0.995
 4814SOL    HW115341   5.601   1.293   1.049
 4814SOL    HW215342   5.573   1.454   1.051
 4815SOL     OW15343   6.434   4.359   2.749
 4815SOL    HW115344   6.458   4.428   2.681
 4815SOL    HW215345   6.446   4.396   2.841
 4816SOL     OW15346   2.173   0.204   2.660
 4816SOL    HW115347   2.240   0.276   2.643
 4816SOL    HW215348   2.121   0.226   2.742
 4817SOL     OW15349   3.541   2.535   0.018
 4817SOL    HW115350   3.628   2.496   0.046
 4817SOL    HW215351   3.499   2.583   0.095
 4818SOL     OW15352   4.771   6.693   5.019
 4818SOL    HW115353   4.823   6.687   4.934
 4818SOL    HW215354   4.815   6.759   5.080
 4819SOL     OW15355   3.828   0.725   0.313
 4819SOL    HW115356   3.881   0.649   0.351
 4819SOL    HW215357   3.888   0.787   0.264
 4820SOL     OW15358   0.219   4.809   1.662
 4820SOL    HW115359   0.120   4.794   1.670
 4820SOL    HW215360   0.236   4.908   1.657
 4821SOL     OW15361   0.102   6.572   1.251
 4821SOL    HW115362   0.077   6.617   1.337
 4821SOL    HW215363   0.191   6.528   1.261
 4822SOL     OW15364   0.358   4.072   1.669
 4822SOL    HW115365   0.366   4.015   1.751
 4822SOL    HW215366   0.447   4.078   1.623
 4823SOL     OW15367   0.120   2.004   2.875
 4823SOL    HW115368   0.169   2.002   2.788
 4823SOL    HW215369   0.180   2.043   2.946
 4824SOL     OW15370   5.448   2.571   2.228
 4824SOL    HW115371   5.444   2.666   2.197
 4824SOL    HW215372   5.480   2.513   2.154
 4825SOL     OW15373   1.612   3.091   4.297
 4825SOL    HW115374   1.670   3.173   4.299
 4825SOL    HW215375   1.522   3.115   4.261
 4826SOL     OW15376   0.330   6.703   0.476
 4826SOL    HW115377   0.394   6.635   0.440
 4826SOL    HW215378   0.247   6.704   0.420
 4827SOL     OW15379   5.196   1.575   0.151
 4827SOL    HW115380   5.099   1.574   0.176
 4827SOL    HW215381   5.214   1.651   0.088
 4828SOL     OW15382   5.968   3.360   6.718
 4828SOL    HW115383   5.877   3.331   6.747
 4828SOL    HW215384   5.960   3.440   6.659
 4829SOL     OW15385   2.748   0.176   5.523
 4829SOL    HW115386   2.841   0.209   5.509
 4829SOL    HW215387   2.685   0.254   5.527
 4830SOL     OW15388   4.955   4.837   5.039
 4830SOL    HW115389   4.962   4.745   5.077
 4830SOL    HW215390   5.045   4.881   5.042
 4831SOL     OW15391   6.577   2.189   6.349
 4831SOL    HW115392   6.670   2.209   6.318
 4831SOL    HW215393   6.555   2.247   6.428
 4832SOL     OW15394   1.356   2.933   6.756
 4832SOL    HW115395   1.286   2.939   6.685
 4832SOL    HW215396   1.314   2.952   6.845
 4833SOL     OW15397   6.272   2.673   3.191
 4833SOL    HW115398   6.347   2.718   3.143
 4833SOL    HW215399   6.185   2.694   3.145
 4834SOL     OW15400   5.851   0.409   3.098
 4834SOL    HW115401   5.920   0.404   3.171
 4834SOL    HW215402   5.789   0.486   3.116
 4835SOL     OW15403   2.216   1.332   6.613
 4835SOL    HW115404   2.268   1.415   6.593
 4835SOL    HW215405   2.156   1.349   6.691
 4836SOL     OW15406   5.765   3.897   2.919
 4836SOL    HW115407   5.787   3.930   2.827
 4836SOL    HW215408   5.838   3.924   2.982
 4837SOL     OW15409   0.691   5.147   1.582
 4837SOL    HW115410   0.654   5.129   1.491
 4837SOL    HW215411   0.616   5.162   1.646
 4838SOL     OW15412   2.740   5.814   2.448
 4838SOL    HW115413   2.835   5.832   2.475
 4838SOL    HW215414   2.710   5.727   2.487
 4839SOL     OW15415   1.170   0.381   6.445
 4839SOL    HW115416   1.113   0.433   6.382
 4839SOL    HW215417   1.220   0.310   6.395
 4840SOL     OW15418   6.778   5.942   6.483
 4840SOL    HW115419   6.766   5.936   6.384
 4840SOL    HW215420   6.727   5.868   6.527
 4841SOL     OW15421   1.822   5.909   1.348
 4841SOL    HW115422   1.761   5.882   1.423
 4841SOL    HW215423   1.915   5.877   1.367
 4842SOL     OW15424   3.236   6.420   0.396
 4842SOL    HW115425   3.194   6.511   0.404
 4842SOL    HW215426   3.318   6.417   0.453
 4843SOL     OW15427   1.510   3.926   0.395
 4843SOL    HW115428   1.570   3.926   0.474
 4843SOL    HW215429   1.460   4.012   0.391
 4844SOL     OW15430   0.457   1.598   5.314
 4844SOL    HW115431   0.467   1.616   5.216
 4844SOL    HW215432   0.412   1.676   5.357
 4845SOL     OW15433   5.193   6.506   3.137
 4845SOL    HW115434   5.163   6.600   3.126
 4845SOL    HW215435   5.169   6.473   3.228
 4846SOL     OW15436   6.859   4.950   6.226
 4846SOL    HW115437   6.760   4.939   6.234
 4846SOL    HW215438   6.901   4.860   6.210
 4847SOL     OW15439   4.767   2.745   4.408
 4847SOL    HW115440   4.768   2.755   4.508
 4847SOL    HW215441   4.677   2.716   4.378
 4848SOL     OW15442   2.668   3.179   1.433
 4848SOL    HW115443   2.585   3.175   1.377
 4848SOL    HW215444   2.740   3.124   1.390
 4849SOL     OW15445   2.047   6.249   6.435
 4849SOL    HW115446   1.952   6.219   6.446
 4849SOL    HW215447   2.106   6.199   6.498
 4850SOL     OW15448   3.463   6.742   2.632
 4850SOL    HW115449   3.541   6.770   2.687
 4850SOL    HW215450   3.438   6.816   2.570
 4851SOL     OW15451   5.029   1.009   5.843
 4851SOL    HW115452   5.043   1.004   5.942
 4851SOL    HW215453   4.935   1.035   5.824
 4852SOL     OW15454   1.867   1.943   1.405
 4852SOL    HW115455   1.770   1.928   1.386
 4852SOL    HW215456   1.882   1.941   1.504
 4853SOL     OW15457   3.777   1.260   1.735
 4853SOL    HW115458   3.735   1.310   1.811
 4853SOL    HW215459   3.863   1.219   1.766
 4854SOL     OW15460   4.148   0.027   5.991
 4854SOL    HW115461   4.174   7.021   5.899
 4854SOL    HW215462   4.102   0.115   5.985
 4855SOL     OW15463   0.249   2.759   2.524
 4855SOL    HW115464   0.180   2.735   2.592
 4855SOL    HW215465   0.309   2.829   2.562
 4856SOL     OW15466   0.295   4.496   2.378
 4856SOL    HW115467   0.330   4.402   2.378
 4856SOL    HW215468   0.248   4.513   2.465
 4857SOL     OW15469   0.114   0.880   5.437
 4857SOL    HW115470   0.179   0.912   5.368
 4857SOL    HW215471   0.023   0.917   5.417
 4858SOL     OW15472   1.612   0.536   4.172
 4858SOL    HW115473   1.535   0.580   4.126
 4858SOL    HW215474   1.653   0.600   4.237
 4859SOL     OW15475   3.526   6.250   6.015
 4859SOL    HW115476   3.461   6.187   5.972
 4859SOL    HW215477   3.501   6.344   5.993
 4860SOL     OW15478   3.392   5.005   0.367
 4860SOL    HW115479   3.380   4.969   0.274
 4860SOL    HW215480   3.379   4.931   0.433
 4861SOL     OW15481   4.099   4.154   6.702
 4861SOL    HW115482   4.098   4.254   6.701
 4861SOL    HW215483   4.016   4.119   6.658
 4862SOL     OW15484   1.772   0.343   0.562
 4862SOL    HW115485   1.870   0.333   0.542
 4862SOL    HW215486   1.752   0.438   0.585
 4863SOL     OW15487   5.145   4.069   5.940
 4863SOL    HW115488   5.127   4.104   5.848
 4863SOL    HW215489   5.183   3.977   5.934
 4864SOL     OW15490   3.442   1.353   4.201
 4864SOL    HW115491   3.540   1.374   4.209
 4864SOL    HW215492   3.390   1.438   4.196
 4865SOL     OW15493   1.398   6.275   5.425
 4865SOL    HW115494   1.359   6.184   5.440
 4865SOL    HW215495   1.461   6.297   5.499
 4866SOL     OW15496   0.106   4.400   5.855
 4866SOL    HW115497   0.124   4.482   5.801
 4866SOL    HW215498   0.189   4.373   5.904
 4867SOL     OW15499   3.834   1.077   3.331
 4867SOL    HW115500   3.913   1.044   3.278
 4867SOL    HW215501   3.837   1.177   3.333
 4868SOL     OW15502   0.278   5.066   0.511
 4868SOL    HW115503   0.242   5.013   0.588
 4868SOL    HW215504   0.355   5.122   0.543
 4869SOL     OW15505   0.101   1.661   0.879
 4869SOL    HW115506   0.194   1.659   0.913
 4869SOL    HW215507   0.042   1.606   0.939
 4870SOL     OW15508   0.009   7.023   1.252
 4870SOL    HW115509   7.018   6.987   1.344
 4870SOL    HW215510   0.043   0.093   1.259
 4871SOL     OW15511   0.642   1.839   3.163
 4871SOL    HW115512   0.587   1.916   3.196
 4871SOL    HW215513   0.638   1.765   3.230
 4872SOL     OW15514   5.287   0.076   3.075
 4872SOL    HW115515   5.323   0.168   3.088
 4872SOL    HW215516   5.348   0.010   3.118
 4873SOL     OW15517   0.097   5.750   3.815
 4873SOL    HW115518   0.031   5.681   3.845
 4873SOL    HW215519   0.188   5.709   3.809
 4874SOL     OW15520   5.720   4.079   1.876
 4874SOL    HW115521   5.696   3.988   1.908
 4874SOL    HW215522   5.748   4.136   1.954
 4875SOL     OW15523   5.913   6.906   4.547
 4875SOL    HW115524   5.934   6.824   4.494
 4875SOL    HW215525   5.992   6.930   4.604
 4876SOL     OW15526   6.474   1.502   2.435
 4876SOL    HW115527   6.512   1.417   2.472
 4876SOL    HW215528   6.499   1.511   2.339
 4877SOL     OW15529   0.248   1.618   6.862
 4877SOL    HW115530   0.211   1.659   6.778
 4877SOL    HW215531   0.174   1.574   6.913
 4878SOL     OW15532   6.275   4.492   3.315
 4878SOL    HW115533   6.296   4.430   3.240
 4878SOL    HW215534   6.216   4.445   3.381
 4879SOL     OW15535   5.216   0.518   3.117
 4879SOL    HW115536   5.258   0.429   3.131
 4879SOL    HW215537   5.284   0.590   3.130
 4880SOL     OW15538   0.110   3.171   6.534
 4880SOL    HW115539   0.082   3.132   6.446
 4880SOL    HW215540   0.059   3.126   6.608
 4881SOL     OW15541   0.142   3.749   1.951
 4881SOL    HW115542   0.091   3.729   2.035
 4881SOL    HW215543   0.082   3.738   1.872
 4882SOL     OW15544   5.469   1.903   4.184
 4882SOL    HW115545   5.487   1.971   4.113
 4882SOL    HW215546   5.549   1.845   4.197
 4883SOL     OW15547   6.424   4.474   6.940
 4883SOL    HW115548   6.505   4.531   6.954
 4883SOL    HW215549   6.406   4.421   7.023
 4884SOL     OW15550   2.053   1.943   1.885
 4884SOL    HW115551   2.086   1.872   1.823
 4884SOL    HW215552   2.118   2.019   1.886
 4885SOL     OW15553   0.968   5.233   6.570
 4885SOL    HW115554   0.958   5.304   6.641
 4885SOL    HW215555   0.892   5.240   6.506
 4886SOL     OW15556   2.790   0.951   2.428
 4886SOL    HW115557   2.757   0.859   2.408
 4886SOL    HW215558   2.727   0.997   2.491
 4887SOL     OW15559   4.618   5.243   0.651
 4887SOL    HW115560   4.571   5.305   0.713
 4887SOL    HW215561   4.644   5.293   0.568
 4888SOL     OW15562   4.652   0.928   2.571
 4888SOL    HW115563   4.696   0.840   2.552
 4888SOL    HW215564   4.630   0.934   2.669
 4889SOL     OW15565   5.641   3.539   3.963
 4889SOL    HW115566   5.702   3.492   4.026
 4889SOL    HW215567   5.658   3.507   3.870
 4890SOL     OW15568   6.420   2.096   4.797
 4890SOL    HW115569   6.452   2.143   4.879
 4890SOL    HW215570   6.442   2.150   4.716
 4891SOL     OW15571   2.517   6.277   0.525
 4891SOL    HW115572   2.585   6.334   0.478
 4891SOL    HW215573   2.425   6.311   0.505
 4892SOL     OW15574   5.370   4.842   1.924
 4892SOL    HW115575   5.313   4.796   1.992
 4892SOL    HW215576   5.460   4.860   1.963
 4893SOL     OW15577   1.618   2.847   1.591
 4893SOL    HW115578   1.637   2.752   1.565
 4893SOL    HW215579   1.607   2.903   1.509
 4894SOL     OW15580   4.970   5.841   0.601
 4894SOL    HW115581   4.905   5.917   0.602
 4894SOL    HW215582   5.061   5.875   0.624
 4895SOL     OW15583   6.269   3.614   5.255
 4895SOL    HW115584   6.339   3.686   5.247
 4895SOL    HW215585   6.301   3.533   5.207
 4896SOL     OW15586   2.668   5.317   4.679
 4896SOL    HW115587   2.689   5.219   4.682
 4896SOL    HW215588   2.668   5.347   4.583
 4897SOL     OW15589   2.039   1.471   5.326
 4897SOL    HW115590   2.057   1.569   5.323
 4897SOL    HW215591   2.118   1.422   5.289
 4898SOL     OW15592   4.324   2.043   3.801
 4898SOL    HW115593   4.250   2.109   3.816
 4898SOL    HW215594   4.313   1.966   3.864
 4899SOL     OW15595   6.651   6.443   1.353
 4899SOL    HW115596   6.699   6.428   1.267
 4899SOL    HW215597   6.556   6.468   1.333
 4900SOL     OW15598   3.450   5.953   6.132
 4900SOL    HW115599   3.407   5.962   6.042
 4900SOL    HW215600   3.548   5.941   6.122
 4901SOL     OW15601   2.203   0.631   0.074
 4901SOL    HW115602   2.234   0.614   7.005
 4901SOL    HW215603   2.177   0.727   0.084
 4902SOL     OW15604   2.319   0.199   5.346
 4902SOL    HW115605   2.356   0.152   5.266
 4902SOL    HW215606   2.314   0.135   5.423
 4903SOL     OW15607   4.785   3.996   2.408
 4903SOL    HW115608   4.695   3.992   2.452
 4903SOL    HW215609   4.810   4.092   2.393
 4904SOL     OW15610   1.770   1.024   2.187
 4904SOL    HW115611   1.685   1.055   2.230
 4904SOL    HW215612   1.831   1.101   2.174
 4905SOL     OW15613   2.712   1.411   2.262
 4905SOL    HW115614   2.666   1.398   2.349
 4905SOL    HW215615   2.646   1.440   2.193
 4906SOL     OW15616   5.171   3.156   4.603
 4906SOL    HW115617   5.084   3.200   4.628
 4906SOL    HW215618   5.226   3.220   4.550
 4907SOL     OW15619   3.408   2.125   0.817
 4907SOL    HW115620   3.330   2.164   0.769
 4907SOL    HW215621   3.376   2.080   0.901
 4908SOL     OW15622   3.240   6.662   6.289
 4908SOL    HW115623   3.304   6.676   6.364
 4908SOL    HW215624   3.272   6.710   6.208
 4909SOL     OW15625   5.234   5.333   4.649
 4909SOL    HW115626   5.264   5.260   4.711
 4909SOL    HW215627   5.310   5.396   4.633
 4910SOL     OW15628   4.535   1.673   0.024
 4910SOL    HW115629   4.479   1.713   6.976
 4910SOL    HW215630   4.491   1.688   0.113
 4911SOL     OW15631   6.610   4.247   3.398
 4911SOL    HW115632   6.677   4.238   3.324
 4911SOL    HW215633   6.624   4.174   3.465
 4912SOL     OW15634   5.653   2.537   3.591
 4912SOL    HW115635   5.701   2.517   3.676
 4912SOL    HW215636   5.563   2.492   3.593
 4913SOL     OW15637   0.946   3.535   5.233
 4913SOL    HW115638   0.849   3.508   5.226
 4913SOL    HW215639   0.992   3.518   5.146
 4914SOL     OW15640   3.523   7.009   3.749
 4914SOL    HW115641   3.446   6.984   3.806
 4914SOL    HW215642   3.592   6.936   3.752
 4915SOL     OW15643   3.866   5.867   5.404
 4915SOL    HW115644   3.936   5.817   5.455
 4915SOL    HW215645   3.862   5.962   5.435
 4916SOL     OW15646   5.544   2.240   3.516
 4916SOL    HW115647   5.546   2.156   3.571
 4916SOL    HW215648   5.498   2.313   3.567
 4917SOL     OW15649   4.275   6.529   6.450
 4917SOL    HW115650   4.188   6.577   6.434
 4917SOL    HW215651   4.278   6.496   6.544
 4918SOL     OW15652   5.561   5.975   3.757
 4918SOL    HW115653   5.610   5.937   3.836
 4918SOL    HW215654   5.509   5.902   3.713
 4919SOL     OW15655   4.001   3.917   2.247
 4919SOL    HW115656   4.054   3.997   2.276
 4919SOL    HW215657   3.904   3.935   2.261
 4920SOL     OW15658   6.652   0.685   5.941
 4920SOL    HW115659   6.587   0.644   5.877
 4920SOL    HW215660   6.696   0.763   5.897
 4921SOL     OW15661   6.496   0.133   2.472
 4921SOL    HW115662   6.547   0.143   2.558
 4921SOL    HW215663   6.560   0.120   2.397
 4922SOL     OW15664   4.035   0.921   6.284
 4922SOL    HW115665   4.120   0.944   6.330
 4922SOL    HW215666   3.961   0.914   6.352
 4923SOL     OW15667   4.207   1.364   1.830
 4923SOL    HW115668   4.194   1.463   1.840
 4923SOL    HW215669   4.305   1.343   1.828
 4924SOL     OW15670   2.608   1.347   5.026
 4924SOL    HW115671   2.705   1.323   5.020
 4924SOL    HW215672   2.570   1.313   5.112
 4925SOL     OW15673   4.490   6.808   4.167
 4925SOL    HW115674   4.492   6.739   4.094
 4925SOL    HW215675   4.546   6.777   4.244
 4926SOL     OW15676   4.722   2.550   1.603
 4926SOL    HW115677   4.767   2.634   1.634
 4926SOL    HW215678   4.724   2.482   1.676
 4927SOL     OW15679   2.264   0.946   0.108
 4927SOL    HW115680   2.223   1.002   0.036
 4927SOL    HW215681   2.205   0.948   0.189
 4928SOL     OW15682   0.554   1.197   1.219
 4928SOL    HW115683   0.487   1.130   1.253
 4928SOL    HW215684   0.542   1.210   1.121
 4929SOL     OW15685   6.521   6.970   4.911
 4929SOL    HW115686   6.607   6.929   4.942
 4929SOL    HW215687   6.500   6.937   4.819
 4930SOL     OW15688   4.070   5.987   3.040
 4930SOL    HW115689   4.024   5.955   2.957
 4930SOL    HW215690   4.129   5.914   3.075
 4931SOL     OW15691   5.837   0.259   1.453
 4931SOL    HW115692   5.876   0.195   1.519
 4931SOL    HW215693   5.843   0.221   1.361
 4932SOL     OW15694   3.730   4.065   3.119
 4932SOL    HW115695   3.636   4.054   3.152
 4932SOL    HW215696   3.729   4.074   3.020
 4933SOL     OW15697   1.515   6.660   5.039
 4933SOL    HW115698   1.609   6.633   5.057
 4933SOL    HW215699   1.469   6.591   4.983
 4934SOL     OW15700   2.606   0.054   2.850
 4934SOL    HW115701   2.557   0.025   2.932
 4934SOL    HW215702   2.684   7.018   2.835
 4935SOL     OW15703   5.833   6.943   5.018
 4935SOL    HW115704   5.930   6.932   4.993
 4935SOL    HW215705   5.824   7.016   5.086
 4936SOL     OW15706   4.261   3.133   0.218
 4936SOL    HW115707   4.305   3.051   0.253
 4936SOL    HW215708   4.174   3.109   0.174
 4937SOL     OW15709   3.640   2.827   5.296
 4937SOL    HW115710   3.545   2.851   5.278
 4937SOL    HW215711   3.698   2.863   5.223
 4938SOL     OW15712   3.132   4.675   0.309
 4938SOL    HW115713   3.104   4.771   0.309
 4938SOL    HW215714   3.056   4.618   0.340
 4939SOL     OW15715   4.710   3.532   6.326
 4939SOL    HW115716   4.637   3.542   6.259
 4939SOL    HW215717   4.700   3.602   6.397
 4940SOL     OW15718   1.452   5.880   3.921
 4940SOL    HW115719   1.470   5.852   3.827
 4940SOL    HW215720   1.391   5.814   3.965
 4941SOL     OW15721   5.979   1.191   1.454
 4941SOL    HW115722   6.056   1.237   1.498
 4941SOL    HW215723   5.922   1.147   1.524
 4942SOL     OW15724   5.244   2.219   5.688
 4942SOL    HW115725   5.238   2.131   5.640
 4942SOL    HW215726   5.162   2.232   5.743
 4943SOL     OW15727   5.926   2.947   1.449
 4943SOL    HW115728   5.835   2.966   1.484
 4943SOL    HW215729   5.933   2.850   1.426
 4944SOL     OW15730   1.868   3.378   2.014
 4944SOL    HW115731   1.808   3.305   1.982
 4944SOL    HW215732   1.931   3.342   2.083
 4945SOL     OW15733   0.076   6.127   4.337
 4945SOL    HW115734   0.116   6.138   4.428
 4945SOL    HW215735   0.140   6.077   4.279
 4946SOL     OW15736   0.081   4.524   1.702
 4946SOL    HW115737   0.090   4.512   1.801
 4946SOL    HW215738   0.150   4.469   1.655
 4947SOL     OW15739   6.136   0.654   0.837
 4947SOL    HW115740   6.096   0.729   0.785
 4947SOL    HW215741   6.097   0.567   0.806
 4948SOL     OW15742   2.240   1.568   2.298
 4948SOL    HW115743   2.158   1.622   2.316
 4948SOL    HW215744   2.219   1.495   2.233
 4949SOL     OW15745   5.436   2.164   5.330
 4949SOL    HW115746   5.492   2.190   5.251
 4949SOL    HW215747   5.340   2.160   5.302
 4950SOL     OW15748   3.276   5.585   4.023
 4950SOL    HW115749   3.354   5.643   4.002
 4950SOL    HW215750   3.298   5.490   4.000
 4951SOL     OW15751   4.385   2.339   3.472
 4951SOL    HW115752   4.288   2.345   3.494
 4951SOL    HW215753   4.432   2.285   3.542
 4952SOL     OW15754   6.816   4.423   4.220
 4952SOL    HW115755   6.790   4.518   4.239
 4952SOL    HW215756   6.894   4.422   4.158
 4953SOL     OW15757   1.255   4.550   2.198
 4953SOL    HW115758   1.240   4.647   2.182
 4953SOL    HW215759   1.236   4.499   2.114
 4954SOL     OW15760   6.824   6.252   6.346
 4954SOL    HW115761   6.767   6.265   6.266
 4954SOL    HW215762   6.882   6.171   6.333
 4955SOL     OW15763   1.724   0.071   1.553
 4955SOL    HW115764   1.772   0.153   1.583
 4955SOL    HW215765   1.737   0.059   1.455
 4956SOL     OW15766   5.967   6.462   3.511
 4956SOL    HW115767   6.006   6.542   3.557
 4956SOL    HW215768   5.940   6.487   3.418
 4957SOL     OW15769   1.271   5.823   4.249
 4957SOL    HW115770   1.346   5.805   4.313
 4957SOL    HW215771   1.184   5.825   4.299
 4958SOL     OW15772   6.912   6.747   7.004
 4958SOL    HW115773   6.947   6.813   6.937
 4958SOL    HW215774   6.833   6.786   0.027
 4959SOL     OW15775   0.813   2.210   0.414
 4959SOL    HW115776   0.876   2.267   0.468
 4959SOL    HW215777   0.829   2.227   0.317
 4960SOL     OW15778   3.298   0.308   5.536
 4960SOL    HW115779   3.260   0.382   5.592
 4960SOL    HW215780   3.329   0.346   5.449
 4961SOL     OW15781   4.933   0.355   5.158
 4961SOL    HW115782   4.848   0.384   5.114
 4961SOL    HW215783   4.925   0.361   5.257
 4962SOL     OW15784   6.363   2.372   2.231
 4962SOL    HW115785   6.440   2.371   2.168
 4962SOL    HW215786   6.329   2.279   2.243
 4963SOL     OW15787   0.785   4.042   1.333
 4963SOL    HW115788   0.708   4.025   1.271
 4963SOL    HW215789   0.868   4.057   1.280
 4964SOL     OW15790   3.088   6.668   2.857
 4964SOL    HW115791   3.174   6.639   2.815
 4964SOL    HW215792   3.097   6.663   2.957
 4965SOL     OW15793   0.062   5.995   5.385
 4965SOL    HW115794   0.091   5.902   5.406
 4965SOL    HW215795   0.057   6.049   5.470
 4966SOL     OW15796   5.066   5.503   5.406
 4966SOL    HW115797   5.138   5.573   5.406
 4966SOL    HW215798   5.080   5.442   5.328
 4967SOL     OW15799   5.880   0.965   6.618
 4967SOL    HW115800   5.879   0.887   6.680
 4967SOL    HW215801   5.797   0.965   6.563
 4968SOL     OW15802   5.363   4.036   6.323
 4968SOL    HW115803   5.462   4.033   6.311
 4968SOL    HW215804   5.322   4.088   6.248
 4969SOL     OW15805   1.764   1.297   1.400
 4969SOL    HW115806   1.744   1.312   1.497
 4969SOL    HW215807   1.813   1.210   1.390
 4970SOL     OW15808   1.735   2.000   6.567
 4970SOL    HW115809   1.729   2.078   6.505
 4970SOL    HW215810   1.729   2.032   6.661
 4971SOL     OW15811   6.352   5.627   3.756
 4971SOL    HW115812   6.260   5.655   3.727
 4971SOL    HW215813   6.395   5.574   3.683
 4972SOL     OW15814   1.591   1.992   4.682
 4972SOL    HW115815   1.596   2.065   4.750
 4972SOL    HW215816   1.682   1.976   4.643
 4973SOL     OW15817   4.847   5.813   3.154
 4973SOL    HW115818   4.874   5.885   3.090
 4973SOL    HW215819   4.816   5.733   3.102
 4974SOL     OW15820   3.732   6.519   6.156
 4974SOL    HW115821   3.815   6.467   6.135
 4974SOL    HW215822   3.663   6.458   6.196
 4975SOL     OW15823   4.288   6.085   0.506
 4975SOL    HW115824   4.360   6.115   0.568
 4975SOL    HW215825   4.268   5.989   0.522
 4976SOL     OW15826   2.418   0.833   4.810
 4976SOL    HW115827   2.352   0.906   4.797
 4976SOL    HW215828   2.507   0.861   4.772
 4977SOL     OW15829   3.624   3.330   1.381
 4977SOL    HW115830   3.661   3.334   1.288
 4977SOL    HW215831   3.552   3.261   1.385
 4978SOL     OW15832   6.499   3.988   6.443
 4978SOL    HW115833   6.464   3.920   6.379
 4978SOL    HW215834   6.576   3.949   6.494
 4979SOL     OW15835   2.438   2.503   3.731
 4979SOL    HW115836   2.391   2.581   3.688
 4979SOL    HW215837   2.457   2.524   3.827
 4980SOL     OW15838   2.243   4.645   3.318
 4980SOL    HW115839   2.297   4.681   3.241
 4980SOL    HW215840   2.147   4.669   3.305
 4981SOL     OW15841   5.249   5.744   5.318
 4981SOL    HW115842   5.253   5.843   5.333
 4981SOL    HW215843   5.326   5.700   5.363
 4982SOL     OW15844   2.394   1.129   6.583
 4982SOL    HW115845   2.474   1.175   6.546
 4982SOL    HW215846   2.325   1.197   6.607
 4983SOL     OW15847   6.764   2.265   4.143
 4983SOL    HW115848   6.806   2.305   4.062
 4983SOL    HW215849   6.665   2.278   4.139
 4984SOL     OW15850   5.220   5.083   3.764
 4984SOL    HW115851   5.122   5.072   3.748
 4984SOL    HW215852   5.236   5.164   3.820
 4985SOL     OW15853   5.679   3.579   2.269
 4985SOL    HW115854   5.613   3.578   2.345
 4985SOL    HW215855   5.633   3.605   2.185
 4986SOL     OW15856   4.465   5.148   3.598
 4986SOL    HW115857   4.548   5.110   3.639
 4986SOL    HW215858   4.437   5.091   3.520
 4987SOL     OW15859   1.172   2.794   0.426
 4987SOL    HW115860   1.100   2.743   0.472
 4987SOL    HW215861   1.261   2.756   0.450
 4988SOL     OW15862   2.259   2.074   5.175
 4988SOL    HW115863   2.257   2.059   5.273
 4988SOL    HW215864   2.285   2.169   5.156
 4989SOL     OW15865   0.208   1.078   0.695
 4989SOL    HW115866   0.212   0.978   0.686
 4989SOL    HW215867   0.150   1.101   0.774
 4990SOL     OW15868   1.675   2.158   0.041
 4990SOL    HW115869   1.713   2.103   0.115
 4990SOL    HW215870   1.585   2.191   0.067
 4991SOL     OW15871   2.931   1.671   5.667
 4991SOL    HW115872   2.937   1.573   5.689
 4991SOL    HW215873   2.844   1.707   5.699
 4992SOL     OW15874   4.306   0.027   4.909
 4992SOL    HW115875   4.321   0.118   4.949
 4992SOL    HW215876   4.207   0.011   4.901
 4993SOL     OW15877   1.390   6.459   4.895
 4993SOL    HW115878   1.356   6.366   4.907
 4993SOL    HW215879   1.398   6.480   4.797
 4994SOL     OW15880   0.480   6.134   2.901
 4994SOL    HW115881   0.395   6.129   2.955
 4994SOL    HW215882   0.477   6.066   2.828
 4995SOL     OW15883   5.545   2.918   5.205
 4995SOL    HW115884   5.502   2.889   5.120
 4995SOL    HW215885   5.534   2.847   5.274
 4996SOL     OW15886   0.344   1.866   3.815
 4996SOL    HW115887   0.275   1.895   3.880
 4996SOL    HW215888   0.375   1.774   3.838
 4997SOL     OW15889   6.885   2.653   3.946
 4997SOL    HW115890   6.834   2.676   4.028
 4997SOL    HW215891   6.916   2.558   3.952
 4998SOL     OW15892   1.045   5.799   5.896
 4998SOL    HW115893   1.075   5.820   5.803
 4998SOL    HW215894   1.115   5.745   5.942
 4999SOL     OW15895   5.762   4.660   1.235
 4999SOL    HW115896   5.691   4.608   1.187
 4999SOL    HW215897   5.734   4.674   1.330
 5000SOL     OW15898   6.381   5.521   4.342
 5000SOL    HW115899   6.290   5.482   4.328
 5000SOL    HW215900   6.394   5.598   4.280
 5001SOL     OW15901   4.883   3.474   5.287
 5001SOL    HW115902   4.792   3.488   5.247
 5001SOL    HW215903   4.941   3.425   5.222
 5002SOL     OW15904   1.672   2.469   1.812
 5002SOL    HW115905   1.697   2.397   1.876
 5002SOL    HW215906   1.577   2.496   1.827
 5003SOL     OW15907   6.618   5.434   4.432
 5003SOL    HW115908   6.605   5.346   4.477
 5003SOL    HW215909   6.528   5.473   4.410
 5004SOL     OW15910   1.856   3.960   6.114
 5004SOL    HW115911   1.933   3.986   6.056
 5004SOL    HW215912   1.842   4.031   6.184
 5005SOL     OW15913   4.869   2.225   0.288
 5005SOL    HW115914   4.936   2.248   0.359
 5005SOL    HW215915   4.909   2.241   0.198
 5006SOL     OW15916   4.981   5.003   2.364
 5006SOL    HW115917   4.952   5.090   2.403
 5006SOL    HW215918   4.998   4.937   2.437
 5007SOL     OW15919   4.514   1.038   4.869
 5007SOL    HW115920   4.548   1.037   4.775
 5007SOL    HW215921   4.574   0.981   4.926
 5008SOL     OW15922   6.363   1.777   4.342
 5008SOL    HW115923   6.450   1.807   4.302
 5008SOL    HW215924   6.366   1.678   4.358
 5009SOL     OW15925   2.967   6.482   1.589
 5009SOL    HW115926   2.930   6.574   1.604
 5009SOL    HW215927   3.058   6.475   1.628
 5010SOL     OW15928   3.420   3.105   6.226
 5010SOL    HW115929   3.401   3.025   6.168
 5010SOL    HW215930   3.468   3.075   6.309
 5011SOL     OW15931   1.586   1.400   3.840
 5011SOL    HW115932   1.636   1.442   3.916
 5011SOL    HW215933   1.487   1.414   3.854
 5012SOL     OW15934   6.421   2.412   0.241
 5012SOL    HW115935   6.446   2.478   0.311
 5012SOL    HW215936   6.342   2.445   0.190
 5013SOL     OW15937   5.000   1.694   5.313
 5013SOL    HW115938   5.080   1.646   5.346
 5013SOL    HW215939   4.990   1.781   5.362
 5014SOL     OW15940   6.780   4.765   0.077
 5014SOL    HW115941   6.683   4.755   0.056
 5014SOL    HW215942   6.832   4.774   7.016
 5015SOL     OW15943   5.251   1.897   3.908
 5015SOL    HW115944   5.265   1.845   3.824
 5015SOL    HW215945   5.164   1.870   3.950
 5016SOL     OW15946   2.723   6.089   1.675
 5016SOL    HW115947   2.699   6.081   1.579
 5016SOL    HW215948   2.753   6.000   1.709
 5017SOL     OW15949   0.709   2.196   1.575
 5017SOL    HW115950   0.661   2.110   1.593
 5017SOL    HW215951   0.751   2.228   1.660
 5018SOL     OW15952   6.710   5.341   4.191
 5018SOL    HW115953   6.656   5.350   4.275
 5018SOL    HW215954   6.665   5.392   4.117
 5019SOL     OW15955   2.984   5.586   4.971
 5019SOL    HW115956   2.939   5.620   5.053
 5019SOL    HW215957   2.928   5.515   4.928
 5020SOL     OW15958   4.741   4.885   6.952
 5020SOL    HW115959   4.775   4.916   0.017
 5020SOL    HW215960   4.818   4.878   6.889
 5021SOL     OW15961   1.920   5.113   5.919
 5021SOL    HW115962   1.877   5.200   5.898
 5021SOL    HW215963   1.893   5.083   6.011
 5022SOL     OW15964   1.862   3.610   6.949
 5022SOL    HW115965   1.857   3.516   6.981
 5022SOL    HW215966   1.926   3.662   7.005
 5023SOL     OW15967   6.838   2.813   4.434
 5023SOL    HW115968   6.930   2.776   4.449
 5023SOL    HW215969   6.824   2.893   4.493
 5024SOL     OW15970   4.690   3.933   5.292
 5024SOL    HW115971   4.625   3.965   5.361
 5024SOL    HW215972   4.705   4.005   5.225
 5025SOL     OW15973   5.651   0.648   4.669
 5025SOL    HW115974   5.621   0.735   4.707
 5025SOL    HW215975   5.631   0.646   4.571
 5026SOL     OW15976   0.963   5.503   2.924
 5026SOL    HW115977   1.049   5.478   2.967
 5026SOL    HW215978   0.919   5.577   2.976
 5027SOL     OW15979   1.010   5.524   3.568
 5027SOL    HW115980   1.095   5.557   3.609
 5027SOL    HW215981   0.993   5.430   3.598
 5028SOL     OW15982   1.032   6.180   3.068
 5028SOL    HW115983   1.037   6.182   3.168
 5028SOL    HW215984   1.015   6.272   3.033
 5029SOL     OW15985   5.523   0.614   4.443
 5029SOL    HW115986   5.517   0.521   4.406
 5029SOL    HW215987   5.432   0.656   4.444
 5030SOL     OW15988   1.511   6.055   0.492
 5030SOL    HW115989   1.413   6.068   0.478
 5030SOL    HW215990   1.542   5.976   0.440
 5031SOL     OW15991   5.471   0.309   0.119
 5031SOL    HW115992   5.556   0.282   0.164
 5031SOL    HW215993   5.488   0.327   0.022
 5032SOL     OW15994   1.730   5.325   2.339
 5032SOL    HW115995   1.764   5.262   2.270
 5032SOL    HW215996   1.793   5.402   2.348
 5033SOL     OW15997   0.528   4.565   4.610
 5033SOL    HW115998   0.449   4.593   4.555
 5033SOL    HW215999   0.515   4.596   4.704
 5034SOL     OW16000   0.772   3.232   6.005
 5034SOL    HW116001   0.788   3.277   6.093
 5034SOL    HW216002   0.695   3.276   5.958
 5035SOL     OW16003   6.575   4.213   1.438
 5035SOL    HW116004   6.582   4.186   1.342
 5035SOL    HW216005   6.589   4.133   1.497
 5036SOL     OW16006   1.284   1.764   2.946
 5036SOL    HW116007   1.300   1.861   2.932
 5036SOL    HW216008   1.369   1.719   2.975
 5037SOL     OW16009   4.773   4.626   1.787
 5037SOL    HW116010   4.744   4.533   1.762
 5037SOL    HW216011   4.853   4.651   1.733
 5038SOL     OW16012   3.074   5.848   5.705
 5038SOL    HW116013   3.093   5.938   5.666
 5038SOL    HW216014   3.128   5.779   5.657
 5039SOL     OW16015   1.302   2.643   3.758
 5039SOL    HW116016   1.289   2.689   3.670
 5039SOL    HW216017   1.364   2.698   3.815
 5040SOL     OW16018   2.544   3.319   5.976
 5040SOL    HW116019   2.568   3.414   5.959
 5040SOL    HW216020   2.521   3.306   6.073
 5041SOL     OW16021   0.195   5.447   0.333
 5041SOL    HW116022   0.104   5.473   0.300
 5041SOL    HW216023   0.262   5.510   0.295
 5042SOL     OW16024   6.127   1.500   6.184
 5042SOL    HW116025   6.215   1.538   6.214
 5042SOL    HW216026   6.053   1.550   6.229
 5043SOL     OW16027   5.814   5.660   3.615
 5043SOL    HW116028   5.914   5.659   3.608
 5043SOL    HW216029   5.776   5.719   3.544
 5044SOL     OW16030   6.388   4.021   1.736
 5044SOL    HW116031   6.350   4.052   1.649
 5044SOL    HW216032   6.432   4.098   1.782
 5045SOL     OW16033   4.986   2.837   5.323
 5045SOL    HW116034   4.909   2.847   5.260
 5045SOL    HW216035   5.017   2.927   5.353
 5046SOL     OW16036   4.254   2.690   5.922
 5046SOL    HW116037   4.293   2.608   5.882
 5046SOL    HW216038   4.206   2.743   5.852
 5047SOL     OW16039   0.611   1.967   2.406
 5047SOL    HW116040   0.621   2.017   2.492
 5047SOL    HW216041   0.528   1.998   2.359
 5048SOL     OW16042   6.027   3.604   0.733
 5048SOL    HW116043   6.068   3.614   0.642
 5048SOL    HW216044   5.984   3.513   0.740
 5049SOL     OW16045   0.825   1.200   1.323
 5049SOL    HW116046   0.850   1.129   1.258
 5049SOL    HW216047   0.763   1.265   1.279
 5050SOL     OW16048   1.581   4.311   0.564
 5050SOL    HW116049   1.649   4.257   0.515
 5050SOL    HW216050   1.612   4.406   0.569
 5051SOL     OW16051   2.469   3.747   6.251
 5051SOL    HW116052   2.485   3.750   6.153
 5051SOL    HW216053   2.552   3.771   6.300
 5052SOL     OW16054   6.010   2.719   1.213
 5052SOL    HW116055   5.910   2.724   1.205
 5052SOL    HW216056   6.037   2.627   1.241
 5053SOL     OW16057   1.213   3.828   1.356
 5053SOL    HW116058   1.237   3.733   1.378
 5053SOL    HW216059   1.294   3.886   1.370
 5054SOL     OW16060   3.787   6.127   5.005
 5054SOL    HW116061   3.692   6.127   4.974
 5054SOL    HW216062   3.837   6.200   4.958
 5055SOL     OW16063   0.391   0.252   3.603
 5055SOL    HW116064   0.445   0.330   3.636
 5055SOL    HW216065   0.429   0.167   3.640
 5056SOL     OW16066   3.073   1.745   6.052
 5056SOL    HW116067   3.044   1.808   5.980
 5056SOL    HW216068   3.161   1.774   6.089
 5057SOL     OW16069   0.288   4.234   2.516
 5057SOL    HW116070   0.213   4.193   2.466
 5057SOL    HW216071   0.256   4.266   2.606
 5058SOL     OW16072   4.185   1.792   0.096
 5058SOL    HW116073   4.163   1.696   0.110
 5058SOL    HW216074   4.160   1.845   0.177
 5059SOL     OW16075   5.590   2.903   2.416
 5059SOL    HW116076   5.567   2.843   2.339
 5059SOL    HW216077   5.521   2.894   2.488
 5060SOL     OW16078   5.914   2.919   5.440
 5060SOL    HW116079   5.980   2.970   5.385
 5060SOL    HW216080   5.945   2.915   5.535
 5061SOL     OW16081   3.789   2.592   5.399
 5061SOL    HW116082   3.730   2.657   5.350
 5061SOL    HW216083   3.759   2.585   5.494
 5062SOL     OW16084   5.570   1.192   3.163
 5062SOL    HW116085   5.516   1.258   3.216
 5062SOL    HW216086   5.582   1.109   3.218
 5063SOL     OW16087   0.759   1.744   0.859
 5063SOL    HW116088   0.832   1.759   0.791
 5063SOL    HW216089   0.798   1.704   0.942
 5064SOL     OW16090   6.199   4.792   0.910
 5064SOL    HW116091   6.265   4.849   0.861
 5064SOL    HW216092   6.107   4.811   0.876
 5065SOL     OW16093   1.959   2.173   2.759
 5065SOL    HW116094   2.051   2.195   2.725
 5065SOL    HW216095   1.941   2.075   2.749
 5066SOL     OW16096   1.267   4.813   4.034
 5066SOL    HW116097   1.257   4.912   4.040
 5066SOL    HW216098   1.232   4.771   4.117
 5067SOL     OW16099   5.046   2.789   0.906
 5067SOL    HW116100   5.129   2.733   0.915
 5067SOL    HW216101   5.058   2.874   0.956
 5068SOL     OW16102   1.566   0.014   1.261
 5068SOL    HW116103   1.524   0.034   1.349
 5068SOL    HW216104   1.664   0.032   1.267
 5069SOL     OW16105   3.923   4.547   5.873
 5069SOL    HW116106   3.853   4.613   5.900
 5069SOL    HW216107   3.896   4.456   5.904
 5070SOL     OW16108   0.019   3.442   6.551
 5070SOL    HW116109   0.067   3.355   6.567
 5070SOL    HW216110   0.085   3.515   6.537
 5071SOL     OW16111   2.044   6.677   2.483
 5071SOL    HW116112   2.132   6.724   2.488
 5071SOL    HW216113   1.974   6.741   2.450
 5072SOL     OW16114   0.877   2.065   2.371
 5072SOL    HW116115   0.778   2.053   2.366
 5072SOL    HW216116   0.905   2.081   2.465
 5073SOL     OW16117   1.786   1.327   3.533
 5073SOL    HW116118   1.734   1.315   3.617
 5073SOL    HW216119   1.792   1.240   3.484
 5074SOL     OW16120   3.623   1.898   1.406
 5074SOL    HW116121   3.703   1.958   1.408
 5074SOL    HW216122   3.607   1.861   1.498
 5075SOL     OW16123   6.490   2.146   0.254
 5075SOL    HW116124   6.456   2.240   0.248
 5075SOL    HW216125   6.498   2.120   0.350
 5076SOL     OW16126   0.207   1.281   5.952
 5076SOL    HW116127   0.285   1.313   5.898
 5076SOL    HW216128   0.122   1.306   5.905
 5077SOL     OW16129   0.267   4.498   4.494
 5077SOL    HW116130   0.255   4.440   4.413
 5077SOL    HW216131   0.242   4.446   4.576
 5078SOL     OW16132   6.067   2.114   2.933
 5078SOL    HW116133   6.147   2.149   2.981
 5078SOL    HW216134   5.984   2.154   2.972
 5079SOL     OW16135   1.407   3.977   5.481
 5079SOL    HW116136   1.429   3.956   5.576
 5079SOL    HW216137   1.463   4.055   5.451
 5080SOL     OW16138   6.559   5.543   6.940
 5080SOL    HW116139   6.524   5.597   7.016
 5080SOL    HW216140   6.497   5.551   6.862
 5081SOL     OW16141   3.159   4.815   5.505
 5081SOL    HW116142   3.221   4.742   5.474
 5081SOL    HW216143   3.086   4.826   5.437
 5082SOL     OW16144   5.912   0.126   2.711
 5082SOL    HW116145   5.948   0.064   2.781
 5082SOL    HW216146   5.932   0.220   2.736
 5083SOL     OW16147   0.855   0.399   3.432
 5083SOL    HW116148   0.833   0.311   3.391
 5083SOL    HW216149   0.900   0.457   3.364
 5084SOL     OW16150   3.176   5.615   5.562
 5084SOL    HW116151   3.179   5.518   5.587
 5084SOL    HW216152   3.222   5.627   5.474
 5085SOL     OW16153   0.188   3.994   5.709
 5085SOL    HW116154   0.284   4.022   5.707
 5085SOL    HW216155   0.172   3.933   5.787
 5086SOL     OW16156   1.351   4.387   2.422
 5086SOL    HW116157   1.432   4.328   2.428
 5086SOL    HW216158   1.336   4.414   2.327
 5087SOL     OW16159   6.779   5.696   1.769
 5087SOL    HW116160   6.696   5.689   1.714
 5087SOL    HW216161   6.846   5.752   1.720
 5088SOL     OW16162   4.516   4.773   1.692
 5088SOL    HW116163   4.424   4.809   1.705
 5088SOL    HW216164   4.537   4.707   1.764
 5089SOL     OW16165   5.080   5.992   5.433
 5089SOL    HW116166   5.177   5.999   5.411
 5089SOL    HW216167   5.063   6.027   5.525
 5090SOL     OW16168   2.219   6.742   4.151
 5090SOL    HW116169   2.174   6.817   4.102
 5090SOL    HW216170   2.192   6.745   4.247
 5091SOL     OW16171   6.078   5.893   6.077
 5091SOL    HW116172   5.988   5.852   6.068
 5091SOL    HW216173   6.148   5.827   6.047
 5092SOL     OW16174   3.464   2.898   4.510
 5092SOL    HW116175   3.417   2.831   4.567
 5092SOL    HW216176   3.433   2.990   4.534
 5093SOL     OW16177   3.417   2.074   3.582
 5093SOL    HW116178   3.365   1.989   3.588
 5093SOL    HW216179   3.445   2.090   3.487
 5094SOL     OW16180   2.123   5.841   5.187
 5094SOL    HW116181   2.151   5.766   5.247
 5094SOL    HW216182   2.083   5.915   5.242
 5095SOL     OW16183   6.088   1.920   3.587
 5095SOL    HW116184   6.097   2.017   3.567
 5095SOL    HW216185   6.029   1.908   3.667
 5096SOL     OW16186   5.710   2.687   6.114
 5096SOL    HW116187   5.747   2.758   6.055
 5096SOL    HW216188   5.642   2.726   6.175
 5097SOL     OW16189   0.842   1.044   5.764
 5097SOL    HW116190   0.746   1.031   5.790
 5097SOL    HW216191   0.864   0.982   5.688
 5098SOL     OW16192   2.845   2.047   1.213
 5098SOL    HW116193   2.849   2.066   1.311
 5098SOL    HW216194   2.757   2.005   1.191
 5099SOL     OW16195   2.428   5.513   2.320
 5099SOL    HW116196   2.394   5.606   2.309
 5099SOL    HW216197   2.470   5.482   2.234
 5100SOL     OW16198   6.080   3.645   1.312
 5100SOL    HW116199   6.010   3.590   1.266
 5100SOL    HW216200   6.039   3.692   1.391
 5101SOL     OW16201   3.662   1.553   5.340
 5101SOL    HW116202   3.740   1.525   5.395
 5101SOL    HW216203   3.583   1.495   5.361
 5102SOL     OW16204   5.520   4.297   5.447
 5102SOL    HW116205   5.446   4.259   5.393
 5102SOL    HW216206   5.569   4.366   5.394
 5103SOL     OW16207   0.612   0.283   5.755
 5103SOL    HW116208   0.593   0.224   5.834
 5103SOL    HW216209   0.710   0.279   5.733
 5104SOL     OW16210   4.142   3.325   3.668
 5104SOL    HW116211   4.084   3.302   3.747
 5104SOL    HW216212   4.154   3.424   3.663
 5105SOL     OW16213   4.329   3.291   6.853
 5105SOL    HW116214   4.403   3.264   6.914
 5105SOL    HW216215   4.244   3.302   6.905
 5106SOL     OW16216   4.126   1.246   1.592
 5106SOL    HW116217   4.153   1.284   1.680
 5106SOL    HW216218   4.052   1.301   1.553
 5107SOL     OW16219   6.485   4.846   6.797
 5107SOL    HW116220   6.537   4.783   6.739
 5107SOL    HW216221   6.426   4.903   6.739
 5108SOL     OW16222   3.794   4.309   1.049
 5108SOL    HW116223   3.891   4.287   1.042
 5108SOL    HW216224   3.773   4.341   1.141
 5109SOL     OW16225   2.296   2.570   2.213
 5109SOL    HW116226   2.200   2.555   2.237
 5109SOL    HW216227   2.303   2.652   2.155
 5110SOL     OW16228   3.606   6.461   4.309
 5110SOL    HW116229   3.580   6.427   4.400
 5110SOL    HW216230   3.532   6.518   4.273
 5111SOL     OW16231   1.947   5.522   5.899
 5111SOL    HW116232   1.956   5.621   5.905
 5111SOL    HW216233   1.941   5.494   5.803
 5112SOL     OW16234   1.093   4.359   2.501
 5112SOL    HW116235   1.192   4.362   2.486
 5112SOL    HW216236   1.046   4.404   2.425
 5113SOL     OW16237   2.681   4.120   0.957
 5113SOL    HW116238   2.632   4.065   1.025
 5113SOL    HW216239   2.643   4.103   0.866
 5114SOL     OW16240   4.778   4.815   1.540
 5114SOL    HW116241   4.698   4.775   1.584
 5114SOL    HW216242   4.840   4.852   1.609
 5115SOL     OW16243   1.346   4.433   0.397
 5115SOL    HW116244   1.353   4.438   0.497
 5115SOL    HW216245   1.392   4.512   0.357
 5116SOL     OW16246   0.293   6.728   5.904
 5116SOL    HW116247   0.198   6.741   5.933
 5116SOL    HW216248   0.301   6.749   5.807
 5117SOL     OW16249   6.834   3.584   3.717
 5117SOL    HW116250   6.867   3.658   3.658
 5117SOL    HW216251   6.909   3.550   3.774
 5118SOL     OW16252   4.280   4.943   0.164
 5118SOL    HW116253   4.238   4.982   0.247
 5118SOL    HW216254   4.347   4.874   0.191
 5119SOL     OW16255   5.037   1.525   0.884
 5119SOL    HW116256   5.045   1.589   0.960
 5119SOL    HW216257   5.099   1.448   0.899
 5120SOL     OW16258   6.019   6.531   6.168
 5120SOL    HW116259   5.960   6.453   6.188
 5120SOL    HW216260   5.977   6.615   6.202
 5121SOL     OW16261   1.434   3.546   0.405
 5121SOL    HW116262   1.361   3.611   0.427
 5121SOL    HW216263   1.488   3.528   0.487
 5122SOL     OW16264   4.906   5.047   3.588
 5122SOL    HW116265   4.897   5.123   3.523
 5122SOL    HW216266   4.857   4.967   3.552
 5123SOL     OW16267   5.389   2.458   1.648
 5123SOL    HW116268   5.451   2.524   1.691
 5123SOL    HW216269   5.438   2.407   1.578
 5124SOL     OW16270   0.128   5.515   4.371
 5124SOL    HW116271   0.133   5.430   4.424
 5124SOL    HW216272   0.201   5.577   4.399
 5125SOL     OW16273   5.910   2.279   3.902
 5125SOL    HW116274   5.873   2.243   3.817
 5125SOL    HW216275   5.848   2.259   3.978
 5126SOL     OW16276   1.883   1.249   1.855
 5126SOL    HW116277   1.871   1.317   1.782
 5126SOL    HW216278   1.946   1.178   1.825
 5127SOL     OW16279   1.749   6.747   0.115
 5127SOL    HW116280   1.803   6.806   0.174
 5127SOL    HW216281   1.657   6.736   0.154
 5128SOL     OW16282   4.620   0.102   1.460
 5128SOL    HW116283   4.588   0.011   1.488
 5128SOL    HW216284   4.714   0.096   1.428
 5129SOL     OW16285   6.400   5.620   0.152
 5129SOL    HW116286   6.301   5.607   0.152
 5129SOL    HW216287   6.438   5.588   0.239
 5130SOL     OW16288   6.156   5.311   1.978
 5130SOL    HW116289   6.221   5.375   1.937
 5130SOL    HW216290   6.098   5.360   2.043
 5131SOL     OW16291   2.760   2.336   2.331
 5131SOL    HW116292   2.803   2.327   2.241
 5131SOL    HW216293   2.661   2.349   2.319
 5132SOL     OW16294   2.172   6.411   5.646
 5132SOL    HW116295   2.076   6.412   5.620
 5132SOL    HW216296   2.228   6.443   5.569
 5133SOL     OW16297   3.784   6.781   4.889
 5133SOL    HW116298   3.699   6.756   4.936
 5133SOL    HW216299   3.832   6.698   4.862
 5134SOL     OW16300   0.545   3.159   6.312
 5134SOL    HW116301   0.447   3.178   6.317
 5134SOL    HW216302   0.577   3.132   6.403
 5135SOL     OW16303   6.633   1.810   4.262
 5135SOL    HW116304   6.704   1.872   4.229
 5135SOL    HW216305   6.668   1.716   4.262
 5136SOL     OW16306   3.592   2.020   6.192
 5136SOL    HW116307   3.601   1.928   6.153
 5136SOL    HW216308   3.590   2.087   6.118
 5137SOL     OW16309   3.837   3.275   6.929
 5137SOL    HW116310   3.774   3.228   6.867
 5137SOL    HW216311   3.785   3.332   6.993
 5138SOL     OW16312   2.226   3.088   6.103
 5138SOL    HW116313   2.161   3.079   6.178
 5138SOL    HW216314   2.184   3.139   6.028
 5139SOL     OW16315   0.497   6.852   3.960
 5139SOL    HW116316   0.484   6.919   3.886
 5139SOL    HW216317   0.513   6.761   3.920
 5140SOL     OW16318   3.135   3.429   1.756
 5140SOL    HW116319   3.167   3.417   1.662
 5140SOL    HW216320   3.108   3.340   1.793
 5141SOL     OW16321   1.047   3.470   5.496
 5141SOL    HW116322   1.052   3.537   5.571
 5141SOL    HW216323   1.040   3.519   5.409
 5142SOL     OW16324   5.531   3.478   1.839
 5142SOL    HW116325   5.550   3.387   1.878
 5142SOL    HW216326   5.439   3.478   1.799
 5143SOL     OW16327   6.873   5.018   5.915
 5143SOL    HW116328   6.776   4.995   5.913
 5143SOL    HW216329   6.889   5.093   5.979
 5144SOL     OW16330   1.933   1.714   5.085
 5144SOL    HW116331   1.878   1.632   5.073
 5144SOL    HW216332   1.983   1.708   5.171
 5145SOL     OW16333   3.914   5.547   5.921
 5145SOL    HW116334   3.965   5.467   5.890
 5145SOL    HW216335   3.868   5.525   6.008
 5146SOL     OW16336   3.616   5.008   1.077
 5146SOL    HW116337   3.616   5.019   0.978
 5146SOL    HW216338   3.602   4.911   1.100
 5147SOL     OW16339   0.256   5.093   6.543
 5147SOL    HW116340   0.290   5.046   6.624
 5147SOL    HW216341   0.322   5.163   6.516
 5148SOL     OW16342   0.159   0.890   1.383
 5148SOL    HW116343   0.224   0.916   1.312
 5148SOL    HW216344   0.205   0.889   1.472
 5149SOL     OW16345   6.756   0.478   5.718
 5149SOL    HW116346   6.793   0.564   5.752
 5149SOL    HW216347   6.674   0.496   5.664
 5150SOL     OW16348   2.479   5.883   5.394
 5150SOL    HW116349   2.454   5.828   5.474
 5150SOL    HW216350   2.418   5.962   5.388
 5151SOL     OW16351   4.308   0.415   5.592
 5151SOL    HW116352   4.297   0.508   5.555
 5151SOL    HW216353   4.339   0.421   5.687
 5152SOL     OW16354   6.755   4.929   6.808
 5152SOL    HW116355   6.781   4.910   6.713
 5152SOL    HW216356   6.657   4.913   6.819
 5153SOL     OW16357   1.978   2.525   0.769
 5153SOL    HW116358   1.902   2.532   0.705
 5153SOL    HW216359   2.042   2.601   0.752
 5154SOL     OW16360   1.575   4.645   5.025
 5154SOL    HW116361   1.490   4.646   5.078
 5154SOL    HW216362   1.556   4.672   4.931
 5155SOL     OW16363   4.336   0.608   2.445
 5155SOL    HW116364   4.241   0.578   2.456
 5155SOL    HW216365   4.383   0.549   2.380
 5156SOL     OW16366   5.197   3.440   6.333
 5156SOL    HW116367   5.280   3.445   6.277
 5156SOL    HW216368   5.116   3.451   6.276
 5157SOL     OW16369   6.208   2.192   3.972
 5157SOL    HW116370   6.164   2.186   4.062
 5157SOL    HW216371   6.139   2.216   3.903
 5158SOL     OW16372   3.675   0.614   1.426
 5158SOL    HW116373   3.596   0.587   1.482
 5158SOL    HW216374   3.644   0.629   1.332
 5159SOL     OW16375   2.154   3.366   4.783
 5159SOL    HW116376   2.105   3.429   4.844
 5159SOL    HW216377   2.210   3.304   4.838
 5160SOL     OW16378   2.595   2.436   3.985
 5160SOL    HW116379   2.596   2.387   3.898
 5160SOL    HW216380   2.651   2.387   4.052
 5161SOL     OW16381   2.118   3.249   6.953
 5161SOL    HW116382   2.059   3.244   0.008
 5161SOL    HW216383   2.066   3.283   6.874
 5162SOL     OW16384   6.688   5.564   4.730
 5162SOL    HW116385   6.664   5.540   4.636
 5162SOL    HW216386   6.638   5.505   4.794
 5163SOL     OW16387   5.722   4.166   0.443
 5163SOL    HW116388   5.633   4.169   0.396
 5163SOL    HW216389   5.713   4.204   0.534
 5164SOL     OW16390   6.612   6.158   4.790
 5164SOL    HW116391   6.553   6.106   4.852
 5164SOL    HW216392   6.637   6.245   4.833
 5165SOL     OW16393   5.516   3.922   5.264
 5165SOL    HW116394   5.611   3.943   5.291
 5165SOL    HW216395   5.482   3.995   5.205
 5166SOL     OW16396   0.772   6.809   2.735
 5166SOL    HW116397   0.782   6.886   2.672
 5166SOL    HW216398   0.783   6.723   2.685
 5167SOL     OW16399   1.833   0.249   5.099
 5167SOL    HW116400   1.797   0.166   5.058
 5167SOL    HW216401   1.895   0.225   5.174
 5168SOL     OW16402   3.508   2.017   2.179
 5168SOL    HW116403   3.411   2.016   2.155
 5168SOL    HW216404   3.553   2.093   2.131
 5169SOL     OW16405   3.785   5.302   6.368
 5169SOL    HW116406   3.849   5.259   6.432
 5169SOL    HW216407   3.780   5.400   6.386
 5170SOL     OW16408   4.257   5.330   4.242
 5170SOL    HW116409   4.265   5.233   4.222
 5170SOL    HW216410   4.321   5.355   4.314
 5171SOL     OW16411   2.597   4.730   5.093
 5171SOL    HW116412   2.571   4.722   5.189
 5171SOL    HW216413   2.689   4.693   5.081
 5172SOL     OW16414   1.949   4.167   6.374
 5172SOL    HW116415   1.944   4.111   6.456
 5172SOL    HW216416   1.863   4.216   6.361
 5173SOL     OW16417   0.100   2.673   4.428
 5173SOL    HW116418   0.052   2.588   4.410
 5173SOL    HW216419   0.105   2.689   4.527
 5174SOL     OW16420   2.913   4.867   6.927
 5174SOL    HW116421   2.876   4.834   7.013
 5174SOL    HW216422   2.847   4.927   6.882
 5175SOL     OW16423   0.064   5.273   6.493
 5175SOL    HW116424   6.999   5.228   6.486
 5175SOL    HW216425   0.135   5.203   6.508
 5176SOL     OW16426   5.482   3.609   6.269
 5176SOL    HW116427   5.456   3.680   6.335
 5176SOL    HW216428   5.475   3.646   6.177
 5177SOL     OW16429   5.115   4.776   5.930
 5177SOL    HW116430   5.023   4.740   5.913
 5177SOL    HW216431   5.121   4.811   6.023
 5178SOL     OW16432   3.465   4.279   0.444
 5178SOL    HW116433   3.464   4.351   0.375
 5178SOL    HW216434   3.414   4.309   0.524
 5179SOL     OW16435   3.342   6.511   5.273
 5179SOL    HW116436   3.430   6.497   5.318
 5179SOL    HW216437   3.269   6.507   5.341
 5180SOL     OW16438   4.927   1.515   0.145
 5180SOL    HW116439   4.832   1.487   0.128
 5180SOL    HW216440   4.929   1.613   0.163
 5181SOL     OW16441   2.857   6.047   2.165
 5181SOL    HW116442   2.782   6.058   2.230
 5181SOL    HW216443   2.942   6.030   2.215
 5182SOL     OW16444   4.658   4.205   0.968
 5182SOL    HW116445   4.598   4.195   1.048
 5182SOL    HW216446   4.610   4.257   0.897
 5183SOL     OW16447   3.484   0.539   3.703
 5183SOL    HW116448   3.584   0.541   3.700
 5183SOL    HW216449   3.453   0.561   3.795
 5184SOL     OW16450   0.660   2.560   3.131
 5184SOL    HW116451   0.641   2.521   3.041
 5184SOL    HW216452   0.720   2.499   3.182
 5185SOL     OW16453   3.911   0.109   1.728
 5185SOL    HW116454   3.962   0.159   1.658
 5185SOL    HW216455   3.879   0.174   1.798
 5186SOL     OW16456   5.562   4.181   6.820
 5186SOL    HW116457   5.542   4.224   6.732
 5186SOL    HW216458   5.650   4.215   6.855
 5187SOL     OW16459   4.923   3.320   4.307
 5187SOL    HW116460   4.946   3.318   4.404
 5187SOL    HW216461   4.942   3.411   4.270
 5188SOL     OW16462   0.203   0.971   3.562
 5188SOL    HW116463   0.289   0.934   3.595
 5188SOL    HW216464   0.218   1.063   3.526
 5189SOL     OW16465   4.714   5.256   5.993
 5189SOL    HW116466   4.697   5.281   5.897
 5189SOL    HW216467   4.784   5.185   5.998
 5190SOL     OW16468   2.514   2.368   2.223
 5190SOL    HW116469   2.583   2.371   2.150
 5190SOL    HW216470   2.441   2.432   2.202
 5191SOL     OW16471   5.002   0.435   1.970
 5191SOL    HW116472   4.924   0.477   1.922
 5191SOL    HW216473   4.970   0.360   2.027
 5192SOL     OW16474   6.306   4.279   1.158
 5192SOL    HW116475   6.389   4.307   1.206
 5192SOL    HW216476   6.226   4.306   1.212
 5193SOL     OW16477   4.126   4.771   2.581
 5193SOL    HW116478   4.143   4.731   2.492
 5193SOL    HW216479   4.031   4.801   2.587
 5194SOL     OW16480   5.155   1.016   0.605
 5194SOL    HW116481   5.110   0.955   0.540
 5194SOL    HW216482   5.187   0.963   0.684
 5195SOL     OW16483   0.289   5.721   5.105
 5195SOL    HW116484   0.208   5.702   5.160
 5195SOL    HW216485   0.365   5.749   5.164
 5196SOL     OW16486   0.480   3.743   3.719
 5196SOL    HW116487   0.434   3.654   3.725
 5196SOL    HW216488   0.415   3.812   3.686
 5197SOL     OW16489   3.876   5.891   5.102
 5197SOL    HW116490   3.824   5.974   5.082
 5197SOL    HW216491   3.859   5.862   5.196
 5198SOL     OW16492   4.351   1.094   5.556
 5198SOL    HW116493   4.369   1.191   5.541
 5198SOL    HW216494   4.253   1.081   5.572
 5199SOL     OW16495   0.631   6.079   2.027
 5199SOL    HW116496   0.700   6.133   1.979
 5199SOL    HW216497   0.674   5.997   2.064
 5200SOL     OW16498   6.050   6.586   5.382
 5200SOL    HW116499   5.977   6.648   5.352
 5200SOL    HW216500   6.015   6.528   5.456
 5201SOL     OW16501   6.682   3.964   5.375
 5201SOL    HW116502   6.597   3.925   5.409
 5201SOL    HW216503   6.736   3.999   5.451
 5202SOL     OW16504   3.906   2.069   5.993
 5202SOL    HW116505   3.810   2.054   5.970
 5202SOL    HW216506   3.920   2.055   6.091
 5203SOL     OW16507   0.902   0.534   6.280
 5203SOL    HW116508   0.808   0.537   6.313
 5203SOL    HW216509   0.937   0.627   6.270
 5204SOL     OW16510   1.955   0.563   1.879
 5204SOL    HW116511   1.944   0.650   1.926
 5204SOL    HW216512   2.028   0.571   1.811
 5205SOL     OW16513   6.671   0.077   2.298
 5205SOL    HW116514   6.711   0.143   2.235
 5205SOL    HW216515   6.744   0.035   2.352
 5206SOL     OW16516   1.075   5.008   4.969
 5206SOL    HW116517   1.139   5.041   4.899
 5206SOL    HW216518   1.125   4.992   5.054
 5207SOL     OW16519   4.527   0.820   5.110
 5207SOL    HW116520   4.508   0.888   5.181
 5207SOL    HW216521   4.480   0.735   5.133
 5208SOL     OW16522   6.680   1.476   0.283
 5208SOL    HW116523   6.603   1.490   0.222
 5208SOL    HW216524   6.665   1.525   0.369
 5209SOL     OW16525   4.890   6.417   2.281
 5209SOL    HW116526   4.969   6.478   2.284
 5209SOL    HW216527   4.901   6.352   2.205
 5210SOL     OW16528   6.065   4.226   1.538
 5210SOL    HW116529   6.066   4.259   1.444
 5210SOL    HW216530   5.971   4.219   1.570
 5211SOL     OW16531   5.213   3.099   4.949
 5211SOL    HW116532   5.309   3.073   4.964
 5211SOL    HW216533   5.207   3.160   4.870
 5212SOL     OW16534   6.475   3.576   6.997
 5212SOL    HW116535   6.412   3.629   0.030
 5212SOL    HW216536   6.502   3.493   0.021
 5213SOL     OW16537   3.410   3.228   3.767
 5213SOL    HW116538   3.502   3.262   3.750
 5213SOL    HW216539   3.369   3.198   3.680
 5214SOL     OW16540   5.310   3.208   6.266
 5214SOL    HW116541   5.227   3.241   6.310
 5214SOL    HW216542   5.292   3.192   6.169
 5215SOL     OW16543   0.217   4.999   5.000
 5215SOL    HW116544   0.299   5.012   4.944
 5215SOL    HW216545   0.199   5.082   5.053
 5216SOL     OW16546   6.573   4.456   0.748
 5216SOL    HW116547   6.624   4.519   0.807
 5216SOL    HW216548   6.634   4.383   0.718
 5217SOL     OW16549   3.398   7.011   2.517
 5217SOL    HW116550   3.494   0.007   2.495
 5217SOL    HW216551   3.385   7.017   2.616
 5218SOL     OW16552   6.408   0.256   0.786
 5218SOL    HW116553   6.405   0.175   0.844
 5218SOL    HW216554   6.408   0.228   0.690
 5219SOL     OW16555   4.569   1.802   4.787
 5219SOL    HW116556   4.660   1.837   4.764
 5219SOL    HW216557   4.514   1.876   4.825
 5220SOL     OW16558   1.766   4.539   4.244
 5220SOL    HW116559   1.728   4.525   4.335
 5220SOL    HW216560   1.779   4.450   4.200
 5221SOL     OW16561   4.625   6.043   0.987
 5221SOL    HW116562   4.585   6.120   1.036
 5221SOL    HW216563   4.719   6.028   1.018
 5222SOL     OW16564   6.342   3.057   2.521
 5222SOL    HW116565   6.390   3.131   2.473
 5222SOL    HW216566   6.292   3.001   2.454
 5223SOL     OW16567   0.284   2.260   0.851
 5223SOL    HW116568   0.207   2.231   0.794
 5223SOL    HW216569   0.252   2.330   0.915
 5224SOL     OW16570   1.627   1.228   4.186
 5224SOL    HW116571   1.667   1.227   4.094
 5224SOL    HW216572   1.531   1.256   4.180
 5225SOL     OW16573   0.139   2.375   6.105
 5225SOL    HW116574   0.209   2.337   6.165
 5225SOL    HW216575   0.064   2.310   6.096
 5226SOL     OW16576   6.898   0.077   4.040
 5226SOL    HW116577   6.834   0.154   4.045
 5226SOL    HW216578   6.967   0.086   4.112
 5227SOL     OW16579   1.861   2.686   6.348
 5227SOL    HW116580   1.903   2.725   6.266
 5227SOL    HW216581   1.928   2.627   6.394
 5228SOL     OW16582   0.966   2.052   5.215
 5228SOL    HW116583   0.942   1.958   5.241
 5228SOL    HW216584   1.041   2.050   5.149
 5229SOL     OW16585   3.982   1.460   6.903
 5229SOL    HW116586   4.037   1.484   6.982
 5229SOL    HW216587   3.903   1.521   6.897
 5230SOL     OW16588   6.765   0.265   2.120
 5230SOL    HW116589   6.779   0.359   2.090
 5230SOL    HW216590   6.728   0.211   2.045
 5231SOL     OW16591   6.159   3.591   1.689
 5231SOL    HW116592   6.238   3.642   1.722
 5231SOL    HW216593   6.103   3.562   1.766
 5232SOL     OW16594   1.768   1.616   6.054
 5232SOL    HW116595   1.694   1.552   6.033
 5232SOL    HW216596   1.730   1.705   6.078
 5233SOL     OW16597   2.561   0.019   3.471
 5233SOL    HW116598   2.653   0.050   3.493
 5233SOL    HW216599   2.510   0.002   3.555
 5234SOL     OW16600   3.211   2.185   6.427
 5234SOL    HW116601   3.277   2.237   6.373
 5234SOL    HW216602   3.173   2.244   6.499
 5235SOL     OW16603   2.232   2.901   1.384
 5235SOL    HW116604   2.172   2.824   1.361
 5235SOL    HW216605   2.256   2.951   1.301
 5236SOL     OW16606   3.008   4.945   2.285
 5236SOL    HW116607   3.049   4.963   2.195
 5236SOL    HW216608   2.963   4.856   2.284
 5237SOL     OW16609   1.653   1.773   1.733
 5237SOL    HW116610   1.745   1.789   1.696
 5237SOL    HW216611   1.585   1.812   1.672
 5238SOL     OW16612   5.857   0.730   3.252
 5238SOL    HW116613   5.933   0.713   3.190
 5238SOL    HW216614   5.890   0.773   3.336
 5239SOL     OW16615   2.711   3.825   0.113
 5239SOL    HW116616   2.772   3.793   0.041
 5239SOL    HW216617   2.752   3.903   0.160
 5240SOL     OW16618   1.796   4.110   5.434
 5240SOL    HW116619   1.884   4.137   5.472
 5240SOL    HW216620   1.780   4.012   5.450
 5241SOL     OW16621   2.164   5.551   3.526
 5241SOL    HW116622   2.134   5.533   3.619
 5241SOL    HW216623   2.090   5.596   3.476
 5242SOL     OW16624   3.873   6.171   5.510
 5242SOL    HW116625   3.846   6.179   5.606
 5242SOL    HW216626   3.968   6.199   5.499
 5243SOL     OW16627   1.993   5.827   3.797
 5243SOL    HW116628   2.085   5.823   3.834
 5243SOL    HW216629   1.932   5.768   3.850
 5244SOL     OW16630   5.479   0.727   6.063
 5244SOL    HW116631   5.387   0.709   6.097
 5244SOL    HW216632   5.519   0.803   6.114
 5245SOL     OW16633   3.378   4.004   2.139
 5245SOL    HW116634   3.281   3.981   2.147
 5245SOL    HW216635   3.405   4.000   2.043
 5246SOL     OW16636   6.124   2.932   5.688
 5246SOL    HW116637   6.062   2.868   5.734
 5246SOL    HW216638   6.218   2.902   5.702
 5247SOL     OW16639   4.732   1.008   5.720
 5247SOL    HW116640   4.753   1.061   5.637
 5247SOL    HW216641   4.635   1.019   5.743
 5248SOL     OW16642   4.475   1.420   2.562
 5248SOL    HW116643   4.385   1.378   2.574
 5248SOL    HW216644   4.489   1.488   2.633
 5249SOL     OW16645   0.281   5.715   1.902
 5249SOL    HW116646   0.359   5.778   1.900
 5249SOL    HW216647   0.298   5.643   1.969
 5250SOL     OW16648   1.599   4.899   0.498
 5250SOL    HW116649   1.603   4.876   0.401
 5250SOL    HW216650   1.691   4.899   0.537
 5251SOL     OW16651   0.943   4.841   6.625
 5251SOL    HW116652   0.999   4.899   6.683
 5251SOL    HW216653   0.990   4.754   6.607
 5252SOL     OW16654   4.076   6.251   2.968
 5252SOL    HW116655   4.079   6.165   3.018
 5252SOL    HW216656   4.144   6.313   3.005
 5253SOL     OW16657   0.129   5.839   4.673
 5253SOL    HW116658   0.193   5.766   4.651
 5253SOL    HW216659   0.042   5.799   4.704
 5254SOL     OW16660   4.614   6.041   1.835
 5254SOL    HW116661   4.704   6.024   1.795
 5254SOL    HW216662   4.589   5.964   1.894
 5255SOL     OW16663   0.669   1.507   6.255
 5255SOL    HW116664   0.761   1.493   6.220
 5255SOL    HW216665   0.652   1.443   6.330
 5256SOL     OW16666   4.327   2.351   2.663
 5256SOL    HW116667   4.307   2.339   2.760
 5256SOL    HW216668   4.255   2.309   2.608
 5257SOL     OW16669   5.575   1.530   0.299
 5257SOL    HW116670   5.480   1.503   0.282
 5257SOL    HW216671   5.612   1.574   0.218
 5258SOL     OW16672   5.564   1.714   5.413
 5258SOL    HW116673   5.589   1.809   5.392
 5258SOL    HW216674   5.571   1.699   5.512
 5259SOL     OW16675   4.774   6.053   4.530
 5259SOL    HW116676   4.769   6.141   4.483
 5259SOL    HW216677   4.718   5.986   4.482
 5260SOL     OW16678   1.747   6.438   1.614
 5260SOL    HW116679   1.795   6.365   1.662
 5260SOL    HW216680   1.703   6.499   1.680
 5261SOL     OW16681   6.071   5.086   0.150
 5261SOL    HW116682   6.041   4.991   0.137
 5261SOL    HW216683   6.085   5.103   0.247
 5262SOL     OW16684   2.333   2.099   1.450
 5262SOL    HW116685   2.385   2.172   1.406
 5262SOL    HW216686   2.388   2.015   1.450
 5263SOL     OW16687   0.874   6.034   2.760
 5263SOL    HW116688   0.835   6.107   2.703
 5263SOL    HW216689   0.924   5.969   2.702
 5264SOL     OW16690   6.572   2.120   2.323
 5264SOL    HW116691   6.473   2.134   2.317
 5264SOL    HW216692   6.614   2.201   2.365
 5265SOL     OW16693   0.732   5.375   5.863
 5265SOL    HW116694   0.643   5.375   5.819
 5265SOL    HW216695   0.759   5.470   5.883
 5266SOL     OW16696   1.327   0.222   6.293
 5266SOL    HW116697   1.348   0.134   6.252
 5266SOL    HW216698   1.408   0.281   6.288
 5267SOL     OW16699   6.467   0.758   4.977
 5267SOL    HW116700   6.469   0.741   5.076
 5267SOL    HW216701   6.478   0.856   4.960
 5268SOL     OW16702   6.051   0.294   5.946
 5268SOL    HW116703   6.031   0.217   6.007
 5268SOL    HW216704   6.013   0.377   5.985
 5269SOL     OW16705   1.083   0.533   4.275
 5269SOL    HW116706   1.084   0.499   4.369
 5269SOL    HW216707   1.050   0.627   4.274
 5270SOL     OW16708   1.209   1.419   0.189
 5270SOL    HW116709   1.167   1.445   0.276
 5270SOL    HW216710   1.301   1.456   0.184
 5271SOL     OW16711   1.338   5.861   6.131
 5271SOL    HW116712   1.404   5.785   6.126
 5271SOL    HW216713   1.248   5.825   6.156
 5272SOL     OW16714   4.256   0.251   6.211
 5272SOL    HW116715   4.222   0.162   6.243
 5272SOL    HW216716   4.183   0.318   6.215
 5273SOL     OW16717   2.198   1.470   3.234
 5273SOL    HW116718   2.231   1.470   3.329
 5273SOL    HW216719   2.259   1.415   3.178
 5274SOL     OW16720   5.853   4.145   1.259
 5274SOL    HW116721   5.949   4.119   1.268
 5274SOL    HW216722   5.839   4.192   1.172
 5275SOL     OW16723   5.992   0.836   6.292
 5275SOL    HW116724   6.042   0.757   6.258
 5275SOL    HW216725   5.962   0.819   6.386
 5276SOL     OW16726   3.842   6.630   1.411
 5276SOL    HW116727   3.845   6.595   1.318
 5276SOL    HW216728   3.924   6.601   1.461
 5277SOL     OW16729   1.781   3.737   1.750
 5277SOL    HW116730   1.799   3.835   1.747
 5277SOL    HW216731   1.776   3.701   1.657
 5278SOL     OW16732   4.045   3.659   3.174
 5278SOL    HW116733   4.107   3.657   3.095
 5278SOL    HW216734   4.010   3.751   3.187
 5279SOL     OW16735   1.426   6.417   3.006
 5279SOL    HW116736   1.413   6.504   2.959
 5279SOL    HW216737   1.348   6.357   2.989
 5280SOL     OW16738   3.903   0.388   3.850
 5280SOL    HW116739   3.887   0.420   3.943
 5280SOL    HW216740   3.932   0.293   3.851
 5281SOL     OW16741   6.485   2.850   3.751
 5281SOL    HW116742   6.417   2.873   3.682
 5281SOL    HW216743   6.456   2.885   3.840
 5282SOL     OW16744   5.189   2.641   1.086
 5282SOL    HW116745   5.279   2.605   1.112
 5282SOL    HW216746   5.148   2.686   1.165
 5283SOL     OW16747   4.725   5.010   5.387
 5283SOL    HW116748   4.729   4.954   5.469
 5283SOL    HW216749   4.630   5.030   5.364
 5284SOL     OW16750   5.041   2.680   4.469
 5284SOL    HW116751   5.063   2.767   4.513
 5284SOL    HW216752   4.950   2.686   4.429
 5285SOL     OW16753   4.474   6.012   2.575
 5285SOL    HW116754   4.376   5.993   2.562
 5285SOL    HW216755   4.502   6.085   2.513
 5286SOL     OW16756   1.856   4.779   2.418
 5286SOL    HW116757   1.934   4.718   2.427
 5286SOL    HW216758   1.867   4.857   2.480
 5287SOL     OW16759   0.919   0.720   2.372
 5287SOL    HW116760   0.894   0.655   2.443
 5287SOL    HW216761   1.010   0.699   2.337
 5288SOL     OW16762   3.901   0.521   1.049
 5288SOL    HW116763   3.981   0.475   1.089
 5288SOL    HW216764   3.929   0.608   1.008
 5289SOL     OW16765   1.944   6.517   1.446
 5289SOL    HW116766   2.027   6.510   1.503
 5289SOL    HW216767   1.865   6.491   1.501
 5290SOL     OW16768   5.980   6.539   6.545
 5290SOL    HW116769   5.896   6.486   6.557
 5290SOL    HW216770   5.978   6.586   6.456
 5291SOL     OW16771   0.626   5.755   0.153
 5291SOL    HW116772   0.591   5.739   0.060
 5291SOL    HW216773   0.571   5.827   0.197
 5292SOL     OW16774   5.646   1.749   1.578
 5292SOL    HW116775   5.667   1.724   1.672
 5292SOL    HW216776   5.662   1.670   1.518
 5293SOL     OW16777   1.915   1.284   3.920
 5293SOL    HW116778   1.934   1.221   3.995
 5293SOL    HW216779   1.991   1.349   3.911
 5294SOL     OW16780   3.428   1.833   6.676
 5294SOL    HW116781   3.441   1.931   6.659
 5294SOL    HW216782   3.352   1.799   6.621
 5295SOL     OW16783   6.963   1.846   3.182
 5295SOL    HW116784   6.981   1.944   3.187
 5295SOL    HW216785   6.993   1.802   3.267
 5296SOL     OW16786   0.586   3.002   6.560
 5296SOL    HW116787   0.649   3.075   6.586
 5296SOL    HW216788   0.621   2.914   6.593
 5297SOL     OW16789   1.036   2.109   1.797
 5297SOL    HW116790   0.940   2.101   1.823
 5297SOL    HW216791   1.066   2.203   1.809
 5298SOL     OW16792   1.383   4.151   1.881
 5298SOL    HW116793   1.432   4.090   1.943
 5298SOL    HW216794   1.442   4.229   1.859
 5299SOL     OW16795   4.157   0.027   7.024
 5299SOL    HW116796   4.078   0.075   6.985
 5299SOL    HW216797   4.126   6.982   0.064
 5300SOL     OW16798   6.563   5.015   4.291
 5300SOL    HW116799   6.500   5.088   4.264
 5300SOL    HW216800   6.593   5.029   4.386
 5301SOL     OW16801   5.585   0.068   6.791
 5301SOL    HW116802   5.660   0.124   6.825
 5301SOL    HW216803   5.530   0.035   6.868
 5302SOL     OW16804   6.820   4.156   3.025
 5302SOL    HW116805   6.816   4.082   3.092
 5302SOL    HW216806   6.733   4.162   2.977
 5303SOL     OW16807   2.283   4.828   2.804
 5303SOL    HW116808   2.243   4.919   2.803
 5303SOL    HW216809   2.312   4.805   2.896
 5304SOL     OW16810   4.636   1.631   5.978
 5304SOL    HW116811   4.704   1.577   5.928
 5304SOL    HW216812   4.597   1.700   5.918
 5305SOL     OW16813   3.851   1.875   5.144
 5305SOL    HW116814   3.929   1.935   5.159
 5305SOL    HW216815   3.774   1.904   5.201
 5306SOL     OW16816   2.382   6.779   2.892
 5306SOL    HW116817   2.452   6.730   2.841
 5306SOL    HW216818   2.303   6.719   2.906
 5307SOL     OW16819   5.197   6.352   6.539
 5307SOL    HW116820   5.215   6.287   6.466
 5307SOL    HW216821   5.234   6.442   6.514
 5308SOL     OW16822   0.145   1.382   1.618
 5308SOL    HW116823   0.240   1.397   1.589
 5308SOL    HW216824   0.140   1.387   1.717
 5309SOL     OW16825   3.685   3.735   5.795
 5309SOL    HW116826   3.719   3.652   5.751
 5309SOL    HW216827   3.602   3.766   5.748
 5310SOL     OW16828   4.878   2.759   0.460
 5310SOL    HW116829   4.924   2.680   0.418
 5310SOL    HW216830   4.867   2.742   0.558
 5311SOL     OW16831   0.237   6.022   0.313
 5311SOL    HW116832   0.256   6.095   0.379
 5311SOL    HW216833   0.138   6.014   0.300
 5312SOL     OW16834   0.093   4.021   1.923
 5312SOL    HW116835   0.134   3.930   1.932
 5312SOL    HW216836   0.010   4.014   1.867
 5313SOL     OW16837   0.277   6.305   6.660
 5313SOL    HW116838   0.203   6.275   6.600
 5313SOL    HW216839   0.320   6.387   6.621
 5314SOL     OW16840   3.702   4.934   0.577
 5314SOL    HW116841   3.678   4.996   0.652
 5314SOL    HW216842   3.725   4.844   0.613
 5315SOL     OW16843   5.558   1.550   2.436
 5315SOL    HW116844   5.464   1.553   2.470
 5315SOL    HW216845   5.558   1.559   2.336
 5316SOL     OW16846   5.525   4.961   4.912
 5316SOL    HW116847   5.493   4.881   4.962
 5316SOL    HW216848   5.552   5.032   4.978
 5317SOL     OW16849   6.778   5.134   1.744
 5317SOL    HW116850   6.795   5.219   1.695
 5317SOL    HW216851   6.698   5.088   1.706
 5318SOL     OW16852   6.548   2.623   3.917
 5318SOL    HW116853   6.546   2.532   3.875
 5318SOL    HW216854   6.526   2.692   3.849
 5319SOL     OW16855   3.286   6.514   2.741
 5319SOL    HW116856   3.237   6.479   2.660
 5319SOL    HW216857   3.355   6.580   2.712
 5320SOL     OW16858   6.312   1.995   0.121
 5320SOL    HW116859   6.374   2.043   0.182
 5320SOL    HW216860   6.361   1.922   0.074
 5321SOL     OW16861   3.149   4.523   0.071
 5321SOL    HW116862   3.145   4.601   0.134
 5321SOL    HW216863   3.115   4.551   7.006
 5322SOL     OW16864   2.631   6.632   0.047
 5322SOL    HW116865   2.584   6.577   7.002
 5322SOL    HW216866   2.730   6.628   0.031
 5323SOL     OW16867   6.546   3.159   0.416
 5323SOL    HW116868   6.489   3.084   0.383
 5323SOL    HW216869   6.555   3.153   0.515
 5324SOL     OW16870   4.248   3.500   1.868
 5324SOL    HW116871   4.272   3.576   1.928
 5324SOL    HW216872   4.184   3.439   1.915
 5325SOL     OW16873   3.103   6.648   5.784
 5325SOL    HW116874   3.064   6.641   5.876
 5325SOL    HW216875   3.202   6.638   5.789
 5326SOL     OW16876   5.958   0.878   3.473
 5326SOL    HW116877   6.010   0.795   3.455
 5326SOL    HW216878   5.991   0.921   3.557
 5327SOL     OW16879   6.156   7.019   4.008
 5327SOL    HW116880   6.239   7.010   4.062
 5327SOL    HW216881   6.154   6.948   3.937
 5328SOL     OW16882   2.451   4.625   6.315
 5328SOL    HW116883   2.416   4.682   6.390
 5328SOL    HW216884   2.422   4.530   6.330
 5329SOL     OW16885   0.249   6.903   6.388
 5329SOL    HW116886   0.258   6.803   6.385
 5329SOL    HW216887   0.244   6.939   6.295
 5330SOL     OW16888   4.429   4.488   0.968
 5330SOL    HW116889   4.378   4.426   1.028
 5330SOL    HW216890   4.469   4.562   1.021
 5331SOL     OW16891   5.831   1.318   6.726
 5331SOL    HW116892   5.899   1.251   6.754
 5331SOL    HW216893   5.797   1.367   6.807
 5332SOL     OW16894   6.710   3.079   6.975
 5332SOL    HW116895   6.782   3.009   6.974
 5332SOL    HW216896   6.655   3.072   6.891
 5333SOL     OW16897   0.453   6.542   4.075
 5333SOL    HW116898   0.397   6.592   4.142
 5333SOL    HW216899   0.394   6.492   4.013
 5334SOL     OW16900   3.340   5.859   1.283
 5334SOL    HW116901   3.371   5.846   1.377
 5334SOL    HW216902   3.277   5.786   1.258
 5335SOL     OW16903   0.464   5.503   1.640
 5335SOL    HW116904   0.372   5.540   1.634
 5335SOL    HW216905   0.460   5.412   1.682
 5336SOL     OW16906   1.311   3.346   5.415
 5336SOL    HW116907   1.323   3.401   5.498
 5336SOL    HW216908   1.338   3.252   5.434
 5337SOL     OW16909   6.259   1.851   0.985
 5337SOL    HW116910   6.281   1.815   1.076
 5337SOL    HW216911   6.210   1.781   0.933
 5338SOL     OW16912   0.015   3.335   1.744
 5338SOL    HW116913   7.020   3.362   1.650
 5338SOL    HW216914   6.958   3.295   1.786
 5339SOL     OW16915   4.990   3.800   3.075
 5339SOL    HW116916   5.075   3.758   3.043
 5339SOL    HW216917   5.003   3.833   3.169
 5340SOL     OW16918   5.204   3.905   1.596
 5340SOL    HW116919   5.222   3.942   1.505
 5340SOL    HW216920   5.290   3.875   1.637
 5341SOL     OW16921   4.824   5.363   3.456
 5341SOL    HW116922   4.778   5.286   3.412
 5341SOL    HW216923   4.830   5.439   3.391
 5342SOL     OW16924   6.330   5.178   4.859
 5342SOL    HW116925   6.231   5.184   4.875
 5342SOL    HW216926   6.362   5.087   4.884
 5343SOL     OW16927   3.423   3.648   6.885
 5343SOL    HW116928   3.337   3.598   6.877
 5343SOL    HW216929   3.500   3.585   6.877
 5344SOL     OW16930   5.998   1.523   6.982
 5344SOL    HW116931   5.903   1.535   7.012
 5344SOL    HW216932   6.058   1.581   0.012
 5345SOL     OW16933   3.652   1.338   0.174
 5345SOL    HW116934   3.639   1.266   0.106
 5345SOL    HW216935   3.564   1.383   0.192
 5346SOL     OW16936   2.122   5.857   2.870
 5346SOL    HW116937   2.152   5.796   2.797
 5346SOL    HW216938   2.198   5.915   2.899
 5347SOL     OW16939   6.050   2.161   5.270
 5347SOL    HW116940   6.027   2.188   5.364
 5347SOL    HW216941   5.992   2.210   5.206
 5348SOL     OW16942   4.736   2.335   5.294
 5348SOL    HW116943   4.643   2.372   5.299
 5348SOL    HW216944   4.751   2.292   5.205
 5349SOL     OW16945   0.893   4.042   0.365
 5349SOL    HW116946   0.826   3.971   0.344
 5349SOL    HW216947   0.963   4.005   0.426
 5350SOL     OW16948   1.323   6.905   6.453
 5350SOL    HW116949   1.358   6.983   6.402
 5350SOL    HW216950   1.251   6.935   6.516
 5351SOL     OW16951   0.648   5.586   3.880
 5351SOL    HW116952   0.698   5.653   3.935
 5351SOL    HW216953   0.588   5.634   3.815
 5352SOL     OW16954   0.453   2.916   5.821
 5352SOL    HW116955   0.366   2.867   5.815
 5352SOL    HW216956   0.460   2.961   5.909
 5353SOL     OW16957   2.346   0.003   2.996
 5353SOL    HW116958   2.353   6.933   2.962
 5353SOL    HW216959   2.253   0.038   2.979
 5354SOL     OW16960   3.505   6.046   2.103
 5354SOL    HW116961   3.554   5.965   2.134
 5354SOL    HW216962   3.407   6.032   2.112
 5355SOL     OW16963   5.333   4.576   5.289
 5355SOL    HW116964   5.419   4.531   5.267
 5355SOL    HW216965   5.317   4.572   5.388
 5356SOL     OW16966   6.919   6.990   1.509
 5356SOL    HW116967   6.995   0.028   1.528
 5356SOL    HW216968   6.951   6.896   1.513
 5357SOL     OW16969   6.243   3.415   2.549
 5357SOL    HW116970   6.168   3.473   2.584
 5357SOL    HW216971   6.214   3.372   2.463
 5358SOL     OW16972   5.796   0.238   6.833
 5358SOL    HW116973   5.865   0.165   6.842
 5358SOL    HW216974   5.792   0.291   6.918
 5359SOL     OW16975   3.466   2.275   0.107
 5359SOL    HW116976   3.427   2.282   0.199
 5359SOL    HW216977   3.444   2.356   0.054
 5360SOL     OW16978   5.266   5.769   3.036
 5360SOL    HW116979   5.213   5.695   2.995
 5360SOL    HW216980   5.346   5.732   3.082
 5361SOL     OW16981   1.289   3.976   2.928
 5361SOL    HW116982   1.273   4.019   2.840
 5361SOL    HW216983   1.290   3.877   2.918
 5362SOL     OW16984   5.723   1.398   3.807
 5362SOL    HW116985   5.785   1.465   3.848
 5362SOL    HW216986   5.772   1.346   3.737
 5363SOL     OW16987   6.634   4.730   5.631
 5363SOL    HW116988   6.731   4.751   5.621
 5363SOL    HW216989   6.623   4.657   5.698
 5364SOL     OW16990   5.021   2.545   1.385
 5364SOL    HW116991   5.054   2.472   1.326
 5364SOL    HW216992   5.028   2.516   1.481
 5365SOL     OW16993   3.504   2.970   5.999
 5365SOL    HW116994   3.571   3.013   5.937
 5365SOL    HW216995   3.547   2.953   6.087
 5366SOL     OW16996   0.260   4.194   3.783
 5366SOL    HW116997   0.260   4.189   3.883
 5366SOL    HW216998   0.166   4.192   3.750
 5367SOL     OW16999   6.293   6.060   1.158
 5367SOL    HW117000   6.364   6.021   1.099
 5367SOL    HW217001   6.233   5.987   1.190
 5368SOL     OW17002   0.101   5.654   5.294
 5368SOL    HW117003   0.093   5.668   5.393
 5368SOL    HW217004   0.043   5.578   5.266
 5369SOL     OW17005   3.519   6.683   2.269
 5369SOL    HW117006   3.441   6.639   2.312
 5369SOL    HW217007   3.576   6.614   2.224
 5370SOL     OW17008   2.695   2.121   0.507
 5370SOL    HW117009   2.601   2.153   0.500
 5370SOL    HW217010   2.755   2.196   0.533
 5371SOL     OW17011   6.578   5.203   3.775
 5371SOL    HW117012   6.559   5.106   3.790
 5371SOL    HW217013   6.492   5.253   3.769
 5372SOL     OW17014   0.373   0.357   4.224
 5372SOL    HW117015   0.363   0.415   4.305
 5372SOL    HW217016   0.467   0.325   4.218
 5373SOL     OW17017   4.230   6.855   0.423
 5373SOL    HW117018   4.274   6.768   0.445
 5373SOL    HW217019   4.211   6.905   0.508
 5374SOL     OW17020   1.463   3.656   1.346
 5374SOL    HW117021   1.495   3.680   1.254
 5374SOL    HW217022   1.479   3.734   1.408
 5375SOL     OW17023   2.755   5.454   4.907
 5375SOL    HW117024   2.718   5.421   4.994
 5375SOL    HW217025   2.726   5.392   4.834
 5376SOL     OW17026   0.043   6.850   2.095
 5376SOL    HW117027   0.127   6.813   2.135
 5376SOL    HW217028   0.064   6.896   2.008
 5377SOL     OW17029   0.942   2.878   2.180
 5377SOL    HW117030   0.865   2.828   2.219
 5377SOL    HW217031   0.915   2.919   2.093
 5378SOL     OW17032   4.836   0.177   3.422
 5378SOL    HW117033   4.785   0.129   3.351
 5378SOL    HW217034   4.795   0.267   3.437
 5379SOL     OW17035   2.948   2.085   4.170
 5379SOL    HW117036   2.997   2.056   4.251
 5379SOL    HW217037   3.013   2.106   4.097
 5380SOL     OW17038   4.909   6.598   1.546
 5380SOL    HW117039   4.961   6.657   1.484
 5380SOL    HW217040   4.925   6.502   1.522
 5381SOL     OW17041   2.804   1.858   2.474
 5381SOL    HW117042   2.811   1.810   2.387
 5381SOL    HW217043   2.861   1.940   2.471
 5382SOL     OW17044   4.696   0.653   2.317
 5382SOL    HW117045   4.633   0.718   2.273
 5382SOL    HW217046   4.710   0.680   2.412
 5383SOL     OW17047   2.326   4.138   5.393
 5383SOL    HW117048   2.321   4.048   5.350
 5383SOL    HW217049   2.395   4.194   5.347
 5384SOL     OW17050   5.035   6.445   5.925
 5384SOL    HW117051   4.938   6.468   5.922
 5384SOL    HW217052   5.046   6.348   5.946
 5385SOL     OW17053   3.510   3.801   0.471
 5385SOL    HW117054   3.578   3.806   0.544
 5385SOL    HW217055   3.555   3.778   0.385
 5386SOL     OW17056   4.577   4.931   3.238
 5386SOL    HW117057   4.477   4.926   3.243
 5386SOL    HW217058   4.605   4.947   3.144
 5387SOL     OW17059   1.125   2.535   5.336
 5387SOL    HW117060   1.064   2.613   5.349
 5387SOL    HW217061   1.071   2.450   5.340
 5388SOL     OW17062   6.206   6.939   3.097
 5388SOL    HW117063   6.222   7.015   3.160
 5388SOL    HW217064   6.149   6.870   3.141
 5389SOL     OW17065   6.149   1.447   4.968
 5389SOL    HW117066   6.145   1.448   4.868
 5389SOL    HW217067   6.245   1.437   4.996
 5390SOL     OW17068   5.669   3.610   3.455
 5390SOL    HW117069   5.710   3.524   3.487
 5390SOL    HW217070   5.574   3.593   3.429
 5391SOL     OW17071   4.753   3.362   0.792
 5391SOL    HW117072   4.822   3.427   0.822
 5391SOL    HW217073   4.754   3.356   0.692
 5392SOL     OW17074   5.374   1.124   4.144
 5392SOL    HW117075   5.371   1.051   4.213
 5392SOL    HW217076   5.404   1.209   4.187
 5393SOL     OW17077   4.852   3.269   2.904
 5393SOL    HW117078   4.809   3.340   2.848
 5393SOL    HW217079   4.932   3.233   2.857
 5394SOL     OW17080   0.228   2.943   2.941
 5394SOL    HW117081   0.154   2.946   2.873
 5394SOL    HW217082   0.284   2.862   2.926
 5395SOL     OW17083   7.020   0.856   1.747
 5395SOL    HW117084   6.967   0.931   1.709
 5395SOL    HW217085   0.091   0.863   1.718
 5396SOL     OW17086   3.639   2.447   0.326
 5396SOL    HW117087   3.670   2.541   0.312
 5396SOL    HW217088   3.569   2.445   0.397
 5397SOL     OW17089   0.528   6.856   2.885
 5397SOL    HW117090   0.541   6.831   2.981
 5397SOL    HW217091   0.610   6.834   2.833
 5398SOL     OW17092   5.630   2.440   3.160
 5398SOL    HW117093   5.674   2.356   3.188
 5398SOL    HW217094   5.563   2.421   3.087
 5399SOL     OW17095   2.579   2.790   0.640
 5399SOL    HW117096   2.620   2.867   0.688
 5399SOL    HW217097   2.624   2.777   0.552
 5400SOL     OW17098   5.054   3.035   0.718
 5400SOL    HW117099   4.999   2.956   0.747
 5400SOL    HW217100   4.994   3.105   0.681
 5401SOL     OW17101   5.148   4.262   0.976
 5401SOL    HW117102   5.048   4.270   0.985
 5401SOL    HW217103   5.192   4.340   1.020
 5402SOL     OW17104   2.365   5.915   1.855
 5402SOL    HW117105   2.367   5.999   1.908
 5402SOL    HW217106   2.404   5.932   1.764
 5403SOL     OW17107   6.028   2.644   5.397
 5403SOL    HW117108   5.963   2.709   5.438
 5403SOL    HW217109   6.117   2.689   5.385
 5404SOL     OW17110   4.921   6.407   0.456
 5404SOL    HW117111   4.959   6.499   0.459
 5404SOL    HW217112   4.868   6.396   0.372
 5405SOL     OW17113   6.599   5.012   5.889
 5405SOL    HW117114   6.547   4.928   5.901
 5405SOL    HW217115   6.572   5.079   5.959
 5406SOL     OW17116   2.093   1.025   5.451
 5406SOL    HW117117   2.107   0.927   5.463
 5406SOL    HW217118   2.179   1.073   5.467
 5407SOL     OW17119   1.840   1.535   2.756
 5407SOL    HW117120   1.776   1.591   2.703
 5407SOL    HW217121   1.799   1.446   2.773
 5408SOL     OW17122   2.006   2.389   4.561
 5408SOL    HW117123   2.075   2.449   4.522
 5408SOL    HW217124   1.936   2.369   4.493
 5409SOL     OW17125   6.777   4.663   3.231
 5409SOL    HW117126   6.720   4.739   3.200
 5409SOL    HW217127   6.726   4.606   3.295
 5410SOL     OW17128   6.116   1.828   0.376
 5410SOL    HW117129   6.210   1.837   0.407
 5410SOL    HW217130   6.074   1.749   0.420
 5411SOL     OW17131   3.144   6.222   1.963
 5411SOL    HW117132   3.067   6.234   1.901
 5411SOL    HW217133   3.227   6.204   1.910
 5412SOL     OW17134   2.104   1.866   6.260
 5412SOL    HW117135   2.183   1.809   6.281
 5412SOL    HW217136   2.027   1.841   6.320
 5413SOL     OW17137   0.291   5.426   5.654
 5413SOL    HW117138   0.226   5.378   5.713
 5413SOL    HW217139   0.289   5.385   5.563
 5414SOL     OW17140   5.897   5.587   6.250
 5414SOL    HW117141   5.995   5.606   6.256
 5414SOL    HW217142   5.847   5.655   6.304
 5415SOL     OW17143   1.835   0.947   0.262
 5415SOL    HW117144   1.783   0.871   0.223
 5415SOL    HW217145   1.781   0.991   0.334
 5416SOL     OW17146   3.812   5.342   6.100
 5416SOL    HW117147   3.743   5.292   6.152
 5416SOL    HW217148   3.899   5.340   6.150
 5417SOL     OW17149   5.705   0.169   1.866
 5417SOL    HW117150   5.662   0.080   1.852
 5417SOL    HW217151   5.796   0.155   1.904
 5418SOL     OW17152   0.562   2.770   5.428
 5418SOL    HW117153   0.608   2.824   5.499
 5418SOL    HW217154   0.472   2.810   5.408
 5419SOL     OW17155   3.503   2.054   6.534
 5419SOL    HW117156   3.469   2.053   6.440
 5419SOL    HW217157   3.594   2.097   6.536
 5420SOL     OW17158   2.237   1.492   1.112
 5420SOL    HW117159   2.150   1.478   1.158
 5420SOL    HW217160   2.251   1.420   1.044
 5421SOL     OW17161   3.831   5.492   1.109
 5421SOL    HW117162   3.773   5.410   1.105
 5421SOL    HW217163   3.843   5.519   1.204
 5422SOL     OW17164   2.407   6.549   3.178
 5422SOL    HW117165   2.489   6.602   3.158
 5422SOL    HW217166   2.335   6.609   3.212
 5423SOL     OW17167   4.380   6.565   2.519
 5423SOL    HW117168   4.425   6.643   2.563
 5423SOL    HW217169   4.300   6.538   2.573
 5424SOL     OW17170   3.527   3.448   5.509
 5424SOL    HW117171   3.502   3.355   5.480
 5424SOL    HW217172   3.455   3.484   5.568
 5425SOL     OW17173   1.704   5.454   5.247
 5425SOL    HW117174   1.633   5.399   5.292
 5425SOL    HW217175   1.710   5.544   5.290
 5426SOL     OW17176   1.770   4.219   0.012
 5426SOL    HW117177   1.731   4.127   0.005
 5426SOL    HW217178   1.853   4.224   6.981
 5427SOL     OW17179   5.035   1.995   0.896
 5427SOL    HW117180   4.959   1.930   0.897
 5427SOL    HW217181   5.087   1.986   0.981
 5428SOL     OW17182   4.391   5.780   2.794
 5428SOL    HW117183   4.424   5.720   2.867
 5428SOL    HW217184   4.443   5.866   2.795
 5429SOL     OW17185   2.625   6.495   3.609
 5429SOL    HW117186   2.648   6.591   3.594
 5429SOL    HW217187   2.705   6.447   3.646
 5430SOL     OW17188   1.144   4.427   5.451
 5430SOL    HW117189   1.107   4.509   5.407
 5430SOL    HW217190   1.116   4.346   5.399
 5431SOL     OW17191   5.418   4.220   1.174
 5431SOL    HW117192   5.329   4.262   1.159
 5431SOL    HW217193   5.462   4.262   1.253
 5432SOL     OW17194   1.588   5.148   5.705
 5432SOL    HW117195   1.587   5.049   5.720
 5432SOL    HW217196   1.590   5.167   5.607
 5433SOL     OW17197   2.211   6.775   1.164
 5433SOL    HW117198   2.121   6.734   1.174
 5433SOL    HW217199   2.210   6.841   1.089
 5434SOL     OW17200   5.378   5.568   4.449
 5434SOL    HW117201   5.282   5.566   4.420
 5434SOL    HW217202   5.423   5.650   4.414
 5435SOL     OW17203   0.176   3.441   0.416
 5435SOL    HW117204   0.144   3.443   0.322
 5435SOL    HW217205   0.113   3.388   0.473
 5436SOL     OW17206   1.149   4.460   1.233
 5436SOL    HW117207   1.115   4.551   1.254
 5436SOL    HW217208   1.074   4.394   1.239
 5437SOL     OW17209   3.025   6.534   6.400
 5437SOL    HW117210   3.107   6.565   6.353
 5437SOL    HW217211   3.050   6.469   6.472
 5438SOL     OW17212   5.057   6.633   2.640
 5438SOL    HW117213   5.130   6.642   2.707
 5438SOL    HW217214   5.007   6.719   2.633
 5439SOL     OW17215   0.973   3.767   1.951
 5439SOL    HW117216   1.039   3.751   1.877
 5439SOL    HW217217   1.020   3.802   2.032
 5440SOL     OW17218   5.900   6.210   3.236
 5440SOL    HW117219   5.943   6.171   3.317
 5440SOL    HW217220   5.927   6.306   3.226
 5441SOL     OW17221   5.041   0.424   4.881
 5441SOL    HW117222   5.096   0.374   4.813
 5441SOL    HW217223   4.971   0.363   4.918
 5442SOL     OW17224   2.773   0.132   6.995
 5442SOL    HW117225   2.785   0.224   0.007
 5442SOL    HW217226   2.800   0.130   6.899
 5443SOL     OW17227   5.847   1.281   3.237
 5443SOL    HW117228   5.760   1.271   3.188
 5443SOL    HW217229   5.893   1.192   3.243
 5444SOL     OW17230   1.513   1.784   6.735
 5444SOL    HW117231   1.486   1.857   6.671
 5444SOL    HW217232   1.529   1.700   6.685
 5445SOL     OW17233   5.786   6.185   5.147
 5445SOL    HW117234   5.699   6.224   5.177
 5445SOL    HW217235   5.815   6.230   5.062
 5446SOL     OW17236   2.415   4.089   0.145
 5446SOL    HW117237   2.331   4.143   0.150
 5446SOL    HW217238   2.394   3.993   0.165
 5447SOL     OW17239   5.941   2.372   1.604
 5447SOL    HW117240   5.984   2.463   1.609
 5447SOL    HW217241   6.003   2.305   1.644
 5448SOL     OW17242   5.833   5.096   1.610
 5448SOL    HW117243   5.869   5.138   1.693
 5448SOL    HW217244   5.742   5.059   1.627
 5449SOL     OW17245   2.207   0.111   2.274
 5449SOL    HW117246   2.139   0.040   2.293
 5449SOL    HW217247   2.298   0.078   2.300
 5450SOL     OW17248   4.242   4.844   1.673
 5450SOL    HW117249   4.252   4.749   1.702
 5450SOL    HW217250   4.199   4.897   1.746
 5451SOL     OW17251   0.637   5.472   3.442
 5451SOL    HW117252   0.565   5.526   3.399
 5451SOL    HW217253   0.672   5.405   3.375
 5452SOL     OW17254   2.163   3.756   2.938
 5452SOL    HW117255   2.122   3.666   2.947
 5452SOL    HW217256   2.263   3.747   2.937
 5453SOL     OW17257   5.698   5.497   4.172
 5453SOL    HW117258   5.685   5.479   4.074
 5453SOL    HW217259   5.609   5.504   4.217
 5454SOL     OW17260   6.389   3.361   2.089
 5454SOL    HW117261   6.331   3.321   2.160
 5454SOL    HW217262   6.378   3.310   2.004
 5455SOL     OW17263   2.195   2.973   2.874
 5455SOL    HW117264   2.185   3.034   2.795
 5455SOL    HW217265   2.253   2.896   2.848
 5456SOL     OW17266   5.201   2.920   0.261
 5456SOL    HW117267   5.271   2.934   0.192
 5456SOL    HW217268   5.172   2.824   0.261
 5457SOL     OW17269   6.197   1.220   0.271
 5457SOL    HW117270   6.268   1.193   0.207
 5457SOL    HW217271   6.146   1.298   0.235
 5458SOL     OW17272   6.352   4.356   5.882
 5458SOL    HW117273   6.297   4.298   5.822
 5458SOL    HW217274   6.408   4.299   5.942
 5459SOL     OW17275   2.433   3.526   5.440
 5459SOL    HW117276   2.385   3.610   5.416
 5459SOL    HW217277   2.415   3.456   5.370
 5460SOL     OW17278   0.010   1.186   1.449
 5460SOL    HW117279   0.032   1.212   1.356
 5460SOL    HW217280   0.073   1.231   1.513
 5461SOL     OW17281   5.668   0.482   6.175
 5461SOL    HW117282   5.608   0.554   6.140
 5461SOL    HW217283   5.699   0.506   6.267
 5462SOL     OW17284   5.082   5.050   6.419
 5462SOL    HW117285   5.027   5.096   6.489
 5462SOL    HW217286   5.151   5.112   6.383
 5463SOL     OW17287   2.537   4.680   6.988
 5463SOL    HW117288   2.559   4.776   6.973
 5463SOL    HW217289   2.490   4.643   6.907
 5464SOL     OW17290   2.209   5.682   3.984
 5464SOL    HW117291   2.125   5.673   4.037
 5464SOL    HW217292   2.261   5.761   4.016
 5465SOL     OW17293   0.794   1.121   4.480
 5465SOL    HW117294   0.714   1.139   4.537
 5465SOL    HW217295   0.875   1.163   4.521
 5466SOL     OW17296   5.470   2.338   4.933
 5466SOL    HW117297   5.407   2.382   4.997
 5466SOL    HW217298   5.441   2.356   4.839
 5467SOL     OW17299   5.208   3.882   3.946
 5467SOL    HW117300   5.141   3.931   4.002
 5467SOL    HW217301   5.279   3.844   4.005
 5468SOL     OW17302   0.271   2.881   1.265
 5468SOL    HW117303   0.280   2.877   1.365
 5468SOL    HW217304   0.352   2.926   1.227
 5469SOL     OW17305   4.475   1.301   3.112
 5469SOL    HW117306   4.428   1.216   3.138
 5469SOL    HW217307   4.474   1.364   3.190
 5470SOL     OW17308   2.924   4.765   4.115
 5470SOL    HW117309   2.884   4.723   4.196
 5470SOL    HW217310   2.865   4.750   4.037
 5471SOL     OW17311   5.106   0.332   4.167
 5471SOL    HW117312   5.082   0.242   4.129
 5471SOL    HW217313   5.204   0.336   4.184
 5472SOL     OW17314   2.913   4.001   6.446
 5472SOL    HW117315   2.885   4.083   6.496
 5472SOL    HW217316   3.006   4.013   6.412
 5473SOL     OW17317   2.878   4.723   2.253
 5473SOL    HW117318   2.861   4.680   2.164
 5473SOL    HW217319   2.822   4.677   2.322
 5474SOL     OW17320   1.000   4.935   1.866
 5474SOL    HW117321   1.070   4.979   1.922
 5474SOL    HW217322   0.912   4.980   1.881
 5475SOL     OW17323   0.684   1.276   5.450
 5475SOL    HW117324   0.681   1.354   5.511
 5475SOL    HW217325   0.712   1.306   5.359
 5476SOL     OW17326   2.610   1.036   5.038
 5476SOL    HW117327   2.584   0.964   4.974
 5476SOL    HW217328   2.700   1.015   5.077
 5477SOL     OW17329   1.998   3.760   3.189
 5477SOL    HW117330   1.919   3.820   3.197
 5477SOL    HW217331   2.055   3.791   3.113
 5478SOL     OW17332   6.547   3.444   5.727
 5478SOL    HW117333   6.509   3.501   5.801
 5478SOL    HW217334   6.472   3.403   5.676
 5479SOL     OW17335   5.305   4.047   4.548
 5479SOL    HW117336   5.295   4.066   4.450
 5479SOL    HW217337   5.402   4.043   4.572
 5480SOL     OW17338   1.470   3.187   6.114
 5480SOL    HW117339   1.506   3.280   6.109
 5480SOL    HW217340   1.545   3.121   6.114
 5481SOL     OW17341   4.359   1.348   0.235
 5481SOL    HW117342   4.437   1.285   0.239
 5481SOL    HW217343   4.389   1.440   0.261
 5482SOL     OW17344   5.302   4.512   2.242
 5482SOL    HW117345   5.398   4.516   2.214
 5482SOL    HW217346   5.255   4.595   2.214
 5483SOL     OW17347   5.605   2.307   0.168
 5483SOL    HW117348   5.626   2.384   0.228
 5483SOL    HW217349   5.686   2.248   0.159
 5484SOL     OW17350   6.158   0.628   6.139
 5484SOL    HW117351   6.161   0.713   6.087
 5484SOL    HW217352   6.078   0.574   6.113
 5485SOL     OW17353   2.832   0.924   4.321
 5485SOL    HW117354   2.748   0.894   4.366
 5485SOL    HW217355   2.826   0.907   4.223
 5486SOL     OW17356   7.020   0.493   3.791
 5486SOL    HW117357   0.036   0.580   3.766
 5486SOL    HW217358   7.022   0.483   3.891
 5487SOL     OW17359   4.511   5.260   1.202
 5487SOL    HW117360   4.458   5.308   1.272
 5487SOL    HW217361   4.465   5.268   1.114
 5488SOL     OW17362   5.045   0.479   6.230
 5488SOL    HW117363   4.947   0.497   6.231
 5488SOL    HW217364   5.062   0.390   6.185
 5489SOL     OW17365   6.636   3.979   2.504
 5489SOL    HW117366   6.677   3.982   2.595
 5489SOL    HW217367   6.668   4.057   2.450
 5490SOL     OW17368   3.147   0.952   6.562
 5490SOL    HW117369   3.058   0.983   6.528
 5490SOL    HW217370   3.184   1.019   6.625
 5491SOL     OW17371   6.645   6.384   1.749
 5491SOL    HW117372   6.710   6.343   1.685
 5491SOL    HW217373   6.553   6.376   1.712
 5492SOL     OW17374   0.885   1.315   4.714
 5492SOL    HW117375   0.965   1.257   4.702
 5492SOL    HW217376   0.890   1.392   4.650
 5493SOL     OW17377   4.661   1.442   0.084
 5493SOL    HW117378   4.669   1.432   0.183
 5493SOL    HW217379   4.606   1.523   0.063
 5494SOL     OW17380   5.192   3.373   2.466
 5494SOL    HW117381   5.204   3.391   2.563
 5494SOL    HW217382   5.273   3.404   2.416
 5495SOL     OW17383   3.139   3.001   4.280
 5495SOL    HW117384   3.158   3.097   4.301
 5495SOL    HW217385   3.066   2.996   4.212
 5496SOL     OW17386   4.568   5.103   2.130
 5496SOL    HW117387   4.528   5.160   2.059
 5496SOL    HW217388   4.605   5.161   2.203
 5497SOL     OW17389   5.219   0.188   0.168
 5497SOL    HW117390   5.311   0.224   0.155
 5497SOL    HW217391   5.201   0.116   0.100
 5498SOL     OW17392   4.398   1.712   4.263
 5498SOL    HW117393   4.377   1.653   4.185
 5498SOL    HW217394   4.425   1.656   4.340
 5499SOL     OW17395   0.026   0.716   5.030
 5499SOL    HW117396   0.042   0.653   4.954
 5499SOL    HW217397   0.093   0.699   5.102
 5500SOL     OW17398   1.951   6.131   0.974
 5500SOL    HW117399   1.965   6.215   0.922
 5500SOL    HW217400   1.967   6.052   0.914
 5501SOL     OW17401   2.416   0.668   2.052
 5501SOL    HW117402   2.350   0.727   2.004
 5501SOL    HW217403   2.496   0.722   2.077
 5502SOL     OW17404   4.869   4.214   0.489
 5502SOL    HW117405   4.846   4.295   0.544
 5502SOL    HW217406   4.790   4.189   0.433
 5503SOL     OW17407   6.592   0.147   3.830
 5503SOL    HW117408   6.673   0.189   3.871
 5503SOL    HW217409   6.617   0.056   3.795
 5504SOL     OW17410   2.777   2.370   4.442
 5504SOL    HW117411   2.798   2.367   4.539
 5504SOL    HW217412   2.696   2.315   4.423
 5505SOL     OW17413   3.271   5.120   0.709
 5505SOL    HW117414   3.250   5.164   0.622
 5505SOL    HW217415   3.200   5.054   0.731
 5506SOL     OW17416   0.702   6.994   5.323
 5506SOL    HW117417   0.754   6.944   5.392
 5506SOL    HW217418   0.618   0.004   5.363
 5507SOL     OW17419   2.526   5.642   5.226
 5507SOL    HW117420   2.501   5.734   5.256
 5507SOL    HW217421   2.482   5.622   5.139
 5508SOL     OW17422   1.555   1.139   4.839
 5508SOL    HW117423   1.562   1.237   4.859
 5508SOL    HW217424   1.594   1.087   4.915
 5509SOL     OW17425   6.933   0.424   5.917
 5509SOL    HW117426   6.894   0.439   6.008
 5509SOL    HW217427   6.861   0.431   5.848
 5510SOL     OW17428   0.447   0.068   5.462
 5510SOL    HW117429   0.464   0.043   5.558
 5510SOL    HW217430   0.378   0.140   5.458
 5511SOL     OW17431   0.333   2.454   1.143
 5511SOL    HW117432   0.284   2.423   1.225
 5511SOL    HW217433   0.267   2.491   1.077
 5512SOL     OW17434   6.165   0.394   0.114
 5512SOL    HW117435   6.193   0.374   0.020
 5512SOL    HW217436   6.236   0.449   0.158
 5513SOL     OW17437   2.757   5.920   4.316
 5513SOL    HW117438   2.756   6.003   4.372
 5513SOL    HW217439   2.845   5.874   4.328
 5514SOL     OW17440   6.033   6.146   3.464
 5514SOL    HW117441   6.057   6.243   3.452
 5514SOL    HW217442   5.961   6.138   3.533
 5515SOL     OW17443   0.183   3.542   3.008
 5515SOL    HW117444   0.141   3.630   3.033
 5515SOL    HW217445   0.281   3.545   3.028
 5516SOL     OW17446   1.717   2.843   0.389
 5516SOL    HW117447   1.744   2.889   0.305
 5516SOL    HW217448   1.622   2.813   0.382
 5517SOL     OW17449   3.043   1.110   1.742
 5517SOL    HW117450   3.056   1.127   1.839
 5517SOL    HW217451   2.948   1.085   1.724
 5518SOL     OW17452   5.588   3.660   5.651
 5518SOL    HW117453   5.541   3.748   5.646
 5518SOL    HW217454   5.572   3.609   5.567
 5519SOL     OW17455   5.731   4.880   2.542
 5519SOL    HW117456   5.670   4.867   2.621
 5519SOL    HW217457   5.822   4.848   2.565
 5520SOL     OW17458   1.431   2.935   1.012
 5520SOL    HW117459   1.392   2.863   0.954
 5520SOL    HW217460   1.397   3.024   0.981
 5521SOL     OW17461   5.502   4.506   6.013
 5521SOL    HW117462   5.423   4.481   5.957
 5521SOL    HW217463   5.549   4.423   6.043
 5522SOL     OW17464   1.411   2.085   1.976
 5522SOL    HW117465   1.388   2.111   2.070
 5522SOL    HW217466   1.414   2.166   1.919
 5523SOL     OW17467   3.166   6.615   1.413
 5523SOL    HW117468   3.072   6.579   1.418
 5523SOL    HW217469   3.228   6.542   1.387
 5524SOL     OW17470   6.327   0.095   5.871
 5524SOL    HW117471   6.412   0.116   5.822
 5524SOL    HW217472   6.276   0.025   5.820
 5525SOL     OW17473   6.472   6.302   3.424
 5525SOL    HW117474   6.515   6.364   3.490
 5525SOL    HW217475   6.536   6.284   3.349
 5526SOL     OW17476   5.777   3.108   4.541
 5526SOL    HW117477   5.811   3.176   4.605
 5526SOL    HW217478   5.727   3.153   4.467
 5527SOL     OW17479   2.438   3.151   6.816
 5527SOL    HW117480   2.446   3.193   6.726
 5527SOL    HW217481   2.360   3.089   6.817
 5528SOL     OW17482   6.596   2.602   2.530
 5528SOL    HW117483   6.521   2.537   2.513
 5528SOL    HW217484   6.568   2.693   2.502
 5529SOL     OW17485   1.128   0.838   3.774
 5529SOL    HW117486   1.183   0.855   3.855
 5529SOL    HW217487   1.187   0.833   3.693
 5530SOL     OW17488   6.989   3.087   6.759
 5530SOL    HW117489   7.007   2.989   6.757
 5530SOL    HW217490   7.000   3.121   6.852
 5531SOL     OW17491   2.481   3.043   0.031
 5531SOL    HW117492   2.457   3.117   0.094
 5531SOL    HW217493   2.487   3.078   6.962
 5532SOL     OW17494   2.935   2.667   1.348
 5532SOL    HW117495   2.877   2.603   1.297
 5532SOL    HW217496   2.990   2.616   1.414
 5533SOL     OW17497   3.449   0.398   1.292
 5533SOL    HW117498   3.405   0.479   1.255
 5533SOL    HW217499   3.541   0.388   1.253
 5534SOL     OW17500   0.714   3.153   4.946
 5534SOL    HW117501   0.672   3.110   4.866
 5534SOL    HW217502   0.651   3.219   4.986
 5535SOL     OW17503   4.749   4.488   3.886
 5535SOL    HW117504   4.825   4.529   3.836
 5535SOL    HW217505   4.785   4.435   3.963
 5536SOL     OW17506   2.288   1.077   4.176
 5536SOL    HW117507   2.307   0.987   4.135
 5536SOL    HW217508   2.191   1.100   4.161
 5537SOL     OW17509   3.536   1.063   3.713
 5537SOL    HW117510   3.629   1.051   3.678
 5537SOL    HW217511   3.471   1.047   3.639
 5538SOL     OW17512   5.261   2.482   2.399
 5538SOL    HW117513   5.356   2.503   2.375
 5538SOL    HW217514   5.215   2.442   2.320
 5539SOL     OW17515   2.039   0.311   6.755
 5539SOL    HW117516   1.987   0.273   6.679
 5539SOL    HW217517   2.096   0.240   6.796
 5540SOL     OW17518   5.059   6.918   5.429
 5540SOL    HW117519   5.008   6.969   5.360
 5540SOL    HW217520   5.106   6.841   5.386
 5541SOL     OW17521   4.459   2.540   6.351
 5541SOL    HW117522   4.434   2.443   6.358
 5541SOL    HW217523   4.444   2.571   6.257
 5542SOL     OW17524   4.697   4.242   6.566
 5542SOL    HW117525   4.606   4.263   6.529
 5542SOL    HW217526   4.758   4.217   6.491
 5543SOL     OW17527   0.737   0.204   6.199
 5543SOL    HW117528   0.807   0.262   6.158
 5543SOL    HW217529   0.658   0.198   6.138
 5544SOL     OW17530   3.429   5.320   0.267
 5544SOL    HW117531   3.478   5.234   0.282
 5544SOL    HW217532   3.494   5.396   0.272
 5545SOL     OW17533   6.130   1.906   2.497
 5545SOL    HW117534   6.196   1.831   2.486
 5545SOL    HW217535   6.063   1.902   2.424
 5546SOL     OW17536   0.347   5.725   4.360
 5546SOL    HW117537   0.282   5.754   4.289
 5546SOL    HW217538   0.435   5.770   4.346
 5547SOL     OW17539   5.581   1.579   5.162
 5547SOL    HW117540   5.583   1.622   5.252
 5547SOL    HW217541   5.520   1.500   5.164
 5548SOL     OW17542   0.678   3.368   5.173
 5548SOL    HW117543   0.630   3.284   5.199
 5548SOL    HW217544   0.753   3.384   5.236
 5549SOL     OW17545   3.750   2.810   0.788
 5549SOL    HW117546   3.781   2.902   0.808
 5549SOL    HW217547   3.769   2.788   0.692
 5550SOL     OW17548   2.472   3.906   1.467
 5550SOL    HW117549   2.504   3.967   1.539
 5550SOL    HW217550   2.547   3.847   1.437
 5551SOL     OW17551   1.664   4.503   2.533
 5551SOL    HW117552   1.729   4.580   2.531
 5551SOL    HW217553   1.576   4.535   2.567
 5552SOL     OW17554   0.784   0.393   0.337
 5552SOL    HW117555   0.844   0.321   0.374
 5552SOL    HW217556   0.719   0.352   0.272
 5553SOL     OW17557   5.210   6.764   6.980
 5553SOL    HW117558   5.131   6.823   6.997
 5553SOL    HW217559   5.237   6.719   0.040
 5554SOL     OW17560   6.661   2.363   1.572
 5554SOL    HW117561   6.613   2.357   1.484
 5554SOL    HW217562   6.637   2.450   1.616
 5555SOL     OW17563   1.935   4.974   2.147
 5555SOL    HW117564   1.899   4.936   2.232
 5555SOL    HW217565   2.035   4.978   2.152
 5556SOL     OW17566   6.968   1.393   4.867
 5556SOL    HW117567   0.019   1.411   4.803
 5556SOL    HW217568   6.885   1.439   4.836
 5557SOL     OW17569   3.580   6.409   2.809
 5557SOL    HW117570   3.569   6.448   2.718
 5557SOL    HW217571   3.540   6.318   2.812
 5558SOL     OW17572   4.408   3.235   6.298
 5558SOL    HW117573   4.327   3.181   6.273
 5558SOL    HW217574   4.421   3.232   6.397
 5559SOL     OW17575   3.836   0.529   2.832
 5559SOL    HW117576   3.817   0.533   2.734
 5559SOL    HW217577   3.807   0.441   2.868
 5560SOL     OW17578   0.195   5.964   3.583
 5560SOL    HW117579   0.209   5.884   3.642
 5560SOL    HW217580   0.149   6.036   3.635
 5561SOL     OW17581   3.410   0.522   3.438
 5561SOL    HW117582   3.441   0.602   3.387
 5561SOL    HW217583   3.443   0.528   3.532
 5562SOL     OW17584   4.205   3.225   0.471
 5562SOL    HW117585   4.147   3.306   0.471
 5562SOL    HW217586   4.215   3.191   0.378
 5563SOL     OW17587   2.248   4.939   2.292
 5563SOL    HW117588   2.236   4.851   2.247
 5563SOL    HW217589   2.337   4.940   2.338
 5564SOL     OW17590   4.729   0.274   6.099
 5564SOL    HW117591   4.793   0.209   6.056
 5564SOL    HW217592   4.670   0.224   6.162
 5565SOL     OW17593   3.928   1.097   6.102
 5565SOL    HW117594   3.978   1.047   6.173
 5565SOL    HW217595   3.835   1.116   6.134
 5566SOL     OW17596   1.206   5.514   5.740
 5566SOL    HW117597   1.270   5.500   5.664
 5566SOL    HW217598   1.114   5.485   5.712
 5567SOL     OW17599   0.503   5.091   6.745
 5567SOL    HW117600   0.440   5.016   6.768
 5567SOL    HW217601   0.585   5.054   6.703
 5568SOL     OW17602   4.848   5.349   1.607
 5568SOL    HW117603   4.789   5.406   1.664
 5568SOL    HW217604   4.799   5.321   1.525
 5569SOL     OW17605   2.032   2.147   2.408
 5569SOL    HW117606   1.939   2.170   2.380
 5569SOL    HW217607   2.096   2.170   2.334
 5570SOL     OW17608   6.504   4.010   1.209
 5570SOL    HW117609   6.468   3.919   1.187
 5570SOL    HW217610   6.576   4.001   1.278
 5571SOL     OW17611   6.714   4.649   0.889
 5571SOL    HW117612   6.745   4.735   0.849
 5571SOL    HW217613   6.668   4.667   0.976
 5572SOL     OW17614   1.240   4.429   4.960
 5572SOL    HW117615   1.195   4.495   4.900
 5572SOL    HW217616   1.277   4.476   5.040
 5573SOL     OW17617   3.501   5.058   3.775
 5573SOL    HW117618   3.443   4.985   3.810
 5573SOL    HW217619   3.586   5.061   3.828
 5574SOL     OW17620   1.124   1.699   6.179
 5574SOL    HW117621   1.142   1.771   6.246
 5574SOL    HW217622   1.032   1.713   6.141
 5575SOL     OW17623   6.784   0.812   1.972
 5575SOL    HW117624   6.863   0.830   1.913
 5575SOL    HW217625   6.773   0.713   1.983
 5576SOL     OW17626   1.520   4.925   3.570
 5576SOL    HW117627   1.476   4.841   3.540
 5576SOL    HW217628   1.454   4.983   3.618
 5577SOL     OW17629   2.277   2.760   6.207
 5577SOL    HW117630   2.274   2.788   6.303
 5577SOL    HW217631   2.329   2.827   6.154
 5578SOL     OW17632   4.067   3.629   4.179
 5578SOL    HW117633   4.033   3.674   4.096
 5578SOL    HW217634   4.115   3.545   4.154
 5579SOL     OW17635   6.012   3.099   1.723
 5579SOL    HW117636   5.921   3.071   1.693
 5579SOL    HW217637   6.043   3.175   1.665
 5580SOL     OW17638   5.291   1.902   5.647
 5580SOL    HW117639   5.385   1.934   5.652
 5580SOL    HW217640   5.284   1.812   5.690
 5581SOL     OW17641   1.297   1.382   6.845
 5581SOL    HW117642   1.311   1.479   6.864
 5581SOL    HW217643   1.292   1.331   6.931
 5582SOL     OW17644   3.226   2.189   6.131
 5582SOL    HW117645   3.234   2.175   6.033
 5582SOL    HW217646   3.144   2.142   6.165
 5583SOL     OW17647   6.241   6.960   0.629
 5583SOL    HW117648   6.264   6.867   0.604
 5583SOL    HW217649   6.321   7.006   0.668
 5584SOL     OW17650   1.912   3.123   4.498
 5584SOL    HW117651   1.875   3.203   4.450
 5584SOL    HW217652   1.904   3.138   4.597
 5585SOL     OW17653   5.657   4.800   1.452
 5585SOL    HW117654   5.567   4.837   1.429
 5585SOL    HW217655   5.675   4.815   1.549
 5586SOL     OW17656   0.989   5.466   1.247
 5586SOL    HW117657   0.970   5.373   1.216
 5586SOL    HW217658   0.908   5.504   1.292
 5587SOL     OW17659   6.499   0.706   5.712
 5587SOL    HW117660   6.406   0.733   5.738
 5587SOL    HW217661   6.495   0.632   5.644
 5588SOL     OW17662   3.558   6.801   0.449
 5588SOL    HW117663   3.500   6.813   0.369
 5588SOL    HW217664   3.521   6.854   0.526
 5589SOL     OW17665   6.752   4.167   6.070
 5589SOL    HW117666   6.763   4.067   6.063
 5589SOL    HW217667   6.811   4.211   6.002
 5590SOL     OW17668   6.157   5.410   3.514
 5590SOL    HW117669   6.103   5.442   3.437
 5590SOL    HW217670   6.201   5.323   3.491
 5591SOL     OW17671   5.255   1.564   2.142
 5591SOL    HW117672   5.256   1.481   2.198
 5591SOL    HW217673   5.283   1.542   2.049
 5592SOL     OW17674   0.238   5.190   3.689
 5592SOL    HW117675   0.274   5.101   3.718
 5592SOL    HW217676   0.138   5.184   3.682
 5593SOL     OW17677   0.916   4.282   0.883
 5593SOL    HW117678   0.849   4.210   0.864
 5593SOL    HW217679   0.983   4.286   0.810
 5594SOL     OW17680   5.936   1.438   5.855
 5594SOL    HW117681   5.888   1.360   5.814
 5594SOL    HW217682   5.869   1.503   5.892
 5595SOL     OW17683   0.557   2.141   0.607
 5595SOL    HW117684   0.496   2.130   0.529
 5595SOL    HW217685   0.547   2.064   0.669
 5596SOL     OW17686   3.516   6.082   3.298
 5596SOL    HW117687   3.436   6.023   3.287
 5596SOL    HW217688   3.490   6.167   3.344
 5597SOL     OW17689   5.141   3.245   1.478
 5597SOL    HW117690   5.065   3.251   1.414
 5597SOL    HW217691   5.113   3.194   1.559
 5598SOL     OW17692   4.137   0.970   4.477
 5598SOL    HW117693   4.107   0.902   4.410
 5598SOL    HW217694   4.165   0.925   4.561
 5599SOL     OW17695   0.658   1.224   3.470
 5599SOL    HW117696   0.613   1.227   3.559
 5599SOL    HW217697   0.746   1.272   3.476
 5600SOL     OW17698   2.733   2.879   5.509
 5600SOL    HW117699   2.638   2.907   5.495
 5600SOL    HW217700   2.794   2.951   5.477
 5601SOL     OW17701   2.508   0.810   6.292
 5601SOL    HW117702   2.431   0.816   6.356
 5601SOL    HW217703   2.535   0.715   6.280
 5602SOL     OW17704   1.962   0.957   6.753
 5602SOL    HW117705   2.050   0.932   6.792
 5602SOL    HW217706   1.906   1.004   6.821
 5603SOL     OW17707   6.252   4.258   5.181
 5603SOL    HW117708   6.197   4.175   5.177
 5603SOL    HW217709   6.192   4.338   5.192
 5604SOL     OW17710   5.221   0.656   6.082
 5604SOL    HW117711   5.243   0.600   6.002
 5604SOL    HW217712   5.176   0.600   6.152
 5605SOL     OW17713   0.545   1.904   6.649
 5605SOL    HW117714   0.639   1.919   6.616
 5605SOL    HW217715   0.548   1.863   6.740
 5606SOL     OW17716   5.427   0.307   3.107
 5606SOL    HW117717   5.496   0.269   3.045
 5606SOL    HW217718   5.458   0.395   3.142
 5607SOL     OW17719   5.627   0.430   1.136
 5607SOL    HW117720   5.544   0.394   1.094
 5607SOL    HW217721   5.704   0.421   1.073
 5608SOL     OW17722   3.737   6.429   4.929
 5608SOL    HW117723   3.769   6.452   4.837
 5608SOL    HW217724   3.754   6.506   4.991
 5609SOL     OW17725   1.218   5.621   5.985
 5609SOL    HW117726   1.213   5.573   5.898
 5609SOL    HW217727   1.304   5.598   6.031
 5610SOL     OW17728   4.502   0.142   6.548
 5610SOL    HW117729   4.522   0.151   6.646
 5610SOL    HW217730   4.476   0.231   6.511
 5611SOL     OW17731   1.885   4.333   4.443
 5611SOL    HW117732   1.869   4.285   4.529
 5611SOL    HW217733   1.972   4.304   4.404
 5612SOL     OW17734   3.452   6.498   4.771
 5612SOL    HW117735   3.381   6.488   4.841
 5612SOL    HW217736   3.506   6.580   4.790
 5613SOL     OW17737   3.125   5.610   1.691
 5613SOL    HW117738   3.194   5.585   1.759
 5613SOL    HW217739   3.037   5.568   1.717
 5614SOL     OW17740   5.133   1.676   4.421
 5614SOL    HW117741   5.104   1.769   4.443
 5614SOL    HW217742   5.233   1.671   4.421
 5615SOL     OW17743   1.147   1.659   1.776
 5615SOL    HW117744   1.155   1.673   1.677
 5615SOL    HW217745   1.229   1.614   1.810
 5616SOL     OW17746   1.993   6.443   5.186
 5616SOL    HW117747   2.040   6.367   5.232
 5616SOL    HW217748   1.997   6.524   5.243
 5617SOL     OW17749   0.579   1.016   5.807
 5617SOL    HW117750   0.526   0.949   5.860
 5617SOL    HW217751   0.538   1.025   5.716
 5618SOL     OW17752   6.149   5.353   2.623
 5618SOL    HW117753   6.079   5.287   2.652
 5618SOL    HW217754   6.109   5.444   2.616
 5619SOL     OW17755   2.314   3.758   5.312
 5619SOL    HW117756   2.331   3.830   5.246
 5619SOL    HW217757   2.225   3.773   5.356
 5620SOL     OW17758   5.076   2.247   6.988
 5620SOL    HW117759   4.983   2.226   6.957
 5620SOL    HW217760   5.118   2.163   7.023
 5621SOL     OW17761   2.415   1.941   6.560
 5621SOL    HW117762   2.419   1.986   6.471
 5621SOL    HW217763   2.329   1.890   6.568
 5622SOL     OW17764   5.469   0.063   5.333
 5622SOL    HW117765   5.465   6.988   5.332
 5622SOL    HW217766   5.474   0.096   5.427
 5623SOL     OW17767   6.990   6.014   6.804
 5623SOL    HW117768   7.012   6.060   6.890
 5623SOL    HW217769   6.956   6.081   6.738
 5624SOL     OW17770   0.756   4.256   2.036
 5624SOL    HW117771   0.695   4.316   1.985
 5624SOL    HW217772   0.786   4.181   1.978
 5625SOL     OW17773   6.328   1.937   5.692
 5625SOL    HW117774   6.319   1.929   5.791
 5625SOL    HW217775   6.237   1.939   5.650
 5626SOL     OW17776   5.248   6.525   5.051
 5626SOL    HW117777   5.292   6.615   5.046
 5626SOL    HW217778   5.195   6.509   4.968
 5627SOL     OW17779   0.907   0.507   1.018
 5627SOL    HW117780   0.993   0.541   0.980
 5627SOL    HW217781   0.857   0.457   0.948
 5628SOL     OW17782   1.705   1.530   4.037
 5628SOL    HW117783   1.661   1.566   4.119
 5628SOL    HW217784   1.804   1.530   4.049
 5629SOL     OW17785   3.287   2.940   3.617
 5629SOL    HW117786   3.337   2.955   3.532
 5629SOL    HW217787   3.344   2.890   3.682
 5630SOL     OW17788   6.561   4.091   0.833
 5630SOL    HW117789   6.488   4.157   0.850
 5630SOL    HW217790   6.650   4.137   0.835
 5631SOL     OW17791   5.596   0.918   6.215
 5631SOL    HW117792   5.590   0.951   6.310
 5631SOL    HW217793   5.686   0.941   6.178
 5632SOL     OW17794   3.233   2.270   0.657
 5632SOL    HW117795   3.165   2.304   0.721
 5632SOL    HW217796   3.189   2.207   0.593
 5633SOL     OW17797   6.533   2.797   5.478
 5633SOL    HW117798   6.618   2.848   5.491
 5633SOL    HW217799   6.482   2.794   5.564
 5634SOL     OW17800   4.736   6.532   4.630
 5634SOL    HW117801   4.655   6.480   4.603
 5634SOL    HW217802   4.817   6.494   4.586
 5635SOL     OW17803   3.606   1.453   6.038
 5635SOL    HW117804   3.592   1.497   5.949
 5635SOL    HW217805   3.519   1.450   6.087
 5636SOL     OW17806   4.638   6.711   4.387
 5636SOL    HW117807   4.663   6.784   4.451
 5636SOL    HW217808   4.585   6.641   4.436
 5637SOL     OW17809   5.728   0.145   3.577
 5637SOL    HW117810   5.633   0.173   3.593
 5637SOL    HW217811   5.760   0.185   3.491
 5638SOL     OW17812   0.036   3.743   0.300
 5638SOL    HW117813   6.975   3.765   0.253
 5638SOL    HW217814   0.085   3.672   0.249
 5639SOL     OW17815   4.342   6.775   7.013
 5639SOL    HW117816   4.409   6.849   7.017
 5639SOL    HW217817   4.274   6.788   0.062
 5640SOL     OW17818   1.286   0.284   3.090
 5640SOL    HW117819   1.187   0.293   3.085
 5640SOL    HW217820   1.330   0.364   3.049
 5641SOL     OW17821   6.828   5.145   4.788
 5641SOL    HW117822   6.906   5.195   4.827
 5641SOL    HW217823   6.815   5.059   4.838
 5642SOL     OW17824   1.721   1.311   0.182
 5642SOL    HW117825   1.657   1.257   0.236
 5642SOL    HW217826   1.699   1.301   0.085
 5643SOL     OW17827   5.535   1.865   6.023
 5643SOL    HW117828   5.514   1.947   5.971
 5643SOL    HW217829   5.564   1.792   5.961
 5644SOL     OW17830   2.788   0.587   6.060
 5644SOL    HW117831   2.707   0.570   6.116
 5644SOL    HW217832   2.866   0.606   6.120
 5645SOL     OW17833   5.961   3.630   4.450
 5645SOL    HW117834   6.045   3.681   4.431
 5645SOL    HW217835   5.898   3.642   4.373
 5646SOL     OW17836   0.470   4.308   2.704
 5646SOL    HW117837   0.519   4.392   2.679
 5646SOL    HW217838   0.416   4.276   2.626
 5647SOL     OW17839   5.110   5.785   2.608
 5647SOL    HW117840   5.059   5.870   2.619
 5647SOL    HW217841   5.188   5.800   2.548
 5648SOL     OW17842   5.256   6.215   3.146
 5648SOL    HW117843   5.215   6.306   3.140
 5648SOL    HW217844   5.222   6.159   3.071
 5649SOL     OW17845   0.504   0.093   4.500
 5649SOL    HW117846   0.563   0.144   4.437
 5649SOL    HW217847   0.561   0.037   4.561
 5650SOL     OW17848   6.996   3.625   6.172
 5650SOL    HW117849   6.991   3.614   6.072
 5650SOL    HW217850   0.016   3.544   6.211
 5651SOL     OW17851   2.843   1.164   0.727
 5651SOL    HW117852   2.781   1.179   0.649
 5651SOL    HW217853   2.886   1.251   0.751
 5652SOL     OW17854   0.407   5.574   2.875
 5652SOL    HW117855   0.486   5.614   2.922
 5652SOL    HW217856   0.431   5.556   2.780
 5653SOL     OW17857   6.819   0.462   2.977
 5653SOL    HW117858   6.722   0.478   2.993
 5653SOL    HW217859   6.862   0.431   3.062
 5654SOL     OW17860   3.221   5.999   5.495
 5654SOL    HW117861   3.242   5.982   5.399
 5654SOL    HW217862   3.304   6.023   5.544
 5655SOL     OW17863   5.640   3.358   4.326
 5655SOL    HW117864   5.575   3.282   4.317
 5655SOL    HW217865   5.714   3.346   4.259
 5656SOL     OW17866   0.258   3.822   0.476
 5656SOL    HW117867   0.176   3.804   0.422
 5656SOL    HW217868   0.234   3.824   0.573
 5657SOL     OW17869   5.758   5.891   5.088
 5657SOL    HW117870   5.752   5.864   4.992
 5657SOL    HW217871   5.804   5.980   5.095
 5658SOL     OW17872   2.733   2.586   6.187
 5658SOL    HW117873   2.775   2.677   6.183
 5658SOL    HW217874   2.691   2.566   6.098
 5659SOL     OW17875   2.568   4.424   6.738
 5659SOL    HW117876   2.634   4.369   6.787
 5659SOL    HW217877   2.550   4.384   6.648
 5660SOL     OW17878   3.857   0.184   4.733
 5660SOL    HW117879   3.812   0.096   4.722
 5660SOL    HW217880   3.811   0.253   4.676
 5661SOL     OW17881   0.721   5.853   6.419
 5661SOL    HW117882   0.701   5.794   6.340
 5661SOL    HW217883   0.679   5.942   6.406
 5662SOL     OW17884   2.759   6.532   0.689
 5662SOL    HW117885   2.724   6.497   0.602
 5662SOL    HW217886   2.851   6.496   0.704
 5663SOL     OW17887   2.578   2.614   6.416
 5663SOL    HW117888   2.597   2.694   6.472
 5663SOL    HW217889   2.643   2.610   6.340
 5664SOL     OW17890   4.930   4.869   4.343
 5664SOL    HW117891   4.962   4.778   4.315
 5664SOL    HW217892   4.899   4.865   4.437
 5665SOL     OW17893   1.736   1.023   0.906
 5665SOL    HW117894   1.699   1.074   0.984
 5665SOL    HW217895   1.715   0.925   0.917
 5666SOL     OW17896   5.690   2.995   4.878
 5666SOL    HW117897   5.617   2.928   4.893
 5666SOL    HW217898   5.717   2.995   4.782
 5667SOL     OW17899   3.160   4.919   4.110
 5667SOL    HW117900   3.087   4.856   4.084
 5667SOL    HW217901   3.171   4.919   4.210
 5668SOL     OW17902   4.221   4.682   3.877
 5668SOL    HW117903   4.294   4.624   3.913
 5668SOL    HW217904   4.204   4.658   3.782
 5669SOL     OW17905   5.882   4.370   5.814
 5669SOL    HW117906   5.859   4.438   5.744
 5669SOL    HW217907   5.891   4.415   5.903
 5670SOL     OW17908   1.401   2.776   4.476
 5670SOL    HW117909   1.484   2.827   4.499
 5670SOL    HW217910   1.373   2.721   4.555
 5671SOL     OW17911   6.466   5.779   2.924
 5671SOL    HW117912   6.540   5.746   2.981
 5671SOL    HW217913   6.491   5.771   2.828
 5672SOL     OW17914   5.337   3.347   4.512
 5672SOL    HW117915   5.385   3.327   4.427
 5672SOL    HW217916   5.403   3.371   4.583
 5673SOL     OW17917   0.593   2.355   0.364
 5673SOL    HW117918   0.565   2.347   0.268
 5673SOL    HW217919   0.646   2.274   0.390
 5674SOL     OW17920   2.737   5.322   5.375
 5674SOL    HW117921   2.778   5.234   5.352
 5674SOL    HW217922   2.808   5.385   5.407
 5675SOL     OW17923   3.315   1.986   1.043
 5675SOL    HW117924   3.221   1.953   1.041
 5675SOL    HW217925   3.377   1.911   1.020
 5676SOL     OW17926   3.902   1.652   1.756
 5676SOL    HW117927   3.985   1.623   1.709
 5676SOL    HW217928   3.823   1.611   1.711
 5677SOL     OW17929   0.912   1.825   6.024
 5677SOL    HW117930   0.813   1.832   6.033
 5677SOL    HW217931   0.941   1.868   5.938
 5678SOL     OW17932   3.910   1.998   2.322
 5678SOL    HW117933   4.005   2.007   2.293
 5678SOL    HW217934   3.901   2.028   2.417
 5679SOL     OW17935   6.892   3.680   5.652
 5679SOL    HW117936   6.931   3.594   5.619
 5679SOL    HW217937   6.799   3.689   5.617
 5680SOL     OW17938   0.536   5.691   4.938
 5680SOL    HW117939   0.438   5.712   4.940
 5680SOL    HW217940   0.588   5.775   4.919
 5681SOL     OW17941   1.217   3.509   3.240
 5681SOL    HW117942   1.294   3.522   3.301
 5681SOL    HW217943   1.242   3.445   3.167
 5682SOL     OW17944   1.866   4.762   1.072
 5682SOL    HW117945   1.791   4.700   1.096
 5682SOL    HW217946   1.946   4.741   1.127
 5683SOL     OW17947   7.022   0.234   5.694
 5683SOL    HW117948   6.966   0.174   5.752
 5683SOL    HW217949   6.962   0.288   5.635
 5684SOL     OW17950   2.029   2.758   4.866
 5684SOL    HW117951   2.025   2.681   4.929
 5684SOL    HW217952   1.991   2.731   4.778
 5685SOL     OW17953   2.161   1.750   1.728
 5685SOL    HW117954   2.178   1.769   1.631
 5685SOL    HW217955   2.211   1.668   1.755
 5686SOL     OW17956   5.607   6.098   5.821
 5686SOL    HW117957   5.665   6.095   5.740
 5686SOL    HW217958   5.662   6.124   5.901
 5687SOL     OW17959   1.718   6.775   6.382
 5687SOL    HW117960   1.727   6.810   6.289
 5687SOL    HW217961   1.775   6.693   6.393
 5688SOL     OW17962   1.657   2.102   3.213
 5688SOL    HW117963   1.734   2.161   3.237
 5688SOL    HW217964   1.688   2.008   3.205
 5689SOL     OW17965   0.134   2.519   0.979
 5689SOL    HW117966   0.096   2.605   1.014
 5689SOL    HW217967   0.076   2.443   1.005
 5690SOL     OW17968   3.019   5.290   0.039
 5690SOL    HW117969   3.062   5.318   0.124
 5690SOL    HW217970   2.928   5.252   0.059
 5691SOL     OW17971   4.536   2.573   3.513
 5691SOL    HW117972   4.572   2.526   3.594
 5691SOL    HW217973   4.463   2.517   3.472
 5692SOL     OW17974   6.278   4.963   1.543
 5692SOL    HW117975   6.221   4.965   1.461
 5692SOL    HW217976   6.234   4.907   1.613
 5693SOL     OW17977   3.400   0.668   2.742
 5693SOL    HW117978   3.450   0.614   2.674
 5693SOL    HW217979   3.358   0.606   2.808
 5694SOL     OW17980   0.286   0.301   1.091
 5694SOL    HW117981   0.313   0.224   1.032
 5694SOL    HW217982   0.367   0.356   1.113
 5695SOL     OW17983   2.120   0.986   2.157
 5695SOL    HW117984   2.138   0.982   2.255
 5695SOL    HW217985   2.064   1.066   2.136
 5696SOL     OW17986   0.275   6.849   3.675
 5696SOL    HW117987   0.255   6.832   3.579
 5696SOL    HW217988   0.191   6.838   3.729
 5697SOL     OW17989   6.290   1.511   0.361
 5697SOL    HW117990   6.359   1.526   0.290
 5697SOL    HW217991   6.333   1.510   0.451
 5698SOL     OW17992   2.999   2.171   3.428
 5698SOL    HW117993   3.074   2.146   3.489
 5698SOL    HW217994   3.033   2.177   3.334
 5699SOL     OW17995   2.412   2.598   2.492
 5699SOL    HW117996   2.456   2.512   2.516
 5699SOL    HW217997   2.405   2.606   2.393
 5700SOL     OW17998   5.637   0.044   2.871
 5700SOL    HW117999   5.706   0.100   2.826
 5700SOL    HW218000   5.552   0.046   2.818
 5701SOL     OW18001   1.781   0.461   0.943
 5701SOL    HW118002   1.749   0.497   1.031
 5701SOL    HW218003   1.792   0.362   0.950
 5702SOL     OW18004   1.262   6.204   5.031
 5702SOL    HW118005   1.269   6.154   4.945
 5702SOL    HW218006   1.202   6.154   5.094
 5703SOL     OW18007   0.775   2.869   6.104
 5703SOL    HW118008   0.683   2.906   6.091
 5703SOL    HW218009   0.802   2.881   6.200
 5704SOL     OW18010   4.160   5.604   4.205
 5704SOL    HW118011   4.158   5.605   4.305
 5704SOL    HW218012   4.162   5.509   4.173
 5705SOL     OW18013   5.784   0.880   5.201
 5705SOL    HW118014   5.857   0.814   5.217
 5705SOL    HW218015   5.793   0.956   5.264
 5706SOL     OW18016   5.707   1.740   0.949
 5706SOL    HW118017   5.750   1.682   0.879
 5706SOL    HW218018   5.638   1.687   0.998
 5707SOL     OW18019   5.866   5.246   1.014
 5707SOL    HW118020   5.856   5.189   1.096
 5707SOL    HW218021   5.962   5.247   0.986
 5708SOL     OW18022   5.493   6.398   2.086
 5708SOL    HW118023   5.409   6.352   2.057
 5708SOL    HW218024   5.510   6.378   2.182
 5709SOL     OW18025   0.412   3.171   2.386
 5709SOL    HW118026   0.489   3.235   2.396
 5709SOL    HW218027   0.412   3.133   2.294
 5710SOL     OW18028   5.014   1.641   1.141
 5710SOL    HW118029   5.029   1.739   1.155
 5710SOL    HW218030   5.003   1.596   1.230
 5711SOL     OW18031   4.469   1.721   1.927
 5711SOL    HW118032   4.531   1.782   1.976
 5711SOL    HW218033   4.523   1.654   1.875
 5712SOL     OW18034   6.385   6.283   6.902
 5712SOL    HW118035   6.370   6.381   6.917
 5712SOL    HW218036   6.421   6.269   6.810
 5713SOL     OW18037   1.273   1.439   0.895
 5713SOL    HW118038   1.334   1.384   0.838
 5713SOL    HW218039   1.294   1.423   0.992
 5714SOL     OW18040   5.874   0.463   0.905
 5714SOL    HW118041   5.930   0.459   0.823
 5714SOL    HW218042   5.843   0.557   0.920
 5715SOL     OW18043   0.071   6.664   0.995
 5715SOL    HW118044   0.083   6.617   1.082
 5715SOL    HW218045   0.114   6.754   0.999
 5716SOL     OW18046   1.013   4.641   5.330
 5716SOL    HW118047   0.934   4.581   5.346
 5716SOL    HW218048   1.002   4.689   5.243
 5717SOL     OW18049   0.165   5.511   3.406
 5717SOL    HW118050   0.224   5.493   3.485
 5717SOL    HW218051   0.089   5.446   3.406
 5718SOL     OW18052   1.166   4.218   0.122
 5718SOL    HW118053   1.220   4.229   0.038
 5718SOL    HW218054   1.149   4.121   0.139
 5719SOL     OW18055   2.849   3.006   0.464
 5719SOL    HW118056   2.915   3.080   0.475
 5719SOL    HW218057   2.770   3.039   0.412
 5720SOL     OW18058   2.985   4.989   6.432
 5720SOL    HW118059   3.035   5.038   6.504
 5720SOL    HW218060   3.049   4.963   6.360
 5721SOL     OW18061   1.211   2.964   0.713
 5721SOL    HW118062   1.203   3.020   0.796
 5721SOL    HW218063   1.306   2.962   0.683
 5722SOL     OW18064   1.385   0.408   5.757
 5722SOL    HW118065   1.312   0.473   5.780
 5722SOL    HW218066   1.420   0.429   5.666
 5723SOL     OW18067   4.220   3.403   0.192
 5723SOL    HW118068   4.188   3.444   0.278
 5723SOL    HW218069   4.233   3.305   0.204
 5724SOL     OW18070   5.939   1.846   5.825
 5724SOL    HW118071   5.895   1.922   5.872
 5724SOL    HW218072   5.902   1.760   5.861
 5725SOL     OW18073   6.997   4.344   4.880
 5725SOL    HW118074   0.000   4.258   4.923
 5725SOL    HW218075   7.007   4.419   4.947
 5726SOL     OW18076   4.491   4.547   2.017
 5726SOL    HW118077   4.523   4.453   2.005
 5726SOL    HW218078   4.570   4.608   2.025
 5727SOL     OW18079   1.175   3.071   5.931
 5727SOL    HW118080   1.129   3.094   6.017
 5727SOL    HW218081   1.248   3.136   5.913
 5728SOL     OW18082   2.914   6.857   4.784
 5728SOL    HW118083   2.921   6.914   4.702
 5728SOL    HW218084   3.005   6.840   4.821
 5729SOL     OW18085   2.755   2.048   4.607
 5729SOL    HW118086   2.769   1.959   4.563
 5729SOL    HW218087   2.842   2.097   4.613
 5730SOL     OW18088   6.351   4.443   4.892
 5730SOL    HW118089   6.321   4.523   4.944
 5730SOL    HW218090   6.409   4.385   4.950
 5731SOL     OW18091   0.780   6.669   2.225
 5731SOL    HW118092   0.715   6.622   2.165
 5731SOL    HW218093   0.739   6.752   2.261
 5732SOL     OW18094   5.321   0.343   3.692
 5732SOL    HW118095   5.309   0.384   3.601
 5732SOL    HW218096   5.306   0.412   3.762
 5733SOL     OW18097   2.888   1.230   4.998
 5733SOL    HW118098   2.879   1.152   5.059
 5733SOL    HW218099   2.902   1.197   4.904
 5734SOL     OW18100   1.385   6.656   3.981
 5734SOL    HW118101   1.295   6.697   3.968
 5734SOL    HW218102   1.407   6.654   4.079
 5735SOL     OW18103   2.944   1.022   1.253
 5735SOL    HW118104   3.040   1.005   1.231
 5735SOL    HW218105   2.886   0.966   1.194
 5736SOL     OW18106   1.847   4.926   0.586
 5736SOL    HW118107   1.922   4.894   0.528
 5736SOL    HW218108   1.854   4.881   0.676
 5737SOL     OW18109   6.037   4.145   0.014
 5737SOL    HW118110   6.079   4.141   0.104
 5737SOL    HW218111   6.107   4.159   6.969
 5738SOL     OW18112   0.394   5.249   4.278
 5738SOL    HW118113   0.460   5.223   4.348
 5738SOL    HW218114   0.432   5.322   4.221
 5739SOL     OW18115   0.778   2.920   0.988
 5739SOL    HW118116   0.704   2.980   1.018
 5739SOL    HW218117   0.747   2.862   0.912
 5740SOL     OW18118   4.415   5.195   0.013
 5740SOL    HW118119   4.337   5.138   0.038
 5740SOL    HW218120   4.482   5.194   0.087
 5741SOL     OW18121   0.451   2.998   2.165
 5741SOL    HW118122   0.404   3.047   2.091
 5741SOL    HW218123   0.393   2.923   2.197
 5742SOL     OW18124   0.681   5.372   3.687
 5742SOL    HW118125   0.650   5.443   3.750
 5742SOL    HW218126   0.688   5.410   3.595
 5743SOL     OW18127   0.980   6.536   5.645
 5743SOL    HW118128   0.978   6.499   5.738
 5743SOL    HW218129   0.910   6.492   5.589
 5744SOL     OW18130   6.421   0.463   1.916
 5744SOL    HW118131   6.413   0.516   1.831
 5744SOL    HW218132   6.360   0.501   1.985
 5745SOL     OW18133   6.950   3.320   2.976
 5745SOL    HW118134   6.919   3.410   2.947
 5745SOL    HW218135   7.011   3.281   2.907
 5746SOL     OW18136   6.916   4.480   6.186
 5746SOL    HW118137   6.877   4.438   6.268
 5746SOL    HW218138   6.845   4.492   6.117
 5747SOL     OW18139   0.154   6.237   3.629
 5747SOL    HW118140   0.082   6.261   3.694
 5747SOL    HW218141   0.123   6.256   3.536
 5748SOL     OW18142   1.359   0.593   4.035
 5748SOL    HW118143   1.318   0.683   4.048
 5748SOL    HW218144   1.289   0.522   4.044
 5749SOL     OW18145   0.653   0.923   3.166
 5749SOL    HW118146   0.604   0.954   3.248
 5749SOL    HW218147   0.633   0.985   3.090
 5750SOL     OW18148   5.920   6.834   2.243
 5750SOL    HW118149   5.973   6.913   2.273
 5750SOL    HW218150   5.968   6.750   2.268
 5751SOL     OW18151   0.848   2.622   6.443
 5751SOL    HW118152   0.855   2.715   6.408
 5751SOL    HW218153   0.938   2.591   6.473
 5752SOL     OW18154   1.614   1.356   6.847
 5752SOL    HW118155   1.535   1.407   6.814
 5752SOL    HW218156   1.671   1.417   6.903
 5753SOL     OW18157   4.948   1.310   6.976
 5753SOL    HW118158   4.961   1.363   0.035
 5753SOL    HW218159   4.942   1.371   6.898
 5754SOL     OW18160   6.052   5.848   0.847
 5754SOL    HW118161   6.132   5.883   0.799
 5754SOL    HW218162   6.059   5.749   0.856
 5755SOL     OW18163   3.217   3.848   1.738
 5755SOL    HW118164   3.253   3.774   1.681
 5755SOL    HW218165   3.288   3.879   1.801
 5756SOL     OW18166   6.380   6.948   4.160
 5756SOL    HW118167   6.429   0.001   4.200
 5756SOL    HW218168   6.323   6.905   4.229
 5757SOL     OW18169   6.539   6.024   1.795
 5757SOL    HW118170   6.561   6.032   1.698
 5757SOL    HW218171   6.587   6.096   1.846
 5758SOL     OW18172   2.858   1.026   5.834
 5758SOL    HW118173   2.813   1.053   5.749
 5758SOL    HW218174   2.891   0.932   5.826
 5759SOL     OW18175   0.665   1.040   6.103
 5759SOL    HW118176   0.659   0.946   6.136
 5759SOL    HW218177   0.620   1.046   6.014
 5760SOL     OW18178   6.956   5.729   1.291
 5760SOL    HW118179   6.943   5.728   1.391
 5760SOL    HW218180   6.879   5.775   1.248
 5761SOL     OW18181   4.162   0.765   4.275
 5761SOL    HW118182   4.206   0.836   4.221
 5761SOL    HW218183   4.135   0.690   4.215
 5762SOL     OW18184   4.831   6.505   1.222
 5762SOL    HW118185   4.858   6.483   1.128
 5762SOL    HW218186   4.898   6.568   1.262
 5763SOL     OW18187   3.574   0.789   0.440
 5763SOL    HW118188   3.488   0.752   0.403
 5763SOL    HW218189   3.650   0.763   0.379
 5764SOL     OW18190   3.797   2.923   6.495
 5764SOL    HW118191   3.724   2.884   6.552
 5764SOL    HW218192   3.882   2.924   6.547
 5765SOL     OW18193   6.520   5.438   6.559
 5765SOL    HW118194   6.500   5.488   6.475
 5765SOL    HW218195   6.551   5.346   6.537
 5766SOL     OW18196   2.243   1.643   3.011
 5766SOL    HW118197   2.229   1.598   2.923
 5766SOL    HW218198   2.193   1.593   3.082
 5767SOL     OW18199   5.315   6.067   6.998
 5767SOL    HW118200   5.243   6.137   6.993
 5767SOL    HW218201   5.302   6.001   6.924
 5768SOL     OW18202   6.333   6.631   2.060
 5768SOL    HW118203   6.315   6.538   2.030
 5768SOL    HW218204   6.418   6.664   2.018
 5769SOL     OW18205   0.450   4.248   3.093
 5769SOL    HW118206   0.550   4.245   3.084
 5769SOL    HW218207   0.420   4.343   3.100
 5770SOL     OW18208   5.307   2.273   1.833
 5770SOL    HW118209   5.216   2.238   1.855
 5770SOL    HW218210   5.305   2.319   1.745
 5771SOL     OW18211   0.895   1.015   1.794
 5771SOL    HW118212   0.923   0.947   1.725
 5771SOL    HW218213   0.977   1.051   1.840
 5772SOL     OW18214   6.357   5.489   5.794
 5772SOL    HW118215   6.432   5.435   5.758
 5772SOL    HW218216   6.301   5.432   5.854
 5773SOL     OW18217   5.190   5.973   4.411
 5773SOL    HW118218   5.155   6.055   4.458
 5773SOL    HW218219   5.160   5.974   4.316
 5774SOL     OW18220   1.742   5.157   2.066
 5774SOL    HW118221   1.677   5.089   2.099
 5774SOL    HW218222   1.825   5.110   2.034
 5775SOL     OW18223   0.927   0.831   0.686
 5775SOL    HW118224   0.943   0.907   0.750
 5775SOL    HW218225   0.880   0.866   0.605
 5776SOL     OW18226   5.102   0.895   6.097
 5776SOL    HW118227   5.150   0.809   6.080
 5776SOL    HW218228   5.037   0.883   6.172
 5777SOL     OW18229   5.779   6.483   4.457
 5777SOL    HW118230   5.704   6.416   4.453
 5777SOL    HW218231   5.865   6.438   4.433
 5778SOL     OW18232   2.810   0.003   4.043
 5778SOL    HW118233   2.889   6.984   4.000
 5778SOL    HW218234   2.827   0.101   4.055
 5779SOL     OW18235   4.134   0.287   2.223
 5779SOL    HW118236   4.228   0.314   2.242
 5779SOL    HW218237   4.085   0.363   2.181
 5780SOL     OW18238   6.474   4.708   0.609
 5780SOL    HW118239   6.479   4.613   0.640
 5780SOL    HW218240   6.564   4.751   0.618
 5781SOL     OW18241   3.917   3.959   5.446
 5781SOL    HW118242   4.009   3.999   5.449
 5781SOL    HW218243   3.903   3.903   5.528
 5782SOL     OW18244   4.738   2.207   2.899
 5782SOL    HW118245   4.643   2.194   2.927
 5782SOL    HW218246   4.743   2.277   2.828
 5783SOL     OW18247   3.498   6.179   3.029
 5783SOL    HW118248   3.536   6.247   3.092
 5783SOL    HW218249   3.470   6.098   3.080
 5784SOL     OW18250   1.319   6.059   1.363
 5784SOL    HW118251   1.378   6.094   1.290
 5784SOL    HW218252   1.254   6.130   1.391
 5785SOL     OW18253   2.283   1.592   6.557
 5785SOL    HW118254   2.375   1.567   6.587
 5785SOL    HW218255   2.263   1.686   6.585
 5786SOL     OW18256   2.136   1.644   6.851
 5786SOL    HW118257   2.110   1.719   6.911
 5786SOL    HW218258   2.065   1.630   6.782
 5787SOL     OW18259   1.090   2.111   5.538
 5787SOL    HW118260   1.091   2.053   5.457
 5787SOL    HW218261   1.177   2.102   5.586
 5788SOL     OW18262   0.573   2.556   2.057
 5788SOL    HW118263   0.658   2.507   2.037
 5788SOL    HW218264   0.568   2.639   2.002
 5789SOL     OW18265   2.897   0.157   0.509
 5789SOL    HW118266   2.930   0.122   0.421
 5789SOL    HW218267   2.819   0.102   0.539
 5790SOL     OW18268   6.631   6.390   2.420
 5790SOL    HW118269   6.653   6.317   2.355
 5790SOL    HW218270   6.539   6.424   2.403
 5791SOL     OW18271   4.219   0.779   1.126
 5791SOL    HW118272   4.313   0.796   1.155
 5791SOL    HW218273   4.158   0.783   1.205
 5792SOL     OW18274   4.501   2.479   2.501
 5792SOL    HW118275   4.518   2.567   2.544
 5792SOL    HW218276   4.424   2.434   2.546
 5793SOL     OW18277   3.999   2.185   0.282
 5793SOL    HW118278   4.047   2.253   0.338
 5793SOL    HW218279   3.901   2.206   0.281
 5794SOL     OW18280   3.050   6.492   6.735
 5794SOL    HW118281   2.959   6.464   6.764
 5794SOL    HW218282   3.119   6.434   6.779
 5795SOL     OW18283   1.301   1.139   1.416
 5795SOL    HW118284   1.213   1.116   1.457
 5795SOL    HW218285   1.323   1.234   1.435
 5796SOL     OW18286   4.560   0.488   5.972
 5796SOL    HW118287   4.496   0.435   5.917
 5796SOL    HW218288   4.653   0.455   5.957
 5797SOL     OW18289   6.175   1.651   0.122
 5797SOL    HW118290   6.264   1.697   0.117
 5797SOL    HW218291   6.153   1.630   0.217
 5798SOL     OW18292   1.891   2.417   4.798
 5798SOL    HW118293   1.812   2.358   4.810
 5798SOL    HW218294   1.920   2.416   4.702
 5799SOL     OW18295   3.076   0.422   4.184
 5799SOL    HW118296   3.012   0.386   4.117
 5799SOL    HW218297   3.079   0.361   4.263
 5800SOL     OW18298   1.567   6.169   1.551
 5800SOL    HW118299   1.560   6.157   1.452
 5800SOL    HW218300   1.661   6.151   1.581
 5801SOL     OW18301   1.654   2.445   3.144
 5801SOL    HW118302   1.723   2.397   3.197
 5801SOL    HW218303   1.658   2.415   3.048
 5802SOL     OW18304   7.015   0.100   3.124
 5802SOL    HW118305   6.970   0.126   3.039
 5802SOL    HW218306   0.080   0.143   3.129
 5803SOL     OW18307   0.383   6.342   4.401
 5803SOL    HW118308   0.317   6.344   4.476
 5803SOL    HW218309   0.344   6.386   4.320
 5804SOL     OW18310   6.144   2.182   3.382
 5804SOL    HW118311   6.150   2.277   3.413
 5804SOL    HW218312   6.050   2.150   3.393
 5805SOL     OW18313   0.613   2.758   1.355
 5805SOL    HW118314   0.591   2.673   1.405
 5805SOL    HW218315   0.551   2.768   1.278
 5806SOL     OW18316   6.483   4.502   1.767
 5806SOL    HW118317   6.562   4.469   1.819
 5806SOL    HW218318   6.453   4.431   1.704
 5807SOL     OW18319   0.857   0.970   2.460
 5807SOL    HW118320   0.937   1.027   2.477
 5807SOL    HW218321   0.887   0.880   2.428
 5808SOL     OW18322   6.437   5.967   5.786
 5808SOL    HW118323   6.438   6.044   5.851
 5808SOL    HW218324   6.449   6.002   5.693
 5809SOL     OW18325   6.880   3.561   4.804
 5809SOL    HW118326   6.880   3.503   4.722
 5809SOL    HW218327   6.974   3.585   4.828
 5810SOL     OW18328   0.773   6.631   5.187
 5810SOL    HW118329   0.784   6.693   5.109
 5810SOL    HW218330   0.786   6.682   5.272
 5811SOL     OW18331   3.324   4.929   0.138
 5811SOL    HW118332   3.384   4.884   0.073
 5811SOL    HW218333   3.245   4.968   0.090
 5812SOL     OW18334   6.686   2.442   6.130
 5812SOL    HW118335   6.710   2.363   6.187
 5812SOL    HW218336   6.678   2.523   6.187
 5813SOL     OW18337   6.133   5.569   0.883
 5813SOL    HW118338   6.176   5.484   0.854
 5813SOL    HW218339   6.160   5.590   0.976
 5814SOL     OW18340   5.187   2.028   2.645
 5814SOL    HW118341   5.229   2.092   2.581
 5814SOL    HW218342   5.087   2.030   2.634
 5815SOL     OW18343   6.482   4.015   4.967
 5815SOL    HW118344   6.440   3.934   4.926
 5815SOL    HW218345   6.501   4.082   4.895
 5816SOL     OW18346   0.264   4.606   1.186
 5816SOL    HW118347   0.232   4.623   1.092
 5816SOL    HW218348   0.230   4.517   1.217
 5817SOL     OW18349   6.102   2.860   4.379
 5817SOL    HW118350   6.021   2.846   4.323
 5817SOL    HW218351   6.084   2.828   4.472
 5818SOL     OW18352   2.659   0.558   4.164
 5818SOL    HW118353   2.624   0.640   4.117
 5818SOL    HW218354   2.641   0.567   4.262
 5819SOL     OW18355   3.964   3.990   1.258
 5819SOL    HW118356   3.964   3.892   1.241
 5819SOL    HW218357   4.057   4.022   1.271
 5820SOL     OW18358   0.931   6.454   2.260
 5820SOL    HW118359   1.016   6.485   2.217
 5820SOL    HW218360   0.865   6.530   2.261
 5821SOL     OW18361   5.602   6.116   2.151
 5821SOL    HW118362   5.578   6.195   2.094
 5821SOL    HW218363   5.676   6.065   2.108
 5822SOL     OW18364   0.710   4.185   3.067
 5822SOL    HW118365   0.675   4.134   2.988
 5822SOL    HW218366   0.792   4.236   3.041
 5823SOL     OW18367   2.711   6.714   5.300
 5823SOL    HW118368   2.757   6.799   5.327
 5823SOL    HW218369   2.696   6.657   5.380
 5824SOL     OW18370   2.831   5.611   2.716
 5824SOL    HW118371   2.896   5.666   2.663
 5824SOL    HW218372   2.746   5.601   2.664
 5825SOL     OW18373   3.768   2.083   4.279
 5825SOL    HW118374   3.677   2.091   4.318
 5825SOL    HW218375   3.827   2.033   4.342
 5826SOL     OW18376   1.044   6.100   5.191
 5826SOL    HW118377   0.991   6.172   5.235
 5826SOL    HW218378   1.014   6.089   5.096
 5827SOL     OW18379   2.043   4.117   3.917
 5827SOL    HW118380   1.948   4.128   3.949
 5827SOL    HW218381   2.104   4.115   3.996
 5828SOL     OW18382   4.467   0.561   5.113
 5828SOL    HW118383   4.377   0.556   5.156
 5828SOL    HW218384   4.537   0.543   5.182
 5829SOL     OW18385   1.733   1.204   2.838
 5829SOL    HW118386   1.829   1.221   2.816
 5829SOL    HW218387   1.721   1.204   2.937
 5830SOL     OW18388   5.076   4.970   4.767
 5830SOL    HW118389   5.009   5.042   4.750
 5830SOL    HW218390   5.167   5.010   4.776
 5831SOL     OW18391   2.492   2.041   4.790
 5831SOL    HW118392   2.450   2.073   4.704
 5831SOL    HW218393   2.585   2.008   4.771
 5832SOL     OW18394   2.646   4.845   3.369
 5832SOL    HW118395   2.645   4.787   3.288
 5832SOL    HW218396   2.681   4.936   3.345
 5833SOL     OW18397   2.430   4.491   1.246
 5833SOL    HW118398   2.400   4.519   1.155
 5833SOL    HW218399   2.383   4.545   1.315
 5834SOL     OW18400   5.772   1.633   5.934
 5834SOL    HW118401   5.706   1.579   5.882
 5834SOL    HW218402   5.746   1.633   6.031
 5835SOL     OW18403   3.553   1.099   4.004
 5835SOL    HW118404   3.538   1.102   3.905
 5835SOL    HW218405   3.470   1.126   4.052
 5836SOL     OW18406   5.270   4.737   1.125
 5836SOL    HW118407   5.349   4.796   1.113
 5836SOL    HW218408   5.234   4.748   1.218
 5837SOL     OW18409   2.016   4.096   0.235
 5837SOL    HW118410   2.043   4.119   0.328
 5837SOL    HW218411   2.051   4.166   0.172
 5838SOL     OW18412   3.085   3.168   0.423
 5838SOL    HW118413   3.049   3.260   0.410
 5838SOL    HW218414   3.110   3.129   0.334
 5839SOL     OW18415   2.586   1.088   1.035
 5839SOL    HW118416   2.608   1.009   0.978
 5839SOL    HW218417   2.665   1.150   1.038
 5840SOL     OW18418   6.236   3.613   2.114
 5840SOL    HW118419   6.308   3.553   2.150
 5840SOL    HW218420   6.228   3.694   2.172
 5841SOL     OW18421   5.281   2.284   1.006
 5841SOL    HW118422   5.305   2.327   0.919
 5841SOL    HW218423   5.195   2.322   1.040
 5842SOL     OW18424   3.876   2.161   2.592
 5842SOL    HW118425   3.959   2.201   2.554
 5842SOL    HW218426   3.867   2.186   2.689
 5843SOL     OW18427   3.284   2.296   1.047
 5843SOL    HW118428   3.281   2.197   1.034
 5843SOL    HW218429   3.233   2.321   1.130
 5844SOL     OW18430   6.719   5.488   5.432
 5844SOL    HW118431   6.620   5.502   5.444
 5844SOL    HW218432   6.765   5.577   5.433
 5845SOL     OW18433   2.066   6.240   3.112
 5845SOL    HW118434   2.139   6.298   3.148
 5845SOL    HW218435   2.048   6.165   3.176
 5846SOL     OW18436   0.553   4.322   4.713
 5846SOL    HW118437   0.558   4.393   4.642
 5846SOL    HW218438   0.480   4.345   4.778
 5847SOL     OW18439   2.160   4.156   5.999
 5847SOL    HW118440   2.253   4.132   5.969
 5847SOL    HW218441   2.162   4.175   6.097
 5848SOL     OW18442   3.026   6.621   1.069
 5848SOL    HW118443   2.939   6.578   1.095
 5848SOL    HW218444   3.101   6.555   1.082
 5849SOL     OW18445   3.355   5.779   6.940
 5849SOL    HW118446   3.341   5.719   6.862
 5849SOL    HW218447   3.276   5.773   7.002
 5850SOL     OW18448   5.129   2.233   1.374
 5850SOL    HW118449   5.118   2.185   1.461
 5850SOL    HW218450   5.226   2.254   1.360
 5851SOL     OW18451   1.369   3.071   5.506
 5851SOL    HW118452   1.409   3.001   5.448
 5851SOL    HW218453   1.299   3.030   5.565
 5852SOL     OW18454   4.277   4.981   3.124
 5852SOL    HW118455   4.192   4.930   3.111
 5852SOL    HW218456   4.288   5.003   3.221
 5853SOL     OW18457   4.654   4.530   0.197
 5853SOL    HW118458   4.635   4.433   0.215
 5853SOL    HW218459   4.747   4.539   0.162
 5854SOL     OW18460   2.663   4.512   5.282
 5854SOL    HW118461   2.681   4.525   5.379
 5854SOL    HW218462   2.750   4.510   5.232
 5855SOL     OW18463   1.587   1.695   4.536
 5855SOL    HW118464   1.628   1.774   4.581
 5855SOL    HW218465   1.548   1.722   4.448
 5856SOL     OW18466   0.528   0.569   2.365
 5856SOL    HW118467   0.554   0.581   2.270
 5856SOL    HW218468   0.429   0.562   2.372
 5857SOL     OW18469   6.314   5.488   6.744
 5857SOL    HW118470   6.389   5.511   6.681
 5857SOL    HW218471   6.228   5.524   6.708
 5858SOL     OW18472   3.075   1.668   2.020
 5858SOL    HW118473   3.173   1.683   2.010
 5858SOL    HW218474   3.026   1.707   1.942
 5859SOL     OW18475   5.970   4.922   1.456
 5859SOL    HW118476   5.920   4.971   1.528
 5859SOL    HW218477   5.956   4.824   1.467
 5860SOL     OW18478   1.698   3.168   1.943
 5860SOL    HW118479   1.714   3.116   1.859
 5860SOL    HW218480   1.604   3.154   1.974
 5861SOL     OW18481   5.211   7.010   5.015
 5861SOL    HW118482   5.278   0.055   5.043
 5861SOL    HW218483   5.215   6.997   4.916
 5862SOL     OW18484   6.962   4.584   2.058
 5862SOL    HW118485   0.030   4.558   2.085
 5862SOL    HW218486   6.963   4.621   1.965
 5863SOL     OW18487   4.227   6.527   6.179
 5863SOL    HW118488   4.260   6.548   6.271
 5863SOL    HW218489   4.211   6.612   6.128
 5864SOL     OW18490   3.484   2.871   3.846
 5864SOL    HW118491   3.489   2.788   3.901
 5864SOL    HW218492   3.435   2.941   3.897
 5865SOL     OW18493   6.782   6.330   1.146
 5865SOL    HW118494   6.752   6.235   1.154
 5865SOL    HW218495   6.752   6.367   1.057
 5866SOL     OW18496   3.213   3.267   4.087
 5866SOL    HW118497   3.252   3.350   4.046
 5866SOL    HW218498   3.211   3.276   4.186
 5867SOL     OW18499   4.859   1.194   1.017
 5867SOL    HW118500   4.806   1.225   0.938
 5867SOL    HW218501   4.827   1.103   1.045
 5868SOL     OW18502   1.514   0.899   1.126
 5868SOL    HW118503   1.570   0.971   1.086
 5868SOL    HW218504   1.512   0.909   1.226
 5869SOL     OW18505   1.626   5.231   3.751
 5869SOL    HW118506   1.597   5.200   3.660
 5869SOL    HW218507   1.725   5.219   3.761
 5870SOL     OW18508   3.960   6.357   3.573
 5870SOL    HW118509   3.959   6.452   3.604
 5870SOL    HW218510   3.887   6.344   3.505
 5871SOL     OW18511   3.693   2.942   3.644
 5871SOL    HW118512   3.628   2.894   3.704
 5871SOL    HW218513   3.670   2.923   3.549
 5872SOL     OW18514   3.477   5.600   1.107
 5872SOL    HW118515   3.565   5.621   1.067
 5872SOL    HW218516   3.411   5.577   1.035
 5873SOL     OW18517   4.254   6.826   2.241
 5873SOL    HW118518   4.191   6.903   2.245
 5873SOL    HW218519   4.348   6.859   2.243
 5874SOL     OW18520   0.298   4.003   4.853
 5874SOL    HW118521   0.333   3.936   4.918
 5874SOL    HW218522   0.215   3.968   4.810
 5875SOL     OW18523   4.271   2.766   0.681
 5875SOL    HW118524   4.222   2.842   0.640
 5875SOL    HW218525   4.213   2.684   0.678
 5876SOL     OW18526   3.223   3.372   3.187
 5876SOL    HW118527   3.185   3.410   3.271
 5876SOL    HW218528   3.281   3.294   3.209
 5877SOL     OW18529   5.029   3.941   1.800
 5877SOL    HW118530   4.937   3.972   1.776
 5877SOL    HW218531   5.084   3.930   1.717
 5878SOL     OW18532   0.481   3.751   1.613
 5878SOL    HW118533   0.514   3.811   1.686
 5878SOL    HW218534   0.384   3.732   1.627
 5879SOL     OW18535   1.818   4.531   5.030
 5879SOL    HW118536   1.729   4.576   5.025
 5879SOL    HW218537   1.810   4.438   4.992
 5880SOL     OW18538   2.598   4.982   6.917
 5880SOL    HW118539   2.560   5.018   7.002
 5880SOL    HW218540   2.544   5.016   6.839
 5881SOL     OW18541   1.594   6.525   3.846
 5881SOL    HW118542   1.627   6.450   3.904
 5881SOL    HW218543   1.518   6.571   3.891
 5882SOL     OW18544   4.813   0.599   2.851
 5882SOL    HW118545   4.891   0.549   2.887
 5882SOL    HW218546   4.817   0.694   2.882
 5883SOL     OW18547   1.568   3.069   5.690
 5883SOL    HW118548   1.662   3.101   5.679
 5883SOL    HW218549   1.514   3.097   5.612
 5884SOL     OW18550   0.025   0.416   3.127
 5884SOL    HW118551   0.113   0.389   3.088
 5884SOL    HW218552   0.029   0.512   3.156
 5885SOL     OW18553   5.578   6.336   0.189
 5885SOL    HW118554   5.534   6.256   0.230
 5885SOL    HW218555   5.557   6.340   0.092
 5886SOL     OW18556   5.747   1.277   5.678
 5886SOL    HW118557   5.748   1.333   5.595
 5886SOL    HW218558   5.657   1.237   5.690
 5887SOL     OW18559   3.305   6.554   2.398
 5887SOL    HW118560   3.232   6.487   2.388
 5887SOL    HW218561   3.268   6.640   2.432
 5888SOL     OW18562   6.902   5.841   1.565
 5888SOL    HW118563   6.820   5.887   1.532
 5888SOL    HW218564   6.959   5.905   1.616
 5889SOL     OW18565   3.166   6.767   0.656
 5889SOL    HW118566   3.123   6.767   0.565
 5889SOL    HW218567   3.166   6.860   0.693
 5890SOL     OW18568   4.208   5.267   5.970
 5890SOL    HW118569   4.139   5.236   5.903
 5890SOL    HW218570   4.262   5.341   5.930
 5891SOL     OW18571   1.681   2.866   6.304
 5891SOL    HW118572   1.767   2.815   6.304
 5891SOL    HW218573   1.664   2.902   6.396
 5892SOL     OW18574   3.257   5.844   1.866
 5892SOL    HW118575   3.176   5.790   1.891
 5892SOL    HW218576   3.250   5.870   1.769
 5893SOL     OW18577   1.321   3.102   2.627
 5893SOL    HW118578   1.373   3.086   2.711
 5893SOL    HW218579   1.385   3.119   2.551
 5894SOL     OW18580   1.088   3.756   3.735
 5894SOL    HW118581   1.066   3.659   3.741
 5894SOL    HW218582   1.140   3.783   3.817
 5895SOL     OW18583   5.385   5.105   2.922
 5895SOL    HW118584   5.389   5.181   2.987
 5895SOL    HW218585   5.295   5.102   2.879
 5896SOL     OW18586   4.923   1.619   5.618
 5896SOL    HW118587   5.013   1.576   5.603
 5896SOL    HW218588   4.865   1.602   5.539
 5897SOL     OW18589   4.517   4.328   0.763
 5897SOL    HW118590   4.497   4.399   0.831
 5897SOL    HW218591   4.442   4.322   0.698
 5898SOL     OW18592   1.883   6.378   2.962
 5898SOL    HW118593   1.798   6.351   3.007
 5898SOL    HW218594   1.959   6.325   3.000
 5899SOL     OW18595   5.037   0.637   3.504
 5899SOL    HW118596   5.003   0.610   3.593
 5899SOL    HW218597   5.137   0.629   3.502
 5900SOL     OW18598   3.870   4.980   1.900
 5900SOL    HW118599   3.935   4.984   1.825
 5900SOL    HW218600   3.902   4.914   1.969
 5901SOL     OW18601   3.072   6.065   4.077
 5901SOL    HW118602   3.152   6.121   4.097
 5901SOL    HW218603   3.101   5.973   4.049
 5902SOL     OW18604   5.908   2.877   0.258
 5902SOL    HW118605   5.898   2.873   0.358
 5902SOL    HW218606   6.004   2.868   0.234
 5903SOL     OW18607   0.792   2.167   6.531
 5903SOL    HW118608   0.782   2.071   6.503
 5903SOL    HW218609   0.811   2.170   6.629
 5904SOL     OW18610   1.316   3.354   2.092
 5904SOL    HW118611   1.359   3.433   2.047
 5904SOL    HW218612   1.380   3.278   2.093
 5905SOL     OW18613   6.834   3.554   2.081
 5905SOL    HW118614   6.809   3.601   1.997
 5905SOL    HW218615   6.751   3.530   2.132
 5906SOL     OW18616   6.435   1.024   3.408
 5906SOL    HW118617   6.502   1.098   3.416
 5906SOL    HW218618   6.428   0.974   3.495
 5907SOL     OW18619   1.457   1.132   2.788
 5907SOL    HW118620   1.389   1.201   2.815
 5907SOL    HW218621   1.549   1.168   2.802
 5908SOL     OW18622   1.055   2.865   5.430
 5908SOL    HW118623   0.993   2.801   5.475
 5908SOL    HW218624   1.126   2.893   5.494
 5909SOL     OW18625   6.648   4.708   6.632
 5909SOL    HW118626   6.618   4.627   6.581
 5909SOL    HW218627   6.741   4.693   6.665
 5910SOL     OW18628   1.457   1.564   3.223
 5910SOL    HW118629   1.453   1.661   3.201
 5910SOL    HW218630   1.498   1.553   3.314
 5911SOL     OW18631   6.528   5.793   6.746
 5911SOL    HW118632   6.605   5.848   6.780
 5911SOL    HW218633   6.477   5.846   6.678
 5912SOL     OW18634   0.684   1.235   2.955
 5912SOL    HW118635   0.711   1.197   2.867
 5912SOL    HW218636   0.608   1.299   2.942
 5913SOL     OW18637   6.402   3.133   1.489
 5913SOL    HW118638   6.454   3.048   1.480
 5913SOL    HW218639   6.416   3.189   1.407
 5914SOL     OW18640   1.695   0.073   0.644
 5914SOL    HW118641   1.600   0.075   0.674
 5914SOL    HW218642   1.734   0.165   0.649
 5915SOL     OW18643   3.765   0.219   5.505
 5915SOL    HW118644   3.862   0.212   5.485
 5915SOL    HW218645   3.733   0.312   5.484
 5916SOL     OW18646   1.229   0.358   2.437
 5916SOL    HW118647   1.139   0.321   2.414
 5916SOL    HW218648   1.245   0.348   2.535
 5917SOL     OW18649   3.305   3.638   0.621
 5917SOL    HW118650   3.223   3.680   0.659
 5917SOL    HW218651   3.361   3.709   0.578
 5918SOL     OW18652   3.628   0.031   4.710
 5918SOL    HW118653   3.534   0.065   4.716
 5918SOL    HW218654   3.628   6.963   4.672
 5919SOL     OW18655   3.220   4.176   5.045
 5919SOL    HW118656   3.200   4.239   4.970
 5919SOL    HW218657   3.319   4.173   5.061
 5920SOL     OW18658   1.097   0.533   5.649
 5920SOL    HW118659   1.051   0.518   5.736
 5920SOL    HW218660   1.167   0.604   5.660
 5921SOL     OW18661   2.528   5.109   0.651
 5921SOL    HW118662   2.559   5.153   0.736
 5921SOL    HW218663   2.448   5.053   0.669
 5922SOL     OW18664   4.732   2.528   2.351
 5922SOL    HW118665   4.653   2.505   2.408
 5922SOL    HW218666   4.709   2.603   2.290
 5923SOL     OW18667   5.846   1.077   2.978
 5923SOL    HW118668   5.882   1.053   3.068
 5923SOL    HW218669   5.822   1.174   2.976
 5924SOL     OW18670   0.081   6.686   3.353
 5924SOL    HW118671   0.026   6.767   3.335
 5924SOL    HW218672   0.068   6.620   3.279
 5925SOL     OW18673   5.204   0.753   1.178
 5925SOL    HW118674   5.291   0.703   1.170
 5925SOL    HW218675   5.216   0.846   1.146
 5926SOL     OW18676   5.330   3.255   3.531
 5926SOL    HW118677   5.359   3.221   3.442
 5926SOL    HW218678   5.310   3.177   3.591
 5927SOL     OW18679   0.661   6.699   1.503
 5927SOL    HW118680   0.691   6.791   1.476
 5927SOL    HW218681   0.656   6.641   1.422
 5928SOL     OW18682   2.954   0.043   0.260
 5928SOL    HW118683   3.010   6.990   0.230
 5928SOL    HW218684   2.875   0.052   0.198
 5929SOL     OW18685   1.038   0.880   1.614
 5929SOL    HW118686   1.034   0.960   1.555
 5929SOL    HW218687   1.134   0.859   1.636
 5930SOL     OW18688   1.227   4.438   1.954
 5930SOL    HW118689   1.320   4.431   1.918
 5930SOL    HW218690   1.190   4.346   1.966
 5931SOL     OW18691   5.037   6.503   4.298
 5931SOL    HW118692   5.066   6.435   4.231
 5931SOL    HW218693   4.998   6.457   4.378
 5932SOL     OW18694   3.551   5.763   0.195
 5932SOL    HW118695   3.540   5.828   0.270
 5932SOL    HW218696   3.599   5.808   0.119
 5933SOL     OW18697   6.676   5.730   4.286
 5933SOL    HW118698   6.687   5.636   4.319
 5933SOL    HW218699   6.751   5.752   4.223
 5934SOL     OW18700   3.411   4.344   6.776
 5934SOL    HW118701   3.504   4.310   6.763
 5934SOL    HW218702   3.390   4.347   6.873
 5935SOL     OW18703   1.313   0.493   5.237
 5935SOL    HW118704   1.225   0.468   5.197
 5935SOL    HW218705   1.386   0.444   5.191
 5936SOL     OW18706   3.784   2.925   2.321
 5936SOL    HW118707   3.846   2.848   2.331
 5936SOL    HW218708   3.799   2.969   2.232
 5937SOL     OW18709   0.848   3.023   0.397
 5937SOL    HW118710   0.769   2.962   0.405
 5937SOL    HW218711   0.893   3.007   0.308
 5938SOL     OW18712   1.357   3.188   4.645
 5938SOL    HW118713   1.442   3.239   4.630
 5938SOL    HW218714   1.290   3.215   4.576
 5939SOL     OW18715   4.764   0.544   6.203
 5939SOL    HW118716   4.698   0.615   6.176
 5939SOL    HW218717   4.718   0.455   6.206
 5940SOL     OW18718   5.147   5.063   0.894
 5940SOL    HW118719   5.128   4.994   0.964
 5940SOL    HW218720   5.236   5.043   0.852
 5941SOL     OW18721   0.870   1.410   3.467
 5941SOL    HW118722   0.837   1.495   3.426
 5941SOL    HW218723   0.892   1.426   3.563
 5942SOL     OW18724   5.018   2.246   6.184
 5942SOL    HW118725   5.101   2.271   6.233
 5942SOL    HW218726   4.970   2.174   6.234
 5943SOL     OW18727   2.242   4.663   2.235
 5943SOL    HW118728   2.332   4.639   2.200
 5943SOL    HW218729   2.227   4.616   2.322
 5944SOL     OW18730   6.807   3.909   6.040
 5944SOL    HW118731   6.790   3.811   6.053
 5944SOL    HW218732   6.881   3.938   6.100
 5945SOL     OW18733   6.918   6.643   3.889
 5945SOL    HW118734   7.012   6.676   3.884
 5945SOL    HW218735   6.867   6.701   3.953
 5946SOL     OW18736   3.244   2.793   6.377
 5946SOL    HW118737   3.321   2.844   6.339
 5946SOL    HW218738   3.170   2.788   6.309
 5947SOL     OW18739   3.466   3.410   5.124
 5947SOL    HW118740   3.444   3.451   5.213
 5947SOL    HW218741   3.447   3.477   5.052
 5948SOL     OW18742   4.749   3.971   1.793
 5948SOL    HW118743   4.753   3.877   1.761
 5948SOL    HW218744   4.656   4.007   1.782
 5949SOL     OW18745   1.021   4.261   3.899
 5949SOL    HW118746   1.054   4.350   3.931
 5949SOL    HW218747   1.082   4.189   3.932
 5950SOL     OW18748   2.385   0.136   4.795
 5950SOL    HW118749   2.482   0.162   4.798
 5950SOL    HW218750   2.375   0.049   4.747
 5951SOL     OW18751   0.275   2.864   6.213
 5951SOL    HW118752   0.230   2.779   6.187
 5951SOL    HW218753   0.302   2.859   6.309
 5952SOL     OW18754   3.653   4.154   1.842
 5952SOL    HW118755   3.751   4.134   1.835
 5952SOL    HW218756   3.633   4.241   1.798
 5953SOL     OW18757   6.896   2.711   6.784
 5953SOL    HW118758   6.870   2.756   6.870
 5953SOL    HW218759   6.995   2.694   6.785
 5954SOL     OW18760   2.168   4.983   3.733
 5954SOL    HW118761   2.108   4.929   3.793
 5954SOL    HW218762   2.255   4.935   3.722
 5955SOL     OW18763   3.898   3.009   0.415
 5955SOL    HW118764   3.863   3.098   0.442
 5955SOL    HW218765   3.974   2.983   0.475
 5956SOL     OW18766   4.328   2.443   6.840
 5956SOL    HW118767   4.424   2.419   6.856
 5956SOL    HW218768   4.279   2.364   6.805
 5957SOL     OW18769   6.774   2.269   3.462
 5957SOL    HW118770   6.802   2.265   3.558
 5957SOL    HW218771   6.686   2.316   3.455
 5958SOL     OW18772   2.897   6.113   2.595
 5958SOL    HW118773   2.840   6.109   2.513
 5958SOL    HW218774   2.849   6.072   2.672
 5959SOL     OW18775   4.996   4.400   2.789
 5959SOL    HW118776   4.914   4.345   2.774
 5959SOL    HW218777   5.076   4.354   2.749
 5960SOL     OW18778   5.849   0.087   6.412
 5960SOL    HW118779   5.898   0.169   6.383
 5960SOL    HW218780   5.763   0.079   6.362
 5961SOL     OW18781   2.350   2.229   3.703
 5961SOL    HW118782   2.332   2.186   3.615
 5961SOL    HW218783   2.427   2.293   3.694
 5962SOL     OW18784   5.313   4.778   6.927
 5962SOL    HW118785   5.308   4.844   7.002
 5962SOL    HW218786   5.389   4.715   6.942
 5963SOL     OW18787   1.774   3.904   0.499
 5963SOL    HW118788   1.741   3.836   0.565
 5963SOL    HW218789   1.863   3.875   0.464
 5964SOL     OW18790   1.828   6.944   3.168
 5964SOL    HW118791   1.791   6.851   3.175
 5964SOL    HW218792   1.768   6.999   3.111
 5965SOL     OW18793   2.567   0.580   1.104
 5965SOL    HW118794   2.581   0.638   1.024
 5965SOL    HW218795   2.646   0.588   1.165
 5966SOL     OW18796   3.117   1.687   4.985
 5966SOL    HW118797   3.138   1.593   4.960
 5966SOL    HW218798   3.189   1.748   4.950
 5967SOL     OW18799   4.670   2.257   5.662
 5967SOL    HW118800   4.675   2.333   5.597
 5967SOL    HW218801   4.576   2.248   5.696
 5968SOL     OW18802   6.276   2.001   3.198
 5968SOL    HW118803   6.254   2.085   3.248
 5968SOL    HW218804   6.194   1.945   3.189
 5969SOL     OW18805   5.375   6.570   1.192
 5969SOL    HW118806   5.465   6.590   1.154
 5969SOL    HW218807   5.307   6.630   1.149
 5970SOL     OW18808   6.066   2.200   0.508
 5970SOL    HW118809   6.071   2.182   0.410
 5970SOL    HW218810   6.157   2.223   0.542
 5971SOL     OW18811   6.787   5.322   3.881
 5971SOL    HW118812   6.711   5.281   3.829
 5971SOL    HW218813   6.819   5.255   3.949
 5972SOL     OW18814   5.979   5.093   0.697
 5972SOL    HW118815   5.972   4.995   0.719
 5972SOL    HW218816   5.897   5.140   0.729
 5973SOL     OW18817   3.530   0.855   2.455
 5973SOL    HW118818   3.440   0.897   2.469
 5973SOL    HW218819   3.537   0.772   2.510
 5974SOL     OW18820   5.756   1.323   4.414
 5974SOL    HW118821   5.766   1.357   4.508
 5974SOL    HW218822   5.723   1.229   4.416
 5975SOL     OW18823   3.663   5.098   0.312
 5975SOL    HW118824   3.731   5.030   0.285
 5975SOL    HW218825   3.593   5.054   0.369
 5976SOL     OW18826   1.446   2.702   6.241
 5976SOL    HW118827   1.370   2.721   6.303
 5976SOL    HW218828   1.526   2.753   6.270
 5977SOL     OW18829   0.606   5.752   1.733
 5977SOL    HW118830   0.556   5.666   1.725
 5977SOL    HW218831   0.628   5.786   1.642
 5978SOL     OW18832   3.191   3.626   6.131
 5978SOL    HW118833   3.251   3.547   6.121
 5978SOL    HW218834   3.104   3.598   6.170
 5979SOL     OW18835   5.896   0.254   1.139
 5979SOL    HW118836   5.906   0.295   1.049
 5979SOL    HW218837   5.985   0.228   1.175
 5980SOL     OW18838   3.399   2.484   0.864
 5980SOL    HW118839   3.389   2.408   0.928
 5980SOL    HW218840   3.494   2.515   0.865
 5981SOL     OW18841   3.248   2.659   0.715
 5981SOL    HW118842   3.221   2.739   0.768
 5981SOL    HW218843   3.295   2.593   0.774
 5982SOL     OW18844   5.747   2.733   1.296
 5982SOL    HW118845   5.676   2.765   1.360
 5982SOL    HW218846   5.717   2.647   1.254
 5983SOL     OW18847   6.688   1.376   3.698
 5983SOL    HW118848   6.692   1.351   3.602
 5983SOL    HW218849   6.609   1.435   3.714
 5984SOL     OW18850   5.942   6.186   2.167
 5984SOL    HW118851   5.854   6.201   2.120
 5984SOL    HW218852   5.950   6.090   2.193
 5985SOL     OW18853   6.258   5.004   2.834
 5985SOL    HW118854   6.178   4.960   2.876
 5985SOL    HW218855   6.231   5.049   2.749
 5986SOL     OW18856   3.885   2.997   3.397
 5986SOL    HW118857   3.871   2.931   3.470
 5986SOL    HW218858   3.960   3.059   3.421
 5987SOL     OW18859   6.873   6.293   4.213
 5987SOL    HW118860   6.911   6.209   4.253
 5987SOL    HW218861   6.909   6.372   4.262
 5988SOL     OW18862   1.778   2.090   0.288
 5988SOL    HW118863   1.802   2.169   0.344
 5988SOL    HW218864   1.699   2.043   0.328
 5989SOL     OW18865   2.363   6.454   5.423
 5989SOL    HW118866   2.360   6.554   5.412
 5989SOL    HW218867   2.451   6.419   5.391
 5990SOL     OW18868   2.323   3.742   1.709
 5990SOL    HW118869   2.284   3.834   1.706
 5990SOL    HW218870   2.420   3.746   1.687
 5991SOL     OW18871   5.378   1.508   0.865
 5991SOL    HW118872   5.302   1.450   0.892
 5991SOL    HW218873   5.464   1.465   0.892
 5992SOL     OW18874   2.656   4.672   3.643
 5992SOL    HW118875   2.592   4.598   3.665
 5992SOL    HW218876   2.634   4.709   3.553
 5993SOL     OW18877   5.846   2.159   0.162
 5993SOL    HW118878   5.850   2.160   0.062
 5993SOL    HW218879   5.928   2.115   0.198
 5994SOL     OW18880   0.224   4.330   0.675
 5994SOL    HW118881   0.263   4.419   0.694
 5994SOL    HW218882   0.297   4.267   0.647
 5995SOL     OW18883   5.326   3.639   0.680
 5995SOL    HW118884   5.247   3.594   0.639
 5995SOL    HW218885   5.309   3.737   0.686
 5996SOL     OW18886   1.888   0.383   2.084
 5996SOL    HW118887   1.794   0.410   2.103
 5996SOL    HW218888   1.920   0.431   2.002
 5997SOL     OW18889   6.384   0.357   4.466
 5997SOL    HW118890   6.373   0.355   4.367
 5997SOL    HW218891   6.455   0.424   4.490
 5998SOL     OW18892   6.074   6.164   6.362
 5998SOL    HW118893   6.111   6.144   6.271
 5998SOL    HW218894   6.125   6.111   6.430
 5999SOL     OW18895   5.418   3.607   0.937
 5999SOL    HW118896   5.475   3.688   0.947
 5999SOL    HW218897   5.373   3.609   0.847
 6000SOL     OW18898   1.136   4.792   1.691
 6000SOL    HW118899   1.101   4.846   1.768
 6000SOL    HW218900   1.087   4.817   1.608
 6001SOL     OW18901   6.896   6.043   5.635
 6001SOL    HW118902   6.874   6.020   5.729
 6001SOL    HW218903   6.992   6.068   5.628
 6002SOL     OW18904   5.739   4.335   5.039
 6002SOL    HW118905   5.664   4.333   4.972
 6002SOL    HW218906   5.823   4.303   4.995
 6003SOL     OW18907   2.921   1.359   5.440
 6003SOL    HW118908   2.957   1.372   5.348
 6003SOL    HW218909   2.838   1.303   5.436
 6004SOL     OW18910   5.490   3.132   5.023
 6004SOL    HW118911   5.557   3.126   4.949
 6004SOL    HW218912   5.525   3.085   5.104
 6005SOL     OW18913   3.936   4.188   0.335
 6005SOL    HW118914   3.890   4.168   0.248
 6005SOL    HW218915   4.033   4.166   0.327
 6006SOL     OW18916   2.861   6.156   6.183
 6006SOL    HW118917   2.774   6.106   6.193
 6006SOL    HW218918   2.927   6.097   6.135
 6007SOL     OW18919   2.696   6.577   4.514
 6007SOL    HW118920   2.607   6.532   4.505
 6007SOL    HW218921   2.731   6.560   4.606
 6008SOL     OW18922   2.438   3.978   6.916
 6008SOL    HW118923   2.383   3.894   6.917
 6008SOL    HW218924   2.459   4.005   7.009
 6009SOL     OW18925   2.991   5.407   2.836
 6009SOL    HW118926   3.020   5.354   2.757
 6009SOL    HW218927   2.934   5.484   2.806
 6010SOL     OW18928   0.236   5.048   5.754
 6010SOL    HW118929   0.244   5.013   5.848
 6010SOL    HW218930   0.209   5.144   5.756
 6011SOL     OW18931   5.896   1.814   2.834
 6011SOL    HW118932   5.926   1.877   2.762
 6011SOL    HW218933   5.974   1.759   2.865
 6012SOL     OW18934   6.756   0.927   6.232
 6012SOL    HW118935   6.796   0.991   6.297
 6012SOL    HW218936   6.826   0.896   6.168
 6013SOL     OW18937   5.809   1.655   2.374
 6013SOL    HW118938   5.730   1.605   2.409
 6013SOL    HW218939   5.892   1.619   2.416
 6014SOL     OW18940   3.964   3.051   4.268
 6014SOL    HW118941   3.886   3.059   4.205
 6014SOL    HW218942   3.931   3.016   4.356
 6015SOL     OW18943   6.291   0.180   3.441
 6015SOL    HW118944   6.222   0.138   3.383
 6015SOL    HW218945   6.261   0.175   3.537
 6016SOL     OW18946   4.387   1.993   4.640
 6016SOL    HW118947   4.350   2.052   4.568
 6016SOL    HW218948   4.341   2.015   4.726
 6017SOL     OW18949   1.688   1.671   5.300
 6017SOL    HW118950   1.682   1.771   5.303
 6017SOL    HW218951   1.722   1.637   5.388
 6018SOL     OW18952   2.584   1.041   3.840
 6018SOL    HW118953   2.529   1.045   3.756
 6018SOL    HW218954   2.581   0.948   3.877
 6019SOL     OW18955   6.917   3.685   6.430
 6019SOL    HW118956   6.955   3.691   6.337
 6019SOL    HW218957   6.957   3.606   6.477
 6020SOL     OW18958   0.784   5.571   4.976
 6020SOL    HW118959   0.828   5.643   5.030
 6020SOL    HW218960   0.697   5.603   4.941
 6021SOL     OW18961   4.466   0.247   3.512
 6021SOL    HW118962   4.429   0.256   3.420
 6021SOL    HW218963   4.490   0.151   3.530
 6022SOL     OW18964   6.719   3.298   1.166
 6022SOL    HW118965   6.632   3.265   1.202
 6022SOL    HW218966   6.742   3.385   1.208
 6023SOL     OW18967   4.431   6.557   2.849
 6023SOL    HW118968   4.525   6.589   2.859
 6023SOL    HW218969   4.371   6.636   2.835
 6024SOL     OW18970   0.758   6.586   0.411
 6024SOL    HW118971   0.754   6.665   0.473
 6024SOL    HW218972   0.665   6.558   0.387
 6025SOL     OW18973   3.405   0.434   5.987
 6025SOL    HW118974   3.447   0.409   5.900
 6025SOL    HW218975   3.459   0.505   6.032
 6026SOL     OW18976   5.808   6.128   3.627
 6026SOL    HW118977   5.845   6.094   3.713
 6026SOL    HW218978   5.767   6.218   3.641
 6027SOL     OW18979   6.144   4.373   5.622
 6027SOL    HW118980   6.101   4.302   5.677
 6027SOL    HW218981   6.161   4.453   5.679
 6028SOL     OW18982   5.923   5.698   6.693
 6028SOL    HW118983   5.859   5.632   6.731
 6028SOL    HW218984   5.883   5.741   6.612
 6029SOL     OW18985   2.541   1.815   2.481
 6029SOL    HW118986   2.639   1.835   2.477
 6029SOL    HW218987   2.510   1.816   2.576
 6030SOL     OW18988   5.960   3.368   4.571
 6030SOL    HW118989   6.026   3.309   4.523
 6030SOL    HW218990   5.921   3.433   4.506
 6031SOL     OW18991   0.052   0.243   3.718
 6031SOL    HW118992   0.021   0.333   3.746
 6031SOL    HW218993   0.022   0.225   3.625
 6032SOL     OW18994   3.071   0.237   3.381
 6032SOL    HW118995   3.042   0.220   3.287
 6032SOL    HW218996   3.088   0.335   3.393
 6033SOL     OW18997   0.765   1.575   3.037
 6033SOL    HW118998   0.809   1.572   2.947
 6033SOL    HW218999   0.819   1.631   3.099
 6034SOL     OW19000   0.708   1.314   0.979
 6034SOL    HW119001   0.724   1.284   0.885
 6034SOL    HW219002   0.672   1.407   0.979
 6035SOL     OW19003   1.551   1.037   2.391
 6035SOL    HW119004   1.548   0.937   2.391
 6035SOL    HW219005   1.464   1.072   2.426
 6036SOL     OW19006   6.988   3.258   0.539
 6036SOL    HW119007   0.044   3.221   0.586
 6036SOL    HW219008   6.911   3.263   0.603
 6037SOL     OW19009   4.595   0.436   6.432
 6037SOL    HW119010   4.690   0.409   6.451
 6037SOL    HW219011   4.566   0.395   6.345
 6038SOL     OW19012   1.984   1.279   6.815
 6038SOL    HW119013   1.936   1.216   6.876
 6038SOL    HW219014   1.917   1.328   6.758
 6039SOL     OW19015   3.146   3.045   4.583
 6039SOL    HW119016   3.242   3.054   4.557
 6039SOL    HW219017   3.090   3.030   4.501
 6040SOL     OW19018   0.049   1.560   0.337
 6040SOL    HW119019   0.041   1.556   0.436
 6040SOL    HW219020   6.983   1.578   0.297
 6041SOL     OW19021   0.778   2.841   4.785
 6041SOL    HW119022   0.701   2.904   4.775
 6041SOL    HW219023   0.830   2.864   4.867
 6042SOL     OW19024   2.515   6.192   3.936
 6042SOL    HW119025   2.435   6.141   3.907
 6042SOL    HW219026   2.598   6.143   3.908
 6043SOL     OW19027   2.437   5.766   2.204
 6043SOL    HW119028   2.501   5.758   2.128
 6043SOL    HW219029   2.357   5.818   2.175
 6044SOL     OW19030   0.196   3.245   0.722
 6044SOL    HW119031   0.177   3.309   0.797
 6044SOL    HW219032   0.275   3.278   0.669
 6045SOL     OW19033   5.101   1.421   4.524
 6045SOL    HW119034   5.090   1.516   4.497
 6045SOL    HW219035   5.014   1.385   4.557
 6046SOL     OW19036   3.488   4.137   2.691
 6046SOL    HW119037   3.535   4.226   2.692
 6046SOL    HW219038   3.433   4.127   2.774
 6047SOL     OW19039   0.007   1.246   6.831
 6047SOL    HW119040   0.006   1.189   6.914
 6047SOL    HW219041   0.076   1.211   6.768
 6048SOL     OW19042   6.193   5.607   3.209
 6048SOL    HW119043   6.214   5.704   3.199
 6048SOL    HW219044   6.126   5.594   3.282
 6049SOL     OW19045   4.887   4.826   6.302
 6049SOL    HW119046   4.797   4.845   6.263
 6049SOL    HW219047   4.919   4.907   6.352
 6050SOL     OW19048   2.694   5.355   3.115
 6050SOL    HW119049   2.736   5.271   3.081
 6050SOL    HW219050   2.763   5.411   3.160
 6051SOL     OW19051   0.827   1.248   2.194
 6051SOL    HW119052   0.921   1.282   2.202
 6051SOL    HW219053   0.777   1.269   2.278
 6052SOL     OW19054   5.743   6.051   6.500
 6052SOL    HW119055   5.667   6.058   6.564
 6052SOL    HW219056   5.826   6.088   6.541
 6053SOL     OW19057   4.092   2.132   5.608
 6053SOL    HW119058   4.079   2.164   5.514
 6053SOL    HW219059   4.009   2.084   5.638
 6054SOL     OW19060   4.332   3.722   6.886
 6054SOL    HW119061   4.240   3.730   6.926
 6054SOL    HW219062   4.330   3.652   6.814
 6055SOL     OW19063   3.107   4.555   1.668
 6055SOL    HW119064   3.082   4.640   1.621
 6055SOL    HW219065   3.038   4.533   1.737
 6056SOL     OW19066   4.974   6.367   2.841
 6056SOL    HW119067   4.884   6.374   2.883
 6056SOL    HW219068   4.998   6.454   2.798
 6057SOL     OW19069   6.082   1.161   3.949
 6057SOL    HW119070   6.000   1.216   3.965
 6057SOL    HW219071   6.123   1.136   4.037
 6058SOL     OW19072   0.222   2.773   5.911
 6058SOL    HW119073   0.184   2.726   5.991
 6058SOL    HW219074   0.255   2.706   5.845
 6059SOL     OW19075   4.168   2.246   6.757
 6059SOL    HW119076   4.168   2.185   6.678
 6059SOL    HW219077   4.128   2.198   6.836
 6060SOL     OW19078   1.625   2.409   0.971
 6060SOL    HW119079   1.717   2.408   1.011
 6060SOL    HW219080   1.587   2.317   0.974
 6061SOL     OW19081   2.196   4.390   6.651
 6061SOL    HW119082   2.208   4.297   6.683
 6061SOL    HW219083   2.231   4.454   6.719
 6062SOL     OW19084   2.012   1.833   6.005
 6062SOL    HW119085   2.048   1.835   6.098
 6062SOL    HW219086   1.913   1.814   6.008
 6063SOL     OW19087   4.518   4.040   6.183
 6063SOL    HW119088   4.464   4.124   6.180
 6063SOL    HW219089   4.615   4.063   6.191
 6064SOL     OW19090   6.017   6.003   0.472
 6064SOL    HW119091   6.027   6.100   0.452
 6064SOL    HW219092   6.055   5.949   0.397
 6065SOL     OW19093   2.269   5.795   1.560
 6065SOL    HW119094   2.327   5.873   1.585
 6065SOL    HW219095   2.325   5.721   1.523
 6066SOL     OW19096   6.006   5.742   1.840
 6066SOL    HW119097   6.031   5.829   1.798
 6066SOL    HW219098   6.082   5.707   1.894
 6067SOL     OW19099   0.233   4.651   5.458
 6067SOL    HW119100   0.267   4.741   5.433
 6067SOL    HW219101   0.208   4.650   5.554
 6068SOL     OW19102   4.085   1.588   3.780
 6068SOL    HW119103   4.094   1.559   3.875
 6068SOL    HW219104   4.010   1.538   3.737
 6069SOL     OW19105   0.501   4.855   5.158
 6069SOL    HW119106   0.535   4.945   5.130
 6069SOL    HW219107   0.502   4.793   5.080
 6070SOL     OW19108   2.627   0.761   0.889
 6070SOL    HW119109   2.673   0.801   0.810
 6070SOL    HW219110   2.576   0.680   0.860
 6071SOL     OW19111   5.775   0.559   6.412
 6071SOL    HW119112   5.844   0.606   6.466
 6071SOL    HW219113   5.756   0.469   6.453
 6072SOL     OW19114   0.027   2.780   0.364
 6072SOL    HW119115   0.122   2.806   0.381
 6072SOL    HW219116   6.992   2.829   0.427
 6073SOL     OW19117   4.814   4.143   0.136
 6073SOL    HW119118   4.824   4.144   0.036
 6073SOL    HW219119   4.861   4.064   0.174
 6074SOL     OW19120   1.261   6.162   2.779
 6074SOL    HW119121   1.189   6.229   2.796
 6074SOL    HW219122   1.250   6.123   2.687
 6075SOL     OW19123   6.449   6.753   6.605
 6075SOL    HW119124   6.417   6.813   6.679
 6075SOL    HW219125   6.537   6.714   6.631
 6076SOL     OW19126   0.235   6.866   3.187
 6076SOL    HW119127   0.152   6.876   3.241
 6076SOL    HW219128   0.284   6.784   3.216
 6077SOL     OW19129   4.833   6.110   2.512
 6077SOL    HW119130   4.852   6.075   2.421
 6077SOL    HW219131   4.869   6.046   2.581
 6078SOL     OW19132   5.512   4.564   6.940
 6078SOL    HW119133   5.559   4.510   7.011
 6078SOL    HW219134   5.567   4.563   6.856
 6079SOL     OW19135   3.584   2.008   0.440
 6079SOL    HW119136   3.590   2.048   0.532
 6079SOL    HW219137   3.645   2.056   0.378
 6080SOL     OW19138   6.780   3.226   5.437
 6080SOL    HW119139   6.876   3.198   5.432
 6080SOL    HW219140   6.768   3.313   5.389
 6081SOL     OW19141   2.117   4.200   4.374
 6081SOL    HW119142   2.191   4.264   4.352
 6081SOL    HW219143   2.115   4.127   4.306
 6082SOL     OW19144   5.011   1.161   1.466
 6082SOL    HW119145   4.931   1.143   1.410
 6082SOL    HW219146   4.997   1.124   1.558
 6083SOL     OW19147   5.028   6.819   6.399
 6083SOL    HW119148   4.992   6.853   6.313
 6083SOL    HW219149   4.978   6.860   6.475
 6084SOL     OW19150   6.486   4.961   3.471
 6084SOL    HW119151   6.563   4.919   3.520
 6084SOL    HW219152   6.519   5.002   3.386
 6085SOL     OW19153   0.769   6.499   1.025
 6085SOL    HW119154   0.841   6.515   0.957
 6085SOL    HW219155   0.683   6.538   0.992
 6086SOL     OW19156   3.941   3.499   0.765
 6086SOL    HW119157   3.888   3.582   0.785
 6086SOL    HW219158   3.898   3.450   0.689
 6087SOL     OW19159   3.746   0.585   0.814
 6087SOL    HW119160   3.781   0.518   0.880
 6087SOL    HW219161   3.651   0.606   0.835
 6088SOL     OW19162   3.673   5.744   1.957
 6088SOL    HW119163   3.697   5.755   2.053
 6088SOL    HW219164   3.663   5.646   1.937
 6089SOL     OW19165   6.265   5.154   3.444
 6089SOL    HW119166   6.348   5.102   3.461
 6089SOL    HW219167   6.209   5.106   3.377
 6090SOL     OW19168   3.489   6.029   4.873
 6090SOL    HW119169   3.477   6.122   4.907
 6090SOL    HW219170   3.453   6.023   4.780
 6091SOL     OW19171   1.078   2.811   2.633
 6091SOL    HW119172   1.094   2.741   2.703
 6091SOL    HW219173   1.154   2.810   2.568
 6092SOL     OW19174   1.945   6.624   1.172
 6092SOL    HW119175   1.937   6.592   1.266
 6092SOL    HW219176   1.925   6.549   1.109
 6093SOL     OW19177   3.073   3.168   1.850
 6093SOL    HW119178   3.023   3.184   1.934
 6093SOL    HW219179   3.057   3.074   1.819
 6094SOL     OW19180   1.124   0.352   5.406
 6094SOL    HW119181   1.068   0.403   5.472
 6094SOL    HW219182   1.187   0.415   5.361
 6095SOL     OW19183   5.104   5.150   2.145
 6095SOL    HW119184   5.023   5.186   2.098
 6095SOL    HW219185   5.076   5.089   2.219
 6096SOL     OW19186   4.680   5.849   2.531
 6096SOL    HW119187   4.734   5.886   2.607
 6096SOL    HW219188   4.590   5.892   2.530
 6097SOL     OW19189   2.547   5.174   1.743
 6097SOL    HW119190   2.552   5.217   1.653
 6097SOL    HW219191   2.513   5.240   1.809
 6098SOL     OW19192   6.112   1.194   5.295
 6098SOL    HW119193   6.037   1.134   5.321
 6098SOL    HW219194   6.083   1.251   5.218
 6099SOL     OW19195   3.626   6.517   5.276
 6099SOL    HW119196   3.658   6.471   5.359
 6099SOL    HW219197   3.704   6.538   5.217
 6100SOL     OW19198   0.519   5.512   5.750
 6100SOL    HW119199   0.543   5.590   5.691
 6100SOL    HW219200   0.432   5.474   5.720
 6101SOL     OW19201   0.458   2.950   1.755
 6101SOL    HW119202   0.552   2.985   1.752
 6101SOL    HW219203   0.394   3.027   1.749
 6102SOL     OW19204   3.207   0.184   2.994
 6102SOL    HW119205   3.109   0.206   2.994
 6102SOL    HW219206   3.232   0.145   3.082
 6103SOL     OW19207   5.657   1.026   2.393
 6103SOL    HW119208   5.629   1.074   2.309
 6103SOL    HW219209   5.576   1.008   2.449
 6104SOL     OW19210   6.575   0.625   5.257
 6104SOL    HW119211   6.658   0.577   5.230
 6104SOL    HW219212   6.595   0.722   5.268
 6105SOL     OW19213   3.707   4.724   5.897
 6105SOL    HW119214   3.689   4.769   5.984
 6105SOL    HW219215   3.767   4.781   5.842
 6106SOL     OW19216   6.363   3.904   5.236
 6106SOL    HW119217   6.422   3.965   5.184
 6106SOL    HW219218   6.269   3.913   5.204
 6107SOL     OW19219   6.057   4.762   5.367
 6107SOL    HW119220   6.089   4.800   5.281
 6107SOL    HW219221   6.123   4.696   5.401
 6108SOL     OW19222   3.410   0.968   6.225
 6108SOL    HW119223   3.389   0.903   6.299
 6108SOL    HW219224   3.391   0.925   6.137
 6109SOL     OW19225   6.875   6.856   3.677
 6109SOL    HW119226   6.907   6.767   3.644
 6109SOL    HW219227   6.940   6.893   3.743
 6110SOL     OW19228   1.315   2.166   3.787
 6110SOL    HW119229   1.283   2.241   3.846
 6110SOL    HW219230   1.350   2.092   3.844
 6111SOL     OW19231   2.692   2.548   0.771
 6111SOL    HW119232   2.662   2.619   0.708
 6111SOL    HW219233   2.751   2.587   0.841
 6112SOL     OW19234   4.991   6.660   3.478
 6112SOL    HW119235   4.945   6.707   3.402
 6112SOL    HW219236   5.015   6.727   3.549
 6113SOL     OW19237   3.022   5.381   1.221
 6113SOL    HW119238   2.988   5.376   1.127
 6113SOL    HW219239   2.955   5.427   1.279
 6114SOL     OW19240   4.832   3.474   1.851
 6114SOL    HW119241   4.802   3.400   1.791
 6114SOL    HW219242   4.796   3.561   1.818
 6115SOL     OW19243   6.618   0.894   5.242
 6115SOL    HW119244   6.716   0.888   5.228
 6115SOL    HW219245   6.585   0.983   5.213
 6116SOL     OW19246   6.798   3.117   0.320
 6116SOL    HW119247   6.702   3.145   0.326
 6116SOL    HW219248   6.856   3.198   0.317
 6117SOL     OW19249   2.205   2.460   1.123
 6117SOL    HW119250   2.176   2.364   1.120
 6117SOL    HW219251   2.291   2.469   1.073
 6118SOL     OW19252   5.714   0.778   1.623
 6118SOL    HW119253   5.810   0.747   1.618
 6118SOL    HW219254   5.709   0.861   1.677
 6119SOL     OW19255   0.449   1.279   6.388
 6119SOL    HW119256   0.542   1.281   6.424
 6119SOL    HW219257   0.435   1.194   6.337
 6120SOL     OW19258   2.957   1.262   4.233
 6120SOL    HW119259   3.003   1.349   4.218
 6120SOL    HW219260   2.958   1.208   4.149
 6121SOL     OW19261   3.231   1.297   5.260
 6121SOL    HW119262   3.183   1.382   5.240
 6121SOL    HW219263   3.166   1.228   5.292
 6122SOL     OW19264   4.753   4.741   4.858
 6122SOL    HW119265   4.841   4.784   4.875
 6122SOL    HW219266   4.713   4.711   4.944
 6123SOL     OW19267   6.711   1.642   5.025
 6123SOL    HW119268   6.809   1.648   5.044
 6123SOL    HW219269   6.670   1.732   5.039
 6124SOL     OW19270   2.515   6.497   4.156
 6124SOL    HW119271   2.474   6.408   4.177
 6124SOL    HW219272   2.497   6.560   4.232
 6125SOL     OW19273   3.885   1.442   5.502
 6125SOL    HW119274   3.807   1.381   5.485
 6125SOL    HW219275   3.894   1.459   5.600
 6126SOL     OW19276   5.943   2.577   6.660
 6126SOL    HW119277   5.949   2.480   6.683
 6126SOL    HW219278   5.934   2.631   6.743
 6127SOL     OW19279   5.444   2.439   2.662
 6127SOL    HW119280   5.376   2.508   2.683
 6127SOL    HW219281   5.415   2.351   2.699
 6128SOL     OW19282   5.873   5.771   5.639
 6128SOL    HW119283   5.888   5.748   5.543
 6128SOL    HW219284   5.837   5.691   5.687
 6129SOL     OW19285   2.668   5.784   2.905
 6129SOL    HW119286   2.736   5.821   2.968
 6129SOL    HW219287   2.710   5.715   2.846
 6130SOL     OW19288   5.929   3.128   0.113
 6130SOL    HW119289   5.878   3.213   0.124
 6130SOL    HW219290   5.920   3.073   0.196
 6131SOL     OW19291   6.433   2.939   2.967
 6131SOL    HW119292   6.483   2.866   2.920
 6131SOL    HW219293   6.347   2.956   2.919
 6132SOL     OW19294   4.508   6.332   6.260
 6132SOL    HW119295   4.427   6.315   6.204
 6132SOL    HW219296   4.500   6.281   6.346
 6133SOL     OW19297   0.740   2.137   3.707
 6133SOL    HW119298   0.827   2.187   3.699
 6133SOL    HW219299   0.684   2.156   3.626
 6134SOL     OW19300   6.903   6.505   5.400
 6134SOL    HW119301   6.936   6.599   5.412
 6134SOL    HW219302   6.968   6.454   5.343
 6135SOL     OW19303   5.922   6.572   0.277
 6135SOL    HW119304   5.859   6.518   0.333
 6135SOL    HW219305   5.940   6.524   0.192
 6136SOL     OW19306   1.215   2.280   3.566
 6136SOL    HW119307   1.282   2.321   3.504
 6136SOL    HW219308   1.263   2.241   3.645
 6137SOL     OW19309   6.877   5.142   1.154
 6137SOL    HW119310   6.920   5.070   1.100
 6137SOL    HW219311   6.818   5.101   1.224
 6138SOL     OW19312   5.427   0.821   1.833
 6138SOL    HW119313   5.341   0.772   1.843
 6138SOL    HW219314   5.497   0.776   1.889
 6139SOL     OW19315   1.646   1.983   5.377
 6139SOL    HW119316   1.719   2.041   5.413
 6139SOL    HW219317   1.560   2.004   5.424
 6140SOL     OW19318   2.366   0.241   3.461
 6140SOL    HW119319   2.312   0.263   3.380
 6140SOL    HW219320   2.410   0.152   3.448
 6141SOL     OW19321   1.035   0.778   0.249
 6141SOL    HW119322   0.938   0.795   0.229
 6141SOL    HW219323   1.068   0.845   0.315
 6142SOL     OW19324   0.369   0.214   1.648
 6142SOL    HW119325   0.348   0.184   1.741
 6142SOL    HW219326   0.408   0.137   1.596
 6143SOL     OW19327   0.873   3.005   5.318
 6143SOL    HW119328   0.942   2.948   5.364
 6143SOL    HW219329   0.917   3.054   5.242
 6144SOL     OW19330   3.497   5.881   2.740
 6144SOL    HW119331   3.520   5.976   2.761
 6144SOL    HW219332   3.561   5.820   2.788
 6145SOL     OW19333   5.278   2.929   4.139
 6145SOL    HW119334   5.222   2.945   4.057
 6145SOL    HW219335   5.324   2.840   4.130
 6146SOL     OW19336   5.968   0.693   5.236
 6146SOL    HW119337   6.014   0.622   5.289
 6146SOL    HW219338   6.015   0.705   5.149
 6147SOL     OW19339   1.307   1.814   5.949
 6147SOL    HW119340   1.355   1.762   5.878
 6147SOL    HW219341   1.259   1.751   6.010
 6148SOL     OW19342   3.967   5.065   6.805
 6148SOL    HW119343   3.890   5.013   6.843
 6148SOL    HW219344   4.004   5.125   6.877
 6149SOL     OW19345   3.847   2.037   1.443
 6149SOL    HW119346   3.869   2.013   1.538
 6149SOL    HW219347   3.896   2.120   1.417
 6150SOL     OW19348   0.575   5.134   4.453
 6150SOL    HW119349   0.640   5.083   4.396
 6150SOL    HW219350   0.626   5.192   4.516
 6151SOL     OW19351   3.903   5.181   3.230
 6151SOL    HW119352   3.966   5.254   3.203
 6151SOL    HW219353   3.859   5.142   3.148
 6152SOL     OW19354   0.561   3.784   2.947
 6152SOL    HW119355   0.494   3.848   2.986
 6152SOL    HW219356   0.642   3.835   2.920
 6153SOL     OW19357   5.145   6.279   0.731
 6153SOL    HW119358   5.227   6.278   0.674
 6153SOL    HW219359   5.122   6.373   0.755
 6154SOL     OW19360   4.508   4.451   2.826
 6154SOL    HW119361   4.425   4.450   2.882
 6154SOL    HW219362   4.572   4.519   2.862
 6155SOL     OW19363   2.058   1.456   3.616
 6155SOL    HW119364   1.973   1.408   3.595
 6155SOL    HW219365   2.074   1.455   3.714
 6156SOL     OW19366   4.713   4.209   2.191
 6156SOL    HW119367   4.782   4.281   2.194
 6156SOL    HW219368   4.645   4.231   2.121
 6157SOL     OW19369   0.608   3.080   1.136
 6157SOL    HW119370   0.534   3.127   1.088
 6157SOL    HW219371   0.650   3.141   1.202
 6158SOL     OW19372   2.940   1.114   6.082
 6158SOL    HW119373   2.914   1.101   5.987
 6158SOL    HW219374   2.862   1.148   6.134
 6159SOL     OW19375   6.026   2.488   0.379
 6159SOL    HW119376   5.961   2.423   0.418
 6159SOL    HW219377   6.109   2.489   0.434
 6160SOL     OW19378   0.830   6.854   1.294
 6160SOL    HW119379   0.889   6.774   1.291
 6160SOL    HW219380   0.881   6.935   1.266
 6161SOL     OW19381   5.148   4.154   6.507
 6161SOL    HW119382   5.179   4.201   6.589
 6161SOL    HW219383   5.227   4.115   6.459
 6162SOL     OW19384   5.881   5.511   0.981
 6162SOL    HW119385   5.860   5.417   1.008
 6162SOL    HW219386   5.952   5.510   0.910
 6163SOL     OW19387   6.163   6.088   2.976
 6163SOL    HW119388   6.201   6.180   2.968
 6163SOL    HW219389   6.068   6.087   2.945
 6164SOL     OW19390   3.469   3.515   4.490
 6164SOL    HW119391   3.424   3.571   4.420
 6164SOL    HW219392   3.400   3.476   4.550
 6165SOL     OW19393   4.022   0.758   6.915
 6165SOL    HW119394   4.007   0.816   6.995
 6165SOL    HW219395   3.968   0.792   6.838
 6166SOL     OW19396   3.548   0.961   5.813
 6166SOL    HW119397   3.532   1.059   5.799
 6166SOL    HW219398   3.642   0.939   5.788
 6167SOL     OW19399   1.489   3.398   2.863
 6167SOL    HW119400   1.568   3.432   2.812
 6167SOL    HW219401   1.405   3.423   2.815
 6168SOL     OW19402   0.708   3.688   4.381
 6168SOL    HW119403   0.622   3.692   4.432
 6168SOL    HW219404   0.693   3.716   4.287
 6169SOL     OW19405   2.773   0.823   0.428
 6169SOL    HW119406   2.834   0.744   0.429
 6169SOL    HW219407   2.749   0.845   0.333
 6170SOL     OW19408   3.024   4.777   1.535
 6170SOL    HW119409   3.065   4.850   1.590
 6170SOL    HW219410   2.925   4.779   1.544
 6171SOL     OW19411   2.278   4.342   1.593
 6171SOL    HW119412   2.296   4.263   1.534
 6171SOL    HW219413   2.250   4.310   1.684
 6172SOL     OW19414   3.022   5.193   1.659
 6172SOL    HW119415   3.092   5.156   1.721
 6172SOL    HW219416   2.934   5.148   1.678
 6173SOL     OW19417   1.464   5.452   2.351
 6173SOL    HW119418   1.555   5.414   2.367
 6173SOL    HW219419   1.463   5.549   2.374
 6174SOL     OW19420   5.489   4.229   1.825
 6174SOL    HW119421   5.555   4.156   1.840
 6174SOL    HW219422   5.398   4.196   1.851
 6175SOL     OW19423   4.781   0.319   3.789
 6175SOL    HW119424   4.752   0.229   3.756
 6175SOL    HW219425   4.772   0.323   3.888
 6176SOL     OW19426   5.366   3.297   0.016
 6176SOL    HW119427   5.457   3.261   0.038
 6176SOL    HW219428   5.318   3.321   0.100
 6177SOL     OW19429   6.052   2.811   2.686
 6177SOL    HW119430   6.056   2.722   2.732
 6177SOL    HW219431   6.131   2.866   2.714
 6178SOL     OW19432   6.151   3.639   0.989
 6178SOL    HW119433   6.110   3.708   1.049
 6178SOL    HW219434   6.093   3.624   0.910
 6179SOL     OW19435   0.161   2.063   5.232
 6179SOL    HW119436   0.066   2.049   5.261
 6179SOL    HW219437   0.171   2.153   5.192
 6180SOL     OW19438   3.576   6.927   5.962
 6180SOL    HW119439   3.615   6.904   5.873
 6180SOL    HW219440   3.643   6.978   6.015
 6181SOL     OW19441   4.313   5.978   6.975
 6181SOL    HW119442   4.276   5.902   0.002
 6181SOL    HW219443   4.261   5.989   6.890
 6182SOL     OW19444   5.049   6.973   5.741
 6182SOL    HW119445   5.108   0.029   5.738
 6182SOL    HW219446   5.019   6.950   5.649
 6183SOL     OW19447   3.337   0.353   2.644
 6183SOL    HW119448   3.281   0.377   2.723
 6183SOL    HW219449   3.387   0.268   2.664
 6184SOL     OW19450   6.624   0.289   6.136
 6184SOL    HW119451   6.621   0.219   6.208
 6184SOL    HW219452   6.535   0.295   6.092
 6185SOL     OW19453   2.231   2.485   6.799
 6185SOL    HW119454   2.215   2.507   6.895
 6185SOL    HW219455   2.315   2.531   6.768
 6186SOL     OW19456   4.935   0.805   4.314
 6186SOL    HW119457   4.978   0.877   4.260
 6186SOL    HW219458   4.922   0.723   4.256
 6187SOL     OW19459   3.176   5.207   4.350
 6187SOL    HW119460   3.241   5.237   4.421
 6187SOL    HW219461   3.190   5.110   4.331
 6188SOL     OW19462   3.150   6.935   1.654
 6188SOL    HW119463   3.184   6.921   1.747
 6188SOL    HW219464   3.218   6.902   1.588
 6189SOL     OW19465   5.178   4.810   3.205
 6189SOL    HW119466   5.221   4.754   3.134
 6189SOL    HW219467   5.249   4.855   3.259
 6190SOL     OW19468   5.187   2.857   5.960
 6190SOL    HW119469   5.101   2.807   5.962
 6190SOL    HW219470   5.253   2.811   6.020
 6191SOL     OW19471   6.978   1.975   6.318
 6191SOL    HW119472   6.922   1.955   6.238
 6191SOL    HW219473   6.929   1.949   6.401
 6192SOL     OW19474   3.499   2.402   0.551
 6192SOL    HW119475   3.555   2.458   0.613
 6192SOL    HW219476   3.403   2.412   0.575
 6193SOL     OW19477   6.630   0.227   1.475
 6193SOL    HW119478   6.552   0.242   1.535
 6193SOL    HW219479   6.627   0.133   1.440
 6194SOL     OW19480   2.101   0.190   0.527
 6194SOL    HW119481   2.179   0.176   0.466
 6194SOL    HW219482   2.078   0.287   0.529
 6195SOL     OW19483   2.317   6.710   5.411
 6195SOL    HW119484   2.306   6.777   5.337
 6195SOL    HW219485   2.264   6.740   5.490
 6196SOL     OW19486   0.742   2.035   5.731
 6196SOL    HW119487   0.696   1.995   5.652
 6196SOL    HW219488   0.764   2.131   5.713
 6197SOL     OW19489   2.339   2.682   0.955
 6197SOL    HW119490   2.402   2.753   0.923
 6197SOL    HW219491   2.262   2.725   1.002
 6198SOL     OW19492   3.828   5.369   2.754
 6198SOL    HW119493   3.738   5.412   2.762
 6198SOL    HW219494   3.818   5.274   2.725
 6199SOL     OW19495   0.436   0.708   6.646
 6199SOL    HW119496   0.401   0.799   6.622
 6199SOL    HW219497   0.396   0.639   6.587
 6200SOL     OW19498   3.936   0.253   6.000
 6200SOL    HW119499   3.859   0.215   6.051
 6200SOL    HW219500   3.985   0.318   6.058
 6201SOL     OW19501   2.056   4.853   4.103
 6201SOL    HW119502   1.973   4.847   4.049
 6201SOL    HW219503   2.051   4.787   4.178
 6202SOL     OW19504   2.560   2.408   1.053
 6202SOL    HW119505   2.656   2.381   1.041
 6202SOL    HW219506   2.553   2.507   1.048
 6203SOL     OW19507   6.006   2.142   4.593
 6203SOL    HW119508   6.003   2.058   4.538
 6203SOL    HW219509   6.055   2.125   4.678
 6204SOL     OW19510   1.138   6.401   5.865
 6204SOL    HW119511   1.197   6.350   5.929
 6204SOL    HW219512   1.044   6.403   5.900
 6205SOL     OW19513   5.374   6.301   6.752
 6205SOL    HW119514   5.311   6.322   6.677
 6205SOL    HW219515   5.332   6.323   6.839
 6206SOL     OW19516   5.221   0.053   3.364
 6206SOL    HW119517   5.195   0.059   3.267
 6206SOL    HW219518   5.139   0.046   3.420
 6207SOL     OW19519   2.382   4.312   4.329
 6207SOL    HW119520   2.477   4.320   4.356
 6207SOL    HW219521   2.365   4.370   4.249
 6208SOL     OW19522   5.703   5.608   5.258
 6208SOL    HW119523   5.651   5.570   5.335
 6208SOL    HW219524   5.640   5.645   5.190
 6209SOL     OW19525   2.510   4.750   1.093
 6209SOL    HW119526   2.524   4.737   0.995
 6209SOL    HW219527   2.421   4.792   1.109
 6210SOL     OW19528   6.614   5.154   2.681
 6210SOL    HW119529   6.533   5.211   2.698
 6210SOL    HW219530   6.587   5.058   2.680
 6211SOL     OW19531   2.443   0.921   5.212
 6211SOL    HW119532   2.492   0.986   5.154
 6211SOL    HW219533   2.345   0.931   5.197
 6212SOL     OW19534   6.322   0.464   3.656
 6212SOL    HW119535   6.370   0.379   3.637
 6212SOL    HW219536   6.375   0.541   3.621
 6213SOL     OW19537   6.907   0.060   0.267
 6213SOL    HW119538   7.006   0.070   0.270
 6213SOL    HW219539   6.864   0.132   0.321
 6214SOL     OW19540   5.201   4.768   2.133
 6214SOL    HW119541   5.102   4.765   2.115
 6214SOL    HW219542   5.217   4.813   2.221
 6215SOL     OW19543   2.799   4.954   1.538
 6215SOL    HW119544   2.794   4.983   1.634
 6215SOL    HW219545   2.722   4.893   1.517
 6216SOL     OW19546   6.619   2.416   2.764
 6216SOL    HW119547   6.527   2.395   2.798
 6216SOL    HW219548   6.612   2.453   2.671
 6217SOL     OW19549   4.591   1.764   1.296
 6217SOL    HW119550   4.495   1.778   1.271
 6217SOL    HW219551   4.640   1.728   1.217
 6218SOL     OW19552   4.492   5.174   3.975
 6218SOL    HW119553   4.443   5.116   3.909
 6218SOL    HW219554   4.467   5.269   3.961
 6219SOL     OW19555   0.153   1.261   4.274
 6219SOL    HW119556   0.236   1.227   4.232
 6219SOL    HW219557   0.170   1.352   4.312
 6220SOL     OW19558   1.468   3.564   5.258
 6220SOL    HW119559   1.422   3.653   5.253
 6220SOL    HW219560   1.405   3.495   5.293
 6221SOL     OW19561   4.428   4.836   4.577
 6221SOL    HW119562   4.390   4.784   4.654
 6221SOL    HW219563   4.366   4.911   4.554
 6222SOL     OW19564   0.196   1.617   1.285
 6222SOL    HW119565   0.257   1.558   1.232
 6222SOL    HW219566   0.247   1.658   1.360
 6223SOL     OW19567   5.108   4.232   4.286
 6223SOL    HW119568   5.046   4.273   4.353
 6223SOL    HW219569   5.135   4.301   4.219
 6224SOL     OW19570   2.683   0.479   4.788
 6224SOL    HW119571   2.591   0.501   4.822
 6224SOL    HW219572   2.696   0.522   4.699
 6225SOL     OW19573   3.774   2.284   6.654
 6225SOL    HW119574   3.754   2.285   6.752
 6225SOL    HW219575   3.851   2.344   6.635
 6226SOL     OW19576   6.733   6.564   4.308
 6226SOL    HW119577   6.811   6.628   4.311
 6226SOL    HW219578   6.717   6.537   4.213
 6227SOL     OW19579   2.809   4.289   6.778
 6227SOL    HW119580   2.772   4.215   6.722
 6227SOL    HW219581   2.892   4.258   6.824
 6228SOL     OW19582   6.909   2.165   2.935
 6228SOL    HW119583   6.897   2.133   3.029
 6228SOL    HW219584   6.994   2.129   2.898
 6229SOL     OW19585   1.897   1.967   1.662
 6229SOL    HW119586   1.807   2.009   1.672
 6229SOL    HW219587   1.949   1.979   1.746
 6230SOL     OW19588   2.443   2.030   3.879
 6230SOL    HW119589   2.374   2.082   3.828
 6230SOL    HW219590   2.519   2.007   3.818
 6231SOL     OW19591   6.840   5.349   1.597
 6231SOL    HW119592   6.871   5.345   1.502
 6231SOL    HW219593   6.763   5.413   1.604
 6232SOL     OW19594   0.771   1.069   0.020
 6232SOL    HW119595   0.734   1.110   0.104
 6232SOL    HW219596   0.844   1.127   7.008
 6233SOL     OW19597   4.558   0.989   6.639
 6233SOL    HW119598   4.571   0.890   6.629
 6233SOL    HW219599   4.461   1.010   6.629
 6234SOL     OW19600   2.207   2.469   3.971
 6234SOL    HW119601   2.187   2.565   3.992
 6234SOL    HW219602   2.290   2.464   3.916
 6235SOL     OW19603   2.391   5.966   2.400
 6235SOL    HW119604   2.396   5.933   2.495
 6235SOL    HW219605   2.357   5.892   2.341
 6236SOL     OW19606   6.760   3.958   6.771
 6236SOL    HW119607   6.855   3.936   6.793
 6236SOL    HW219608   6.744   4.055   6.789
 6237SOL     OW19609   4.083   6.061   6.075
 6237SOL    HW119610   3.998   6.096   6.036
 6237SOL    HW219611   4.062   5.994   6.146
 6238SOL     OW19612   5.360   3.805   0.245
 6238SOL    HW119613   5.388   3.876   0.310
 6238SOL    HW219614   5.435   3.739   0.236
 6239SOL     OW19615   3.008   6.758   3.676
 6239SOL    HW119616   3.107   6.749   3.672
 6239SOL    HW219617   2.966   6.668   3.665
 6240SOL     OW19618   2.662   3.416   0.466
 6240SOL    HW119619   2.584   3.468   0.502
 6240SOL    HW219620   2.716   3.475   0.406
 6241SOL     OW19621   4.995   0.130   1.645
 6241SOL    HW119622   5.065   0.074   1.688
 6241SOL    HW219623   4.912   0.131   1.702
 6242SOL     OW19624   3.759   2.086   3.057
 6242SOL    HW119625   3.685   2.053   2.999
 6242SOL    HW219626   3.733   2.078   3.153
 6243SOL     OW19627   6.256   5.853   3.066
 6243SOL    HW119628   6.318   5.807   3.004
 6243SOL    HW219629   6.243   5.948   3.036
 6244SOL     OW19630   1.798   2.041   2.133
 6244SOL    HW119631   1.863   1.966   2.117
 6244SOL    HW219632   1.709   2.016   2.096
 6245SOL     OW19633   2.042   3.971   0.696
 6245SOL    HW119634   2.015   3.916   0.616
 6245SOL    HW219635   2.108   3.920   0.750
 6246SOL     OW19636   4.417   0.085   0.310
 6246SOL    HW119637   4.513   0.061   0.301
 6246SOL    HW219638   4.363   0.001   0.323
 6247SOL     OW19639   6.875   6.605   2.964
 6247SOL    HW119640   6.784   6.647   2.960
 6247SOL    HW219641   6.940   6.662   2.914
 6248SOL     OW19642   0.959   5.675   0.710
 6248SOL    HW119643   1.009   5.593   0.682
 6248SOL    HW219644   0.887   5.694   0.644
 6249SOL     OW19645   6.464   3.699   6.572
 6249SOL    HW119646   6.513   3.735   6.492
 6249SOL    HW219647   6.374   3.666   6.543
 6250SOL     OW19648   0.133   4.639   5.718
 6250SOL    HW119649   0.058   4.623   5.654
 6250SOL    HW219650   0.104   4.702   5.790
 6251SOL     OW19651   4.587   1.458   1.058
 6251SOL    HW119652   4.654   1.532   1.063
 6251SOL    HW219653   4.610   1.388   1.126
 6252SOL     OW19654   2.155   6.686   4.873
 6252SOL    HW119655   2.250   6.706   4.847
 6252SOL    HW219656   2.151   6.596   4.917
 6253SOL     OW19657   2.684   3.769   1.408
 6253SOL    HW119658   2.753   3.747   1.478
 6253SOL    HW219659   2.730   3.802   1.326
 6254SOL     OW19660   5.533   0.173   0.502
 6254SOL    HW119661   5.572   0.123   0.579
 6254SOL    HW219662   5.605   0.192   0.435
 6255SOL     OW19663   6.950   2.899   3.439
 6255SOL    HW119664   6.997   2.892   3.527
 6255SOL    HW219665   6.943   2.808   3.398
 6256SOL     OW19666   3.991   5.148   4.107
 6256SOL    HW119667   4.088   5.132   4.127
 6256SOL    HW219668   3.984   5.211   4.029
 6257SOL     OW19669   4.199   2.682   6.838
 6257SOL    HW119670   4.242   2.594   6.822
 6257SOL    HW219671   4.217   2.743   6.760
 6258SOL     OW19672   4.211   2.225   2.920
 6258SOL    HW119673   4.149   2.162   2.967
 6258SOL    HW219674   4.222   2.307   2.975
 6259SOL     OW19675   3.044   2.080   1.739
 6259SOL    HW119676   3.075   2.154   1.680
 6259SOL    HW219677   2.967   2.111   1.794
 6260SOL     OW19678   3.227   4.380   1.195
 6260SOL    HW119679   3.199   4.374   1.291
 6260SOL    HW219680   3.184   4.461   1.153
 6261SOL     OW19681   4.874   6.584   6.228
 6261SOL    HW119682   4.895   6.625   6.140
 6261SOL    HW219683   4.958   6.550   6.271
 6262SOL     OW19684   0.906   5.806   5.085
 6262SOL    HW119685   0.873   5.856   5.165
 6262SOL    HW219686   0.897   5.864   5.004
 6263SOL     OW19687   5.926   1.217   1.193
 6263SOL    HW119688   5.952   1.200   1.288
 6263SOL    HW219689   5.918   1.129   1.146
 6264SOL     OW19690   2.806   1.766   0.118
 6264SOL    HW119691   2.779   1.820   0.198
 6264SOL    HW219692   2.901   1.736   0.129
 6265SOL     OW19693   5.990   3.444   0.409
 6265SOL    HW119694   6.038   3.367   0.451
 6265SOL    HW219695   5.920   3.478   0.472
 6266SOL     OW19696   2.509   0.356   2.500
 6266SOL    HW119697   2.555   0.410   2.571
 6266SOL    HW219698   2.572   0.337   2.426
 6267SOL     OW19699   2.544   6.816   0.287
 6267SOL    HW119700   2.616   6.816   0.356
 6267SOL    HW219701   2.559   6.742   0.222
 6268SOL     OW19702   2.227   5.691   2.652
 6268SOL    HW119703   2.320   5.676   2.684
 6268SOL    HW219704   2.174   5.606   2.661
 6269SOL     OW19705   6.209   4.768   6.933
 6269SOL    HW119706   6.213   4.770   0.009
 6269SOL    HW219707   6.302   4.767   6.896
 6270SOL     OW19708   0.498   1.101   3.898
 6270SOL    HW119709   0.482   1.043   3.818
 6270SOL    HW219710   0.554   1.051   3.964
 6271SOL     OW19711   6.362   1.745   1.236
 6271SOL    HW119712   6.406   1.833   1.248
 6271SOL    HW219713   6.427   1.680   1.197
 6272SOL     OW19714   2.301   2.792   3.542
 6272SOL    HW119715   2.265   2.819   3.631
 6272SOL    HW219716   2.227   2.752   3.487
 6273SOL     OW19717   4.347   0.875   2.367
 6273SOL    HW119718   4.341   0.779   2.394
 6273SOL    HW219719   4.361   0.931   2.449
 6274SOL     OW19720   2.799   6.035   6.923
 6274SOL    HW119721   2.747   5.965   6.973
 6274SOL    HW219722   2.750   6.057   6.838
 6275SOL     OW19723   3.110   1.060   4.858
 6275SOL    HW119724   3.182   1.033   4.922
 6275SOL    HW219725   3.151   1.097   4.775
 6276SOL     OW19726   1.266   5.572   3.674
 6276SOL    HW119727   1.277   5.530   3.764
 6276SOL    HW219728   1.322   5.524   3.607
 6277SOL     OW19729   6.113   3.371   4.262
 6277SOL    HW119730   6.122   3.277   4.295
 6277SOL    HW219731   6.200   3.402   4.224
 6278SOL     OW19732   4.474   0.843   3.639
 6278SOL    HW119733   4.451   0.779   3.713
 6278SOL    HW219734   4.554   0.808   3.590
 6279SOL     OW19735   5.002   2.072   6.529
 6279SOL    HW119736   4.972   2.166   6.513
 6279SOL    HW219737   4.963   2.038   6.615
 6280SOL     OW19738   0.990   5.397   6.064
 6280SOL    HW119739   1.061   5.462   6.036
 6280SOL    HW219740   1.032   5.309   6.084
 6281SOL     OW19741   3.267   6.392   4.468
 6281SOL    HW119742   3.318   6.326   4.523
 6281SOL    HW219743   3.225   6.460   4.528
 6282SOL     OW19744   0.772   6.834   3.998
 6282SOL    HW119745   0.790   6.764   4.067
 6282SOL    HW219746   0.673   6.844   3.986
 6283SOL     OW19747   1.019   2.929   4.941
 6283SOL    HW119748   1.036   2.832   4.925
 6283SOL    HW219749   1.021   2.947   5.039
 6284SOL     OW19750   2.373   4.583   6.791
 6284SOL    HW119751   2.446   4.517   6.775
 6284SOL    HW219752   2.362   4.641   6.710
 6285SOL     OW19753   1.905   4.135   2.770
 6285SOL    HW119754   1.914   4.078   2.688
 6285SOL    HW219755   1.840   4.209   2.752
 6286SOL     OW19756   6.424   6.370   4.812
 6286SOL    HW119757   6.465   6.295   4.759
 6286SOL    HW219758   6.491   6.444   4.822
 6287SOL     OW19759   3.874   4.839   2.617
 6287SOL    HW119760   3.830   4.825   2.528
 6287SOL    HW219761   3.809   4.818   2.690
 6288SOL     OW19762   5.933   3.184   1.048
 6288SOL    HW119763   5.846   3.201   1.002
 6288SOL    HW219764   5.998   3.144   0.982
 6289SOL     OW19765   1.118   6.598   2.500
 6289SOL    HW119766   1.083   6.684   2.536
 6289SOL    HW219767   1.210   6.611   2.463
 6290SOL     OW19768   6.065   4.448   3.498
 6290SOL    HW119769   6.015   4.532   3.480
 6290SOL    HW219770   6.085   4.442   3.596
 6291SOL     OW19771   3.751   4.125   3.428
 6291SOL    HW119772   3.722   4.077   3.345
 6291SOL    HW219773   3.814   4.198   3.403
 6292SOL     OW19774   6.834   1.211   1.929
 6292SOL    HW119775   6.866   1.155   1.852
 6292SOL    HW219776   6.864   1.171   2.015
 6293SOL     OW19777   5.881   5.320   6.284
 6293SOL    HW119778   5.970   5.275   6.290
 6293SOL    HW219779   5.894   5.418   6.274
 6294SOL     OW19780   3.360   6.126   1.842
 6294SOL    HW119781   3.437   6.113   1.904
 6294SOL    HW219782   3.333   6.038   1.803
 6295SOL     OW19783   0.053   5.759   5.532
 6295SOL    HW119784   0.055   5.816   5.614
 6295SOL    HW219785   6.982   5.747   5.502
 6296SOL     OW19786   6.258   1.393   3.304
 6296SOL    HW119787   6.209   1.354   3.225
 6296SOL    HW219788   6.254   1.329   3.380
 6297SOL     OW19789   5.505   0.865   5.582
 6297SOL    HW119790   5.512   0.806   5.662
 6297SOL    HW219791   5.555   0.825   5.506
 6298SOL     OW19792   6.544   2.027   4.487
 6298SOL    HW119793   6.519   1.993   4.396
 6298SOL    HW219794   6.505   1.966   4.557
 6299SOL     OW19795   6.811   3.202   0.772
 6299SOL    HW119796   6.817   3.229   0.868
 6299SOL    HW219797   6.892   3.148   0.748
 6300SOL     OW19798   5.414   1.374   3.299
 6300SOL    HW119799   5.492   1.430   3.327
 6300SOL    HW219800   5.374   1.330   3.379
 6301SOL     OW19801   3.940   0.772   0.946
 6301SOL    HW119802   3.983   0.830   0.877
 6301SOL    HW219803   3.850   0.744   0.915
 6302SOL     OW19804   6.327   0.616   2.860
 6302SOL    HW119805   6.335   0.693   2.797
 6302SOL    HW219806   6.232   0.587   2.866
 6303SOL     OW19807   2.546   5.622   4.760
 6303SOL    HW119808   2.461   5.600   4.712
 6303SOL    HW219809   2.596   5.539   4.780
 6304SOL     OW19810   3.807   1.228   4.670
 6304SOL    HW119811   3.879   1.216   4.738
 6304SOL    HW219812   3.798   1.144   4.616
 6305SOL     OW19813   5.387   0.917   2.446
 6305SOL    HW119814   5.421   0.863   2.369
 6305SOL    HW219815   5.319   0.982   2.414
 6306SOL     OW19816   5.939   2.634   4.061
 6306SOL    HW119817   5.911   2.711   4.003
 6306SOL    HW219818   6.029   2.602   4.033
 6307SOL     OW19819   1.825   4.521   0.387
 6307SOL    HW119820   1.773   4.547   0.468
 6307SOL    HW219821   1.918   4.494   0.414
 6308SOL     OW19822   4.132   2.129   6.522
 6308SOL    HW119823   4.039   2.094   6.512
 6308SOL    HW219824   4.197   2.055   6.506
 6309SOL     OW19825   5.828   1.985   5.174
 6309SOL    HW119826   5.780   2.068   5.200
 6309SOL    HW219827   5.895   1.961   5.245
 6310SOL     OW19828   6.947   5.694   4.765
 6310SOL    HW119829   6.867   5.637   4.745
 6310SOL    HW219830   7.011   5.643   4.822
 6311SOL     OW19831   5.754   0.175   4.379
 6311SOL    HW119832   5.799   0.090   4.352
 6311SOL    HW219833   5.726   0.225   4.298
 6312SOL     OW19834   5.510   4.164   5.691
 6312SOL    HW119835   5.589   4.111   5.722
 6312SOL    HW219836   5.529   4.202   5.601
 6313SOL     OW19837   2.204   5.206   3.914
 6313SOL    HW119838   2.232   5.130   3.856
 6313SOL    HW219839   2.271   5.280   3.907
 6314SOL     OW19840   1.438   0.566   3.764
 6314SOL    HW119841   1.425   0.574   3.863
 6314SOL    HW219842   1.392   0.483   3.731
 6315SOL     OW19843   2.049   3.841   0.458
 6315SOL    HW119844   2.145   3.868   0.454
 6315SOL    HW219845   2.034   3.763   0.398
 6316SOL     OW19846   4.273   1.162   4.909
 6316SOL    HW119847   4.287   1.261   4.907
 6316SOL    HW219848   4.347   1.117   4.859
 6317SOL     OW19849   6.675   5.181   4.570
 6317SOL    HW119850   6.741   5.177   4.645
 6317SOL    HW219851   6.627   5.094   4.563
 6318SOL     OW19852   1.605   1.947   4.368
 6318SOL    HW119853   1.563   2.038   4.376
 6318SOL    HW219854   1.536   1.881   4.339
 6319SOL     OW19855   0.975   1.846   2.827
 6319SOL    HW119856   1.074   1.833   2.836
 6319SOL    HW219857   0.938   1.880   2.913
 6320SOL     OW19858   0.591   2.333   2.467
 6320SOL    HW119859   0.580   2.427   2.499
 6320SOL    HW219860   0.577   2.270   2.543
 6321SOL     OW19861   2.448   3.753   5.973
 6321SOL    HW119862   2.480   3.738   5.880
 6321SOL    HW219863   2.374   3.689   5.993
 6322SOL     OW19864   2.736   0.388   0.046
 6322SOL    HW119865   2.753   0.407   0.143
 6322SOL    HW219866   2.658   0.442   0.015
 6323SOL     OW19867   4.134   1.596   1.643
 6323SOL    HW119868   4.208   1.530   1.626
 6323SOL    HW219869   4.159   1.685   1.605
 6324SOL     OW19870   3.203   1.715   0.250
 6324SOL    HW119871   3.184   1.798   0.197
 6324SOL    HW219872   3.214   1.739   0.347
 6325SOL     OW19873   1.473   3.015   2.883
 6325SOL    HW119874   1.512   2.947   2.945
 6325SOL    HW219875   1.525   3.100   2.889
 6326SOL     OW19876   4.735   6.872   1.193
 6326SOL    HW119877   4.718   6.970   1.191
 6326SOL    HW219878   4.831   6.856   1.216
 6327SOL     OW19879   3.655   5.306   5.469
 6327SOL    HW119880   3.701   5.395   5.474
 6327SOL    HW219881   3.617   5.282   5.558
 6328SOL     OW19882   2.377   4.466   0.062
 6328SOL    HW119883   2.389   4.529   7.010
 6328SOL    HW219884   2.442   4.489   0.134
 6329SOL     OW19885   0.467   1.673   2.931
 6329SOL    HW119886   0.534   1.688   3.003
 6329SOL    HW219887   0.458   1.574   2.914
 6330SOL     OW19888   3.658   0.514   0.238
 6330SOL    HW119889   3.724   0.446   0.206
 6330SOL    HW219890   3.705   0.600   0.257
 6331SOL     OW19891   4.945   3.223   1.925
 6331SOL    HW119892   4.913   3.317   1.941
 6331SOL    HW219893   4.887   3.159   1.976
 6332SOL     OW19894   4.711   6.421   2.057
 6332SOL    HW119895   4.676   6.493   1.997
 6332SOL    HW219896   4.747   6.461   2.141
 6333SOL     OW19897   2.297   5.229   3.078
 6333SOL    HW119898   2.235   5.269   3.010
 6333SOL    HW219899   2.252   5.152   3.123
 6334SOL     OW19900   2.316   1.599   2.580
 6334SOL    HW119901   2.306   1.617   2.482
 6334SOL    HW219902   2.364   1.676   2.624
 6335SOL     OW19903   6.825   1.364   6.943
 6335SOL    HW119904   6.850   1.427   7.016
 6335SOL    HW219905   6.908   1.323   6.905
 6336SOL     OW19906   1.394   2.891   4.780
 6336SOL    HW119907   1.335   2.824   4.735
 6336SOL    HW219908   1.380   2.981   4.740
 6337SOL     OW19909   0.521   4.665   4.910
 6337SOL    HW119910   0.427   4.672   4.943
 6337SOL    HW219911   0.553   4.754   4.879
 6338SOL     OW19912   3.879   1.671   4.229
 6338SOL    HW119913   3.805   1.734   4.206
 6338SOL    HW219914   3.945   1.718   4.287
 6339SOL     OW19915   0.260   2.782   4.242
 6339SOL    HW119916   0.208   2.800   4.159
 6339SOL    HW219917   0.197   2.757   4.316
 6340SOL     OW19918   2.802   6.104   4.074
 6340SOL    HW119919   2.901   6.088   4.071
 6340SOL    HW219920   2.762   6.054   4.150
 6341SOL     OW19921   6.218   5.502   2.241
 6341SOL    HW119922   6.150   5.527   2.309
 6341SOL    HW219923   6.310   5.512   2.280
 6342SOL     OW19924   1.230   3.698   0.716
 6342SOL    HW119925   1.183   3.678   0.630
 6342SOL    HW219926   1.287   3.780   0.705
 6343SOL     OW19927   4.549   1.173   0.304
 6343SOL    HW119928   4.636   1.144   0.264
 6343SOL    HW219929   4.509   1.097   0.355
 6344SOL     OW19930   6.132   4.665   4.596
 6344SOL    HW119931   6.094   4.754   4.570
 6344SOL    HW219932   6.059   4.609   4.636
 6345SOL     OW19933   2.017   2.403   1.400
 6345SOL    HW119934   2.053   2.342   1.329
 6345SOL    HW219935   1.972   2.481   1.356
 6346SOL     OW19936   0.688   5.209   3.906
 6346SOL    HW119937   0.668   5.112   3.887
 6346SOL    HW219938   0.682   5.261   3.820
 6347SOL     OW19939   3.285   0.197   0.615
 6347SOL    HW119940   3.233   0.274   0.579
 6347SOL    HW219941   3.224   0.137   0.667
 6348SOL     OW19942   0.349   2.457   3.892
 6348SOL    HW119943   0.414   2.523   3.929
 6348SOL    HW219944   0.360   2.370   3.940
 6349SOL     OW19945   1.152   0.675   0.588
 6349SOL    HW119946   1.107   0.639   0.506
 6349SOL    HW219947   1.085   0.722   0.645
 6350SOL     OW19948   0.131   6.163   3.363
 6350SOL    HW119949   0.125   6.072   3.404
 6350SOL    HW219950   0.156   6.154   3.267
 6351SOL     OW19951   0.019   2.389   3.137
 6351SOL    HW119952   0.068   2.415   3.054
 6351SOL    HW219953   6.945   2.401   3.123
 6352SOL     OW19954   6.854   5.058   2.565
 6352SOL    HW119955   6.850   4.961   2.589
 6352SOL    HW219956   6.798   5.111   2.628
 6353SOL     OW19957   6.993   6.680   1.766
 6353SOL    HW119958   6.995   6.655   1.863
 6353SOL    HW219959   6.907   6.651   1.725
 6354SOL     OW19960   0.052   6.730   4.518
 6354SOL    HW119961   0.130   6.790   4.536
 6354SOL    HW219962   7.015   6.731   4.597
 6355SOL     OW19963   1.423   2.250   1.735
 6355SOL    HW119964   1.423   2.349   1.728
 6355SOL    HW219965   1.344   2.212   1.687
 6356SOL     OW19966   3.407   3.929   1.178
 6356SOL    HW119967   3.443   3.840   1.150
 6356SOL    HW219968   3.315   3.942   1.139
 6357SOL     OW19969   5.511   2.032   1.272
 6357SOL    HW119970   5.434   2.079   1.228
 6357SOL    HW219971   5.594   2.046   1.218
 6358SOL     OW19972   1.187   2.986   5.191
 6358SOL    HW119973   1.159   3.082   5.197
 6358SOL    HW219974   1.165   2.939   5.276
 6359SOL     OW19975   6.904   1.091   6.397
 6359SOL    HW119976   6.964   1.140   6.334
 6359SOL    HW219977   6.928   1.114   6.491
 6360SOL     OW19978   2.411   5.208   4.156
 6360SOL    HW119979   2.475   5.191   4.231
 6360SOL    HW219980   2.331   5.149   4.166
 6361SOL     OW19981   2.919   6.539   5.251
 6361SOL    HW119982   2.832   6.589   5.248
 6361SOL    HW219983   2.959   6.549   5.342
 6362SOL     OW19984   6.495   5.184   6.075
 6362SOL    HW119985   6.486   5.161   6.172
 6362SOL    HW219986   6.407   5.216   6.040
 6363SOL     OW19987   1.044   5.247   3.936
 6363SOL    HW119988   1.001   5.265   3.847
 6363SOL    HW219989   0.974   5.252   4.007
 6364SOL     OW19990   2.534   2.302   6.345
 6364SOL    HW119991   2.587   2.368   6.291
 6364SOL    HW219992   2.525   2.217   6.294
 6365SOL     OW19993   4.144   5.284   2.354
 6365SOL    HW119994   4.121   5.216   2.284
 6365SOL    HW219995   4.094   5.369   2.336
 6366SOL     OW19996   0.594   4.299   5.645
 6366SOL    HW119997   0.521   4.342   5.593
 6366SOL    HW219998   0.678   4.352   5.636
 6367SOL     OW19999   5.355   5.992   2.246
 6367SOL    HW120000   5.282   6.058   2.264
 6367SOL    HW220001   5.441   6.041   2.234
 6368SOL     OW20002   2.619   1.654   2.816
 6368SOL    HW120003   2.549   1.721   2.791
 6368SOL    HW220004   2.600   1.619   2.908
 6369SOL     OW20005   2.287   6.167   5.097
 6369SOL    HW120006   2.355   6.190   5.027
 6369SOL    HW220007   2.229   6.093   5.065
 6370SOL     OW20008   5.342   3.110   2.050
 6370SOL    HW120009   5.329   3.135   2.146
 6370SOL    HW220010   5.289   3.173   1.993
 6371SOL     OW20011   4.246   0.981   4.039
 6371SOL    HW120012   4.324   0.986   4.102
 6371SOL    HW220013   4.224   1.073   4.006
 6372SOL     OW20014   2.940   0.269   2.568
 6372SOL    HW120015   2.922   0.356   2.522
 6372SOL    HW220016   2.950   0.196   2.500
 6373SOL     OW20017   3.327   4.782   0.497
 6373SOL    HW120018   3.380   4.700   0.518
 6373SOL    HW220019   3.255   4.760   0.432
 6374SOL     OW20020   2.898   3.581   3.504
 6374SOL    HW120021   2.815   3.554   3.554
 6374SOL    HW220022   2.905   3.528   3.420
 6375SOL     OW20023   2.576   5.773   1.993
 6375SOL    HW120024   2.504   5.821   1.943
 6375SOL    HW220025   2.664   5.816   1.976
 6376SOL     OW20026   1.160   1.653   5.431
 6376SOL    HW120027   1.217   1.724   5.391
 6376SOL    HW220028   1.132   1.681   5.523
 6377SOL     OW20029   1.045   1.881   4.002
 6377SOL    HW120030   1.127   1.860   3.948
 6377SOL    HW220031   0.964   1.876   3.943
 6378SOL     OW20032   4.278   5.326   3.755
 6378SOL    HW120033   4.271   5.257   3.683
 6378SOL    HW220034   4.196   5.323   3.812
 6379SOL     OW20035   2.642   4.843   2.156
 6379SOL    HW120036   2.727   4.800   2.188
 6379SOL    HW220037   2.659   4.894   2.072
 6380SOL     OW20038   1.356   0.788   6.018
 6380SOL    HW120039   1.405   0.864   6.061
 6380SOL    HW220040   1.390   0.701   6.054
 6381SOL     OW20041   3.362   3.222   2.421
 6381SOL    HW120042   3.295   3.292   2.396
 6381SOL    HW220043   3.316   3.148   2.470
 6382SOL     OW20044   1.609   4.734   4.552
 6382SOL    HW120045   1.628   4.637   4.537
 6382SOL    HW220046   1.695   4.784   4.559
 6383SOL     OW20047   3.697   1.500   3.872
 6383SOL    HW120048   3.731   1.421   3.924
 6383SOL    HW220049   3.697   1.581   3.930
 6384SOL     OW20050   6.466   4.226   1.905
 6384SOL    HW120051   6.387   4.285   1.918
 6384SOL    HW220052   6.549   4.274   1.937
 6385SOL     OW20053   1.267   6.025   5.708
 6385SOL    HW120054   1.232   6.118   5.703
 6385SOL    HW220055   1.324   6.007   5.628
 6386SOL     OW20056   2.548   5.290   2.832
 6386SOL    HW120057   2.534   5.388   2.821
 6386SOL    HW220058   2.608   5.274   2.911
 6387SOL     OW20059   6.176   0.619   5.050
 6387SOL    HW120060   6.201   0.605   4.954
 6387SOL    HW220061   6.145   0.532   5.088
 6388SOL     OW20062   1.654   4.767   3.140
 6388SOL    HW120063   1.569   4.819   3.155
 6388SOL    HW220064   1.636   4.670   3.156
 6389SOL     OW20065   1.483   4.151   1.116
 6389SOL    HW120066   1.563   4.143   1.175
 6389SOL    HW220067   1.454   4.060   1.087
 6390SOL     OW20068   0.750   2.969   4.359
 6390SOL    HW120069   0.811   3.045   4.341
 6390SOL    HW220070   0.787   2.911   4.432
 6391SOL     OW20071   4.050   0.489   0.131
 6391SOL    HW120072   4.067   0.530   0.041
 6391SOL    HW220073   4.103   0.405   0.139
 6392SOL     OW20074   1.479   5.809   4.425
 6392SOL    HW120075   1.533   5.878   4.472
 6392SOL    HW220076   1.487   5.721   4.472
 6393SOL     OW20077   5.105   1.047   6.967
 6393SOL    HW120078   5.064   1.136   6.985
 6393SOL    HW220079   5.181   1.031   0.005
 6394SOL     OW20080   3.285   5.171   1.803
 6394SOL    HW120081   3.309   5.235   1.730
 6394SOL    HW220082   3.352   5.097   1.806
 6395SOL     OW20083   5.886   2.118   6.888
 6395SOL    HW120084   5.922   2.130   6.795
 6395SOL    HW220085   5.867   2.021   6.903
 6396SOL     OW20086   6.351   3.315   6.512
 6396SOL    HW120087   6.450   3.300   6.514
 6396SOL    HW220088   6.327   3.392   6.571
 6397SOL     OW20089   6.209   1.105   0.918
 6397SOL    HW120090   6.250   1.026   0.873
 6397SOL    HW220091   6.249   1.189   0.881
 6398SOL     OW20092   3.823   0.864   1.587
 6398SOL    HW120093   3.766   0.789   1.553
 6398SOL    HW220094   3.908   0.867   1.534
 6399SOL     OW20095   1.308   6.379   6.597
 6399SOL    HW120096   1.387   6.416   6.646
 6399SOL    HW220097   1.262   6.452   6.547
 6400SOL     OW20098   3.023   4.964   4.735
 6400SOL    HW120099   2.988   5.044   4.686
 6400SOL    HW220100   2.957   4.889   4.728
 6401SOL     OW20101   0.836   4.939   5.036
 6401SOL    HW120102   0.843   4.853   5.087
 6401SOL    HW220103   0.925   4.960   4.996
 6402SOL     OW20104   1.782   3.097   3.427
 6402SOL    HW120105   1.852   3.042   3.380
 6402SOL    HW220106   1.705   3.038   3.451
 6403SOL     OW20107   0.815   6.095   1.802
 6403SOL    HW120108   0.735   6.136   1.757
 6403SOL    HW220109   0.893   6.099   1.741
 6404SOL     OW20110   5.179   1.087   2.353
 6404SOL    HW120111   5.156   1.033   2.272
 6404SOL    HW220112   5.097   1.101   2.409
 6405SOL     OW20113   3.584   0.353   1.701
 6405SOL    HW120114   3.525   0.274   1.723
 6405SOL    HW220115   3.528   0.426   1.663
 6406SOL     OW20116   2.872   1.978   3.238
 6406SOL    HW120117   2.918   2.043   3.178
 6406SOL    HW220118   2.892   2.001   3.334
 6407SOL     OW20119   4.834   6.038   6.777
 6407SOL    HW120120   4.836   6.054   6.875
 6407SOL    HW220121   4.860   5.943   6.758
 6408SOL     OW20122   5.663   2.259   0.832
 6408SOL    HW120123   5.647   2.166   0.865
 6408SOL    HW220124   5.578   2.295   0.794
 6409SOL     OW20125   0.805   5.147   1.948
 6409SOL    HW120126   0.873   5.175   2.016
 6409SOL    HW220127   0.786   5.223   1.886
 6410SOL     OW20128   0.331   0.561   1.820
 6410SOL    HW120129   0.299   0.536   1.728
 6410SOL    HW220130   0.342   0.660   1.826
 6411SOL     OW20131   1.406   1.748   3.596
 6411SOL    HW120132   1.331   1.687   3.573
 6411SOL    HW220133   1.385   1.841   3.565
 6412SOL     OW20134   5.495   2.687   4.121
 6412SOL    HW120135   5.462   2.682   4.215
 6412SOL    HW220136   5.553   2.768   4.110
 6413SOL     OW20137   0.514   5.058   0.882
 6413SOL    HW120138   0.587   5.057   0.950
 6413SOL    HW220139   0.504   5.151   0.845
 6414SOL     OW20140   6.008   0.416   3.323
 6414SOL    HW120141   6.108   0.417   3.313
 6414SOL    HW220142   5.980   0.497   3.375
 6415SOL     OW20143   1.618   1.912   1.970
 6415SOL    HW120144   1.651   1.879   1.882
 6415SOL    HW220145   1.524   1.947   1.959
 6416SOL     OW20146   2.671   6.072   6.685
 6416SOL    HW120147   2.597   6.129   6.719
 6416SOL    HW220148   2.634   6.000   6.628
 6417SOL     OW20149   0.254   6.018   4.178
 6417SOL    HW120150   0.353   6.033   4.183
 6417SOL    HW220151   0.237   5.930   4.133
 6418SOL     OW20152   6.965   5.145   2.141
 6418SOL    HW120153   6.943   5.225   2.197
 6418SOL    HW220154   6.950   5.062   2.194
 6419SOL     OW20155   2.629   3.112   0.327
 6419SOL    HW120156   2.534   3.100   0.353
 6419SOL    HW220157   2.660   3.203   0.354
 6420SOL     OW20158   0.640   2.803   7.019
 6420SOL    HW120159   0.608   2.733   6.956
 6420SOL    HW220160   0.695   2.870   6.969
 6421SOL     OW20161   5.428   2.079   0.210
 6421SOL    HW120162   5.488   2.140   0.159
 6421SOL    HW220163   5.450   1.984   0.186
 6422SOL     OW20164   5.683   2.996   2.890
 6422SOL    HW120165   5.746   3.041   2.827
 6422SOL    HW220166   5.690   2.897   2.879
 6423SOL     OW20167   5.457   4.202   0.336
 6423SOL    HW120168   5.416   4.181   0.247
 6423SOL    HW220169   5.469   4.117   0.388
 6424SOL     OW20170   6.118   3.983   5.129
 6424SOL    HW120171   6.060   4.033   5.193
 6424SOL    HW220172   6.061   3.918   5.078
 6425SOL     OW20173   0.597   5.393   1.125
 6425SOL    HW120174   0.566   5.400   1.030
 6425SOL    HW220175   0.625   5.484   1.158
 6426SOL     OW20176   6.126   2.954   3.099
 6426SOL    HW120177   6.198   2.991   3.159
 6426SOL    HW220178   6.124   3.008   3.015
 6427SOL     OW20179   0.599   3.110   5.579
 6427SOL    HW120180   0.547   3.083   5.660
 6427SOL    HW220181   0.696   3.092   5.595
 6428SOL     OW20182   6.230   3.766   4.393
 6428SOL    HW120183   6.274   3.721   4.470
 6428SOL    HW220184   6.299   3.815   4.339
 6429SOL     OW20185   0.797   1.372   5.194
 6429SOL    HW120186   0.769   1.439   5.124
 6429SOL    HW220187   0.895   1.378   5.209
 6430SOL     OW20188   6.417   2.954   0.272
 6430SOL    HW120189   6.354   3.007   0.215
 6430SOL    HW220190   6.370   2.875   0.310
 6431SOL     OW20191   6.040   1.521   2.448
 6431SOL    HW120192   6.030   1.460   2.526
 6431SOL    HW220193   6.103   1.596   2.472
 6432SOL     OW20194   6.334   3.883   0.438
 6432SOL    HW120195   6.430   3.867   0.416
 6432SOL    HW220196   6.325   3.901   0.536
 6433SOL     OW20197   2.061   3.525   1.623
 6433SOL    HW120198   2.125   3.516   1.547
 6433SOL    HW220199   1.985   3.462   1.609
 6434SOL     OW20200   1.285   5.602   0.676
 6434SOL    HW120201   1.308   5.517   0.724
 6434SOL    HW220202   1.318   5.680   0.729
 6435SOL     OW20203   5.094   3.544   0.576
 6435SOL    HW120204   5.036   3.549   0.657
 6435SOL    HW220205   5.039   3.559   0.494
 6436SOL     OW20206   1.750   2.284   1.485
 6436SOL    HW120207   1.849   2.296   1.477
 6436SOL    HW220208   1.730   2.204   1.541
 6437SOL     OW20209   0.091   0.786   0.922
 6437SOL    HW120210   0.116   0.689   0.926
 6437SOL    HW220211   7.020   0.797   0.950
 6438SOL     OW20212   0.987   3.123   4.597
 6438SOL    HW120213   1.025   3.192   4.536
 6438SOL    HW220214   0.994   3.154   4.691
 6439SOL     OW20215   0.202   6.237   2.354
 6439SOL    HW120216   0.159   6.298   2.288
 6439SOL    HW220217   0.289   6.204   2.317
 6440SOL     OW20218   0.653   0.596   2.152
 6440SOL    HW120219   0.740   0.636   2.123
 6440SOL    HW220220   0.630   0.519   2.093
 6441SOL     OW20221   4.598   1.833   2.892
 6441SOL    HW120222   4.694   1.861   2.897
 6441SOL    HW220223   4.557   1.839   2.983
 6442SOL     OW20224   2.491   1.223   3.423
 6442SOL    HW120225   2.443   1.308   3.443
 6442SOL    HW220226   2.426   1.147   3.422
 6443SOL     OW20227   2.141   0.592   1.016
 6443SOL    HW120228   2.217   0.655   1.001
 6443SOL    HW220229   2.105   0.561   0.927
 6444SOL     OW20230   1.132   1.536   2.930
 6444SOL    HW120231   1.046   1.555   2.884
 6444SOL    HW220232   1.187   1.619   2.934
 6445SOL     OW20233   3.188   4.321   5.826
 6445SOL    HW120234   3.192   4.226   5.857
 6445SOL    HW220235   3.102   4.363   5.857
 6446SOL     OW20236   0.074   1.250   0.455
 6446SOL    HW120237   0.023   1.331   0.485
 6446SOL    HW220238   0.116   1.206   0.534
 6447SOL     OW20239   1.392   0.794   3.632
 6447SOL    HW120240   1.458   0.856   3.675
 6447SOL    HW220241   1.399   0.703   3.673
 6448SOL     OW20242   6.810   2.394   2.947
 6448SOL    HW120243   6.862   2.309   2.942
 6448SOL    HW220244   6.759   2.408   2.863
 6449SOL     OW20245   3.893   2.721   0.563
 6449SOL    HW120246   3.884   2.754   0.469
 6449SOL    HW220247   3.987   2.691   0.579
 6450SOL     OW20248   6.739   2.735   0.641
 6450SOL    HW120249   6.791   2.654   0.613
 6450SOL    HW220250   6.790   2.817   0.616
 6451SOL     OW20251   2.450   6.760   4.251
 6451SOL    HW120252   2.499   6.840   4.215
 6451SOL    HW220253   2.377   6.735   4.187
 6452SOL     OW20254   3.675   6.274   4.145
 6452SOL    HW120255   3.693   6.299   4.050
 6452SOL    HW220256   3.660   6.357   4.199
 6453SOL     OW20257   1.948   5.249   6.649
 6453SOL    HW120258   2.044   5.261   6.677
 6453SOL    HW220259   1.928   5.152   6.639
 6454SOL     OW20260   3.622   0.916   4.932
 6454SOL    HW120261   3.715   0.952   4.933
 6454SOL    HW220262   3.597   0.891   4.838
 6455SOL     OW20263   6.630   3.309   0.059
 6455SOL    HW120264   6.708   3.370   0.074
 6455SOL    HW220265   6.664   3.217   0.037
 6456SOL     OW20266   6.781   1.929   4.838
 6456SOL    HW120267   6.697   1.898   4.881
 6456SOL    HW220268   6.778   1.911   4.740
 6457SOL     OW20269   5.655   3.231   2.254
 6457SOL    HW120270   5.644   3.274   2.344
 6457SOL    HW220271   5.685   3.136   2.266
 6458SOL     OW20272   0.832   5.922   3.498
 6458SOL    HW120273   0.880   6.003   3.532
 6458SOL    HW220274   0.792   5.942   3.409
 6459SOL     OW20275   5.730   4.577   0.386
 6459SOL    HW120276   5.753   4.519   0.464
 6459SOL    HW220277   5.779   4.664   0.394
 6460SOL     OW20278   3.695   4.625   1.529
 6460SOL    HW120279   3.771   4.568   1.561
 6460SOL    HW220280   3.614   4.606   1.584
 6461SOL     OW20281   3.276   5.982   5.227
 6461SOL    HW120282   3.301   5.926   5.148
 6461SOL    HW220283   3.194   6.035   5.206
 6462SOL     OW20284   1.730   3.762   2.811
 6462SOL    HW120285   1.708   3.760   2.909
 6462SOL    HW220286   1.829   3.763   2.799
 6463SOL     OW20287   1.366   3.528   5.757
 6463SOL    HW120288   1.280   3.578   5.760
 6463SOL    HW220289   1.419   3.558   5.678
 6464SOL     OW20290   1.543   4.956   2.132
 6464SOL    HW120291   1.582   4.884   2.189
 6464SOL    HW220292   1.496   4.914   2.054
 6465SOL     OW20293   6.069   0.587   2.796
 6465SOL    HW120294   5.989   0.527   2.795
 6465SOL    HW220295   6.043   0.676   2.758
 6466SOL     OW20296   6.703   2.262   4.414
 6466SOL    HW120297   6.651   2.180   4.435
 6466SOL    HW220298   6.739   2.256   4.321
 6467SOL     OW20299   3.467   0.012   6.374
 6467SOL    HW120300   3.565   0.005   6.360
 6467SOL    HW220301   3.444   0.103   6.408
 6468SOL     OW20302   5.962   4.428   2.041
 6468SOL    HW120303   5.998   4.407   2.132
 6468SOL    HW220304   5.872   4.384   2.030
 6469SOL     OW20305   6.308   1.535   5.943
 6469SOL    HW120306   6.309   1.504   5.848
 6469SOL    HW220307   6.226   1.501   5.989
 6470SOL     OW20308   6.596   5.849   4.534
 6470SOL    HW120309   6.514   5.807   4.571
 6470SOL    HW220310   6.622   5.804   4.448
 6471SOL     OW20311   6.411   6.083   4.986
 6471SOL    HW120312   6.409   6.003   5.046
 6471SOL    HW220313   6.443   6.163   5.037
 6472SOL     OW20314   2.203   6.299   1.611
 6472SOL    HW120315   2.231   6.343   1.697
 6472SOL    HW220316   2.125   6.239   1.629
 6473SOL     OW20317   1.912   0.540   5.220
 6473SOL    HW120318   1.877   0.466   5.277
 6473SOL    HW220319   2.002   0.567   5.253
 6474SOL     OW20320   1.904   3.417   6.511
 6474SOL    HW120321   1.866   3.509   6.516
 6474SOL    HW220322   1.990   3.418   6.461
 6475SOL     OW20323   4.443   5.455   3.922
 6475SOL    HW120324   4.531   5.485   3.884
 6475SOL    HW220325   4.383   5.425   3.848
 6476SOL     OW20326   4.858   5.922   2.724
 6476SOL    HW120327   4.860   5.990   2.798
 6476SOL    HW220328   4.897   5.837   2.757
 6477SOL     OW20329   6.711   6.433   0.215
 6477SOL    HW120330   6.630   6.382   0.186
 6477SOL    HW220331   6.771   6.446   0.136
 6478SOL     OW20332   4.447   5.647   1.346
 6478SOL    HW120333   4.386   5.645   1.267
 6478SOL    HW220334   4.462   5.742   1.374
 6479SOL     OW20335   3.302   6.096   2.838
 6479SOL    HW120336   3.241   6.017   2.849
 6479SOL    HW220337   3.377   6.089   2.904
 6480SOL     OW20338   2.785   0.869   1.097
 6480SOL    HW120339   2.753   0.848   1.189
 6480SOL    HW220340   2.750   0.801   1.032
 6481SOL     OW20341   5.031   0.863   0.832
 6481SOL    HW120342   4.960   0.864   0.902
 6481SOL    HW220343   4.990   0.838   0.744
 6482SOL     OW20344   0.133   0.230   6.106
 6482SOL    HW120345   0.042   0.232   6.066
 6482SOL    HW220346   0.188   0.305   6.069
 6483SOL     OW20347   2.066   5.040   1.539
 6483SOL    HW120348   2.029   4.947   1.531
 6483SOL    HW220349   1.991   5.105   1.532
 6484SOL     OW20350   4.931   6.788   2.843
 6484SOL    HW120351   5.018   6.753   2.876
 6484SOL    HW220352   4.939   6.886   2.822
 6485SOL     OW20353   0.421   2.741   3.093
 6485SOL    HW120354   0.442   2.703   3.003
 6485SOL    HW220355   0.502   2.786   3.131
 6486SOL     OW20356   1.391   2.551   3.082
 6486SOL    HW120357   1.350   2.462   3.102
 6486SOL    HW220358   1.490   2.546   3.096
 6487SOL     OW20359   5.962   5.519   3.365
 6487SOL    HW120360   5.933   5.425   3.345
 6487SOL    HW220361   5.892   5.582   3.334
 6488SOL     OW20362   3.307   5.312   4.559
 6488SOL    HW120363   3.287   5.273   4.649
 6488SOL    HW220364   3.281   5.408   4.558
 6489SOL     OW20365   2.516   1.497   6.653
 6489SOL    HW120366   2.559   1.414   6.619
 6489SOL    HW220367   2.516   1.496   6.753
 6490SOL     OW20368   5.053   2.041   0.633
 6490SOL    HW120369   5.127   1.999   0.581
 6490SOL    HW220370   5.059   2.012   0.729
 6491SOL     OW20371   5.253   0.830   5.486
 6491SOL    HW120372   5.236   0.733   5.473
 6491SOL    HW220373   5.341   0.844   5.531
 6492SOL     OW20374   6.323   5.754   5.893
 6492SOL    HW120375   6.350   5.830   5.834
 6492SOL    HW220376   6.320   5.670   5.839
 6493SOL     OW20377   0.767   0.096   5.105
 6493SOL    HW120378   0.833   0.165   5.137
 6493SOL    HW220379   0.730   0.047   5.184
 6494SOL     OW20380   0.496   2.064   3.286
 6494SOL    HW120381   0.455   2.007   3.358
 6494SOL    HW220382   0.531   2.149   3.327
 6495SOL     OW20383   5.718   4.632   1.828
 6495SOL    HW120384   5.747   4.546   1.787
 6495SOL    HW220385   5.631   4.619   1.875
 6496SOL     OW20386   0.411   6.397   3.251
 6496SOL    HW120387   0.488   6.347   3.212
 6496SOL    HW220388   0.326   6.363   3.211
 6497SOL     OW20389   0.687   6.901   1.059
 6497SOL    HW120390   0.733   6.892   1.147
 6497SOL    HW220391   0.605   6.844   1.058
 6498SOL     OW20392   1.197   3.648   4.234
 6498SOL    HW120393   1.173   3.697   4.150
 6498SOL    HW220394   1.269   3.698   4.282
 6499SOL     OW20395   6.093   1.614   3.390
 6499SOL    HW120396   6.160   1.550   3.354
 6499SOL    HW220397   6.133   1.665   3.466
 6500SOL     OW20398   5.779   4.848   2.273
 6500SOL    HW120399   5.854   4.785   2.252
 6500SOL    HW220400   5.770   4.857   2.372
 6501SOL     OW20401   6.885   3.892   0.544
 6501SOL    HW120402   6.796   3.918   0.581
 6501SOL    HW220403   6.884   3.904   0.444
 6502SOL     OW20404   0.966   5.191   1.248
 6502SOL    HW120405   1.054   5.202   1.203
 6502SOL    HW220406   0.981   5.175   1.346
 6503SOL     OW20407   4.321   0.398   4.181
 6503SOL    HW120408   4.383   0.381   4.257
 6503SOL    HW220409   4.374   0.419   4.099
 6504SOL     OW20410   2.265   1.625   0.872
 6504SOL    HW120411   2.259   1.607   0.970
 6504SOL    HW220412   2.309   1.547   0.827
 6505SOL     OW20413   5.766   5.137   0.314
 6505SOL    HW120414   5.827   5.181   0.248
 6505SOL    HW220415   5.734   5.205   0.380
 6506SOL     OW20416   2.149   1.086   1.172
 6506SOL    HW120417   2.160   1.012   1.238
 6506SOL    HW220418   2.104   1.051   1.089
 6507SOL     OW20419   2.795   0.913   1.816
 6507SOL    HW120420   2.862   0.926   1.888
 6507SOL    HW220421   2.802   0.820   1.781
 6508SOL     OW20422   1.995   2.430   2.009
 6508SOL    HW120423   2.061   2.393   1.944
 6508SOL    HW220424   1.957   2.515   1.974
 6509SOL     OW20425   1.499   2.726   3.928
 6509SOL    HW120426   1.481   2.822   3.910
 6509SOL    HW220427   1.538   2.715   4.020
 6510SOL     OW20428   6.077   4.516   6.609
 6510SOL    HW120429   6.022   4.582   6.660
 6510SOL    HW220430   6.125   4.456   6.673
 6511SOL     OW20431   0.166   6.991   6.149
 6511SOL    HW120432   0.195   6.949   6.063
 6511SOL    HW220433   0.153   0.064   6.136
 6512SOL     OW20434   5.446   5.740   3.643
 6512SOL    HW120435   5.520   5.707   3.700
 6512SOL    HW220436   5.370   5.675   3.644
 6513SOL     OW20437   1.025   6.634   3.272
 6513SOL    HW120438   1.001   6.711   3.212
 6513SOL    HW220439   1.111   6.655   3.319
 6514SOL     OW20440   3.087   0.489   3.443
 6514SOL    HW120441   3.035   0.520   3.522
 6514SOL    HW220442   3.086   0.560   3.372
 6515SOL     OW20443   0.623   0.531   3.451
 6515SOL    HW120444   0.591   0.531   3.356
 6515SOL    HW220445   0.696   0.464   3.461
 6516SOL     OW20446   1.267   0.945   5.643
 6516SOL    HW120447   1.213   0.911   5.566
 6516SOL    HW220448   1.297   1.038   5.623
 6517SOL     OW20449   2.596   2.019   1.077
 6517SOL    HW120450   2.622   1.939   1.024
 6517SOL    HW220451   2.496   2.024   1.084
 6518SOL     OW20452   5.699   6.251   0.642
 6518SOL    HW120453   5.739   6.178   0.697
 6518SOL    HW220454   5.664   6.323   0.702
 6519SOL     OW20455   0.896   2.051   4.159
 6519SOL    HW120456   0.940   1.984   4.100
 6519SOL    HW220457   0.965   2.099   4.213
 6520SOL     OW20458   5.736   5.284   1.425
 6520SOL    HW120459   5.637   5.292   1.438
 6520SOL    HW220460   5.769   5.203   1.473
 6521SOL     OW20461   1.348   2.054   5.750
 6521SOL    HW120462   1.378   1.974   5.803
 6521SOL    HW220463   1.277   2.102   5.801
 6522SOL     OW20464   2.493   4.889   4.530
 6522SOL    HW120465   2.490   4.793   4.556
 6522SOL    HW220466   2.403   4.930   4.541
 6523SOL     OW20467   1.824   2.164   0.601
 6523SOL    HW120468   1.781   2.087   0.649
 6523SOL    HW220469   1.755   2.233   0.582
 6524SOL     OW20470   4.029   2.482   5.490
 6524SOL    HW120471   3.948   2.534   5.464
 6524SOL    HW220472   4.008   2.427   5.571
 6525SOL     OW20473   0.466   2.645   4.084
 6525SOL    HW120474   0.380   2.688   4.113
 6525SOL    HW220475   0.522   2.626   4.165
 6526SOL     OW20476   1.718   5.725   3.877
 6526SOL    HW120477   1.654   5.650   3.858
 6526SOL    HW220478   1.667   5.810   3.889
 6527SOL     OW20479   2.366   1.339   4.131
 6527SOL    HW120480   2.340   1.244   4.149
 6527SOL    HW220481   2.321   1.399   4.197
 6528SOL     OW20482   0.439   0.024   3.054
 6528SOL    HW120483   0.495   6.989   2.997
 6528SOL    HW220484   0.354   7.002   3.078
 6529SOL     OW20485   6.639   2.888   2.460
 6529SOL    HW120486   6.628   2.939   2.545
 6529SOL    HW220487   6.736   2.867   2.446
 6530SOL     OW20488   0.376   1.707   0.223
 6530SOL    HW120489   0.347   1.615   0.196
 6530SOL    HW220490   0.315   1.742   0.294
 6531SOL     OW20491   4.920   2.130   5.636
 6531SOL    HW120492   4.949   2.085   5.721
 6531SOL    HW220493   4.838   2.185   5.654
 6532SOL     OW20494   1.406   2.173   0.094
 6532SOL    HW120495   1.346   2.238   0.142
 6532SOL    HW220496   1.359   2.086   0.083
 6533SOL     OW20497   4.865   0.323   0.942
 6533SOL    HW120498   4.955   0.366   0.935
 6533SOL    HW220499   4.794   0.394   0.941
 6534SOL     OW20500   2.850   2.760   6.704
 6534SOL    HW120501   2.815   2.685   6.759
 6534SOL    HW220502   2.839   2.846   6.754
 6535SOL     OW20503   2.214   3.376   5.301
 6535SOL    HW120504   2.234   3.279   5.283
 6535SOL    HW220505   2.174   3.418   5.220
 6536SOL     OW20506   0.060   1.873   6.882
 6536SOL    HW120507   7.004   1.815   6.889
 6536SOL    HW220508   0.099   1.866   6.790
 6537SOL     OW20509   1.145   0.822   6.647
 6537SOL    HW120510   1.091   0.744   6.679
 6537SOL    HW220511   1.214   0.791   6.582
 6538SOL     OW20512   2.390   2.724   5.704
 6538SOL    HW120513   2.454   2.657   5.665
 6538SOL    HW220514   2.353   2.689   5.790
 6539SOL     OW20515   3.493   1.640   6.879
 6539SOL    HW120516   3.460   1.665   6.971
 6539SOL    HW220517   3.473   1.715   6.816
 6540SOL     OW20518   3.843   1.909   3.698
 6540SOL    HW120519   3.766   1.968   3.722
 6540SOL    HW220520   3.918   1.926   3.763
 6541SOL     OW20521   2.488   2.345   5.398
 6541SOL    HW120522   2.577   2.301   5.386
 6541SOL    HW220523   2.437   2.342   5.312
 6542SOL     OW20524   5.482   4.459   2.617
 6542SOL    HW120525   5.562   4.499   2.663
 6542SOL    HW220526   5.508   4.370   2.578
 6543SOL     OW20527   1.090   6.220   6.102
 6543SOL    HW120528   1.087   6.121   6.109
 6543SOL    HW220529   1.015   6.260   6.154
 6544SOL     OW20530   0.305   5.948   2.702
 6544SOL    HW120531   0.364   5.949   2.622
 6544SOL    HW220532   0.251   6.032   2.704
 6545SOL     OW20533   5.919   3.083   6.628
 6545SOL    HW120534   5.821   3.065   6.623
 6545SOL    HW220535   5.939   3.171   6.585
 6546SOL     OW20536   3.327   4.513   6.014
 6546SOL    HW120537   3.240   4.477   6.049
 6546SOL    HW220538   3.315   4.541   5.918
 6547SOL     OW20539   5.159   0.828   6.456
 6547SOL    HW120540   5.231   0.892   6.430
 6547SOL    HW220541   5.078   0.843   6.399
 6548SOL     OW20542   4.995   3.848   5.677
 6548SOL    HW120543   5.017   3.945   5.677
 6548SOL    HW220544   5.076   3.795   5.702
 6549SOL     OW20545   2.571   2.358   2.556
 6549SOL    HW120546   2.668   2.368   2.532
 6549SOL    HW220547   2.525   2.301   2.489
 6550SOL     OW20548   0.981   5.880   2.545
 6550SOL    HW120549   0.929   5.803   2.582
 6550SOL    HW220550   0.946   5.903   2.454
 6551SOL     OW20551   3.469   5.238   2.149
 6551SOL    HW120552   3.568   5.252   2.153
 6551SOL    HW220553   3.449   5.146   2.117
 6552SOL     OW20554   4.293   4.799   5.878
 6552SOL    HW120555   4.268   4.873   5.941
 6552SOL    HW220556   4.268   4.711   5.918
 6553SOL     OW20557   0.042   3.218   3.226
 6553SOL    HW120558   0.072   3.124   3.204
 6553SOL    HW220559   0.018   3.265   3.141
 6554SOL     OW20560   0.091   3.883   4.721
 6554SOL    HW120561   7.023   3.845   4.722
 6554SOL    HW220562   0.153   3.818   4.677
 6555SOL     OW20563   0.604   1.549   1.051
 6555SOL    HW120564   0.602   1.524   1.148
 6555SOL    HW220565   0.654   1.635   1.040
 6556SOL     OW20566   3.720   0.222   3.449
 6556SOL    HW120567   3.639   0.198   3.502
 6556SOL    HW220568   3.720   0.320   3.430
 6557SOL     OW20569   5.607   5.734   0.738
 6557SOL    HW120570   5.596   5.822   0.783
 6557SOL    HW220571   5.533   5.721   0.672
 6558SOL     OW20572   6.796   6.430   5.659
 6558SOL    HW120573   6.845   6.467   5.580
 6558SOL    HW220574   6.756   6.341   5.635
 6559SOL     OW20575   3.184   3.816   1.326
 6559SOL    HW120576   3.213   3.748   1.259
 6559SOL    HW220577   3.232   3.799   1.413
 6560SOL     OW20578   4.264   2.053   1.115
 6560SOL    HW120579   4.165   2.055   1.125
 6560SOL    HW220580   4.302   2.142   1.139
 6561SOL     OW20581   3.917   3.986   4.533
 6561SOL    HW120582   3.972   3.924   4.589
 6561SOL    HW220583   3.924   3.960   4.437
 6562SOL     OW20584   0.235   4.587   4.984
 6562SOL    HW120585   0.141   4.613   5.004
 6562SOL    HW220586   0.256   4.500   5.029
 6563SOL     OW20587   0.531   5.254   2.548
 6563SOL    HW120588   0.484   5.325   2.495
 6563SOL    HW220589   0.628   5.276   2.556
 6564SOL     OW20590   1.463   4.937   3.216
 6564SOL    HW120591   1.395   4.920   3.287
 6564SOL    HW220592   1.420   4.931   3.126
 6565SOL     OW20593   6.605   3.496   4.804
 6565SOL    HW120594   6.702   3.497   4.828
 6565SOL    HW220595   6.550   3.495   4.888
 6566SOL     OW20596   4.148   1.150   0.626
 6566SOL    HW120597   4.224   1.160   0.563
 6566SOL    HW220598   4.143   1.231   0.685
 6567SOL     OW20599   6.564   2.588   0.816
 6567SOL    HW120600   6.606   2.657   0.757
 6567SOL    HW220601   6.601   2.498   0.794
 6568SOL     OW20602   4.809   3.666   1.161
 6568SOL    HW120603   4.891   3.688   1.107
 6568SOL    HW220604   4.784   3.570   1.146
 6569SOL     OW20605   1.584   4.229   5.554
 6569SOL    HW120606   1.660   4.196   5.499
 6569SOL    HW220607   1.615   4.302   5.615
 6570SOL     OW20608   6.626   3.784   1.777
 6570SOL    HW120609   6.595   3.796   1.682
 6570SOL    HW220610   6.548   3.763   1.835
 6571SOL     OW20611   1.916   6.131   3.993
 6571SOL    HW120612   1.928   6.045   3.944
 6571SOL    HW220613   1.973   6.131   4.075
 6572SOL     OW20614   1.991   3.723   5.680
 6572SOL    HW120615   1.912   3.675   5.717
 6572SOL    HW220616   2.038   3.665   5.614
 6573SOL     OW20617   1.926   1.690   1.544
 6573SOL    HW120618   1.903   1.714   1.450
 6573SOL    HW220619   1.968   1.769   1.590
 6574SOL     OW20620   2.189   4.379   4.648
 6574SOL    HW120621   2.200   4.334   4.559
 6574SOL    HW220622   2.140   4.319   4.710
 6575SOL     OW20623   1.737   1.865   2.843
 6575SOL    HW120624   1.813   1.837   2.902
 6575SOL    HW220625   1.651   1.832   2.880
 6576SOL     OW20626   0.200   6.703   3.935
 6576SOL    HW120627   0.228   6.652   4.016
 6576SOL    HW220628   0.241   6.662   3.854
 6577SOL     OW20629   0.116   3.629   5.309
 6577SOL    HW120630   0.186   3.685   5.354
 6577SOL    HW220631   0.061   3.687   5.249
 6578SOL     OW20632   6.545   5.797   3.838
 6578SOL    HW120633   6.468   5.743   3.806
 6578SOL    HW220634   6.577   5.858   3.765
 6579SOL     OW20635   6.998   4.186   3.769
 6579SOL    HW120636   6.970   4.163   3.862
 6579SOL    HW220637   6.939   4.139   3.703
 6580SOL     OW20638   5.425   2.559   0.401
 6580SOL    HW120639   5.515   2.567   0.445
 6580SOL    HW220640   5.361   2.622   0.445
 6581SOL     OW20641   2.371   2.200   5.616
 6581SOL    HW120642   2.421   2.264   5.558
 6581SOL    HW220643   2.273   2.215   5.607
 6582SOL     OW20644   6.662   0.703   2.655
 6582SOL    HW120645   6.620   0.792   2.635
 6582SOL    HW220646   6.613   0.631   2.605
 6583SOL     OW20647   6.667   1.189   6.105
 6583SOL    HW120648   6.589   1.126   6.104
 6583SOL    HW220649   6.743   1.147   6.055
 6584SOL     OW20650   5.822   2.885   0.553
 6584SOL    HW120651   5.810   2.818   0.626
 6584SOL    HW220652   5.734   2.930   0.534
 6585SOL     OW20653   2.620   0.896   2.071
 6585SOL    HW120654   2.717   0.881   2.052
 6585SOL    HW220655   2.578   0.942   1.993
 6586SOL     OW20656   6.117   1.892   6.936
 6586SOL    HW120657   6.141   1.935   7.023
 6586SOL    HW220658   6.177   1.927   6.864
 6587SOL     OW20659   1.894   6.002   1.832
 6587SOL    HW120660   1.952   5.934   1.876
 6587SOL    HW220661   1.827   5.956   1.773
 6588SOL     OW20662   3.148   2.440   0.265
 6588SOL    HW120663   3.149   2.348   0.305
 6588SOL    HW220664   3.181   2.435   0.171
 6589SOL     OW20665   4.844   1.819   6.077
 6589SOL    HW120666   4.937   1.820   6.042
 6589SOL    HW220667   4.794   1.743   6.035
 6590SOL     OW20668   6.292   1.604   5.547
 6590SOL    HW120669   6.336   1.689   5.575
 6590SOL    HW220670   6.347   1.526   5.578
 6591SOL     OW20671   5.212   0.300   2.621
 6591SOL    HW120672   5.222   0.387   2.670
 6591SOL    HW220673   5.140   0.309   2.552
 6592SOL     OW20674   6.331   5.259   5.354
 6592SOL    HW120675   6.247   5.297   5.316
 6592SOL    HW220676   6.316   5.163   5.380
 6593SOL     OW20677   5.114   0.975   2.675
 6593SOL    HW120678   5.117   1.024   2.762
 6593SOL    HW220679   5.166   0.890   2.682
 6594SOL     OW20680   5.339   0.984   0.082
 6594SOL    HW120681   5.425   0.997   0.033
 6594SOL    HW220682   5.359   0.962   0.178
 6595SOL     OW20683   3.436   2.297   6.277
 6595SOL    HW120684   3.362   2.286   6.210
 6595SOL    HW220685   3.513   2.239   6.252
 6596SOL     OW20686   3.064   6.582   4.816
 6596SOL    HW120687   3.141   6.628   4.860
 6596SOL    HW220688   3.076   6.483   4.823
 6597SOL     OW20689   0.206   4.296   6.562
 6597SOL    HW120690   0.216   4.305   6.463
 6597SOL    HW220691   0.110   4.311   6.586
 6598SOL     OW20692   2.645   5.859   4.622
 6598SOL    HW120693   2.624   5.769   4.659
 6598SOL    HW220694   2.743   5.878   4.634
 6599SOL     OW20695   4.450   3.478   6.197
 6599SOL    HW120696   4.436   3.380   6.215
 6599SOL    HW220697   4.402   3.503   6.113
 6600SOL     OW20698   4.121   4.862   4.715
 6600SOL    HW120699   4.120   4.955   4.752
 6600SOL    HW220700   4.030   4.822   4.722
 6601SOL     OW20701   0.396   0.842   1.893
 6601SOL    HW120702   0.386   0.941   1.885
 6601SOL    HW220703   0.492   0.819   1.907
 6602SOL     OW20704   6.600   1.342   1.168
 6602SOL    HW120705   6.513   1.353   1.217
 6602SOL    HW220706   6.676   1.364   1.230
 6603SOL     OW20707   2.766   1.577   1.900
 6603SOL    HW120708   2.767   1.652   1.834
 6603SOL    HW220709   2.807   1.496   1.859
 6604SOL     OW20710   4.018   6.059   4.237
 6604SOL    HW120711   4.066   6.038   4.322
 6604SOL    HW220712   4.035   5.987   4.170
 6605SOL     OW20713   5.160   6.318   0.191
 6605SOL    HW120714   5.112   6.255   0.252
 6605SOL    HW220715   5.119   6.409   0.197
 6606SOL     OW20716   0.733   2.195   3.063
 6606SOL    HW120717   0.745   2.197   2.964
 6606SOL    HW220718   0.647   2.240   3.087
 6607SOL     OW20719   1.137   3.330   2.774
 6607SOL    HW120720   1.041   3.328   2.744
 6607SOL    HW220721   1.191   3.269   2.716
 6608SOL     OW20722   4.914   4.516   4.956
 6608SOL    HW120723   4.897   4.496   4.859
 6608SOL    HW220724   4.845   4.581   4.989
 6609SOL     OW20725   5.196   2.017   0.053
 6609SOL    HW120726   5.265   1.963   0.005
 6609SOL    HW220727   5.216   2.017   0.151
 6610SOL     OW20728   3.811   1.446   0.778
 6610SOL    HW120729   3.711   1.444   0.778
 6610SOL    HW220730   3.844   1.485   0.692
 6611SOL     OW20731   5.509   3.900   2.899
 6611SOL    HW120732   5.607   3.889   2.916
 6611SOL    HW220733   5.458   3.836   2.956
 6612SOL     OW20734   1.040   6.250   6.635
 6612SOL    HW120735   1.027   6.155   6.665
 6612SOL    HW220736   1.125   6.286   6.675
 6613SOL     OW20737   5.705   4.949   0.881
 6613SOL    HW120738   5.720   4.960   0.980
 6613SOL    HW220739   5.627   4.889   0.866
 6614SOL     OW20740   6.115   4.536   6.087
 6614SOL    HW120741   6.156   4.462   6.141
 6614SOL    HW220742   6.016   4.532   6.095
 6615SOL     OW20743   0.077   3.366   5.235
 6615SOL    HW120744   0.156   3.323   5.191
 6615SOL    HW220745   0.106   3.453   5.276
 6616SOL     OW20746   4.803   1.207   4.236
 6616SOL    HW120747   4.722   1.245   4.281
 6616SOL    HW220748   4.776   1.125   4.185
 6617SOL     OW20749   4.275   0.208   5.099
 6617SOL    HW120750   4.178   0.232   5.111
 6617SOL    HW220751   4.325   0.229   5.183
 6618SOL     OW20752   6.879   4.787   1.230
 6618SOL    HW120753   6.904   4.856   1.298
 6618SOL    HW220754   6.874   4.697   1.274
 6619SOL     OW20755   0.008   6.097   1.717
 6619SOL    HW120756   0.009   6.180   1.773
 6619SOL    HW220757   0.014   6.016   1.777
 6620SOL     OW20758   4.628   3.104   5.355
 6620SOL    HW120759   4.636   3.199   5.326
 6620SOL    HW220760   4.683   3.046   5.295
 6621SOL     OW20761   2.801   3.049   0.132
 6621SOL    HW120762   2.884   3.025   0.183
 6621SOL    HW220763   2.731   3.081   0.196
 6622SOL     OW20764   6.268   5.364   0.468
 6622SOL    HW120765   6.264   5.371   0.368
 6622SOL    HW220766   6.195   5.303   0.499
 6623SOL     OW20767   3.939   3.945   2.699
 6623SOL    HW120768   3.945   4.040   2.670
 6623SOL    HW220769   3.979   3.886   2.629
 6624SOL     OW20770   4.606   5.288   4.355
 6624SOL    HW120771   4.532   5.289   4.422
 6624SOL    HW220772   4.607   5.201   4.307
 6625SOL     OW20773   5.817   6.811   7.021
 6625SOL    HW120774   5.784   6.782   6.931
 6625SOL    HW220775   5.915   6.791   0.004
 6626SOL     OW20776   2.789   4.750   3.866
 6626SOL    HW120777   2.775   4.849   3.869
 6626SOL    HW220778   2.764   4.716   3.775
 6627SOL     OW20779   1.801   6.862   1.681
 6627SOL    HW120780   1.742   6.799   1.631
 6627SOL    HW220781   1.771   6.956   1.667
 6628SOL     OW20782   3.938   6.177   3.759
 6628SOL    HW120783   3.904   6.090   3.724
 6628SOL    HW220784   3.957   6.239   3.682
 6629SOL     OW20785   3.252   3.893   0.416
 6629SOL    HW120786   3.344   3.876   0.450
 6629SOL    HW220787   3.254   3.966   0.348
 6630SOL     OW20788   3.864   1.015   6.490
 6630SOL    HW120789   3.900   1.107   6.472
 6630SOL    HW220790   3.766   1.014   6.475
 6631SOL     OW20791   4.058   0.191   1.399
 6631SOL    HW120792   4.103   0.237   1.475
 6631SOL    HW220793   3.967   0.231   1.385
 6632SOL     OW20794   5.915   3.230   2.484
 6632SOL    HW120795   6.000   3.248   2.435
 6632SOL    HW220796   5.887   3.313   2.534
 6633SOL     OW20797   0.170   6.393   2.131
 6633SOL    HW120798   0.100   6.324   2.112
 6633SOL    HW220799   0.260   6.350   2.130
 6634SOL     OW20800   6.852   2.404   5.913
 6634SOL    HW120801   6.779   2.402   5.982
 6634SOL    HW220802   6.862   2.313   5.873
 6635SOL     OW20803   4.308   5.042   3.403
 6635SOL    HW120804   4.354   5.128   3.380
 6635SOL    HW220805   4.217   5.062   3.440
 6636SOL     OW20806   1.675   3.510   3.598
 6636SOL    HW120807   1.640   3.417   3.593
 6636SOL    HW220808   1.763   3.516   3.551
 6637SOL     OW20809   6.516   2.877   1.474
 6637SOL    HW120810   6.506   2.842   1.567
 6637SOL    HW220811   6.442   2.839   1.417
 6638SOL     OW20812   1.764   0.732   6.656
 6638SOL    HW120813   1.818   0.815   6.647
 6638SOL    HW220814   1.683   0.751   6.711
 6639SOL     OW20815   4.148   5.587   6.249
 6639SOL    HW120816   4.113   5.494   6.239
 6639SOL    HW220817   4.171   5.624   6.159
 6640SOL     OW20818   5.628   3.557   3.091
 6640SOL    HW120819   5.595   3.629   3.029
 6640SOL    HW220820   5.550   3.507   3.128
 6641SOL     OW20821   2.207   5.300   6.770
 6641SOL    HW120822   2.298   5.338   6.790
 6641SOL    HW220823   2.177   5.245   6.848
 6642SOL     OW20824   6.675   5.841   5.947
 6642SOL    HW120825   6.680   5.741   5.951
 6642SOL    HW220826   6.596   5.868   5.891
 6643SOL     OW20827   4.082   5.373   6.941
 6643SOL    HW120828   4.080   5.287   6.991
 6643SOL    HW220829   4.163   5.425   6.967
 6644SOL     OW20830   0.756   3.930   1.909
 6644SOL    HW120831   0.825   3.988   1.867
 6644SOL    HW220832   0.800   3.847   1.944
 6645SOL     OW20833   6.910   4.704   5.566
 6645SOL    HW120834   6.861   4.659   5.492
 6645SOL    HW220835   6.943   4.793   5.536
 6646SOL     OW20836   1.452   5.458   3.526
 6646SOL    HW120837   1.528   5.514   3.492
 6646SOL    HW220838   1.444   5.376   3.469
 6647SOL     OW20839   4.156   1.984   2.167
 6647SOL    HW120840   4.236   1.936   2.204
 6647SOL    HW220841   4.111   1.927   2.099
 6648SOL     OW20842   4.242   5.448   1.869
 6648SOL    HW120843   4.264   5.490   1.957
 6648SOL    HW220844   4.194   5.514   1.811
 6649SOL     OW20845   4.491   1.224   6.347
 6649SOL    HW120846   4.467   1.303   6.291
 6649SOL    HW220847   4.432   1.221   6.428
 6650SOL     OW20848   3.335   1.539   4.017
 6650SOL    HW120849   3.385   1.622   4.043
 6650SOL    HW220850   3.388   1.489   3.948
 6651SOL     OW20851   0.501   1.851   0.533
 6651SOL    HW120852   0.455   1.764   0.514
 6651SOL    HW220853   0.584   1.858   0.478
 6652SOL     OW20854   0.893   5.147   2.854
 6652SOL    HW120855   0.865   5.191   2.769
 6652SOL    HW220856   0.814   5.138   2.915
 6653SOL     OW20857   3.767   3.861   3.521
 6653SOL    HW120858   3.687   3.810   3.492
 6653SOL    HW220859   3.755   3.958   3.500
 6654SOL     OW20860   1.728   3.895   1.485
 6654SOL    HW120861   1.747   3.959   1.410
 6654SOL    HW220862   1.633   3.905   1.515
 6655SOL     OW20863   1.449   0.616   0.020
 6655SOL    HW120864   1.351   0.636   0.025
 6655SOL    HW220865   1.490   0.668   6.970
 6656SOL     OW20866   6.766   2.281   1.878
 6656SOL    HW120867   6.832   2.350   1.847
 6656SOL    HW220868   6.702   2.322   1.943
 6657SOL     OW20869   3.124   5.095   5.403
 6657SOL    HW120870   3.043   5.042   5.430
 6657SOL    HW220871   3.128   5.101   5.304
 6658SOL     OW20872   6.731   0.014   6.044
 6658SOL    HW120873   6.753   0.056   6.132
 6658SOL    HW220874   6.633   7.016   6.041
 6659SOL     OW20875   1.755   2.763   6.712
 6659SOL    HW120876   1.707   2.686   6.669
 6659SOL    HW220877   1.704   2.847   6.696
 6660SOL     OW20878   0.795   6.261   2.625
 6660SOL    HW120879   0.785   6.283   2.527
 6660SOL    HW220880   0.889   6.282   2.654
 6661SOL     OW20881   6.744   6.810   4.027
 6661SOL    HW120882   6.801   6.886   4.059
 6661SOL    HW220883   6.691   6.840   3.948
 6662SOL     OW20884   1.151   3.700   5.705
 6662SOL    HW120885   1.078   3.677   5.768
 6662SOL    HW220886   1.214   3.764   5.748
 6663SOL     OW20887   0.656   4.949   2.253
 6663SOL    HW120888   0.698   4.873   2.204
 6663SOL    HW220889   0.566   4.968   2.214
 6664SOL     OW20890   6.979   2.278   2.120
 6664SOL    HW120891   6.949   2.303   2.213
 6664SOL    HW220892   6.945   2.346   2.055
 6665SOL     OW20893   1.969   0.085   2.534
 6665SOL    HW120894   1.961   0.041   2.623
 6665SOL    HW220895   2.058   0.130   2.526
 6666SOL     OW20896   5.239   1.239   0.381
 6666SOL    HW120897   5.278   1.237   0.473
 6666SOL    HW220898   5.166   1.307   0.376
 6667SOL     OW20899   5.991   4.806   5.085
 6667SOL    HW120900   5.892   4.793   5.073
 6667SOL    HW220901   6.031   4.838   4.999
 6668SOL     OW20902   6.665   6.335   0.849
 6668SOL    HW120903   6.712   6.406   0.797
 6668SOL    HW220904   6.567   6.355   0.850
 6669SOL     OW20905   0.966   4.795   2.726
 6669SOL    HW120906   0.976   4.832   2.818
 6669SOL    HW220907   0.881   4.827   2.686
 6670SOL     OW20908   4.589   4.629   6.904
 6670SOL    HW120909   4.624   4.638   6.811
 6670SOL    HW220910   4.627   4.701   6.962
 6671SOL     OW20911   0.698   2.540   5.343
 6671SOL    HW120912   0.741   2.561   5.255
 6671SOL    HW220913   0.638   2.615   5.370
 6672SOL     OW20914   6.873   0.826   5.197
 6672SOL    HW120915   6.943   0.813   5.127
 6672SOL    HW220916   6.901   0.899   5.259
 6673SOL     OW20917   4.514   5.905   1.424
 6673SOL    HW120918   4.600   5.889   1.472
 6673SOL    HW220919   4.469   5.986   1.463
 6674SOL     OW20920   0.687   6.388   5.592
 6674SOL    HW120921   0.652   6.398   5.499
 6674SOL    HW220922   0.731   6.299   5.602
 6675SOL     OW20923   6.701   6.022   6.812
 6675SOL    HW120924   6.679   6.073   6.730
 6675SOL    HW220925   6.800   6.014   6.821
 6676SOL     OW20926   0.198   1.795   0.604
 6676SOL    HW120927   0.170   1.767   0.695
 6676SOL    HW220928   0.260   1.726   0.566
 6677SOL     OW20929   0.376   4.582   0.672
 6677SOL    HW120930   0.417   4.506   0.622
 6677SOL    HW220931   0.447   4.648   0.697
 6678SOL     OW20932   1.065   2.994   4.248
 6678SOL    HW120933   1.022   2.920   4.197
 6678SOL    HW220934   1.134   2.956   4.310
 6679SOL     OW20935   1.713   1.055   4.617
 6679SOL    HW120936   1.810   1.047   4.640
 6679SOL    HW220937   1.666   1.110   4.686
 6680SOL     OW20938   3.142   0.460   6.237
 6680SOL    HW120939   3.103   0.472   6.146
 6680SOL    HW220940   3.232   0.416   6.229
 6681SOL     OW20941   5.542   5.759   6.631
 6681SOL    HW120942   5.483   5.681   6.611
 6681SOL    HW220943   5.491   5.844   6.616
 6682SOL     OW20944   6.659   5.293   2.226
 6682SOL    HW120945   6.606   5.218   2.265
 6682SOL    HW220946   6.655   5.290   2.127
 6683SOL     OW20947   4.548   2.468   4.511
 6683SOL    HW120948   4.480   2.415   4.460
 6683SOL    HW220949   4.563   2.425   4.600
 6684SOL     OW20950   1.610   1.450   2.363
 6684SOL    HW120951   1.633   1.543   2.392
 6684SOL    HW220952   1.534   1.416   2.418
 6685SOL     OW20953   5.840   2.768   6.873
 6685SOL    HW120954   5.779   2.717   6.935
 6685SOL    HW220955   5.785   2.826   6.813
 6686SOL     OW20956   5.889   4.116   4.024
 6686SOL    HW120957   5.821   4.122   3.950
 6686SOL    HW220958   5.931   4.025   4.023
 6687SOL     OW20959   0.472   0.466   0.252
 6687SOL    HW120960   0.487   0.472   0.153
 6687SOL    HW220961   0.388   0.515   0.275
 6688SOL     OW20962   0.737   4.934   2.607
 6688SOL    HW120963   0.667   4.961   2.673
 6688SOL    HW220964   0.804   5.007   2.596
 6689SOL     OW20965   4.948   4.105   6.918
 6689SOL    HW120966   4.874   4.127   6.855
 6689SOL    HW220967   4.942   4.010   6.947
 6690SOL     OW20968   0.365   1.612   0.502
 6690SOL    HW120969   0.380   1.574   0.593
 6690SOL    HW220970   0.321   1.544   0.444
 6691SOL     OW20971   1.343   5.342   0.752
 6691SOL    HW120972   1.353   5.263   0.691
 6691SOL    HW220973   1.263   5.329   0.809
 6692SOL     OW20974   4.618   3.729   6.501
 6692SOL    HW120975   4.664   3.787   6.568
 6692SOL    HW220976   4.543   3.780   6.459
 6693SOL     OW20977   4.244   3.985   6.040
 6693SOL    HW120978   4.333   3.941   6.050
 6693SOL    HW220979   4.173   3.925   6.077
 6694SOL     OW20980   3.075   6.130   6.764
 6694SOL    HW120981   3.036   6.199   6.702
 6694SOL    HW220982   3.097   6.048   6.712
 6695SOL     OW20983   1.439   1.535   0.152
 6695SOL    HW120984   1.505   1.596   0.195
 6695SOL    HW220985   1.462   1.524   0.055
 6696SOL     OW20986   1.577   2.632   1.312
 6696SOL    HW120987   1.562   2.538   1.282
 6696SOL    HW220988   1.638   2.632   1.391
 6697SOL     OW20989   5.415   3.204   4.239
 6697SOL    HW120990   5.367   3.123   4.273
 6697SOL    HW220991   5.395   3.217   4.142
 6698SOL     OW20992   2.416   4.158   6.426
 6698SOL    HW120993   2.349   4.113   6.486
 6698SOL    HW220994   2.380   4.246   6.396
 6699SOL     OW20995   1.678   3.248   6.817
 6699SOL    HW120996   1.601   3.196   6.781
 6699SOL    HW220997   1.644   3.322   6.875
 6700SOL     OW20998   0.323   6.641   6.375
 6700SOL    HW120999   0.335   6.617   6.471
 6700SOL    HW221000   0.288   6.561   6.325
 6701SOL     OW21001   1.136   2.355   0.814
 6701SOL    HW121002   1.169   2.263   0.835
 6701SOL    HW221003   1.163   2.418   0.886
 6702SOL     OW21004   2.332   3.128   0.365
 6702SOL    HW121005   2.340   3.200   0.434
 6702SOL    HW221006   2.261   3.063   0.393
 6703SOL     OW21007   0.176   2.564   6.494
 6703SOL    HW121008   0.137   2.512   6.570
 6703SOL    HW221009   0.147   2.659   6.501
 6704SOL     OW21010   5.098   3.454   3.221
 6704SOL    HW121011   5.015   3.478   3.272
 6704SOL    HW221012   5.177   3.496   3.266
 6705SOL     OW21013   5.592   1.196   1.495
 6705SOL    HW121014   5.643   1.260   1.553
 6705SOL    HW221015   5.537   1.136   1.553
 6706SOL     OW21016   1.239   6.078   0.152
 6706SOL    HW121017   1.164   6.127   0.108
 6706SOL    HW221018   1.223   6.073   0.250
 6707SOL     OW21019   1.277   5.274   3.150
 6707SOL    HW121020   1.235   5.230   3.071
 6707SOL    HW221021   1.238   5.365   3.162
 6708SOL     OW21022   2.194   6.255   1.298
 6708SOL    HW121023   2.095   6.248   1.306
 6708SOL    HW221024   2.234   6.277   1.387
 6709SOL     OW21025   5.332   1.486   3.582
 6709SOL    HW121026   5.272   1.533   3.516
 6709SOL    HW221027   5.325   1.387   3.569
 6710SOL     OW21028   1.841   1.669   0.641
 6710SOL    HW121029   1.926   1.684   0.591
 6710SOL    HW221030   1.837   1.733   0.718
 6711SOL     OW21031   5.555   3.569   6.677
 6711SOL    HW121032   5.653   3.566   6.659
 6711SOL    HW221033   5.521   3.476   6.694
 6712SOL     OW21034   3.497   6.546   1.172
 6712SOL    HW121035   3.447   6.496   1.244
 6712SOL    HW221036   3.589   6.568   1.205
 6713SOL     OW21037   1.428   2.129   3.346
 6713SOL    HW121038   1.518   2.118   3.302
 6713SOL    HW221039   1.366   2.174   3.282
 6714SOL     OW21040   6.588   0.296   5.119
 6714SOL    HW121041   6.645   0.351   5.180
 6714SOL    HW221042   6.525   0.241   5.173
 6715SOL     OW21043   5.745   2.727   0.776
 6715SOL    HW121044   5.794   2.643   0.798
 6715SOL    HW221045   5.658   2.729   0.824
 6716SOL     OW21046   3.756   6.154   0.943
 6716SOL    HW121047   3.758   6.061   0.980
 6716SOL    HW221048   3.661   6.185   0.935
 6717SOL     OW21049   4.369   1.303   6.745
 6717SOL    HW121050   4.417   1.242   6.808
 6717SOL    HW221051   4.273   1.275   6.738
 6718SOL     OW21052   4.029   0.225   6.881
 6718SOL    HW121053   3.944   0.214   6.830
 6718SOL    HW221054   4.065   0.317   6.865
 6719SOL     OW21055   0.481   2.266   5.156
 6719SOL    HW121056   0.413   2.339   5.155
 6719SOL    HW221057   0.500   2.238   5.250
 6720SOL     OW21058   1.428   4.596   1.194
 6720SOL    HW121059   1.382   4.684   1.205
 6720SOL    HW221060   1.364   4.529   1.158
 6721SOL     OW21061   6.482   6.476   3.042
 6721SOL    HW121062   6.522   6.395   2.997
 6721SOL    HW221063   6.519   6.559   3.000
 6722SOL     OW21064   4.303   4.676   6.892
 6722SOL    HW121065   4.402   4.666   6.900
 6722SOL    HW221066   4.260   4.654   6.980
 6723SOL     OW21067   3.965   1.284   2.643
 6723SOL    HW121068   3.903   1.271   2.565
 6723SOL    HW221069   3.989   1.381   2.650
 6724SOL     OW21070   3.564   4.532   5.396
 6724SOL    HW121071   3.537   4.445   5.438
 6724SOL    HW221072   3.620   4.584   5.461
 6725SOL     OW21073   0.735   5.587   1.518
 6725SOL    HW121074   0.645   5.579   1.562
 6725SOL    HW221075   0.804   5.545   1.577
 6726SOL     OW21076   2.493   2.857   1.796
 6726SOL    HW121077   2.554   2.779   1.796
 6726SOL    HW221078   2.541   2.937   1.761
 6727SOL     OW21079   3.028   4.375   0.768
 6727SOL    HW121080   2.972   4.332   0.839
 6727SOL    HW221081   3.023   4.321   0.684
 6728SOL     OW21082   4.535   1.318   4.452
 6728SOL    HW121083   4.579   1.407   4.465
 6728SOL    HW221084   4.458   1.327   4.389
 6729SOL     OW21085   4.984   6.162   3.408
 6729SOL    HW121086   4.955   6.151   3.503
 6729SOL    HW221087   5.050   6.090   3.385
 6730SOL     OW21088   1.398   6.910   2.493
 6730SOL    HW121089   1.471   6.939   2.432
 6730SOL    HW221090   1.311   6.949   2.461
 6731SOL     OW21091   1.822   3.998   1.777
 6731SOL    HW121092   1.781   4.062   1.842
 6731SOL    HW221093   1.893   4.044   1.724
 6732SOL     OW21094   3.065   5.561   0.640
 6732SOL    HW121095   3.158   5.563   0.602
 6732SOL    HW221096   3.067   5.595   0.734
 6733SOL     OW21097   6.337   5.726   4.562
 6733SOL    HW121098   6.279   5.805   4.582
 6733SOL    HW221099   6.288   5.663   4.502
 6734SOL     OW21100   2.367   3.556   6.437
 6734SOL    HW121101   2.286   3.545   6.380
 6734SOL    HW221102   2.435   3.611   6.389
 6735SOL     OW21103   0.683   6.565   6.082
 6735SOL    HW121104   0.660   6.634   6.151
 6735SOL    HW221105   0.602   6.544   6.027
 6736SOL     OW21106   2.431   4.226   1.856
 6736SOL    HW121107   2.471   4.316   1.873
 6736SOL    HW221108   2.339   4.222   1.894
 6737SOL     OW21109   1.587   6.708   0.991
 6737SOL    HW121110   1.565   6.732   1.085
 6737SOL    HW221111   1.592   6.608   0.982
 6738SOL     OW21112   4.845   1.756   1.398
 6738SOL    HW121113   4.893   1.841   1.378
 6738SOL    HW221114   4.752   1.761   1.363
 6739SOL     OW21115   4.013   6.518   5.321
 6739SOL    HW121116   3.986   6.424   5.300
 6739SOL    HW221117   4.093   6.517   5.381
 6740SOL     OW21118   5.430   2.115   5.904
 6740SOL    HW121119   5.421   2.208   5.939
 6740SOL    HW221120   5.372   2.104   5.823
 6741SOL     OW21121   0.088   0.652   5.556
 6741SOL    HW121122   0.141   0.725   5.513
 6741SOL    HW221123   0.004   0.637   5.503
 6742SOL     OW21124   6.372   5.548   4.761
 6742SOL    HW121125   6.386   5.581   4.855
 6742SOL    HW221126   6.361   5.626   4.700
 6743SOL     OW21127   5.889   2.308   1.310
 6743SOL    HW121128   5.832   2.335   1.388
 6743SOL    HW221129   5.977   2.356   1.315
 6744SOL     OW21130   4.590   0.297   4.292
 6744SOL    HW121131   4.585   0.345   4.380
 6744SOL    HW221132   4.609   0.200   4.307
 6745SOL     OW21133   0.395   3.551   3.358
 6745SOL    HW121134   0.426   3.554   3.263
 6745SOL    HW221135   0.327   3.478   3.369
 6746SOL     OW21136   6.230   0.946   0.521
 6746SOL    HW121137   6.154   1.011   0.512
 6746SOL    HW221138   6.251   0.906   0.432
 6747SOL     OW21139   4.719   5.396   6.862
 6747SOL    HW121140   4.743   5.493   6.851
 6747SOL    HW221141   4.619   5.387   6.865
 6748SOL     OW21142   6.884   6.531   2.466
 6748SOL    HW121143   6.799   6.484   2.440
 6748SOL    HW221144   6.886   6.622   2.425
 6749SOL     OW21145   2.692   5.344   1.160
 6749SOL    HW121146   2.761   5.361   1.090
 6749SOL    HW221147   2.704   5.252   1.198
 6750SOL     OW21148   2.237   3.093   5.314
 6750SOL    HW121149   2.160   3.036   5.284
 6750SOL    HW221150   2.320   3.066   5.265
 6751SOL     OW21151   4.356   2.012   5.710
 6751SOL    HW121152   4.419   1.945   5.748
 6751SOL    HW221153   4.264   1.975   5.707
 6752SOL     OW21154   0.064   1.503   0.034
 6752SOL    HW121155   0.071   1.405   0.050
 6752SOL    HW221156   7.000   1.537   0.067
 6753SOL     OW21157   6.464   1.103   6.812
 6753SOL    HW121158   6.524   1.183   6.813
 6753SOL    HW221159   6.494   1.041   6.739
 6754SOL     OW21160   4.680   0.795   6.906
 6754SOL    HW121161   4.779   0.807   6.902
 6754SOL    HW221162   4.635   0.878   6.873
 6755SOL     OW21163   5.190   1.654   3.399
 6755SOL    HW121164   5.156   1.742   3.432
 6755SOL    HW221165   5.273   1.668   3.345
 6756SOL     OW21166   4.629   4.924   3.666
 6756SOL    HW121167   4.669   4.900   3.578
 6756SOL    HW221168   4.700   4.921   3.737
 6757SOL     OW21169   6.103   4.378   1.311
 6757SOL    HW121170   6.053   4.418   1.234
 6757SOL    HW221171   6.149   4.451   1.362
 6758SOL     OW21172   6.672   2.230   2.574
 6758SOL    HW121173   6.684   2.302   2.642
 6758SOL    HW221174   6.640   2.147   2.619
 6759SOL     OW21175   0.935   5.247   3.673
 6759SOL    HW121176   0.949   5.149   3.657
 6759SOL    HW221177   0.838   5.265   3.686
 6760SOL     OW21178   0.104   3.619   4.934
 6760SOL    HW121179   0.049   3.670   5.000
 6760SOL    HW221180   0.199   3.648   4.941
 6761SOL     OW21181   6.039   2.853   6.341
 6761SOL    HW121182   6.003   2.761   6.354
 6761SOL    HW221183   6.107   2.872   6.412
 6762SOL     OW21184   0.514   3.415   4.035
 6762SOL    HW121185   0.420   3.396   4.008
 6762SOL    HW221186   0.564   3.455   3.958
 6763SOL     OW21187   6.358   6.494   5.720
 6763SOL    HW121188   6.298   6.569   5.696
 6763SOL    HW221189   6.419   6.474   5.643
 6764SOL     OW21190   1.564   3.813   0.136
 6764SOL    HW121191   1.545   3.871   0.216
 6764SOL    HW221192   1.624   3.738   0.164
 6765SOL     OW21193   4.935   4.868   2.116
 6765SOL    HW121194   4.967   4.916   2.034
 6765SOL    HW221195   4.945   4.927   2.196
 6766SOL     OW21196   2.807   2.563   5.617
 6766SOL    HW121197   2.886   2.584   5.559
 6766SOL    HW221198   2.733   2.627   5.596
 6767SOL     OW21199   0.690   2.864   5.719
 6767SOL    HW121200   0.752   2.928   5.763
 6767SOL    HW221201   0.596   2.886   5.744
 6768SOL     OW21202   6.758   0.926   5.836
 6768SOL    HW121203   6.830   0.996   5.833
 6768SOL    HW221204   6.670   0.968   5.815
 6769SOL     OW21205   1.246   2.463   6.130
 6769SOL    HW121206   1.256   2.517   6.214
 6769SOL    HW221207   1.149   2.447   6.111
 6770SOL     OW21208   0.404   1.654   3.261
 6770SOL    HW121209   0.324   1.651   3.201
 6770SOL    HW221210   0.473   1.589   3.229
 6771SOL     OW21211   5.701   2.444   2.545
 6771SOL    HW121212   5.733   2.538   2.543
 6771SOL    HW221213   5.608   2.440   2.582
 6772SOL     OW21214   1.109   0.606   1.939
 6772SOL    HW121215   1.203   0.630   1.962
 6772SOL    HW221216   1.102   0.581   1.843
 6773SOL     OW21217   1.566   0.909   2.974
 6773SOL    HW121218   1.571   0.993   3.028
 6773SOL    HW221219   1.547   0.932   2.879
 6774SOL     OW21220   4.034   1.439   5.269
 6774SOL    HW121221   3.979   1.452   5.187
 6774SOL    HW221222   3.977   1.452   5.350
 6775SOL     OW21223   1.693   2.238   4.880
 6775SOL    HW121224   1.625   2.306   4.910
 6775SOL    HW221225   1.733   2.193   4.960
 6776SOL     OW21226   3.596   3.774   3.779
 6776SOL    HW121227   3.500   3.786   3.754
 6776SOL    HW221228   3.652   3.839   3.727
 6777SOL     OW21229   0.164   0.443   5.744
 6777SOL    HW121230   0.091   0.375   5.747
 6777SOL    HW221231   0.131   0.524   5.696
 6778SOL     OW21232   6.417   5.766   2.129
 6778SOL    HW121233   6.401   5.695   2.198
 6778SOL    HW221234   6.332   5.783   2.079
 6779SOL     OW21235   4.896   4.120   6.395
 6779SOL    HW121236   4.864   4.027   6.379
 6779SOL    HW221237   4.984   4.117   6.442
 6780SOL     OW21238   4.943   1.068   2.483
 6780SOL    HW121239   5.020   1.038   2.539
 6780SOL    HW221240   4.859   1.024   2.514
 6781SOL     OW21241   5.851   4.130   3.115
 6781SOL    HW121242   5.899   4.042   3.109
 6781SOL    HW221243   5.880   4.178   3.198
 6782SOL     OW21244   0.343   1.694   2.677
 6782SOL    HW121245   0.250   1.672   2.704
 6782SOL    HW221246   0.404   1.681   2.755
 6783SOL     OW21247   0.652   6.174   6.707
 6783SOL    HW121248   0.570   6.117   6.698
 6783SOL    HW221249   0.688   6.195   6.616
 6784SOL     OW21250   1.362   4.712   6.497
 6784SOL    HW121251   1.387   4.768   6.418
 6784SOL    HW221252   1.432   4.722   6.568
 6785SOL     OW21253   5.316   4.150   2.121
 6785SOL    HW121254   5.352   4.192   2.204
 6785SOL    HW221255   5.217   4.138   2.130
 6786SOL     OW21256   6.444   1.404   5.632
 6786SOL    HW121257   6.459   1.342   5.710
 6786SOL    HW221258   6.532   1.440   5.601
 6787SOL     OW21259   3.879   2.467   1.180
 6787SOL    HW121260   3.964   2.507   1.214
 6787SOL    HW221261   3.886   2.452   1.081
 6788SOL     OW21262   1.328   4.375   0.954
 6788SOL    HW121263   1.242   4.391   1.004
 6788SOL    HW221264   1.371   4.292   0.989
 6789SOL     OW21265   6.165   2.866   2.392
 6789SOL    HW121266   6.089   2.860   2.327
 6789SOL    HW221267   6.129   2.866   2.486
 6790SOL     OW21268   0.774   5.695   0.509
 6790SOL    HW121269   0.711   5.771   0.525
 6790SOL    HW221270   0.722   5.615   0.477
 6791SOL     OW21271   1.935   5.997   3.570
 6791SOL    HW121272   1.930   6.091   3.602
 6791SOL    HW221273   1.964   5.937   3.645
 6792SOL     OW21274   3.632   5.896   6.995
 6792SOL    HW121275   3.564   5.837   6.953
 6792SOL    HW221276   3.717   5.845   7.009
 6793SOL     OW21277   1.999   3.691   6.717
 6793SOL    HW121278   1.955   3.660   6.802
 6793SOL    HW221279   2.093   3.655   6.714
 6794SOL     OW21280   4.555   2.646   4.318
 6794SOL    HW121281   4.493   2.605   4.251
 6794SOL    HW221282   4.565   2.585   4.396
 6795SOL     OW21283   0.857   0.714   2.029
 6795SOL    HW121284   0.869   0.801   2.077
 6795SOL    HW221285   0.947   0.678   2.002
 6796SOL     OW21286   6.871   3.047   1.984
 6796SOL    HW121287   6.870   3.036   2.083
 6796SOL    HW221288   6.916   2.969   1.941
 6797SOL     OW21289   1.798   3.598   0.538
 6797SOL    HW121290   1.784   3.499   0.532
 6797SOL    HW221291   1.754   3.632   0.621
 6798SOL     OW21292   5.158   2.035   1.596
 6798SOL    HW121293   5.137   2.011   1.691
 6798SOL    HW221294   5.245   1.994   1.569
 6799SOL     OW21295   4.982   0.020   2.731
 6799SOL    HW121296   5.081   0.011   2.736
 6799SOL    HW221297   4.950   0.070   2.811
 6800SOL     OW21298   6.531   2.863   2.208
 6800SOL    HW121299   6.435   2.836   2.208
 6800SOL    HW221300   6.562   2.877   2.302
 6801SOL     OW21301   2.016   5.305   5.327
 6801SOL    HW121302   2.107   5.278   5.296
 6801SOL    HW221303   2.006   5.404   5.320
 6802SOL     OW21304   2.777   4.625   1.633
 6802SOL    HW121305   2.786   4.576   1.546
 6802SOL    HW221306   2.817   4.570   1.707
 6803SOL     OW21307   6.172   5.302   6.330
 6803SOL    HW121308   6.194   5.267   6.422
 6803SOL    HW221309   6.212   5.241   6.261
 6804SOL     OW21310   3.389   4.912   1.875
 6804SOL    HW121311   3.482   4.875   1.877
 6804SOL    HW221312   3.354   4.918   1.968
 6805SOL     OW21313   0.256   3.760   4.142
 6805SOL    HW121314   0.319   3.813   4.085
 6805SOL    HW221315   0.228   3.815   4.221
 6806SOL     OW21316   6.041   3.528   1.929
 6806SOL    HW121317   6.105   3.538   2.006
 6806SOL    HW221318   6.035   3.432   1.903
 6807SOL     OW21319   4.026   3.119   2.651
 6807SOL    HW121320   4.001   3.153   2.561
 6807SOL    HW221321   4.060   3.025   2.643
 6808SOL     OW21322   3.373   6.287   4.052
 6808SOL    HW121323   3.315   6.281   4.133
 6808SOL    HW221324   3.469   6.283   4.080
 6809SOL     OW21325   6.016   3.076   0.704
 6809SOL    HW121326   5.972   2.990   0.676
 6809SOL    HW221327   6.105   3.056   0.744
 6810SOL     OW21328   3.362   0.186   4.720
 6810SOL    HW121329   3.287   0.143   4.670
 6810SOL    HW221330   3.383   0.274   4.678
 6811SOL     OW21331   6.690   1.667   1.092
 6811SOL    HW121332   6.697   1.666   1.192
 6811SOL    HW221333   6.691   1.762   1.060
 6812SOL     OW21334   3.304   4.546   5.466
 6812SOL    HW121335   3.240   4.513   5.396
 6812SOL    HW221336   3.397   4.544   5.430
 6813SOL     OW21337   0.098   4.162   2.325
 6813SOL    HW121338   0.089   4.198   2.232
 6813SOL    HW221339   0.033   4.086   2.337
 6814SOL     OW21340   4.413   2.444   1.340
 6814SOL    HW121341   4.414   2.429   1.439
 6814SOL    HW221342   4.495   2.495   1.313
 6815SOL     OW21343   1.583   5.671   0.839
 6815SOL    HW121344   1.502   5.726   0.855
 6815SOL    HW221345   1.660   5.707   0.892
 6816SOL     OW21346   5.652   6.916   3.534
 6816SOL    HW121347   5.684   7.011   3.531
 6816SOL    HW221348   5.552   6.915   3.523
 6817SOL     OW21349   6.093   0.500   1.495
 6817SOL    HW121350   6.025   0.443   1.449
 6817SOL    HW221351   6.167   0.521   1.431
 6818SOL     OW21352   6.830   0.297   5.493
 6818SOL    HW121353   6.808   0.354   5.415
 6818SOL    HW221354   6.766   0.219   5.497
 6819SOL     OW21355   5.737   3.839   0.537
 6819SOL    HW121356   5.801   3.855   0.612
 6819SOL    HW221357   5.778   3.869   0.451
 6820SOL     OW21358   2.011   4.517   0.713
 6820SOL    HW121359   2.035   4.440   0.771
 6820SOL    HW221360   2.046   4.502   0.620
 6821SOL     OW21361   2.786   3.208   5.985
 6821SOL    HW121362   2.711   3.259   5.944
 6821SOL    HW221363   2.753   3.160   6.067
 6822SOL     OW21364   6.865   4.122   5.217
 6822SOL    HW121365   6.843   4.131   5.120
 6822SOL    HW221366   6.803   4.058   5.260
 6823SOL     OW21367   6.454   3.144   5.692
 6823SOL    HW121368   6.452   3.157   5.593
 6823SOL    HW221369   6.540   3.179   5.729
 6824SOL     OW21370   0.618   0.161   3.920
 6824SOL    HW121371   0.556   0.130   3.848
 6824SOL    HW221372   0.708   0.119   3.908
 6825SOL     OW21373   5.064   4.754   1.717
 6825SOL    HW121374   5.110   4.799   1.640
 6825SOL    HW221375   5.051   4.821   1.791
 6826SOL     OW21376   5.578   0.973   4.030
 6826SOL    HW121377   5.509   1.043   4.048
 6826SOL    HW221378   5.620   0.990   3.941
 6827SOL     OW21379   5.084   4.692   5.255
 6827SOL    HW121380   5.144   4.756   5.304
 6827SOL    HW221381   5.133   4.605   5.242
 6828SOL     OW21382   2.378   2.196   2.410
 6828SOL    HW121383   2.397   2.244   2.325
 6828SOL    HW221384   2.338   2.107   2.390
 6829SOL     OW21385   5.441   6.894   4.238
 6829SOL    HW121386   5.443   6.959   4.314
 6829SOL    HW221387   5.440   6.944   4.152
 6830SOL     OW21388   3.691   6.253   2.083
 6830SOL    HW121389   3.606   6.201   2.081
 6830SOL    HW221390   3.768   6.192   2.066
 6831SOL     OW21391   2.327   0.444   0.256
 6831SOL    HW121392   2.301   0.503   0.179
 6831SOL    HW221393   2.418   0.471   0.289
 6832SOL     OW21394   3.373   3.292   0.237
 6832SOL    HW121395   3.365   3.389   0.259
 6832SOL    HW221396   3.319   3.239   0.303
 6833SOL     OW21397   4.635   5.176   0.173
 6833SOL    HW121398   4.679   5.087   0.184
 6833SOL    HW221399   4.683   5.245   0.226
 6834SOL     OW21400   6.481   5.559   5.134
 6834SOL    HW121401   6.560   5.509   5.099
 6834SOL    HW221402   6.464   5.533   5.229
 6835SOL     OW21403   4.309   0.496   2.725
 6835SOL    HW121404   4.256   0.484   2.808
 6835SOL    HW221405   4.393   0.441   2.731
 6836SOL     OW21406   0.739   5.009   6.626
 6836SOL    HW121407   0.810   4.940   6.634
 6836SOL    HW221408   0.779   5.100   6.637
 6837SOL     OW21409   6.587   2.582   1.710
 6837SOL    HW121410   6.549   2.508   1.766
 6837SOL    HW221411   6.525   2.661   1.712
 6838SOL     OW21412   1.991   3.872   0.059
 6838SOL    HW121413   2.007   3.938   0.132
 6838SOL    HW221414   1.898   3.883   0.024
 6839SOL     OW21415   6.055   1.983   5.613
 6839SOL    HW121416   6.041   1.925   5.534
 6839SOL    HW221417   6.023   1.936   5.696
 6840SOL     OW21418   3.367   0.309   4.424
 6840SOL    HW121419   3.346   0.282   4.330
 6840SOL    HW221420   3.284   0.304   4.479
 6841SOL     OW21421   4.698   5.753   0.817
 6841SOL    HW121422   4.705   5.837   0.869
 6841SOL    HW221423   4.733   5.677   0.871
 6842SOL     OW21424   0.886   3.553   3.443
 6842SOL    HW121425   0.795   3.514   3.430
 6842SOL    HW221426   0.879   3.632   3.504
 6843SOL     OW21427   4.736   3.247   1.704
 6843SOL    HW121428   4.693   3.167   1.745
 6843SOL    HW221429   4.830   3.225   1.677
 6844SOL     OW21430   3.615   6.806   4.605
 6844SOL    HW121431   3.532   6.783   4.554
 6844SOL    HW221432   3.695   6.784   4.550
 6845SOL     OW21433   3.429   3.934   6.974
 6845SOL    HW121434   3.415   3.838   6.951
 6845SOL    HW221435   3.498   3.941   0.022
 6846SOL     OW21436   3.703   2.930   4.200
 6846SOL    HW121437   3.711   2.869   4.279
 6846SOL    HW221438   3.612   2.922   4.161
 6847SOL     OW21439   5.259   3.617   2.136
 6847SOL    HW121440   5.182   3.641   2.076
 6847SOL    HW221441   5.224   3.593   2.226
 6848SOL     OW21442   0.701   5.782   4.663
 6848SOL    HW121443   0.767   5.734   4.720
 6848SOL    HW221444   0.624   5.722   4.643
 6849SOL     OW21445   3.164   0.352   5.017
 6849SOL    HW121446   3.261   0.330   5.006
 6849SOL    HW221447   3.114   0.316   4.938
 6850SOL     OW21448   6.564   3.560   1.933
 6850SOL    HW121449   6.483   3.613   1.907
 6850SOL    HW221450   6.540   3.463   1.936
 6851SOL     OW21451   1.907   5.696   0.412
 6851SOL    HW121452   1.959   5.613   0.431
 6851SOL    HW221453   1.821   5.694   0.462
 6852SOL     OW21454   5.554   4.601   2.117
 6852SOL    HW121455   5.542   4.697   2.142
 6852SOL    HW221456   5.510   4.584   2.029
 6853SOL     OW21457   6.521   4.128   4.412
 6853SOL    HW121458   6.497   4.213   4.364
 6853SOL    HW221459   6.616   4.106   4.394
 6854SOL     OW21460   6.040   1.116   6.763
 6854SOL    HW121461   6.098   1.173   6.705
 6854SOL    HW221462   5.990   1.051   6.706
 6855SOL     OW21463   3.274   6.963   1.908
 6855SOL    HW121464   3.183   6.971   1.947
 6855SOL    HW221465   3.339   6.937   1.980
 6856SOL     OW21466   0.609   5.095   5.435
 6856SOL    HW121467   0.517   5.077   5.470
 6856SOL    HW221468   0.611   5.080   5.336
 6857SOL     OW21469   4.876   0.697   0.229
 6857SOL    HW121470   4.843   0.776   0.280
 6857SOL    HW221471   4.958   0.722   0.178
 6858SOL     OW21472   3.618   2.608   6.352
 6858SOL    HW121473   3.617   2.574   6.258
 6858SOL    HW221474   3.586   2.536   6.414
 6859SOL     OW21475   4.611   0.693   0.774
 6859SOL    HW121476   4.656   0.782   0.777
 6859SOL    HW221477   4.543   0.692   0.700
 6860SOL     OW21478   4.884   3.190   6.939
 6860SOL    HW121479   4.919   3.108   6.984
 6860SOL    HW221480   4.875   3.174   6.841
 6861SOL     OW21481   6.152   3.659   7.016
 6861SOL    HW121482   6.223   3.705   0.045
 6861SOL    HW221483   6.134   3.569   0.031
 6862SOL     OW21484   2.572   4.603   4.840
 6862SOL    HW121485   2.531   4.514   4.855
 6862SOL    HW221486   2.581   4.652   4.927
 6863SOL     OW21487   0.890   3.688   3.958
 6863SOL    HW121488   0.867   3.598   3.994
 6863SOL    HW221489   0.852   3.699   3.866
 6864SOL     OW21490   3.234   5.563   6.042
 6864SOL    HW121491   3.214   5.538   6.137
 6864SOL    HW221492   3.270   5.484   5.993
 6865SOL     OW21493   1.355   2.579   5.182
 6865SOL    HW121494   1.363   2.674   5.150
 6865SOL    HW221495   1.284   2.574   5.252
 6866SOL     OW21496   0.937   3.924   2.481
 6866SOL    HW121497   0.906   3.919   2.576
 6866SOL    HW221498   0.871   3.878   2.422
 6867SOL     OW21499   2.312   5.326   3.438
 6867SOL    HW121500   2.240   5.394   3.450
 6867SOL    HW221501   2.383   5.362   3.377
 6868SOL     OW21502   2.010   5.799   4.931
 6868SOL    HW121503   2.053   5.782   5.020
 6868SOL    HW221504   2.043   5.885   4.894
 6869SOL     OW21505   0.395   2.648   4.818
 6869SOL    HW121506   0.403   2.729   4.876
 6869SOL    HW221507   0.471   2.586   4.836
 6870SOL     OW21508   5.634   4.193   2.949
 6870SOL    HW121509   5.612   4.095   2.947
 6870SOL    HW221510   5.715   4.208   3.006
 6871SOL     OW21511   4.130   5.690   1.795
 6871SOL    HW121512   4.104   5.740   1.878
 6871SOL    HW221513   4.164   5.754   1.726
 6872SOL     OW21514   3.458   4.422   0.770
 6872SOL    HW121515   3.366   4.451   0.742
 6872SOL    HW221516   3.469   4.324   0.751
 6873SOL     OW21517   5.569   4.842   5.316
 6873SOL    HW121518   5.560   4.808   5.223
 6873SOL    HW221519   5.650   4.802   5.359
 6874SOL     OW21520   1.015   1.871   6.446
 6874SOL    HW121521   1.074   1.946   6.477
 6874SOL    HW221522   1.058   1.784   6.470
 6875SOL     OW21523   3.876   0.537   5.164
 6875SOL    HW121524   3.860   0.440   5.146
 6875SOL    HW221525   3.839   0.560   5.254
 6876SOL     OW21526   3.240   6.064   4.379
 6876SOL    HW121527   3.283   6.052   4.468
 6876SOL    HW221528   3.260   5.985   4.321
 6877SOL     OW21529   2.283   3.553   0.091
 6877SOL    HW121530   2.306   3.499   0.010
 6877SOL    HW221531   2.316   3.506   0.172
 6878SOL     OW21532   1.558   1.392   4.882
 6878SOL    HW121533   1.568   1.423   4.976
 6878SOL    HW221534   1.504   1.459   4.830
 6879SOL     OW21535   6.261   1.191   5.532
 6879SOL    HW121536   6.317   1.268   5.564
 6879SOL    HW221537   6.214   1.217   5.448
 6880SOL     OW21538   1.204   4.646   4.629
 6880SOL    HW121539   1.302   4.660   4.649
 6880SOL    HW221540   1.194   4.574   4.561
 6881SOL     OW21541   5.262   5.942   1.211
 6881SOL    HW121542   5.191   5.892   1.260
 6881SOL    HW221543   5.226   6.030   1.180
 6882SOL     OW21544   2.269   6.044   5.505
 6882SOL    HW121545   2.211   6.115   5.465
 6882SOL    HW221546   2.269   6.053   5.604
 6883SOL     OW21547   2.798   6.267   2.002
 6883SOL    HW121548   2.856   6.242   1.924
 6883SOL    HW221549   2.810   6.200   2.075
 6884SOL     OW21550   2.022   4.704   2.686
 6884SOL    HW121551   2.115   4.722   2.715
 6884SOL    HW221552   1.979   4.639   2.749
 6885SOL     OW21553   4.327   4.715   4.787
 6885SOL    HW121554   4.253   4.781   4.770
 6885SOL    HW221555   4.302   4.655   4.863
 6886SOL     OW21556   5.447   0.235   1.398
 6886SOL    HW121557   5.499   0.320   1.409
 6886SOL    HW221558   5.495   0.160   1.443
 6887SOL     OW21559   6.290   1.122   4.723
 6887SOL    HW121560   6.357   1.191   4.749
 6887SOL    HW221561   6.289   1.049   4.791
 6888SOL     OW21562   6.329   0.188   3.758
 6888SOL    HW121563   6.285   0.264   3.805
 6888SOL    HW221564   6.417   0.168   3.803
 6889SOL     OW21565   1.988   3.869   6.479
 6889SOL    HW121566   1.980   3.797   6.549
 6889SOL    HW221567   1.928   3.847   6.402
 6890SOL     OW21568   1.072   0.376   1.219
 6890SOL    HW121569   1.122   0.298   1.182
 6890SOL    HW221570   1.017   0.419   1.147
 6891SOL     OW21571   4.114   4.762   5.634
 6891SOL    HW121572   4.185   4.753   5.704
 6891SOL    HW221573   4.152   4.807   5.553
 6892SOL     OW21574   3.385   2.103   4.095
 6892SOL    HW121575   3.405   2.115   4.193
 6892SOL    HW221576   3.470   2.103   4.043
 6893SOL     OW21577   5.206   6.851   1.500
 6893SOL    HW121578   5.256   6.930   1.538
 6893SOL    HW221579   5.250   6.767   1.532
 6894SOL     OW21580   6.008   4.795   5.767
 6894SOL    HW121581   6.043   4.865   5.704
 6894SOL    HW221582   5.988   4.836   5.856
 6895SOL     OW21583   4.339   5.092   5.509
 6895SOL    HW121584   4.400   5.094   5.588
 6895SOL    HW221585   4.384   5.136   5.431
 6896SOL     OW21586   5.275   2.080   2.176
 6896SOL    HW121587   5.261   1.983   2.196
 6896SOL    HW221588   5.369   2.106   2.197
 6897SOL     OW21589   4.088   0.796   1.370
 6897SOL    HW121590   4.105   0.698   1.371
 6897SOL    HW221591   4.008   0.816   1.312
 6898SOL     OW21592   3.532   1.184   2.058
 6898SOL    HW121593   3.612   1.125   2.070
 6898SOL    HW221594   3.502   1.180   1.963
 6899SOL     OW21595   5.804   4.901   5.930
 6899SOL    HW121596   5.733   4.839   5.896
 6899SOL    HW221597   5.761   4.980   5.974
 6900SOL     OW21598   4.154   0.037   6.352
 6900SOL    HW121599   4.101   6.992   6.302
 6900SOL    HW221600   4.232   7.017   6.397
 6901SOL     OW21601   2.023   0.429   0.233
 6901SOL    HW121602   2.087   0.490   0.185
 6901SOL    HW221603   1.983   0.365   0.167
 6902SOL     OW21604   6.983   5.839   2.568
 6902SOL    HW121605   6.963   5.817   2.663
 6902SOL    HW221606   6.921   5.912   2.537
 6903SOL     OW21607   5.935   4.561   0.199
 6903SOL    HW121608   6.018   4.549   0.253
 6903SOL    HW221609   5.855   4.550   0.258
 6904SOL     OW21610   0.350   0.909   2.963
 6904SOL    HW121611   0.328   0.830   3.021
 6904SOL    HW221612   0.307   0.991   3.001
 6905SOL     OW21613   3.751   5.383   0.640
 6905SOL    HW121614   3.738   5.355   0.545
 6905SOL    HW221615   3.846   5.368   0.667
 6906SOL     OW21616   6.030   6.204   2.540
 6906SOL    HW121617   6.096   6.252   2.598
 6906SOL    HW221618   5.939   6.242   2.556
 6907SOL     OW21619   3.450   0.569   1.573
 6907SOL    HW121620   3.410   0.637   1.634
 6907SOL    HW221621   3.382   0.540   1.506
 6908SOL     OW21622   5.297   6.401   6.985
 6908SOL    HW121623   5.349   6.485   7.002
 6908SOL    HW221624   5.246   6.377   0.043
 6909SOL     OW21625   2.430   1.835   0.239
 6909SOL    HW121626   2.474   1.824   0.150
 6909SOL    HW221627   2.426   1.746   0.285
 6910SOL     OW21628   5.063   1.251   1.181
 6910SOL    HW121629   4.982   1.237   1.124
 6910SOL    HW221630   5.035   1.268   1.276
 6911SOL     OW21631   4.109   0.202   4.793
 6911SOL    HW121632   4.009   0.208   4.793
 6911SOL    HW221633   4.147   0.286   4.832
 6912SOL     OW21634   4.087   5.201   1.816
 6912SOL    HW121635   4.100   5.289   1.861
 6912SOL    HW221636   3.990   5.185   1.799
 6913SOL     OW21637   4.842   5.488   5.574
 6913SOL    HW121638   4.766   5.472   5.511
 6913SOL    HW221639   4.927   5.499   5.523
 6914SOL     OW21640   6.790   4.743   0.552
 6914SOL    HW121641   6.860   4.734   0.481
 6914SOL    HW221642   6.813   4.819   0.612
 6915SOL     OW21643   0.487   6.741   0.673
 6915SOL    HW121644   0.453   6.821   0.722
 6915SOL    HW221645   0.419   6.710   0.607
 6916SOL     OW21646   5.870   1.034   5.623
 6916SOL    HW121647   5.823   1.103   5.678
 6916SOL    HW221648   5.959   1.014   5.664
 6917SOL     OW21649   4.566   6.559   5.657
 6917SOL    HW121650   4.468   6.576   5.651
 6917SOL    HW221651   4.581   6.477   5.713
 6918SOL     OW21652   2.113   2.631   3.378
 6918SOL    HW121653   2.158   2.544   3.399
 6918SOL    HW221654   2.079   2.629   3.284
 6919SOL     OW21655   1.491   5.826   3.199
 6919SOL    HW121656   1.512   5.900   3.263
 6919SOL    HW221657   1.397   5.796   3.214
 6920SOL     OW21658   5.416   5.580   4.136
 6920SOL    HW121659   5.475   5.661   4.129
 6920SOL    HW221660   5.337   5.590   4.075
 6921SOL     OW21661   1.452   5.247   3.348
 6921SOL    HW121662   1.385   5.297   3.294
 6921SOL    HW221663   1.468   5.157   3.308
 6922SOL     OW21664   2.372   6.610   1.310
 6922SOL    HW121665   2.304   6.664   1.261
 6922SOL    HW221666   2.363   6.627   1.408
 6923SOL     OW21667   5.064   5.345   3.654
 6923SOL    HW121668   5.001   5.404   3.604
 6923SOL    HW221669   5.014   5.267   3.691
 6924SOL     OW21670   5.768   5.644   1.920
 6924SOL    HW121671   5.858   5.678   1.893
 6924SOL    HW221672   5.771   5.545   1.930
 6925SOL     OW21673   5.033   5.449   2.703
 6925SOL    HW121674   4.963   5.506   2.660
 6925SOL    HW221675   4.991   5.367   2.741
 6926SOL     OW21676   2.731   3.850   5.527
 6926SOL    HW121677   2.753   3.934   5.577
 6926SOL    HW221678   2.684   3.874   5.441
 6927SOL     OW21679   3.699   3.949   0.665
 6927SOL    HW121680   3.751   4.007   0.603
 6927SOL    HW221681   3.701   3.989   0.757
 6928SOL     OW21682   6.957   0.656   6.808
 6928SOL    HW121683   6.882   0.722   6.816
 6928SOL    HW221684   6.922   0.569   6.775
 6929SOL     OW21685   3.585   5.477   1.903
 6929SOL    HW121686   3.525   5.457   1.826
 6929SOL    HW221687   3.530   5.500   1.984
 6930SOL     OW21688   0.156   0.416   2.629
 6930SOL    HW121689   0.060   0.390   2.632
 6930SOL    HW221690   0.213   0.338   2.656
 6931SOL     OW21691   2.702   6.961   0.526
 6931SOL    HW121692   2.743   6.872   0.508
 6931SOL    HW221693   2.704   6.980   0.624
 6932SOL     OW21694   3.013   1.994   0.354
 6932SOL    HW121695   2.937   1.934   0.376
 6932SOL    HW221696   3.083   1.987   0.425
 6933SOL     OW21697   2.869   6.309   5.127
 6933SOL    HW121698   2.891   6.399   5.165
 6933SOL    HW221699   2.770   6.298   5.120
 6934SOL     OW21700   5.411   4.844   6.351
 6934SOL    HW121701   5.449   4.752   6.338
 6934SOL    HW221702   5.392   4.859   6.448
 6935SOL     OW21703   4.105   5.667   3.082
 6935SOL    HW121704   4.098   5.568   3.094
 6935SOL    HW221705   4.202   5.693   3.077
 6936SOL     OW21706   0.516   4.602   1.025
 6936SOL    HW121707   0.573   4.681   1.051
 6936SOL    HW221708   0.438   4.596   1.087
 6937SOL     OW21709   4.266   5.929   5.928
 6937SOL    HW121710   4.182   5.970   5.963
 6937SOL    HW221711   4.262   5.830   5.941
 6938SOL     OW21712   6.282   2.537   5.744
 6938SOL    HW121713   6.304   2.613   5.805
 6938SOL    HW221714   6.241   2.573   5.660
 6939SOL     OW21715   6.733   5.035   1.354
 6939SOL    HW121716   6.815   5.007   1.405
 6939SOL    HW221717   6.658   4.973   1.375
 6940SOL     OW21718   4.248   0.792   4.677
 6940SOL    HW121719   4.203   0.788   4.766
 6940SOL    HW221720   4.347   0.793   4.691
 6941SOL     OW21721   3.380   2.911   5.073
 6941SOL    HW121722   3.336   2.893   4.984
 6941SOL    HW221723   3.315   2.956   5.134
 6942SOL     OW21724   6.109   1.495   6.709
 6942SOL    HW121725   6.058   1.502   6.795
 6942SOL    HW221726   6.154   1.406   6.704
 6943SOL     OW21727   6.275   5.226   6.561
 6943SOL    HW121728   6.261   5.293   6.633
 6943SOL    HW221729   6.285   5.135   6.601
 6944SOL     OW21730   1.225   6.860   0.493
 6944SOL    HW121731   1.264   6.949   0.469
 6944SOL    HW221732   1.238   6.797   0.417
 6945SOL     OW21733   4.336   1.505   6.528
 6945SOL    HW121734   4.344   1.437   6.602
 6945SOL    HW221735   4.290   1.587   6.563
 6946SOL     OW21736   6.191   4.106   2.428
 6946SOL    HW121737   6.280   4.141   2.455
 6946SOL    HW221738   6.119   4.149   2.483
 6947SOL     OW21739   3.923   6.521   0.934
 6947SOL    HW121740   3.925   6.609   0.885
 6947SOL    HW221741   3.867   6.456   0.884
 6948SOL     OW21742   3.374   1.960   5.651
 6948SOL    HW121743   3.409   2.031   5.590
 6948SOL    HW221744   3.274   1.968   5.657
 6949SOL     OW21745   5.112   0.685   2.230
 6949SOL    HW121746   5.155   0.650   2.147
 6949SOL    HW221747   5.068   0.773   2.210
 6950SOL     OW21748   3.731   1.538   3.079
 6950SOL    HW121749   3.765   1.461   3.026
 6950SOL    HW221750   3.791   1.617   3.066
 6951SOL     OW21751   5.055   4.138   5.673
 6951SOL    HW121752   4.984   4.155   5.605
 6951SOL    HW221753   5.130   4.202   5.660
 6952SOL     OW21754   0.258   3.897   6.543
 6952SOL    HW121755   0.196   3.940   6.477
 6952SOL    HW221756   0.258   3.950   6.628
 6953SOL     OW21757   5.353   2.296   4.647
 6953SOL    HW121758   5.374   2.204   4.615
 6953SOL    HW221759   5.300   2.344   4.577
 6954SOL     OW21760   6.942   4.596   2.414
 6954SOL    HW121761   6.895   4.512   2.386
 6954SOL    HW221762   6.985   4.638   2.334
 6955SOL     OW21763   6.785   0.297   3.564
 6955SOL    HW121764   6.800   0.283   3.662
 6955SOL    HW221765   6.869   0.276   3.514
 6956SOL     OW21766   2.887   4.154   1.375
 6956SOL    HW121767   2.886   4.130   1.472
 6956SOL    HW221768   2.967   4.211   1.356
 6957SOL     OW21769   0.689   4.850   0.056
 6957SOL    HW121770   0.686   4.950   0.050
 6957SOL    HW221771   0.781   4.818   0.037
 6958SOL     OW21772   2.516   3.753   5.680
 6958SOL    HW121773   2.595   3.792   5.632
 6958SOL    HW221774   2.442   3.820   5.683
 6959SOL     OW21775   3.807   1.057   5.277
 6959SOL    HW121776   3.784   1.099   5.189
 6959SOL    HW221777   3.904   1.069   5.295
 6960SOL     OW21778   0.786   6.194   0.089
 6960SOL    HW121779   0.823   6.240   0.170
 6960SOL    HW221780   0.687   6.186   0.097
 6961SOL     OW21781   6.115   1.559   3.758
 6961SOL    HW121782   6.145   1.470   3.724
 6961SOL    HW221783   6.182   1.594   3.824
 6962SOL     OW21784   3.044   3.939   1.135
 6962SOL    HW121785   3.087   4.024   1.106
 6962SOL    HW221786   3.095   3.901   1.212
 6963SOL     OW21787   6.103   5.987   1.706
 6963SOL    HW121788   6.091   5.933   1.623
 6963SOL    HW221789   6.159   6.068   1.685
 6964SOL     OW21790   3.347   5.738   5.863
 6964SOL    HW121791   3.286   5.674   5.910
 6964SOL    HW221792   3.296   5.818   5.834
 6965SOL     OW21793   6.294   1.821   5.986
 6965SOL    HW121794   6.310   1.724   5.970
 6965SOL    HW221795   6.211   1.832   6.042
 6966SOL     OW21796   4.921   1.683   3.757
 6966SOL    HW121797   4.946   1.703   3.662
 6966SOL    HW221798   4.930   1.585   3.774
 6967SOL     OW21799   3.094   2.701   6.065
 6967SOL    HW121800   3.065   2.794   6.039
 6967SOL    HW221801   3.061   2.636   5.996
 6968SOL     OW21802   4.287   0.156   4.039
 6968SOL    HW121803   4.264   0.234   4.097
 6968SOL    HW221804   4.222   0.151   3.963
 6969SOL     OW21805   3.247   3.277   0.903
 6969SOL    HW121806   3.300   3.362   0.902
 6969SOL    HW221807   3.309   3.199   0.893
 6970SOL     OW21808   5.122   4.527   0.504
 6970SOL    HW121809   5.129   4.453   0.437
 6970SOL    HW221810   5.037   4.578   0.487
 6971SOL     OW21811   6.279   1.683   2.428
 6971SOL    HW121812   6.286   1.703   2.330
 6971SOL    HW221813   6.347   1.616   2.453
 6972SOL     OW21814   4.975   5.124   4.226
 6972SOL    HW121815   4.927   5.181   4.293
 6972SOL    HW221816   5.005   5.039   4.270
 6973SOL     OW21817   1.178   4.626   4.248
 6973SOL    HW121818   1.195   4.581   4.161
 6973SOL    HW221819   1.241   4.591   4.317
 6974SOL     OW21820   3.810   4.366   5.277
 6974SOL    HW121821   3.744   4.427   5.321
 6974SOL    HW221822   3.903   4.396   5.299
 6975SOL     OW21823   2.511   0.053   6.143
 6975SOL    HW121824   2.430   0.101   6.108
 6975SOL    HW221825   2.484   7.015   6.216
 6976SOL     OW21826   1.062   5.824   0.896
 6976SOL    HW121827   0.997   5.872   0.955
 6976SOL    HW221828   1.011   5.773   0.826
 6977SOL     OW21829   4.942   2.751   2.074
 6977SOL    HW121830   4.866   2.752   2.009
 6977SOL    HW221831   4.936   2.831   2.134
 6978SOL     OW21832   4.320   1.951   3.531
 6978SOL    HW121833   4.334   1.975   3.627
 6978SOL    HW221834   4.393   1.990   3.475
 6979SOL     OW21835   0.153   3.463   4.604
 6979SOL    HW121836   0.195   3.469   4.514
 6979SOL    HW221837   0.054   3.479   4.596
 6980SOL     OW21838   4.952   1.585   4.757
 6980SOL    HW121839   4.905   1.569   4.844
 6980SOL    HW221840   5.024   1.653   4.769
 6981SOL     OW21841   2.937   3.827   6.955
 6981SOL    HW121842   2.997   3.886   6.901
 6981SOL    HW221843   2.908   3.749   6.899
 6982SOL     OW21844   0.221   0.004   5.010
 6982SOL    HW121845   0.269   0.092   5.007
 6982SOL    HW221846   0.211   7.000   5.106
 6983SOL     OW21847   5.964   1.040   3.241
 6983SOL    HW121848   5.955   1.008   3.335
 6983SOL    HW221849   6.054   1.016   3.206
 6984SOL     OW21850   1.733   1.360   6.261
 6984SOL    HW121851   1.746   1.311   6.175
 6984SOL    HW221852   1.644   1.337   6.300
 6985SOL     OW21853   5.068   6.422   3.840
 6985SOL    HW121854   4.972   6.393   3.843
 6985SOL    HW221855   5.101   6.418   3.746
 6986SOL     OW21856   1.523   6.291   5.172
 6986SOL    HW121857   1.458   6.277   5.097
 6986SOL    HW221858   1.473   6.310   5.256
 6987SOL     OW21859   6.865   3.455   6.796
 6987SOL    HW121860   6.781   3.489   6.753
 6987SOL    HW221861   6.935   3.441   6.726
 6988SOL     OW21862   5.723   1.201   5.985
 6988SOL    HW121863   5.814   1.176   6.018
 6988SOL    HW221864   5.695   1.137   5.914
 6989SOL     OW21865   1.773   3.337   4.416
 6989SOL    HW121866   1.737   3.344   4.509
 6989SOL    HW221867   1.768   3.426   4.370
 6990SOL     OW21868   4.055   3.430   1.616
 6990SOL    HW121869   4.103   3.484   1.685
 6990SOL    HW221870   4.093   3.338   1.612
 6991SOL     OW21871   4.021   4.964   5.077
 6991SOL    HW121872   4.066   5.041   5.032
 6991SOL    HW221873   3.996   4.990   5.170
 6992SOL     OW21874   6.124   6.354   4.892
 6992SOL    HW121875   6.201   6.359   4.829
 6992SOL    HW221876   6.148   6.401   4.977
 6993SOL     OW21877   0.591   0.173   2.591
 6993SOL    HW121878   0.506   0.120   2.603
 6993SOL    HW221879   0.650   0.159   2.671
 6994SOL     OW21880   1.329   2.543   0.264
 6994SOL    HW121881   1.260   2.483   0.225
 6994SOL    HW221882   1.415   2.533   0.213
 6995SOL     OW21883   0.944   5.564   4.092
 6995SOL    HW121884   0.929   5.467   4.075
 6995SOL    HW221885   0.984   5.607   4.011
 6996SOL     OW21886   1.846   0.013   5.936
 6996SOL    HW121887   1.841   7.003   5.842
 6996SOL    HW221888   1.818   0.109   5.938
 6997SOL     OW21889   4.761   5.434   4.565
 6997SOL    HW121890   4.700   5.378   4.508
 6997SOL    HW221891   4.759   5.529   4.532
 6998SOL     OW21892   2.433   1.960   2.112
 6998SOL    HW121893   2.421   2.038   2.050
 6998SOL    HW221894   2.396   1.982   2.201
 6999SOL     OW21895   5.329   1.788   6.957
 6999SOL    HW121896   5.408   1.793   6.895
 6999SOL    HW221897   5.267   1.716   6.926
 7000SOL     OW21898   6.829   0.245   1.655
 7000SOL    HW121899   6.887   0.326   1.654
 7000SOL    HW221900   6.753   0.258   1.591
 7001SOL     OW21901   2.890   1.495   6.598
 7001SOL    HW121902   2.866   1.550   6.679
 7001SOL    HW221903   2.957   1.426   6.624
 7002SOL     OW21904   2.410   4.740   2.565
 7002SOL    HW121905   2.441   4.811   2.501
 7002SOL    HW221906   2.357   4.782   2.638
 7003SOL     OW21907   2.093   6.498   5.997
 7003SOL    HW121908   2.129   6.452   6.078
 7003SOL    HW221909   2.130   6.455   5.914
 7004SOL     OW21910   1.744   3.962   6.970
 7004SOL    HW121911   1.724   3.926   6.879
 7004SOL    HW221912   1.686   3.917   0.013
 7005SOL     OW21913   6.717   6.829   5.502
 7005SOL    HW121914   6.681   6.743   5.465
 7005SOL    HW221915   6.749   6.814   5.595
 7006SOL     OW21916   4.589   5.047   4.207
 7006SOL    HW121917   4.659   4.978   4.186
 7006SOL    HW221918   4.568   5.099   4.124
 7007SOL     OW21919   5.037   4.973   1.870
 7007SOL    HW121920   4.969   5.022   1.816
 7007SOL    HW221921   5.104   5.038   1.907
 7008SOL     OW21922   0.761   5.778   4.088
 7008SOL    HW121923   0.780   5.854   4.025
 7008SOL    HW221924   0.840   5.717   4.091
 7009SOL     OW21925   6.879   4.366   1.710
 7009SOL    HW121926   6.877   4.288   1.648
 7009SOL    HW221927   6.940   4.437   1.674
 7010SOL     OW21928   5.579   4.257   6.119
 7010SOL    HW121929   5.633   4.275   6.201
 7010SOL    HW221930   5.486   4.231   6.146
 7011SOL     OW21931   0.656   0.709   5.650
 7011SOL    HW121932   0.721   0.649   5.603
 7011SOL    HW221933   0.604   0.761   5.583
 7012SOL     OW21934   1.041   1.136   1.503
 7012SOL    HW121935   0.953   1.145   1.455
 7012SOL    HW221936   1.056   1.218   1.559
 7013SOL     OW21937   6.305   2.185   1.581
 7013SOL    HW121938   6.371   2.117   1.614
 7013SOL    HW221939   6.215   2.167   1.620
 7014SOL     OW21940   2.297   5.320   1.128
 7014SOL    HW121941   2.352   5.401   1.147
 7014SOL    HW221942   2.261   5.325   1.035
 7015SOL     OW21943   4.371   1.879   2.280
 7015SOL    HW121944   4.402   1.787   2.258
 7015SOL    HW221945   4.438   1.923   2.340
 7016SOL     OW21946   4.304   4.369   1.323
 7016SOL    HW121947   4.356   4.367   1.408
 7016SOL    HW221948   4.229   4.434   1.330
 7017SOL     OW21949   5.265   1.797   5.145
 7017SOL    HW121950   5.336   1.852   5.189
 7017SOL    HW221951   5.178   1.811   5.191
 7018SOL     OW21952   0.394   3.097   3.323
 7018SOL    HW121953   0.361   3.008   3.353
 7018SOL    HW221954   0.490   3.108   3.351
 7019SOL     OW21955   0.039   6.354   1.829
 7019SOL    HW121956   7.016   6.415   1.893
 7019SOL    HW221957   0.138   6.373   1.834
 7020SOL     OW21958   0.458   5.628   6.557
 7020SOL    HW121959   0.490   5.715   6.596
 7020SOL    HW221960   0.522   5.555   6.581
 7021SOL     OW21961   3.377   6.569   5.802
 7021SOL    HW121962   3.445   6.533   5.738
 7021SOL    HW221963   3.401   6.541   5.895
 7022SOL     OW21964   4.087   5.196   5.500
 7022SOL    HW121965   4.011   5.144   5.539
 7022SOL    HW221966   4.172   5.142   5.507
 7023SOL     OW21967   4.628   4.904   2.527
 7023SOL    HW121968   4.708   4.949   2.567
 7023SOL    HW221969   4.561   4.885   2.598
 7024SOL     OW21970   6.074   6.448   1.662
 7024SOL    HW121971   5.982   6.458   1.623
 7024SOL    HW221972   6.068   6.394   1.746
 7025SOL     OW21973   2.661   0.339   0.921
 7025SOL    HW121974   2.668   0.343   1.021
 7025SOL    HW221975   2.736   0.285   0.885
 7026SOL     OW21976   4.059   2.328   0.944
 7026SOL    HW121977   4.126   2.355   1.012
 7026SOL    HW221978   4.083   2.238   0.907
 7027SOL     OW21979   5.568   5.813   4.214
 7027SOL    HW121980   5.662   5.803   4.245
 7027SOL    HW221981   5.508   5.829   4.293
 7028SOL     OW21982   2.889   1.071   4.704
 7028SOL    HW121983   2.962   1.064   4.773
 7028SOL    HW221984   2.930   1.073   4.613
 7029SOL     OW21985   4.109   1.248   4.552
 7029SOL    HW121986   4.121   1.246   4.652
 7029SOL    HW221987   4.108   1.154   4.518
 7030SOL     OW21988   1.490   3.510   3.837
 7030SOL    HW121989   1.509   3.418   3.871
 7030SOL    HW221990   1.548   3.528   3.757
 7031SOL     OW21991   1.104   1.161   4.646
 7031SOL    HW121992   1.164   1.151   4.567
 7031SOL    HW221993   1.158   1.171   4.729
 7032SOL     OW21994   5.923   2.586   3.516
 7032SOL    HW121995   5.823   2.583   3.525
 7032SOL    HW221996   5.961   2.649   3.583
 7033SOL     OW21997   0.670   0.701   4.988
 7033SOL    HW121998   0.691   0.792   4.951
 7033SOL    HW221999   0.670   0.634   4.915
 7034SOL     OW22000   0.477   5.069   3.498
 7034SOL    HW122001   0.441   5.051   3.590
 7034SOL    HW222002   0.433   5.151   3.461
 7035SOL     OW22003   6.603   4.509   2.307
 7035SOL    HW122004   6.563   4.525   2.217
 7035SOL    HW222005   6.698   4.481   2.297
 7036SOL     OW22006   6.039   4.512   0.816
 7036SOL    HW122007   6.046   4.413   0.826
 7036SOL    HW222008   6.124   4.549   0.780
 7037SOL     OW22009   1.473   0.476   6.679
 7037SOL    HW122010   1.568   0.469   6.708
 7037SOL    HW222011   1.441   0.387   6.647
 7038SOL     OW22012   2.157   3.392   4.509
 7038SOL    HW122013   2.159   3.387   4.609
 7038SOL    HW222014   2.251   3.391   4.474
 7039SOL     OW22015   3.675   2.249   6.903
 7039SOL    HW122016   3.578   2.245   6.928
 7039SOL    HW222017   3.725   2.300   6.973
 7040SOL     OW22018   5.596   2.486   6.849
 7040SOL    HW122019   5.639   2.536   6.924
 7040SOL    HW222020   5.513   2.440   6.883
 7041SOL     OW22021   2.311   1.464   3.500
 7041SOL    HW122022   2.363   1.544   3.531
 7041SOL    HW222023   2.223   1.462   3.547
 7042SOL     OW22024   1.824   1.357   6.568
 7042SOL    HW122025   1.894   1.355   6.496
 7042SOL    HW222026   1.780   1.268   6.574
 7043SOL     OW22027   1.247   2.693   1.985
 7043SOL    HW122028   1.328   2.745   1.958
 7043SOL    HW222029   1.165   2.747   1.963
 7044SOL     OW22030   6.421   6.179   1.369
 7044SOL    HW122031   6.469   6.260   1.334
 7044SOL    HW222032   6.380   6.129   1.293
 7045SOL     OW22033   0.298   4.654   0.243
 7045SOL    HW122034   0.348   4.569   0.260
 7045SOL    HW222035   0.312   4.717   0.319
 7046SOL     OW22036   3.172   1.779   3.854
 7046SOL    HW122037   3.253   1.781   3.912
 7046SOL    HW222038   3.090   1.779   3.912
 7047SOL     OW22039   1.397   0.036   3.087
 7047SOL    HW122040   1.331   6.986   3.091
 7047SOL    HW222041   1.350   0.124   3.091
 7048SOL     OW22042   6.816   5.543   6.782
 7048SOL    HW122043   6.727   5.539   6.829
 7048SOL    HW222044   6.882   5.591   6.840
 7049SOL     OW22045   2.297   1.087   6.333
 7049SOL    HW122046   2.334   1.085   6.426
 7049SOL    HW222047   2.205   1.127   6.334
 7050SOL     OW22048   4.299   3.326   5.272
 7050SOL    HW122049   4.392   3.325   5.310
 7050SOL    HW222050   4.253   3.410   5.300
 7051SOL     OW22051   5.903   6.407   2.762
 7051SOL    HW122052   5.880   6.410   2.665
 7051SOL    HW222053   5.982   6.466   2.780
 7052SOL     OW22054   6.744   6.917   5.234
 7052SOL    HW122055   6.759   6.903   5.331
 7052SOL    HW222056   6.680   6.848   5.200
 7053SOL     OW22057   6.676   3.589   6.311
 7053SOL    HW122058   6.672   3.509   6.370
 7053SOL    HW222059   6.742   3.655   6.348
 7054SOL     OW22060   6.318   2.145   2.349
 7054SOL    HW122061   6.249   2.177   2.414
 7054SOL    HW222062   6.293   2.053   2.317
 7055SOL     OW22063   4.607   1.620   3.876
 7055SOL    HW122064   4.513   1.589   3.862
 7055SOL    HW222065   4.663   1.595   3.797
 7056SOL     OW22066   4.751   5.497   4.209
 7056SOL    HW122067   4.788   5.560   4.277
 7056SOL    HW222068   4.700   5.425   4.256
 7057SOL     OW22069   5.946   5.782   2.615
 7057SOL    HW122070   5.969   5.769   2.712
 7057SOL    HW222071   5.862   5.731   2.594
 7058SOL     OW22072   0.180   4.326   4.313
 7058SOL    HW122073   0.216   4.320   4.220
 7058SOL    HW222074   0.180   4.235   4.355
 7059SOL     OW22075   1.773   1.239   2.437
 7059SOL    HW122076   1.719   1.317   2.407
 7059SOL    HW222077   1.726   1.154   2.413
 7060SOL     OW22078   2.960   6.790   0.858
 7060SOL    HW122079   3.049   6.799   0.813
 7060SOL    HW222080   2.963   6.713   0.922
 7061SOL     OW22081   0.325   0.625   3.059
 7061SOL    HW122082   0.238   0.646   3.104
 7061SOL    HW222083   0.393   0.599   3.127
 7062SOL     OW22084   6.396   1.283   5.862
 7062SOL    HW122085   6.419   1.372   5.902
 7062SOL    HW222086   6.299   1.264   5.876
 7063SOL     OW22087   1.833   6.471   2.476
 7063SOL    HW122088   1.825   6.405   2.551
 7063SOL    HW222089   1.913   6.529   2.491
 7064SOL     OW22090   3.806   2.433   0.019
 7064SOL    HW122091   3.845   2.434   0.111
 7064SOL    HW222092   3.869   2.478   6.980
 7065SOL     OW22093   3.573   3.597   2.628
 7065SOL    HW122094   3.557   3.504   2.597
 7065SOL    HW222095   3.526   3.661   2.567
 7066SOL     OW22096   2.244   4.839   1.660
 7066SOL    HW122097   2.192   4.921   1.637
 7066SOL    HW222098   2.325   4.865   1.712
 7067SOL     OW22099   0.811   4.323   4.804
 7067SOL    HW122100   0.885   4.277   4.755
 7067SOL    HW222101   0.723   4.296   4.766
 7068SOL     OW22102   0.261   0.647   2.797
 7068SOL    HW122103   0.234   0.558   2.760
 7068SOL    HW222104   0.284   0.637   2.894
 7069SOL     OW22105   2.013   4.916   5.035
 7069SOL    HW122106   1.979   4.873   5.119
 7069SOL    HW222107   2.015   4.848   4.961
 7070SOL     OW22108   5.439   5.158   3.597
 7070SOL    HW122109   5.373   5.102   3.647
 7070SOL    HW222110   5.531   5.142   3.633
 7071SOL     OW22111   1.704   6.503   5.239
 7071SOL    HW122112   1.792   6.473   5.202
 7071SOL    HW222113   1.632   6.440   5.210
 7072SOL     OW22114   0.681   0.060   6.430
 7072SOL    HW122115   0.715   0.133   6.371
 7072SOL    HW222116   0.759   0.010   6.469
 7073SOL     OW22117   2.200   2.091   6.671
 7073SOL    HW122118   2.277   2.138   6.714
 7073SOL    HW222119   2.128   2.157   6.648
 7074SOL     OW22120   3.675   1.064   0.086
 7074SOL    HW122121   3.773   1.073   0.068
 7074SOL    HW222122   3.632   1.016   0.011
 7075SOL     OW22123   0.706   6.002   2.983
 7075SOL    HW122124   0.769   6.006   2.906
 7075SOL    HW222125   0.626   6.060   2.963
 7076SOL     OW22126   3.887   1.375   6.059
 7076SOL    HW122127   3.907   1.278   6.071
 7076SOL    HW222128   3.796   1.395   6.094
 7077SOL     OW22129   1.377   5.532   6.349
 7077SOL    HW122130   1.367   5.576   6.439
 7077SOL    HW222131   1.307   5.461   6.339
 7078SOL     OW22132   0.135   1.095   1.976
 7078SOL    HW122133   0.149   1.013   2.032
 7078SOL    HW222134   0.209   1.104   1.909
 7079SOL     OW22135   5.570   6.271   4.433
 7079SOL    HW122136   5.523   6.249   4.348
 7079SOL    HW222137   5.558   6.196   4.499
 7080SOL     OW22138   5.679   0.338   4.154
 7080SOL    HW122139   5.656   0.272   4.083
 7080SOL    HW222140   5.628   0.422   4.139
 7081SOL     OW22141   4.902   0.680   5.220
 7081SOL    HW122142   4.883   0.675   5.122
 7081SOL    HW222143   4.993   0.719   5.235
 7082SOL     OW22144   6.037   1.450   0.298
 7082SOL    HW122145   6.133   1.425   0.309
 7082SOL    HW222146   6.017   1.531   0.353
 7083SOL     OW22147   4.125   0.301   5.440
 7083SOL    HW122148   4.181   0.335   5.516
 7083SOL    HW222149   4.164   0.214   5.407
 7084SOL     OW22150   6.229   5.891   0.664
 7084SOL    HW122151   6.164   5.902   0.588
 7084SOL    HW222152   6.313   5.851   0.629
 7085SOL     OW22153   4.363   1.459   1.571
 7085SOL    HW122154   4.387   1.406   1.490
 7085SOL    HW222155   4.443   1.510   1.603
 7086SOL     OW22156   1.016   0.970   6.249
 7086SOL    HW122157   1.108   0.979   6.212
 7086SOL    HW222158   0.961   1.049   6.223
 7087SOL     OW22159   2.438   2.798   5.334
 7087SOL    HW122160   2.476   2.885   5.304
 7087SOL    HW222161   2.405   2.747   5.255
 7088SOL     OW22162   6.806   2.395   4.801
 7088SOL    HW122163   6.867   2.422   4.726
 7088SOL    HW222164   6.715   2.433   4.787
 7089SOL     OW22165   3.167   1.811   1.677
 7089SOL    HW122166   3.243   1.870   1.650
 7089SOL    HW222167   3.095   1.867   1.718
 7090SOL     OW22168   2.540   1.845   5.169
 7090SOL    HW122169   2.457   1.843   5.113
 7090SOL    HW222170   2.520   1.889   5.257
 7091SOL     OW22171   6.809   6.489   0.651
 7091SOL    HW122172   6.891   6.459   0.603
 7091SOL    HW222173   6.835   6.540   0.733
 7092SOL     OW22174   3.491   1.778   0.972
 7092SOL    HW122175   3.550   1.756   0.895
 7092SOL    HW222176   3.545   1.784   1.056
 7093SOL     OW22177   4.168   3.117   6.209
 7093SOL    HW122178   4.140   3.024   6.234
 7093SOL    HW222179   4.112   3.183   6.259
 7094SOL     OW22180   6.336   1.215   6.454
 7094SOL    HW122181   6.320   1.116   6.461
 7094SOL    HW222182   6.432   1.235   6.472
 7095SOL     OW22183   0.534   3.850   0.810
 7095SOL    HW122184   0.435   3.855   0.816
 7095SOL    HW222185   0.566   3.765   0.852
 7096SOL     OW22186   4.326   6.816   2.697
 7096SOL    HW122187   4.309   6.859   2.608
 7096SOL    HW222188   4.297   6.878   2.770
 7097SOL     OW22189   2.172   1.349   1.692
 7097SOL    HW122190   2.225   1.328   1.609
 7097SOL    HW222191   2.218   1.421   1.744
 7098SOL     OW22192   1.216   0.544   6.187
 7098SOL    HW122193   1.170   0.460   6.157
 7098SOL    HW222194   1.310   0.544   6.154
 7099SOL     OW22195   6.942   1.300   5.317
 7099SOL    HW122196   6.915   1.283   5.223
 7099SOL    HW222197   6.868   1.272   5.378
 7100SOL     OW22198   5.305   1.544   1.213
 7100SOL    HW122199   5.208   1.529   1.194
 7100SOL    HW222200   5.340   1.471   1.271
 7101SOL     OW22201   1.212   0.382   4.092
 7101SOL    HW122202   1.238   0.291   4.124
 7101SOL    HW222203   1.157   0.427   4.162
 7102SOL     OW22204   4.453   3.230   0.637
 7102SOL    HW122205   4.377   3.198   0.580
 7102SOL    HW222206   4.492   3.152   0.686
 7103SOL     OW22207   2.487   0.008   5.746
 7103SOL    HW122208   2.428   6.959   5.781
 7103SOL    HW222209   2.582   7.003   5.748
 7104SOL     OW22210   1.033   2.845   1.872
 7104SOL    HW122211   0.944   2.800   1.863
 7104SOL    HW222212   1.021   2.944   1.860
 7105SOL     OW22213   1.803   2.820   5.386
 7105SOL    HW122214   1.742   2.778   5.319
 7105SOL    HW222215   1.807   2.918   5.371
 7106SOL     OW22216   2.849   2.678   5.354
 7106SOL    HW122217   2.763   2.725   5.369
 7106SOL    HW222218   2.925   2.743   5.361
 7107SOL     OW22219   1.164   1.266   0.523
 7107SOL    HW122220   1.132   1.240   0.614
 7107SOL    HW222221   1.264   1.261   0.519
 7108SOL     OW22222   4.679   6.641   1.845
 7108SOL    HW122223   4.585   6.674   1.841
 7108SOL    HW222224   4.696   6.579   1.768
 7109SOL     OW22225   4.613   5.982   6.608
 7109SOL    HW122226   4.566   5.910   6.658
 7109SOL    HW222227   4.677   6.029   6.670
 7110SOL     OW22228   3.892   4.901   4.395
 7110SOL    HW122229   3.980   4.854   4.386
 7110SOL    HW222230   3.880   4.931   4.490
 7111SOL     OW22231   1.571   2.630   3.498
 7111SOL    HW122232   1.670   2.625   3.511
 7111SOL    HW222233   1.526   2.562   3.556
 7112SOL     OW22234   1.652   6.295   3.098
 7112SOL    HW122235   1.578   6.356   3.070
 7112SOL    HW222236   1.678   6.315   3.193
 7113SOL     OW22237   3.767   3.487   5.698
 7113SOL    HW122238   3.686   3.463   5.644
 7113SOL    HW222239   3.848   3.444   5.657
 7114SOL     OW22240   3.690   6.523   0.681
 7114SOL    HW122241   3.754   6.449   0.701
 7114SOL    HW222242   3.741   6.606   0.661
 7115SOL     OW22243   3.755   2.410   1.402
 7115SOL    HW122244   3.802   2.447   1.481
 7115SOL    HW222245   3.810   2.424   1.320
 7116SOL     OW22246   6.071   4.302   3.003
 7116SOL    HW122247   6.012   4.369   3.047
 7116SOL    HW222248   6.141   4.272   3.068
 7117SOL     OW22249   5.864   6.450   2.481
 7117SOL    HW122250   5.925   6.506   2.424
 7117SOL    HW222251   5.776   6.438   2.434
 7118SOL     OW22252   6.631   3.374   3.167
 7118SOL    HW122253   6.560   3.349   3.233
 7118SOL    HW222254   6.689   3.294   3.149
 7119SOL     OW22255   1.333   2.279   3.118
 7119SOL    HW122256   1.410   2.234   3.072
 7119SOL    HW222257   1.247   2.246   3.078
 7120SOL     OW22258   4.518   6.503   3.292
 7120SOL    HW122259   4.533   6.412   3.330
 7120SOL    HW222260   4.441   6.547   3.339
 7121SOL     OW22261   2.395   6.619   0.998
 7121SOL    HW122262   2.353   6.705   1.026
 7121SOL    HW222263   2.363   6.545   1.057
 7122SOL     OW22264   0.027   6.225   0.411
 7122SOL    HW122265   0.079   6.184   0.486
 7122SOL    HW222266   0.018   6.323   0.427
 7123SOL     OW22267   2.699   5.433   0.830
 7123SOL    HW122268   2.702   5.405   0.734
 7123SOL    HW222269   2.631   5.505   0.842
 7124SOL     OW22270   0.121   6.292   6.397
 7124SOL    HW122271   0.065   6.210   6.395
 7124SOL    HW222272   0.125   6.332   6.305
 7125SOL     OW22273   0.698   5.922   3.247
 7125SOL    HW122274   0.603   5.891   3.238
 7125SOL    HW222275   0.735   5.942   3.156
 7126SOL     OW22276   1.452   3.844   1.564
 7126SOL    HW122277   1.370   3.896   1.588
 7126SOL    HW222278   1.476   3.782   1.638
 7127SOL     OW22279   2.433   0.493   4.906
 7127SOL    HW122280   2.356   0.444   4.864
 7127SOL    HW222281   2.400   0.581   4.941
 7128SOL     OW22282   3.097   3.759   2.139
 7128SOL    HW122283   3.066   3.844   2.095
 7128SOL    HW222284   3.085   3.683   2.075
 7129SOL     OW22285   2.695   1.810   0.961
 7129SOL    HW122286   2.775   1.833   0.905
 7129SOL    HW222287   2.653   1.727   0.926
 7130SOL     OW22288   1.954   0.388   3.133
 7130SOL    HW122289   1.899   0.457   3.181
 7130SOL    HW222290   2.005   0.334   3.200
 7131SOL     OW22291   2.742   1.369   3.572
 7131SOL    HW122292   2.786   1.300   3.516
 7131SOL    HW222293   2.697   1.325   3.650
 7132SOL     OW22294   3.093   4.017   2.035
 7132SOL    HW122295   3.065   3.995   1.942
 7132SOL    HW222296   3.095   4.116   2.047
 7133SOL     OW22297   6.265   4.345   1.685
 7133SOL    HW122298   6.220   4.414   1.742
 7133SOL    HW222299   6.197   4.297   1.631
 7134SOL     OW22300   5.276   4.874   2.365
 7134SOL    HW122301   5.294   4.787   2.411
 7134SOL    HW222302   5.284   4.949   2.430
 7135SOL     OW22303   0.345   2.266   6.236
 7135SOL    HW122304   0.353   2.293   6.332
 7135SOL    HW222305   0.416   2.198   6.214
 7136SOL     OW22306   1.749   1.814   6.906
 7136SOL    HW122307   1.826   1.861   6.863
 7136SOL    HW222308   1.671   1.816   6.844
 7137SOL     OW22309   4.814   2.132   5.045
 7137SOL    HW122310   4.825   2.146   4.947
 7137SOL    HW222311   4.887   2.073   5.079
 7138SOL     OW22312   2.568   2.225   6.954
 7138SOL    HW122313   2.583   2.183   0.019
 7138SOL    HW222314   2.656   2.243   6.910
 7139SOL     OW22315   2.815   1.349   0.298
 7139SOL    HW122316   2.757   1.298   0.233
 7139SOL    HW222317   2.911   1.329   0.278
 7140SOL     OW22318   6.800   4.362   4.707
 7140SOL    HW122319   6.857   4.371   4.625
 7140SOL    HW222320   6.858   4.352   4.787
 7141SOL     OW22321   0.646   6.980   2.055
 7141SOL    HW122322   0.546   6.969   2.052
 7141SOL    HW222323   0.688   6.928   1.981
 7142SOL     OW22324   3.373   6.606   3.879
 7142SOL    HW122325   3.303   6.640   3.942
 7142SOL    HW222326   3.394   6.511   3.901
 7143SOL     OW22327   2.197   2.400   3.537
 7143SOL    HW122328   2.223   2.318   3.588
 7143SOL    HW222329   2.169   2.472   3.600
 7144SOL     OW22330   1.092   3.718   3.344
 7144SOL    HW122331   1.002   3.680   3.363
 7144SOL    HW222332   1.148   3.650   3.297
 7145SOL     OW22333   4.159   5.652   5.995
 7145SOL    HW122334   4.066   5.636   5.962
 7145SOL    HW222335   4.222   5.594   5.944
 7146SOL     OW22336   3.613   4.928   1.606
 7146SOL    HW122337   3.514   4.918   1.619
 7146SOL    HW222338   3.633   4.951   1.511
 7147SOL     OW22339   6.948   0.951   3.579
 7147SOL    HW122340   6.938   0.997   3.668
 7147SOL    HW222341   0.021   0.943   3.556
 7148SOL     OW22342   6.712   1.914   0.988
 7148SOL    HW122343   6.657   1.922   0.905
 7148SOL    HW222344   6.664   1.956   1.065
 7149SOL     OW22345   0.597   0.610   4.460
 7149SOL    HW122346   0.637   0.670   4.529
 7149SOL    HW222347   0.660   0.535   4.440
 7150SOL     OW22348   5.601   3.432   6.044
 7150SOL    HW122349   5.594   3.436   6.144
 7150SOL    HW222350   5.671   3.365   6.019
 7151SOL     OW22351   2.000   6.644   0.060
 7151SOL    HW122352   1.925   6.579   0.048
 7151SOL    HW222353   2.043   6.662   6.996
 7152SOL     OW22354   1.104   2.431   4.612
 7152SOL    HW122355   1.101   2.337   4.579
 7152SOL    HW222356   1.036   2.444   4.685
 7153SOL     OW22357   3.811   1.787   2.981
 7153SOL    HW122358   3.713   1.803   2.983
 7153SOL    HW222359   3.848   1.815   2.892
 7154SOL     OW22360   3.468   0.238   4.984
 7154SOL    HW122361   3.518   0.323   5.001
 7154SOL    HW222362   3.454   0.227   4.885
 7155SOL     OW22363   2.624   1.475   3.311
 7155SOL    HW122364   2.723   1.489   3.321
 7155SOL    HW222365   2.591   1.416   3.385
 7156SOL     OW22366   1.696   5.864   5.832
 7156SOL    HW122367   1.655   5.914   5.907
 7156SOL    HW222368   1.630   5.855   5.757
 7157SOL     OW22369   5.051   4.327   0.308
 7157SOL    HW122370   5.011   4.256   0.365
 7157SOL    HW222371   5.061   4.294   0.214
 7158SOL     OW22372   4.194   0.050   3.678
 7158SOL    HW122373   4.139   0.097   3.609
 7158SOL    HW222374   4.283   0.025   3.638
 7159SOL     OW22375   1.050   6.232   0.032
 7159SOL    HW122376   1.075   6.301   6.988
 7159SOL    HW222377   0.952   6.212   0.026
 7160SOL     OW22378   6.573   0.808   1.626
 7160SOL    HW122379   6.560   0.874   1.700
 7160SOL    HW222380   6.484   0.780   1.590
 7161SOL     OW22381   3.807   4.190   5.085
 7161SOL    HW122382   3.879   4.123   5.106
 7161SOL    HW222383   3.824   4.274   5.137
 7162SOL     OW22384   3.678   4.960   4.189
 7162SOL    HW122385   3.749   4.937   4.256
 7162SOL    HW222386   3.588   4.948   4.231
 7163SOL     OW22387   1.272   6.617   3.426
 7163SOL    HW122388   1.370   6.632   3.439
 7163SOL    HW222389   1.258   6.532   3.376
 7164SOL     OW22390   2.334   1.913   4.964
 7164SOL    HW122391   2.389   1.954   4.891
 7164SOL    HW222392   2.326   1.977   5.040
 7165SOL     OW22393   4.877   5.266   2.058
 7165SOL    HW122394   4.828   5.228   1.979
 7165SOL    HW222395   4.841   5.357   2.079
 7166SOL     OW22396   3.916   6.028   2.251
 7166SOL    HW122397   3.932   6.034   2.349
 7166SOL    HW222398   3.999   6.054   2.202
 7167SOL     OW22399   5.036   3.428   6.897
 7167SOL    HW122400   4.999   3.336   6.907
 7167SOL    HW222401   5.013   3.464   6.806
 7168SOL     OW22402   0.220   1.550   4.038
 7168SOL    HW122403   0.174   1.547   4.127
 7168SOL    HW222404   0.316   1.524   4.050
 7169SOL     OW22405   2.460   2.567   6.683
 7169SOL    HW122406   2.484   2.558   6.586
 7169SOL    HW222407   2.510   2.643   6.723
 7170SOL     OW22408   5.180   4.348   4.006
 7170SOL    HW122409   5.160   4.382   3.915
 7170SOL    HW222410   5.265   4.295   4.005
 7171SOL     OW22411   3.916   3.794   5.653
 7171SOL    HW122412   3.857   3.798   5.734
 7171SOL    HW222413   4.011   3.778   5.682
 7172SOL     OW22414   0.242   6.241   1.158
 7172SOL    HW122415   0.156   6.279   1.123
 7172SOL    HW222416   0.229   6.209   1.252
 7173SOL     OW22417   6.182   6.680   4.706
 7173SOL    HW122418   6.185   6.645   4.612
 7173SOL    HW222419   6.092   6.660   4.746
 7174SOL     OW22420   0.923   5.970   6.105
 7174SOL    HW122421   0.952   5.918   6.186
 7174SOL    HW222422   0.975   5.939   6.026
 7175SOL     OW22423   5.938   3.536   5.943
 7175SOL    HW122424   5.894   3.446   5.951
 7175SOL    HW222425   6.027   3.525   5.899
 7176SOL     OW22426   0.692   3.086   1.699
 7176SOL    HW122427   0.753   3.054   1.771
 7176SOL    HW222428   0.705   3.185   1.686
 7177SOL     OW22429   0.834   4.770   2.115
 7177SOL    HW122430   0.877   4.843   2.062
 7177SOL    HW222431   0.896   4.741   2.188
 7178SOL     OW22432   6.200   0.912   6.933
 7178SOL    HW122433   6.283   0.955   6.968
 7178SOL    HW222434   6.143   0.980   6.886
 7179SOL     OW22435   0.878   3.898   5.788
 7179SOL    HW122436   0.857   3.845   5.706
 7179SOL    HW222437   0.933   3.842   5.850
 7180SOL     OW22438   6.828   0.011   2.506
 7180SOL    HW122439   6.876   6.958   2.465
 7180SOL    HW222440   6.770   7.002   2.581
 7181SOL     OW22441   5.372   5.784   2.425
 7181SOL    HW122442   5.401   5.706   2.370
 7181SOL    HW222443   5.364   5.865   2.367
 7182SOL     OW22444   4.376   3.627   5.910
 7182SOL    HW122445   4.277   3.615   5.901
 7182SOL    HW222446   4.402   3.719   5.880
 7183SOL     OW22447   2.078   3.177   3.382
 7183SOL    HW122448   2.006   3.226   3.432
 7183SOL    HW222449   2.152   3.240   3.360
 7184SOL     OW22450   2.404   5.684   3.540
 7184SOL    HW122451   2.463   5.675   3.459
 7184SOL    HW222452   2.327   5.622   3.532
 7185SOL     OW22453   4.835   2.134   6.898
 7185SOL    HW122454   4.765   2.205   6.907
 7185SOL    HW222455   4.791   2.045   6.889
 7186SOL     OW22456   0.743   6.478   4.833
 7186SOL    HW122457   0.819   6.523   4.880
 7186SOL    HW222458   0.711   6.537   4.759
 7187SOL     OW22459   1.708   5.380   1.321
 7187SOL    HW122460   1.794   5.371   1.271
 7187SOL    HW222461   1.642   5.430   1.266
 7188SOL     OW22462   5.576   6.922   1.905
 7188SOL    HW122463   5.503   6.927   1.973
 7188SOL    HW222464   5.573   6.835   1.858
 7189SOL     OW22465   6.231   0.737   5.527
 7189SOL    HW122466   6.257   0.755   5.432
 7189SOL    HW222467   6.131   0.727   5.533
 7190SOL     OW22468   4.205   5.298   2.878
 7190SOL    HW122469   4.223   5.201   2.863
 7190SOL    HW222470   4.256   5.352   2.811
 7191SOL     OW22471   0.839   3.052   1.980
 7191SOL    HW122472   0.794   3.137   2.004
 7191SOL    HW222473   0.917   3.071   1.920
 7192SOL     OW22474   3.180   4.002   6.366
 7192SOL    HW122475   3.244   4.067   6.325
 7192SOL    HW222476   3.140   3.945   6.295
 7193SOL     OW22477   5.804   2.164   4.911
 7193SOL    HW122478   5.724   2.132   4.860
 7193SOL    HW222479   5.882   2.105   4.890
 7194SOL     OW22480   3.007   1.209   1.995
 7194SOL    HW122481   2.948   1.164   2.061
 7194SOL    HW222482   3.053   1.286   2.038
 7195SOL     OW22483   0.336   6.970   2.066
 7195SOL    HW122484   0.281   6.960   1.983
 7195SOL    HW222485   0.312   0.031   2.112
 7196SOL     OW22486   3.707   3.410   1.626
 7196SOL    HW122487   3.680   3.382   1.534
 7196SOL    HW222488   3.646   3.367   1.693
 7197SOL     OW22489   1.361   1.077   4.378
 7197SOL    HW122490   1.364   0.998   4.439
 7197SOL    HW222491   1.422   1.148   4.413
 7198SOL     OW22492   0.483   6.888   6.015
 7198SOL    HW122493   0.398   6.842   5.990
 7198SOL    HW222494   0.519   6.850   6.100
 7199SOL     OW22495   5.890   5.480   2.158
 7199SOL    HW122496   5.798   5.462   2.194
 7199SOL    HW222497   5.891   5.569   2.113
 7200SOL     OW22498   1.473   2.055   2.642
 7200SOL    HW122499   1.456   2.153   2.632
 7200SOL    HW222500   1.424   2.021   2.723
 7201SOL     OW22501   2.099   4.432   4.037
 7201SOL    HW122502   2.197   4.447   4.049
 7201SOL    HW222503   2.049   4.478   4.110
 7202SOL     OW22504   2.755   7.020   5.726
 7202SOL    HW122505   2.840   6.973   5.749
 7202SOL    HW222506   2.775   0.073   5.665
 7203SOL     OW22507   5.999   0.059   6.895
 7203SOL    HW122508   6.049   6.997   6.884
 7203SOL    HW222509   6.010   0.091   6.989
 7204SOL     OW22510   6.514   2.278   3.288
 7204SOL    HW122511   6.489   2.243   3.378
 7204SOL    HW222512   6.436   2.327   3.248
 7205SOL     OW22513   1.540   4.147   1.521
 7205SOL    HW122514   1.605   4.116   1.451
 7205SOL    HW222515   1.458   4.184   1.475
 7206SOL     OW22516   6.185   1.291   1.633
 7206SOL    HW122517   6.190   1.276   1.732
 7206SOL    HW222518   6.193   1.388   1.613
 7207SOL     OW22519   4.166   0.228   1.644
 7207SOL    HW122520   4.194   0.155   1.706
 7207SOL    HW222521   4.144   0.310   1.697
 7208SOL     OW22522   2.416   0.701   5.460
 7208SOL    HW122523   2.373   0.632   5.517
 7208SOL    HW222524   2.444   0.779   5.516
 7209SOL     OW22525   3.172   3.833   4.745
 7209SOL    HW122526   3.246   3.888   4.706
 7209SOL    HW222527   3.123   3.887   4.813
 7210SOL     OW22528   4.253   6.942   4.168
 7210SOL    HW122529   4.267   0.003   4.117
 7210SOL    HW222530   4.326   6.878   4.147
 7211SOL     OW22531   0.882   5.066   2.371
 7211SOL    HW122532   0.803   5.011   2.345
 7211SOL    HW222533   0.959   5.007   2.393
 7212SOL     OW22534   5.247   6.674   2.830
 7212SOL    HW122535   5.344   6.692   2.813
 7212SOL    HW222536   5.219   6.717   2.916
 7213SOL     OW22537   5.139   6.321   5.210
 7213SOL    HW122538   5.076   6.330   5.287
 7213SOL    HW222539   5.147   6.409   5.163
 7214SOL     OW22540   1.132   4.639   5.778
 7214SOL    HW122541   1.128   4.551   5.731
 7214SOL    HW222542   1.214   4.643   5.835
 7215SOL     OW22543   1.027   2.973   1.536
 7215SOL    HW122544   0.939   2.969   1.488
 7215SOL    HW222545   1.099   3.000   1.473
 7216SOL     OW22546   2.909   2.115   2.428
 7216SOL    HW122547   2.851   2.197   2.431
 7216SOL    HW222548   2.921   2.086   2.333
 7217SOL     OW22549   0.348   3.536   1.947
 7217SOL    HW122550   0.282   3.610   1.949
 7217SOL    HW222551   0.441   3.574   1.948
 7218SOL     OW22552   6.559   2.696   4.170
 7218SOL    HW122553   6.653   2.711   4.201
 7218SOL    HW222554   6.558   2.679   4.072
 7219SOL     OW22555   3.151   1.116   0.827
 7219SOL    HW122556   3.067   1.064   0.842
 7219SOL    HW222557   3.207   1.112   0.910
 7220SOL     OW22558   6.706   1.769   3.125
 7220SOL    HW122559   6.790   1.780   3.177
 7220SOL    HW222560   6.645   1.846   3.142
 7221SOL     OW22561   6.463   3.816   5.472
 7221SOL    HW122562   6.396   3.798   5.543
 7221SOL    HW222563   6.416   3.843   5.388
 7222SOL     OW22564   6.742   0.215   3.141
 7222SOL    HW122565   6.836   0.190   3.163
 7222SOL    HW222566   6.690   0.133   3.118
 7223SOL     OW22567   4.855   0.871   4.790
 7223SOL    HW122568   4.880   0.791   4.846
 7223SOL    HW222569   4.870   0.850   4.694
 7224SOL     OW22570   5.587   1.741   3.243
 7224SOL    HW122571   5.644   1.761   3.164
 7224SOL    HW222572   5.536   1.823   3.269
 7225SOL     OW22573   2.584   0.302   1.578
 7225SOL    HW122574   2.559   0.359   1.656
 7225SOL    HW222575   2.573   0.206   1.602
 7226SOL     OW22576   6.167   6.541   5.107
 7226SOL    HW122577   6.137   6.543   5.203
 7226SOL    HW222578   6.189   6.633   5.077
 7227SOL     OW22579   0.114   2.662   6.147
 7227SOL    HW122580   0.019   2.692   6.135
 7227SOL    HW222581   0.115   2.564   6.170
 7228SOL     OW22582   2.137   0.573   2.892
 7228SOL    HW122583   2.180   0.547   2.979
 7228SOL    HW222584   2.166   0.666   2.867
 7229SOL     OW22585   0.247   0.266   3.128
 7229SOL    HW122586   0.340   0.231   3.113
 7229SOL    HW222587   0.231   0.275   3.227
 7230SOL     OW22588   6.411   5.333   1.122
 7230SOL    HW122589   6.343   5.402   1.145
 7230SOL    HW222590   6.414   5.320   1.023
 7231SOL     OW22591   6.150   0.663   0.198
 7231SOL    HW122592   6.095   0.621   0.126
 7231SOL    HW222593   6.157   0.761   0.181
 7232SOL     OW22594   3.199   4.066   0.751
 7232SOL    HW122595   3.155   4.114   0.827
 7232SOL    HW222596   3.294   4.097   0.743
 7233SOL     OW22597   1.182   1.965   5.055
 7233SOL    HW122598   1.237   1.941   5.135
 7233SOL    HW222599   1.242   1.980   4.976
 7234SOL     OW22600   5.052   2.138   3.687
 7234SOL    HW122601   5.031   2.215   3.627
 7234SOL    HW222602   5.075   2.172   3.778
 7235SOL     OW22603   6.269   2.464   4.804
 7235SOL    HW122604   6.261   2.500   4.711
 7235SOL    HW222605   6.198   2.504   4.861
 7236SOL     OW22606   1.017   1.697   3.141
 7236SOL    HW122607   1.052   1.664   3.053
 7236SOL    HW222608   1.091   1.743   3.191
 7237SOL     OW22609   5.846   5.675   4.840
 7237SOL    HW122610   5.917   5.744   4.850
 7237SOL    HW222611   5.889   5.585   4.827
 7238SOL     OW22612   1.529   0.004   1.808
 7238SOL    HW122613   1.591   6.997   1.880
 7238SOL    HW222614   1.563   6.998   1.719
 7239SOL     OW22615   4.711   1.894   1.991
 7239SOL    HW122616   4.767   1.947   2.054
 7239SOL    HW222617   4.761   1.882   1.905
 7240SOL     OW22618   2.971   3.847   2.709
 7240SOL    HW122619   2.920   3.933   2.716
 7240SOL    HW222620   3.065   3.866   2.684
 7241SOL     OW22621   4.916   6.843   4.040
 7241SOL    HW122622   4.848   6.916   4.039
 7241SOL    HW222623   4.881   6.766   4.094
 7242SOL     OW22624   6.878   5.769   0.794
 7242SOL    HW122625   6.872   5.792   0.697
 7242SOL    HW222626   6.941   5.832   0.839
 7243SOL     OW22627   0.617   5.846   1.061
 7243SOL    HW122628   0.705   5.891   1.049
 7243SOL    HW222629   0.631   5.759   1.109
 7244SOL     OW22630   5.791   1.924   1.408
 7244SOL    HW122631   5.823   2.003   1.460
 7244SOL    HW222632   5.742   1.861   1.468
 7245SOL     OW22633   5.538   1.611   3.711
 7245SOL    HW122634   5.591   1.547   3.766
 7245SOL    HW222635   5.457   1.565   3.675
 7246SOL     OW22636   1.017   5.264   5.650
 7246SOL    HW122637   1.117   5.254   5.651
 7246SOL    HW222638   0.980   5.230   5.737
 7247SOL     OW22639   4.122   5.818   3.844
 7247SOL    HW122640   4.208   5.769   3.857
 7247SOL    HW222641   4.081   5.792   3.756
 7248SOL     OW22642   3.137   1.429   4.962
 7248SOL    HW122643   3.228   1.412   5.000
 7248SOL    HW222644   3.077   1.351   4.984
 7249SOL     OW22645   4.416   3.265   5.757
 7249SOL    HW122646   4.467   3.194   5.707
 7249SOL    HW222647   4.480   3.338   5.785
 7250SOL     OW22648   2.938   3.273   0.002
 7250SOL    HW122649   2.854   3.248   6.978
 7250SOL    HW222650   2.969   3.196   0.058
 7251SOL     OW22651   5.866   1.075   5.359
 7251SOL    HW122652   5.791   1.138   5.339
 7251SOL    HW222653   5.865   1.051   5.456
 7252SOL     OW22654   4.552   3.408   5.336
 7252SOL    HW122655   4.562   3.471   5.259
 7252SOL    HW222656   4.535   3.460   5.420
 7253SOL     OW22657   4.910   4.873   6.733
 7253SOL    HW122658   4.877   4.837   6.646
 7253SOL    HW222659   4.929   4.971   6.723
 7254SOL     OW22660   4.984   6.313   5.435
 7254SOL    HW122661   5.026   6.361   5.512
 7254SOL    HW222662   4.939   6.230   5.468
 7255SOL     OW22663   3.633   2.983   3.301
 7255SOL    HW122664   3.727   3.000   3.329
 7255SOL    HW222665   3.630   2.968   3.202
 7256SOL     OW22666   2.789   5.595   3.851
 7256SOL    HW122667   2.758   5.623   3.942
 7256SOL    HW222668   2.828   5.503   3.855
 7257SOL     OW22669   5.978   5.151   2.673
 7257SOL    HW122670   5.947   5.061   2.643
 7257SOL    HW222671   5.947   5.167   2.767
 7258SOL     OW22672   2.281   0.030   5.549
 7258SOL    HW122673   2.358   0.049   5.610
 7258SOL    HW222674   2.224   6.982   5.589
 7259SOL     OW22675   3.072   3.904   6.122
 7259SOL    HW122676   3.009   3.931   6.049
 7259SOL    HW222677   3.131   3.830   6.090
 7260SOL     OW22678   4.635   2.684   2.719
 7260SOL    HW122679   4.659   2.767   2.668
 7260SOL    HW222680   4.656   2.698   2.816
 7261SOL     OW22681   2.616   4.851   1.354
 7261SOL    HW122682   2.590   4.806   1.268
 7261SOL    HW222683   2.537   4.900   1.391
 7262SOL     OW22684   6.465   0.594   4.771
 7262SOL    HW122685   6.554   0.592   4.725
 7262SOL    HW222686   6.474   0.637   4.860
 7263SOL     OW22687   5.440   4.917   1.358
 7263SOL    HW122688   5.466   4.986   1.291
 7263SOL    HW222689   5.354   4.942   1.401
 7264SOL     OW22690   7.006   6.517   4.320
 7264SOL    HW122691   0.062   6.475   4.277
 7264SOL    HW222692   0.012   6.588   4.383
 7265SOL     OW22693   4.727   3.434   6.878
 7265SOL    HW122694   4.780   3.350   6.866
 7265SOL    HW222695   4.788   3.513   6.868
 7266SOL     OW22696   4.509   1.578   2.760
 7266SOL    HW122697   4.422   1.586   2.809
 7266SOL    HW222698   4.584   1.575   2.826
 7267SOL     OW22699   5.093   1.879   3.523
 7267SOL    HW122700   5.136   1.853   3.609
 7267SOL    HW222701   5.114   1.975   3.503
 7268SOL     OW22702   4.094   6.862   0.180
 7268SOL    HW122703   4.004   6.895   0.209
 7268SOL    HW222704   4.163   6.891   0.246
 7269SOL     OW22705   1.578   7.004   2.296
 7269SOL    HW122706   1.629   6.960   2.221
 7269SOL    HW222707   1.524   0.055   2.259
 7270SOL     OW22708   3.431   2.277   1.723
 7270SOL    HW122709   3.465   2.279   1.629
 7270SOL    HW222710   3.507   2.287   1.787
 7271SOL     OW22711   6.108   5.370   3.781
 7271SOL    HW122712   6.010   5.352   3.792
 7271SOL    HW222713   6.133   5.364   3.684
 7272SOL     OW22714   6.024   1.591   1.495
 7272SOL    HW122715   5.949   1.558   1.437
 7272SOL    HW222716   6.057   1.678   1.461
 7273SOL     OW22717   5.918   5.134   5.028
 7273SOL    HW122718   5.916   5.041   4.992
 7273SOL    HW222719   5.969   5.194   4.966
 7274SOL     OW22720   5.418   4.927   3.841
 7274SOL    HW122721   5.483   4.994   3.876
 7274SOL    HW222722   5.332   4.973   3.818
 7275SOL     OW22723   5.908   6.799   1.707
 7275SOL    HW122724   5.884   6.817   1.802
 7275SOL    HW222725   5.868   6.713   1.678
 7276SOL     OW22726   3.854   1.341   3.280
 7276SOL    HW122727   3.846   1.343   3.180
 7276SOL    HW222728   3.781   1.397   3.320
 7277SOL     OW22729   6.045   2.120   4.174
 7277SOL    HW122730   5.949   2.094   4.183
 7277SOL    HW222731   6.097   2.043   4.138
 7278SOL     OW22732   3.558   1.016   3.304
 7278SOL    HW122733   3.643   1.044   3.347
 7278SOL    HW222734   3.541   1.073   3.223
 7279SOL     OW22735   3.563   3.777   1.741
 7279SOL    HW122736   3.647   3.725   1.754
 7279SOL    HW222737   3.497   3.723   1.689
 7280SOL     OW22738   6.689   1.519   5.511
 7280SOL    HW122739   6.694   1.610   5.468
 7280SOL    HW222740   6.739   1.521   5.597
 7281SOL     OW22741   3.233   6.687   3.369
 7281SOL    HW122742   3.148   6.736   3.387
 7281SOL    HW222743   3.311   6.744   3.397
 7282SOL     OW22744   0.088   3.936   0.998
 7282SOL    HW122745   0.105   3.848   1.043
 7282SOL    HW222746   7.014   3.956   1.001
 7283SOL     OW22747   3.204   6.357   2.983
 7283SOL    HW122748   3.209   6.434   2.918
 7283SOL    HW222749   3.224   6.272   2.935
 7284SOL     OW22750   0.198   0.194   3.408
 7284SOL    HW122751   0.263   0.231   3.474
 7284SOL    HW222752   0.224   0.100   3.386
 7285SOL     OW22753   5.058   3.129   1.695
 7285SOL    HW122754   5.023   3.163   1.783
 7285SOL    HW222755   5.064   3.029   1.698
 7286SOL     OW22756   6.602   0.948   4.641
 7286SOL    HW122757   6.539   1.025   4.638
 7286SOL    HW222758   6.633   0.933   4.735
 7287SOL     OW22759   2.695   1.850   4.322
 7287SOL    HW122760   2.713   1.775   4.259
 7287SOL    HW222761   2.732   1.935   4.284
 7288SOL     OW22762   2.930   1.819   1.837
 7288SOL    HW122763   2.939   1.906   1.789
 7288SOL    HW222764   2.880   1.833   1.922
 7289SOL     OW22765   6.729   2.354   1.120
 7289SOL    HW122766   6.668   2.387   1.048
 7289SOL    HW222767   6.746   2.427   1.186
 7290SOL     OW22768   3.392   2.064   4.746
 7290SOL    HW122769   3.488   2.085   4.762
 7290SOL    HW222770   3.384   1.996   4.672
 7291SOL     OW22771   0.817   1.273   0.674
 7291SOL    HW122772   0.897   1.328   0.698
 7291SOL    HW222773   0.748   1.331   0.631
 7292SOL     OW22774   4.058   1.200   2.182
 7292SOL    HW122775   4.047   1.151   2.268
 7292SOL    HW222776   4.078   1.296   2.200
 7293SOL     OW22777   6.486   1.046   4.349
 7293SOL    HW122778   6.580   1.011   4.352
 7293SOL    HW222779   6.475   1.117   4.418
 7294SOL     OW22780   3.214   0.891   2.974
 7294SOL    HW122781   3.162   0.960   3.024
 7294SOL    HW222782   3.294   0.934   2.932
 7295SOL     OW22783   5.564   4.024   1.599
 7295SOL    HW122784   5.545   3.977   1.513
 7295SOL    HW222785   5.522   3.974   1.674
 7296SOL     OW22786   3.149   6.996   2.387
 7296SOL    HW122787   3.110   6.913   2.426
 7296SOL    HW222788   3.234   7.019   2.434
 7297SOL     OW22789   4.047   0.147   0.277
 7297SOL    HW122790   4.136   0.157   0.231
 7297SOL    HW222791   4.053   0.186   0.369
 7298SOL     OW22792   3.797   4.687   1.276
 7298SOL    HW122793   3.815   4.762   1.213
 7298SOL    HW222794   3.753   4.723   1.359
 7299SOL     OW22795   0.137   3.207   7.002
 7299SOL    HW122796   0.083   3.130   0.014
 7299SOL    HW222797   0.222   3.171   6.961
 7300SOL     OW22798   0.981   4.047   1.543
 7300SOL    HW122799   0.900   4.021   1.490
 7300SOL    HW222800   1.016   4.135   1.510
 7301SOL     OW22801   4.660   1.423   0.359
 7301SOL    HW122802   4.638   1.326   0.353
 7301SOL    HW222803   4.687   1.445   0.453
 7302SOL     OW22804   5.590   1.885   6.290
 7302SOL    HW122805   5.504   1.868   6.339
 7302SOL    HW222806   5.570   1.907   6.194
 7303SOL     OW22807   3.363   1.988   1.595
 7303SOL    HW122808   3.348   2.010   1.499
 7303SOL    HW222809   3.388   2.070   1.645
 7304SOL     OW22810   2.052   0.013   0.220
 7304SOL    HW122811   2.147   0.044   0.219
 7304SOL    HW222812   2.021   0.005   0.315
 7305SOL     OW22813   6.923   6.838   6.192
 7305SOL    HW122814   7.011   6.883   6.209
 7305SOL    HW222815   6.849   6.895   6.230
 7306SOL     OW22816   1.773   3.649   0.213
 7306SOL    HW122817   1.745   3.614   0.302
 7306SOL    HW222818   1.872   3.644   0.204
 7307SOL     OW22819   3.950   6.292   1.954
 7307SOL    HW122820   3.968   6.339   2.041
 7307SOL    HW222821   3.886   6.347   1.899
 7308SOL     OW22822   3.363   1.696   3.008
 7308SOL    HW122823   3.402   1.604   3.008
 7308SOL    HW222824   3.347   1.725   2.914
 7309SOL     OW22825   2.769   4.677   4.332
 7309SOL    HW122826   2.733   4.671   4.425
 7309SOL    HW222827   2.693   4.688   4.268
 7310SOL     OW22828   3.826   3.243   0.243
 7310SOL    HW122829   3.748   3.186   0.268
 7310SOL    HW222830   3.893   3.188   0.193
 7311SOL     OW22831   1.134   6.692   5.489
 7311SOL    HW122832   1.222   6.645   5.498
 7311SOL    HW222833   1.066   6.647   5.548
 7312SOL     OW22834   6.244   2.227   4.449
 7312SOL    HW122835   6.312   2.195   4.383
 7312SOL    HW222836   6.157   2.240   4.402
 7313SOL     OW22837   3.252   1.118   3.247
 7313SOL    HW122838   3.316   1.143   3.175
 7313SOL    HW222839   3.158   1.130   3.214
 7314SOL     OW22840   2.323   5.541   4.645
 7314SOL    HW122841   2.235   5.557   4.689
 7314SOL    HW222842   2.318   5.460   4.587
 7315SOL     OW22843   2.405   5.156   2.644
 7315SOL    HW122844   2.460   5.155   2.561
 7315SOL    HW222845   2.464   5.175   2.723
 7316SOL     OW22846   3.932   0.930   1.834
 7316SOL    HW122847   4.000   1.003   1.831
 7316SOL    HW222848   3.900   0.911   1.741
 7317SOL     OW22849   6.538   1.800   1.486
 7317SOL    HW122850   6.543   1.866   1.411
 7317SOL    HW222851   6.630   1.773   1.514
 7318SOL     OW22852   4.917   5.996   1.746
 7318SOL    HW122853   4.939   6.084   1.705
 7318SOL    HW222854   4.909   6.006   1.846
 7319SOL     OW22855   4.442   5.157   6.056
 7319SOL    HW122856   4.368   5.215   6.022
 7319SOL    HW222857   4.530   5.200   6.035
 7320SOL     OW22858   1.474   2.960   0.643
 7320SOL    HW122859   1.527   2.995   0.566
 7320SOL    HW222860   1.528   2.893   0.693
 7321SOL     OW22861   1.870   2.154   5.458
 7321SOL    HW122862   1.847   2.225   5.392
 7321SOL    HW222863   1.907   2.196   5.541
 7322SOL     OW22864   2.289   2.105   4.533
 7322SOL    HW122865   2.254   2.168   4.602
 7322SOL    HW222866   2.226   2.102   4.455
 7323SOL     OW22867   2.604   1.594   0.828
 7323SOL    HW122868   2.544   1.516   0.813
 7323SOL    HW222869   2.698   1.563   0.837
 7324SOL     OW22870   5.107   3.848   4.496
 7324SOL    HW122871   5.107   3.780   4.422
 7324SOL    HW222872   5.186   3.908   4.486
 7325SOL     OW22873   3.469   0.547   6.567
 7325SOL    HW122874   3.381   0.573   6.527
 7325SOL    HW222875   3.478   0.587   6.658
 7326SOL     OW22876   3.829   6.253   0.361
 7326SOL    HW122877   3.878   6.340   0.373
 7326SOL    HW222878   3.869   6.203   0.283
 7327SOL     OW22879   0.881   4.307   3.467
 7327SOL    HW122880   0.822   4.333   3.544
 7327SOL    HW222881   0.846   4.223   3.425
 7328SOL     OW22882   4.666   5.247   6.611
 7328SOL    HW122883   4.663   5.231   6.710
 7328SOL    HW222884   4.574   5.259   6.576
 7329SOL     OW22885   2.762   3.703   6.737
 7329SOL    HW122886   2.713   3.788   6.718
 7329SOL    HW222887   2.831   3.688   6.666
 7330SOL     OW22888   2.052   3.764   1.069
 7330SOL    HW122889   2.029   3.667   1.081
 7330SOL    HW222890   2.094   3.776   0.979
 7331SOL     OW22891   5.252   1.529   2.480
 7331SOL    HW122892   5.153   1.517   2.472
 7331SOL    HW222893   5.273   1.592   2.555
 7332SOL     OW22894   2.570   6.940   5.066
 7332SOL    HW122895   2.604   6.875   5.134
 7332SOL    HW222896   2.647   6.992   5.030
 7333SOL     OW22897   6.541   0.921   1.877
 7333SOL    HW122898   6.510   1.015   1.892
 7333SOL    HW222899   6.627   0.905   1.925
 7334SOL     OW22900   1.235   5.055   4.753
 7334SOL    HW122901   1.179   4.993   4.697
 7334SOL    HW222902   1.242   5.144   4.709
 7335SOL     OW22903   0.148   3.258   2.459
 7335SOL    HW122904   0.107   3.219   2.542
 7335SOL    HW222905   0.247   3.245   2.462
 7336SOL     OW22906   2.442   0.216   1.287
 7336SOL    HW122907   2.446   0.124   1.327
 7336SOL    HW222908   2.528   0.235   1.239
 7337SOL     OW22909   3.251   1.751   2.335
 7337SOL    HW122910   3.196   1.799   2.266
 7337SOL    HW222911   3.312   1.686   2.289
 7338SOL     OW22912   5.250   2.951   0.576
 7338SOL    HW122913   5.232   2.979   0.481
 7338SOL    HW222914   5.182   2.994   0.636
 7339SOL     OW22915   6.745   0.302   4.003
 7339SOL    HW122916   6.680   0.285   4.077
 7339SOL    HW222917   6.756   0.401   3.990
 7340SOL     OW22918   3.016   6.445   0.717
 7340SOL    HW122919   2.999   6.348   0.737
 7340SOL    HW222920   3.114   6.464   0.728
 7341SOL     OW22921   6.407   5.450   3.275
 7341SOL    HW122922   6.461   5.441   3.191
 7341SOL    HW222923   6.326   5.506   3.258
 7342SOL     OW22924   0.371   5.464   6.993
 7342SOL    HW122925   0.298   5.403   0.000
 7342SOL    HW222926   0.410   5.428   6.908
 7343SOL     OW22927   0.461   2.449   2.865
 7343SOL    HW122928   0.553   2.468   2.831
 7343SOL    HW222929   0.412   2.393   2.798
 7344SOL     OW22930   1.917   1.020   6.044
 7344SOL    HW122931   1.980   0.943   6.050
 7344SOL    HW222932   1.963   1.104   6.073
 7345SOL     OW22933   1.504   6.525   6.726
 7345SOL    HW122934   1.517   6.600   6.660
 7345SOL    HW222935   1.510   6.562   6.819
 7346SOL     OW22936   3.501   5.270   3.569
 7346SOL    HW122937   3.517   5.217   3.652
 7346SOL    HW222938   3.432   5.224   3.513
 7347SOL     OW22939   5.887   3.496   3.674
 7347SOL    HW122940   5.789   3.490   3.697
 7347SOL    HW222941   5.901   3.464   3.580
 7348SOL     OW22942   5.738   0.314   6.559
 7348SOL    HW122943   5.757   0.223   6.521
 7348SOL    HW222944   5.764   0.316   6.655
 7349SOL     OW22945   3.617   2.182   1.519
 7349SOL    HW122946   3.579   2.152   1.431
 7349SOL    HW222947   3.709   2.217   1.505
 7350SOL     OW22948   1.689   1.448   3.094
 7350SOL    HW122949   1.633   1.479   3.171
 7350SOL    HW222950   1.786   1.454   3.118
 7351SOL     OW22951   5.950   4.837   0.145
 7351SOL    HW122952   5.960   4.737   0.150
 7351SOL    HW222953   5.861   4.859   0.104
 7352SOL     OW22954   6.521   1.388   3.230
 7352SOL    HW122955   6.431   1.428   3.248
 7352SOL    HW222956   6.567   1.440   3.158
 7353SOL     OW22957   5.531   1.886   5.113
 7353SOL    HW122958   5.534   1.790   5.084
 7353SOL    HW222959   5.624   1.920   5.124
 7354SOL     OW22960   5.316   4.241   5.278
 7354SOL    HW122961   5.290   4.299   5.201
 7354SOL    HW222962   5.252   4.164   5.285
 7355SOL     OW22963   6.898   5.508   0.444
 7355SOL    HW122964   6.830   5.483   0.513
 7355SOL    HW222965   6.893   5.445   0.366
 7356SOL     OW22966   0.190   1.961   6.037
 7356SOL    HW122967   0.225   1.938   6.127
 7356SOL    HW222968   0.234   2.045   6.004
 7357SOL     OW22969   0.033   1.469   0.624
 7357SOL    HW122970   0.055   1.513   0.711
 7357SOL    HW222971   6.967   1.426   0.629
 7358SOL     OW22972   3.107   0.900   3.453
 7358SOL    HW122973   3.062   0.829   3.399
 7358SOL    HW222974   3.067   0.903   3.545
 7359SOL     OW22975   3.310   3.729   4.345
 7359SOL    HW122976   3.319   3.813   4.398
 7359SOL    HW222977   3.338   3.746   4.251
 7360SOL     OW22978   1.383   4.363   6.155
 7360SOL    HW122979   1.305   4.372   6.093
 7360SOL    HW222980   1.451   4.302   6.115
 7361SOL     OW22981   5.078   6.816   1.776
 7361SOL    HW122982   5.095   6.826   1.679
 7361SOL    HW222983   5.045   6.723   1.795
 7362SOL     OW22984   1.121   5.707   6.873
 7362SOL    HW122985   1.193   5.767   6.909
 7362SOL    HW222986   1.162   5.636   6.817
 7363SOL     OW22987   4.620   2.141   6.470
 7363SOL    HW122988   4.624   2.056   6.522
 7363SOL    HW222989   4.652   2.124   6.377
 7364SOL     OW22990   5.391   6.899   0.889
 7364SOL    HW122991   5.386   6.988   0.844
 7364SOL    HW222992   5.447   6.837   0.834
 7365SOL     OW22993   5.037   6.719   1.321
 7365SOL    HW122994   5.070   6.714   1.227
 7365SOL    HW222995   5.109   6.755   1.381
 7366SOL     OW22996   2.413   6.980   0.548
 7366SOL    HW122997   2.376   0.044   0.518
 7366SOL    HW222998   2.488   6.954   0.488
 7367SOL     OW22999   4.563   2.944   6.466
 7367SOL    HW123000   4.596   3.037   6.450
 7367SOL    HW223001   4.582   2.918   6.561
 7368SOL     OW23002   3.048   3.421   4.841
 7368SOL    HW123003   3.068   3.443   4.937
 7368SOL    HW223004   3.047   3.322   4.828
 7369SOL     OW23005   6.563   6.975   6.425
 7369SOL    HW123006   6.554   6.898   6.362
 7369SOL    HW223007   6.539   6.946   6.518
 7370SOL     OW23008   0.493   5.920   0.794
 7370SOL    HW123009   0.465   5.846   0.732
 7370SOL    HW223010   0.517   5.881   0.883
 7371SOL     OW23011   1.716   4.767   3.684
 7371SOL    HW123012   1.755   4.711   3.611
 7371SOL    HW223013   1.644   4.826   3.646
 7372SOL     OW23014   2.699   0.523   5.346
 7372SOL    HW123015   2.753   0.475   5.277
 7372SOL    HW223016   2.634   0.459   5.387
 7373SOL     OW23017   3.590   1.415   1.163
 7373SOL    HW123018   3.548   1.418   1.072
 7373SOL    HW223019   3.690   1.412   1.153
 7374SOL     OW23020   2.473   3.539   0.654
 7374SOL    HW123021   2.413   3.611   0.622
 7374SOL    HW223022   2.547   3.579   0.709
 7375SOL     OW23023   2.574   5.880   3.250
 7375SOL    HW123024   2.620   5.858   3.336
 7375SOL    HW223025   2.641   5.913   3.184
 7376SOL     OW23026   3.165   3.949   6.841
 7376SOL    HW123027   3.255   3.936   6.882
 7376SOL    HW223028   3.175   4.001   6.755
 7377SOL     OW23029   6.050   5.867   1.449
 7377SOL    HW123030   5.950   5.877   1.444
 7377SOL    HW223031   6.074   5.770   1.441
 7378SOL     OW23032   1.000   1.967   5.799
 7378SOL    HW123033   0.905   1.993   5.782
 7378SOL    HW223034   1.059   2.046   5.781
 7379SOL     OW23035   4.456   0.505   0.407
 7379SOL    HW123036   4.396   0.441   0.456
 7379SOL    HW223037   4.445   0.492   0.309
 7380SOL     OW23038   0.095   2.829   6.543
 7380SOL    HW123039   7.022   2.833   6.519
 7380SOL    HW223040   0.145   2.894   6.486
 7381SOL     OW23041   5.189   2.371   0.704
 7381SOL    HW123042   5.216   2.345   0.612
 7381SOL    HW223043   5.118   2.309   0.737
 7382SOL     OW23044   1.280   5.390   3.897
 7382SOL    HW123045   1.338   5.310   3.903
 7382SOL    HW223046   1.184   5.362   3.887
 7383SOL     OW23047   1.647   4.652   2.818
 7383SOL    HW123048   1.731   4.689   2.857
 7383SOL    HW223049   1.625   4.565   2.863
 7384SOL     OW23050   6.125   1.813   1.386
 7384SOL    HW123051   6.218   1.815   1.349
 7384SOL    HW223052   6.077   1.897   1.361
 7385SOL     OW23053   5.865   0.402   2.052
 7385SOL    HW123054   5.786   0.375   1.997
 7385SOL    HW223055   5.873   0.502   2.051
 7386SOL     OW23056   6.837   1.578   5.739
 7386SOL    HW123057   6.883   1.660   5.708
 7386SOL    HW223058   6.786   1.598   5.822
 7387SOL     OW23059   4.566   6.229   3.474
 7387SOL    HW123060   4.605   6.138   3.487
 7387SOL    HW223061   4.486   6.240   3.532
 7388SOL     OW23062   4.915   3.759   4.661
 7388SOL    HW123063   4.900   3.811   4.744
 7388SOL    HW223064   4.989   3.801   4.608
 7389SOL     OW23065   1.456   2.823   5.331
 7389SOL    HW123066   1.455   2.777   5.420
 7389SOL    HW223067   1.518   2.776   5.269
 7390SOL     OW23068   4.495   6.431   0.264
 7390SOL    HW123069   4.451   6.397   0.348
 7390SOL    HW223070   4.538   6.519   0.282
 7391SOL     OW23071   0.403   4.822   0.472
 7391SOL    HW123072   0.432   4.813   0.567
 7391SOL    HW223073   0.374   4.915   0.454
 7392SOL     OW23074   1.792   4.301   2.379
 7392SOL    HW123075   1.711   4.294   2.438
 7392SOL    HW223076   1.848   4.378   2.409
 7393SOL     OW23077   1.146   4.013   0.528
 7393SOL    HW123078   1.173   3.917   0.530
 7393SOL    HW223079   1.218   4.068   0.486
 7394SOL     OW23080   2.708   3.207   6.874
 7394SOL    HW123081   2.743   3.114   6.874
 7394SOL    HW223082   2.609   3.205   6.860
 7395SOL     OW23083   2.601   0.544   0.296
 7395SOL    HW123084   2.672   0.479   0.324
 7395SOL    HW223085   2.643   0.633   0.277
 7396SOL     OW23086   6.467   6.671   2.545
 7396SOL    HW123087   6.415   6.603   2.492
 7396SOL    HW223088   6.457   6.651   2.642
 7397SOL     OW23089   6.542   4.344   4.104
 7397SOL    HW123090   6.505   4.386   4.187
 7397SOL    HW223091   6.630   4.386   4.082
 7398SOL     OW23092   4.532   6.309   2.885
 7398SOL    HW123093   4.470   6.386   2.878
 7398SOL    HW223094   4.572   6.290   2.795
 7399SOL     OW23095   5.311   6.156   4.006
 7399SOL    HW123096   5.317   6.221   3.929
 7399SOL    HW223097   5.389   6.168   4.066
 7400SOL     OW23098   2.260   4.151   6.795
 7400SOL    HW123099   2.352   4.120   6.822
 7400SOL    HW223100   2.193   4.113   6.859
 7401SOL     OW23101   6.414   2.910   4.014
 7401SOL    HW123102   6.348   2.983   3.999
 7401SOL    HW223103   6.405   2.875   4.107
 7402SOL     OW23104   1.687   6.301   4.506
 7402SOL    HW123105   1.739   6.386   4.512
 7402SOL    HW223106   1.622   6.307   4.431
 7403SOL     OW23107   2.289   3.248   1.663
 7403SOL    HW123108   2.306   3.318   1.733
 7403SOL    HW223109   2.196   3.212   1.675
 7404SOL     OW23110   1.212   2.954   2.971
 7404SOL    HW123111   1.131   2.966   2.914
 7404SOL    HW223112   1.293   2.982   2.920
 7405SOL     OW23113   3.565   4.573   6.123
 7405SOL    HW123114   3.477   4.546   6.084
 7405SOL    HW223115   3.589   4.665   6.093
 7406SOL     OW23116   6.746   6.033   3.084
 7406SOL    HW123117   6.757   5.988   3.173
 7406SOL    HW223118   6.813   5.996   3.019
 7407SOL     OW23119   3.658   1.506   5.780
 7407SOL    HW123120   3.615   1.595   5.765
 7407SOL    HW223121   3.756   1.513   5.758
 7408SOL     OW23122   1.338   3.787   5.285
 7408SOL    HW123123   1.355   3.855   5.357
 7408SOL    HW223124   1.310   3.833   5.201
 7409SOL     OW23125   2.425   0.120   4.200
 7409SOL    HW123126   2.338   0.079   4.227
 7409SOL    HW223127   2.480   0.051   4.152
 7410SOL     OW23128   4.879   5.711   5.761
 7410SOL    HW123129   4.960   5.755   5.723
 7410SOL    HW223130   4.874   5.617   5.730
 7411SOL     OW23131   5.716   3.984   5.782
 7411SOL    HW123132   5.765   3.912   5.734
 7411SOL    HW223133   5.745   3.987   5.878
 7412SOL     OW23134   1.061   1.085   0.330
 7412SOL    HW123135   1.030   1.126   0.244
 7412SOL    HW223136   1.119   1.150   0.379
 7413SOL     OW23137   6.620   3.731   3.852
 7413SOL    HW123138   6.572   3.676   3.920
 7413SOL    HW223139   6.681   3.672   3.799
 7414SOL     OW23140   0.470   5.911   1.887
 7414SOL    HW123141   0.506   5.865   1.806
 7414SOL    HW223142   0.539   5.974   1.923
 7415SOL     OW23143   3.087   1.704   3.060
 7415SOL    HW123144   3.187   1.700   3.054
 7415SOL    HW223145   3.051   1.750   2.980
 7416SOL     OW23146   6.290   6.977   2.594
 7416SOL    HW123147   6.330   0.029   2.543
 7416SOL    HW223148   6.257   7.010   2.683
 7417SOL     OW23149   0.544   5.085   1.359
 7417SOL    HW123150   0.527   5.165   1.302
 7417SOL    HW223151   0.605   5.022   1.311
 7418SOL     OW23152   1.692   3.758   0.734
 7418SOL    HW123153   1.623   3.830   0.742
 7418SOL    HW223154   1.774   3.787   0.784
 7419SOL     OW23155   6.317   2.136   5.976
 7419SOL    HW123156   6.296   2.039   5.981
 7419SOL    HW223157   6.272   2.185   6.050
 7420SOL     OW23158   0.301   5.474   2.081
 7420SOL    HW123159   0.362   5.416   2.134
 7420SOL    HW223160   0.274   5.427   1.997
 7421SOL     OW23161   4.245   2.089   1.541
 7421SOL    HW123162   4.200   2.099   1.630
 7421SOL    HW223163   4.211   2.160   1.479
 7422SOL     OW23164   0.921   2.088   1.061
 7422SOL    HW123165   0.902   2.124   0.969
 7422SOL    HW223166   1.006   2.127   1.095
 7423SOL     OW23167   2.982   3.978   0.556
 7423SOL    HW123168   3.044   3.946   0.484
 7423SOL    HW223169   3.035   4.016   0.631
 7424SOL     OW23170   4.919   0.765   3.915
 7424SOL    HW123171   4.897   0.708   3.995
 7424SOL    HW223172   4.942   0.858   3.946
 7425SOL     OW23173   3.629   0.706   4.585
 7425SOL    HW123174   3.552   0.736   4.529
 7425SOL    HW223175   3.637   0.606   4.579
 7426SOL     OW23176   0.267   0.732   6.340
 7426SOL    HW123177   0.275   0.831   6.354
 7426SOL    HW223178   0.178   0.701   6.374
 7427SOL     OW23179   5.392   5.041   5.258
 7427SOL    HW123180   5.458   4.970   5.284
 7427SOL    HW223181   5.440   5.123   5.230
 7428SOL     OW23182   4.946   1.237   5.490
 7428SOL    HW123183   4.867   1.177   5.470
 7428SOL    HW223184   5.024   1.206   5.436
 7429SOL     OW23185   6.127   6.298   4.079
 7429SOL    HW123186   6.129   6.259   3.987
 7429SOL    HW223187   6.190   6.375   4.084
 7430SOL     OW23188   0.186   3.922   4.330
 7430SOL    HW123189   0.120   3.983   4.374
 7430SOL    HW223190   0.277   3.937   4.369
 7431SOL     OW23191   6.956   3.672   2.908
 7431SOL    HW123192   6.990   3.762   2.935
 7431SOL    HW223193   6.959   3.664   2.808
 7432SOL     OW23194   1.751   6.001   6.171
 7432SOL    HW123195   1.737   6.040   6.080
 7432SOL    HW223196   1.846   6.012   6.199
 7433SOL     OW23197   0.398   6.899   0.875
 7433SOL    HW123198   0.333   6.935   0.943
 7433SOL    HW223199   0.479   6.958   0.873
 7434SOL     OW23200   4.584   6.693   0.315
 7434SOL    HW123201   4.683   6.707   0.307
 7434SOL    HW223202   4.553   6.726   0.403
 7435SOL     OW23203   1.032   5.181   6.916
 7435SOL    HW123204   1.087   5.117   6.863
 7435SOL    HW223205   1.084   5.213   6.995
 7436SOL     OW23206   5.160   3.535   6.606
 7436SOL    HW123207   5.214   3.524   6.523
 7436SOL    HW223208   5.068   3.499   6.593
 7437SOL     OW23209   0.134   6.118   5.639
 7437SOL    HW123210   0.171   6.031   5.670
 7437SOL    HW223211   0.207   6.174   5.601
 7438SOL     OW23212   5.502   3.973   0.468
 7438SOL    HW123213   5.593   3.932   0.463
 7438SOL    HW223214   5.465   3.961   0.560
 7439SOL     OW23215   1.031   6.389   2.718
 7439SOL    HW123216   1.062   6.472   2.671
 7439SOL    HW223217   0.995   6.414   2.808
 7440SOL     OW23218   0.377   0.912   4.128
 7440SOL    HW123219   0.282   0.902   4.096
 7440SOL    HW223220   0.414   0.822   4.149
 7441SOL     OW23221   6.554   0.260   4.180
 7441SOL    HW123222   6.472   0.309   4.150
 7441SOL    HW223223   6.530   0.193   4.249
 7442SOL     OW23224   1.548   1.112   6.936
 7442SOL    HW123225   1.465   1.109   6.992
 7442SOL    HW223226   1.561   1.204   6.899
 7443SOL     OW23227   6.920   1.841   2.000
 7443SOL    HW123228   6.880   1.788   1.925
 7443SOL    HW223229   6.972   1.918   1.964
 7444SOL     OW23230   1.573   2.449   5.354
 7444SOL    HW123231   1.527   2.498   5.280
 7444SOL    HW223232   1.507   2.425   5.425
 7445SOL     OW23233   5.712   3.020   2.038
 7445SOL    HW123234   5.748   2.949   1.977
 7445SOL    HW223235   5.690   3.102   1.984
 7446SOL     OW23236   4.705   4.316   2.705
 7446SOL    HW123237   4.701   4.333   2.606
 7446SOL    HW223238   4.630   4.363   2.750
 7447SOL     OW23239   1.309   3.934   6.481
 7447SOL    HW123240   1.223   3.916   6.530
 7447SOL    HW223241   1.303   4.024   6.437
 7448SOL     OW23242   0.531   1.329   5.910
 7448SOL    HW123243   0.483   1.242   5.917
 7448SOL    HW223244   0.628   1.312   5.891
 7449SOL     OW23245   3.794   0.491   2.555
 7449SOL    HW123246   3.819   0.395   2.562
 7449SOL    HW223247   3.697   0.499   2.534
 7450SOL     OW23248   3.849   1.915   1.699
 7450SOL    HW123249   3.778   1.963   1.751
 7450SOL    HW223250   3.856   1.821   1.732
 7451SOL     OW23251   1.359   0.695   2.046
 7451SOL    HW123252   1.397   0.691   2.138
 7451SOL    HW223253   1.379   0.785   2.006
 7452SOL     OW23254   1.769   5.900   2.873
 7452SOL    HW123255   1.840   5.881   2.941
 7452SOL    HW223256   1.711   5.975   2.906
 7453SOL     OW23257   6.521   4.460   4.688
 7453SOL    HW123258   6.611   4.430   4.720
 7453SOL    HW223259   6.450   4.427   4.749
 7454SOL     OW23260   2.840   2.512   0.012
 7454SOL    HW123261   2.750   2.539   0.044
 7454SOL    HW223262   2.831   2.436   6.972
 7455SOL     OW23263   5.003   6.812   0.680
 7455SOL    HW123264   4.922   6.756   0.659
 7455SOL    HW223265   5.006   6.889   0.617
 7456SOL     OW23266   1.286   3.911   5.790
 7456SOL    HW123267   1.261   3.927   5.886
 7456SOL    HW223268   1.386   3.913   5.781
 7457SOL     OW23269   0.382   5.915   6.000
 7457SOL    HW123270   0.314   5.989   5.999
 7457SOL    HW223271   0.337   5.828   5.979
 7458SOL     OW23272   2.838   0.389   1.556
 7458SOL    HW123273   2.743   0.358   1.560
 7458SOL    HW223274   2.899   0.312   1.574
 7459SOL     OW23275   3.463   6.039   3.718
 7459SOL    HW123276   3.380   5.995   3.681
 7459SOL    HW223277   3.464   6.135   3.691
 7460SOL     OW23278   0.756   5.555   6.547
 7460SOL    HW123279   0.855   5.552   6.536
 7460SOL    HW223280   0.717   5.624   6.486
 7461SOL     OW23281   4.273   1.065   3.267
 7461SOL    HW123282   4.275   1.015   3.354
 7461SOL    HW223283   4.242   1.159   3.284
 7462SOL     OW23284   2.124   1.446   3.887
 7462SOL    HW123285   2.089   1.520   3.945
 7462SOL    HW223286   2.224   1.447   3.889
 7463SOL     OW23287   4.030   3.795   2.500
 7463SOL    HW123288   4.068   3.702   2.497
 7463SOL    HW223289   4.005   3.824   2.408
 7464SOL     OW23290   4.447   5.634   0.712
 7464SOL    HW123291   4.441   5.564   0.783
 7464SOL    HW223292   4.542   5.664   0.702
 7465SOL     OW23293   3.919   1.330   3.001
 7465SOL    HW123294   4.014   1.349   2.974
 7465SOL    HW223295   3.881   1.260   2.941
 7466SOL     OW23296   6.465   0.178   0.529
 7466SOL    HW123297   6.493   0.085   0.557
 7466SOL    HW223298   6.544   0.226   0.492
 7467SOL     OW23299   4.304   2.413   0.718
 7467SOL    HW123300   4.375   2.426   0.787
 7467SOL    HW223301   4.335   2.451   0.631
 7468SOL     OW23302   5.408   4.478   4.618
 7468SOL    HW123303   5.428   4.457   4.714
 7468SOL    HW223304   5.313   4.456   4.599
 7469SOL     OW23305   5.595   2.005   1.723
 7469SOL    HW123306   5.638   1.916   1.734
 7469SOL    HW223307   5.532   2.003   1.645
 7470SOL     OW23308   0.252   3.317   3.376
 7470SOL    HW123309   0.170   3.296   3.323
 7470SOL    HW223310   0.323   3.250   3.355
 7471SOL     OW23311   6.511   4.577   5.404
 7471SOL    HW123312   6.489   4.580   5.501
 7471SOL    HW223313   6.611   4.570   5.393
 7472SOL     OW23314   4.037   5.389   3.078
 7472SOL    HW123315   3.954   5.384   3.021
 7472SOL    HW223316   4.115   5.353   3.026
 7473SOL     OW23317   1.471   2.631   6.564
 7473SOL    HW123318   1.442   2.574   6.487
 7473SOL    HW223319   1.549   2.589   6.609
 7474SOL     OW23320   2.571   1.512   2.060
 7474SOL    HW123321   2.499   1.580   2.075
 7474SOL    HW223322   2.643   1.552   2.004
 7475SOL     OW23323   5.252   0.546   5.837
 7475SOL    HW123324   5.197   0.624   5.805
 7475SOL    HW223325   5.229   0.465   5.783
 7476SOL     OW23326   1.920   6.640   4.654
 7476SOL    HW123327   1.982   6.635   4.732
 7476SOL    HW223328   1.940   6.566   4.590
 7477SOL     OW23329   4.916   4.342   4.465
 7477SOL    HW123330   4.843   4.399   4.428
 7477SOL    HW223331   4.885   4.247   4.469
 7478SOL     OW23332   0.413   4.647   1.524
 7478SOL    HW123333   0.378   4.639   1.430
 7478SOL    HW223334   0.351   4.704   1.578
 7479SOL     OW23335   3.570   0.768   5.175
 7479SOL    HW123336   3.618   0.841   5.127
 7479SOL    HW223337   3.484   0.803   5.213
 7480SOL     OW23338   5.916   5.308   0.116
 7480SOL    HW123339   5.854   5.318   0.038
 7480SOL    HW223340   5.982   5.236   0.096
 7481SOL     OW23341   6.042   6.303   0.502
 7481SOL    HW123342   5.942   6.309   0.498
 7481SOL    HW223343   6.081   6.331   0.414
 7482SOL     OW23344   4.710   0.193   4.811
 7482SOL    HW123345   4.634   0.191   4.747
 7482SOL    HW223346   4.769   0.113   4.795
 7483SOL     OW23347   3.511   6.968   6.782
 7483SOL    HW123348   3.576   6.899   6.751
 7483SOL    HW223349   3.502   0.015   6.712
 7484SOL     OW23350   3.833   6.880   1.149
 7484SOL    HW123351   3.776   6.962   1.154
 7484SOL    HW223352   3.909   6.889   1.214
 7485SOL     OW23353   0.496   6.422   5.372
 7485SOL    HW123354   0.469   6.518   5.378
 7485SOL    HW223355   0.499   6.395   5.275
 7486SOL     OW23356   1.308   1.863   5.305
 7486SOL    HW123357   1.339   1.939   5.361
 7486SOL    HW223358   1.376   1.841   5.235
 7487SOL     OW23359   3.411   5.263   2.683
 7487SOL    HW123360   3.354   5.223   2.755
 7487SOL    HW223361   3.457   5.344   2.719
 7488SOL     OW23362   4.634   1.342   4.976
 7488SOL    HW123363   4.580   1.424   4.995
 7488SOL    HW223364   4.588   1.288   4.905
 7489SOL     OW23365   0.375   3.153   3.061
 7489SOL    HW123366   0.379   3.122   3.156
 7489SOL    HW223367   0.326   3.085   3.006
 7490SOL     OW23368   5.503   6.675   2.734
 7490SOL    HW123369   5.599   6.681   2.761
 7490SOL    HW223370   5.481   6.580   2.712
 7491SOL     OW23371   0.619   0.212   0.941
 7491SOL    HW123372   0.608   0.224   1.040
 7491SOL    HW223373   0.530   0.198   0.899
 7492SOL     OW23374   1.911   1.812   3.044
 7492SOL    HW123375   1.969   1.874   3.096
 7492SOL    HW223376   1.962   1.729   3.022
 7493SOL     OW23377   5.562   4.340   6.551
 7493SOL    HW123378   5.475   4.365   6.508
 7493SOL    HW223379   5.590   4.413   6.613
 7494SOL     OW23380   5.118   1.881   1.183
 7494SOL    HW123381   5.202   1.930   1.158
 7494SOL    HW223382   5.056   1.944   1.230
 7495SOL     OW23383   1.372   1.843   3.241
 7495SOL    HW123384   1.308   1.856   3.317
 7495SOL    HW223385   1.435   1.921   3.236
 7496SOL     OW23386   0.705   4.819   5.936
 7496SOL    HW123387   0.696   4.878   5.856
 7496SOL    HW223388   0.801   4.809   5.961
 7497SOL     OW23389   1.287   4.913   2.994
 7497SOL    HW123390   1.245   4.995   2.956
 7497SOL    HW223391   1.319   4.853   2.920
 7498SOL     OW23392   5.414   1.739   4.449
 7498SOL    HW123393   5.469   1.741   4.533
 7498SOL    HW223394   5.465   1.780   4.374
 7499SOL     OW23395   3.732   4.920   3.620
 7499SOL    HW123396   3.776   5.007   3.598
 7499SOL    HW223397   3.800   4.858   3.660
 7500SOL     OW23398   4.941   3.766   1.520
 7500SOL    HW123399   4.929   3.824   1.439
 7500SOL    HW223400   5.030   3.784   1.561
 7501SOL     OW23401   0.795   4.108   4.009
 7501SOL    HW123402   0.761   4.057   3.930
 7501SOL    HW223403   0.894   4.120   4.002
 7502SOL     OW23404   1.416   2.006   4.017
 7502SOL    HW123405   1.418   2.094   4.065
 7502SOL    HW223406   1.507   1.987   3.980
 7503SOL     OW23407   2.534   1.981   6.789
 7503SOL    HW123408   2.525   2.074   6.826
 7503SOL    HW223409   2.488   1.976   6.700
 7504SOL     OW23410   4.624   5.808   4.826
 7504SOL    HW123411   4.716   5.782   4.800
 7504SOL    HW223412   4.600   5.765   4.913
 7505SOL     OW23413   2.014   2.039   3.790
 7505SOL    HW123414   1.983   2.103   3.719
 7505SOL    HW223415   1.961   1.954   3.784
 7506SOL     OW23416   3.656   0.797   3.094
 7506SOL    HW123417   3.671   0.699   3.108
 7506SOL    HW223418   3.635   0.814   2.998
 7507SOL     OW23419   1.562   6.929   5.248
 7507SOL    HW123420   1.655   6.891   5.257
 7507SOL    HW223421   1.546   6.957   5.154
 7508SOL     OW23422   5.186   6.041   2.955
 7508SOL    HW123423   5.159   6.044   2.859
 7508SOL    HW223424   5.204   5.947   2.983
 7509SOL     OW23425   3.625   4.045   6.097
 7509SOL    HW123426   3.623   4.050   6.197
 7509SOL    HW223427   3.629   4.138   6.059
 7510SOL     OW23428   3.699   3.304   4.939
 7510SOL    HW123429   3.655   3.230   4.888
 7510SOL    HW223430   3.768   3.348   4.882
 7511SOL     OW23431   1.155   1.474   2.606
 7511SOL    HW123432   1.086   1.420   2.655
 7511SOL    HW223433   1.156   1.567   2.641
 7512SOL     OW23434   2.124   3.005   2.404
 7512SOL    HW123435   2.141   3.004   2.503
 7512SOL    HW223436   2.081   2.919   2.377
 7513SOL     OW23437   2.390   3.442   6.887
 7513SOL    HW123438   2.483   3.425   6.852
 7513SOL    HW223439   2.347   3.354   6.908
 7514SOL     OW23440   3.138   5.395   3.546
 7514SOL    HW123441   3.222   5.420   3.594
 7514SOL    HW223442   3.086   5.478   3.524
 7515SOL     OW23443   0.297   5.015   3.124
 7515SOL    HW123444   0.374   4.958   3.095
 7515SOL    HW223445   0.329   5.109   3.139
 7516SOL     OW23446   1.967   3.283   1.398
 7516SOL    HW123447   1.910   3.305   1.477
 7516SOL    HW223448   1.924   3.208   1.346
 7517SOL     OW23449   1.160   4.952   2.408
 7517SOL    HW123450   1.244   4.984   2.451
 7517SOL    HW223451   1.148   4.854   2.426
 7518SOL     OW23452   4.836   4.085   2.793
 7518SOL    HW123453   4.855   4.013   2.727
 7518SOL    HW223454   4.798   4.165   2.745
 7519SOL     OW23455   2.033   6.944   4.623
 7519SOL    HW123456   2.000   0.015   4.627
 7519SOL    HW223457   1.959   6.882   4.649
 7520SOL     OW23458   2.008   6.930   4.074
 7520SOL    HW123459   1.988   7.019   4.117
 7520SOL    HW223460   2.059   6.945   3.989
 7521SOL     OW23461   4.569   3.059   5.608
 7521SOL    HW123462   4.591   3.088   5.515
 7521SOL    HW223463   4.560   2.960   5.612
 7522SOL     OW23464   1.848   6.865   2.455
 7522SOL    HW123465   1.766   6.837   2.506
 7522SOL    HW223466   1.868   6.961   2.473
 7523SOL     OW23467   6.976   6.661   6.686
 7523SOL    HW123468   7.021   6.646   6.598
 7523SOL    HW223469   7.021   6.738   6.732
 7524SOL     OW23470   6.643   1.179   5.124
 7524SOL    HW123471   6.741   1.193   5.111
 7524SOL    HW223472   6.606   1.252   5.181
 7525SOL     OW23473   0.563   0.780   0.849
 7525SOL    HW123474   0.574   0.702   0.788
 7525SOL    HW223475   0.624   0.854   0.820
 7526SOL     OW23476   3.767   3.222   5.815
 7526SOL    HW123477   3.723   3.308   5.843
 7526SOL    HW223478   3.836   3.241   5.745
 7527SOL     OW23479   3.581   6.580   1.741
 7527SOL    HW123480   3.503   6.595   1.801
 7527SOL    HW223481   3.572   6.492   1.694
 7528SOL     OW23482   6.038   3.113   6.903
 7528SOL    HW123483   5.997   3.160   6.825
 7528SOL    HW223484   5.974   3.114   6.980
 7529SOL     OW23485   1.644   6.760   4.256
 7529SOL    HW123486   1.684   6.689   4.198
 7529SOL    HW223487   1.552   6.733   4.284
 7530SOL     OW23488   0.017   2.974   2.766
 7530SOL    HW123489   0.015   3.071   2.743
 7530SOL    HW223490   6.956   2.949   2.812
 7531SOL     OW23491   2.386   1.834   4.219
 7531SOL    HW123492   2.454   1.903   4.193
 7531SOL    HW223493   2.341   1.799   4.137
 7532SOL     OW23494   4.869   4.465   2.193
 7532SOL    HW123495   4.818   4.546   2.164
 7532SOL    HW223496   4.942   4.446   2.128
 7533SOL     OW23497   3.287   0.827   5.255
 7533SOL    HW123498   3.262   0.732   5.235
 7533SOL    HW223499   3.302   0.876   5.170
 7534SOL     OW23500   4.018   6.626   3.583
 7534SOL    HW123501   3.984   6.682   3.507
 7534SOL    HW223502   4.035   6.684   3.663
 7535SOL     OW23503   2.889   5.124   0.455
 7535SOL    HW123504   2.864   5.151   0.362
 7535SOL    HW223505   2.887   5.203   0.515
 7536SOL     OW23506   4.607   5.612   6.314
 7536SOL    HW123507   4.661   5.537   6.276
 7536SOL    HW223508   4.594   5.682   6.244
 7537SOL     OW23509   2.245   4.715   5.207
 7537SOL    HW123510   2.243   4.730   5.108
 7537SOL    HW223511   2.302   4.636   5.227
 7538SOL     OW23512   3.394   3.947   5.204
 7538SOL    HW123513   3.489   3.944   5.235
 7538SOL    HW223514   3.336   3.894   5.266
 7539SOL     OW23515   0.652   2.132   4.955
 7539SOL    HW123516   0.619   2.203   5.017
 7539SOL    HW223517   0.592   2.053   4.960
 7540SOL     OW23518   2.458   1.002   0.325
 7540SOL    HW123519   2.391   0.975   0.256
 7540SOL    HW223520   2.523   1.067   0.285
 7541SOL     OW23521   0.100   2.429   5.837
 7541SOL    HW123522   0.097   2.488   5.917
 7541SOL    HW223523   0.008   2.399   5.813
 7542SOL     OW23524   1.281   0.293   4.806
 7542SOL    HW123525   1.327   0.225   4.863
 7542SOL    HW223526   1.348   0.340   4.749
 7543SOL     OW23527   2.485   2.667   1.322
 7543SOL    HW123528   2.464   2.614   1.404
 7543SOL    HW223529   2.427   2.748   1.318
 7544SOL     OW23530   1.252   1.976   2.491
 7544SOL    HW123531   1.246   1.964   2.392
 7544SOL    HW223532   1.334   2.030   2.513
 7545SOL     OW23533   4.289   0.601   3.289
 7545SOL    HW123534   4.315   0.649   3.205
 7545SOL    HW223535   4.299   0.502   3.275
 7546SOL     OW23536   5.453   0.164   5.575
 7546SOL    HW123537   5.455   0.185   5.673
 7546SOL    HW223538   5.358   0.157   5.545
 7547SOL     OW23539   2.812   0.394   0.360
 7547SOL    HW123540   2.845   0.310   0.404
 7547SOL    HW223541   2.883   0.464   0.364
 7548SOL     OW23542   2.219   3.553   1.299
 7548SOL    HW123543   2.234   3.470   1.353
 7548SOL    HW223544   2.162   3.531   1.219
 7549SOL     OW23545   5.593   0.556   2.425
 7549SOL    HW123546   5.628   0.641   2.385
 7549SOL    HW223547   5.666   0.509   2.474
 7550SOL     OW23548   1.150   5.302   0.942
 7550SOL    HW123549   1.071   5.260   0.898
 7550SOL    HW223550   1.178   5.247   1.020
 7551SOL     OW23551   5.181   3.710   6.131
 7551SOL    HW123552   5.195   3.612   6.124
 7551SOL    HW223553   5.148   3.733   6.222
 7552SOL     OW23554   3.635   5.840   3.853
 7552SOL    HW123555   3.687   5.883   3.927
 7552SOL    HW223556   3.586   5.909   3.801
 7553SOL     OW23557   4.168   4.222   5.925
 7553SOL    HW123558   4.194   4.132   5.960
 7553SOL    HW223559   4.073   4.241   5.950
 7554SOL     OW23560   0.315   1.408   1.125
 7554SOL    HW123561   0.306   1.335   1.058
 7554SOL    HW223562   0.338   1.494   1.078
 7555SOL     OW23563   1.680   6.601   6.067
 7555SOL    HW123564   1.682   6.658   6.149
 7555SOL    HW223565   1.736   6.520   6.082
 7556SOL     OW23566   6.716   3.796   2.894
 7556SOL    HW123567   6.726   3.870   2.828
 7556SOL    HW223568   6.802   3.744   2.899
 7557SOL     OW23569   3.937   3.971   0.499
 7557SOL    HW123570   4.031   3.944   0.515
 7557SOL    HW223571   3.935   4.060   0.452
 7558SOL     OW23572   1.637   3.240   3.634
 7558SOL    HW123573   1.704   3.191   3.579
 7558SOL    HW223574   1.548   3.237   3.588
 7559SOL     OW23575   0.953   4.378   6.894
 7559SOL    HW123576   0.972   4.400   6.990
 7559SOL    HW223577   0.893   4.448   6.855
 7560SOL     OW23578   4.640   0.498   5.618
 7560SOL    HW123579   4.584   0.580   5.627
 7560SOL    HW223580   4.735   0.519   5.642
 7561SOL     OW23581   0.525   3.829   0.055
 7561SOL    HW123582   0.481   3.813   6.991
 7561SOL    HW223583   0.464   3.883   0.113
 7562SOL     OW23584   4.310   6.266   4.839
 7562SOL    HW123585   4.371   6.191   4.816
 7562SOL    HW223586   4.218   6.247   4.804
 7563SOL     OW23587   2.288   0.980   3.808
 7563SOL    HW123588   2.209   0.958   3.865
 7563SOL    HW223589   2.315   0.898   3.756
 7564SOL     OW23590   6.142   5.432   4.053
 7564SOL    HW123591   6.152   5.531   4.069
 7564SOL    HW223592   6.110   5.416   3.960
 7565SOL     OW23593   4.917   5.135   6.662
 7565SOL    HW123594   4.951   5.192   6.736
 7565SOL    HW223595   4.831   5.173   6.628
 7566SOL     OW23596   1.847   5.415   3.995
 7566SOL    HW123597   1.882   5.349   3.928
 7566SOL    HW223598   1.760   5.451   3.963
 7567SOL     OW23599   2.605   3.371   0.080
 7567SOL    HW123600   2.511   3.337   0.091
 7567SOL    HW223601   2.658   3.306   0.026
 7568SOL     OW23602   4.110   4.766   3.335
 7568SOL    HW123603   4.102   4.757   3.435
 7568SOL    HW223604   4.025   4.804   3.299
 7569SOL     OW23605   3.693   0.166   2.424
 7569SOL    HW123606   3.642   0.240   2.380
 7569SOL    HW223607   3.760   0.205   2.486
 7570SOL     OW23608   5.711   4.774   5.001
 7570SOL    HW123609   5.658   4.707   4.949
 7570SOL    HW223610   5.706   4.863   4.955
 7571SOL     OW23611   6.372   4.251   0.135
 7571SOL    HW123612   6.400   4.178   0.072
 7571SOL    HW223613   6.301   4.216   0.196
 7572SOL     OW23614   6.379   1.702   3.233
 7572SOL    HW123615   6.323   1.775   3.195
 7572SOL    HW223616   6.422   1.733   3.317
 7573SOL     OW23617   3.362   5.250   4.138
 7573SOL    HW123618   3.341   5.226   4.043
 7573SOL    HW223619   3.279   5.243   4.193
 7574SOL     OW23620   4.515   5.773   1.676
 7574SOL    HW123621   4.538   5.762   1.773
 7574SOL    HW223622   4.428   5.822   1.668
 7575SOL     OW23623   4.880   3.101   4.728
 7575SOL    HW123624   4.781   3.085   4.733
 7575SOL    HW223625   4.905   3.169   4.797
 7576SOL     OW23626   6.872   3.880   1.765
 7576SOL    HW123627   6.779   3.845   1.765
 7576SOL    HW223628   6.936   3.806   1.745
 7577SOL     OW23629   4.047   1.509   4.049
 7577SOL    HW123630   4.027   1.415   4.076
 7577SOL    HW223631   3.985   1.571   4.095
 7578SOL     OW23632   2.083   5.587   4.790
 7578SOL    HW123633   2.061   5.672   4.839
 7578SOL    HW223634   2.124   5.522   4.853
 7579SOL     OW23635   4.351   1.984   4.331
 7579SOL    HW123636   4.449   1.983   4.351
 7579SOL    HW223637   4.321   1.893   4.304
 7580SOL     OW23638   2.072   3.309   2.166
 7580SOL    HW123639   2.120   3.380   2.113
 7580SOL    HW223640   2.104   3.219   2.137
 7581SOL     OW23641   5.703   0.919   0.899
 7581SOL    HW123642   5.664   0.998   0.852
 7581SOL    HW223643   5.640   0.842   0.893
 7582SOL     OW23644   4.089   2.773   1.395
 7582SOL    HW123645   4.014   2.826   1.436
 7582SOL    HW223646   4.144   2.731   1.468
 7583SOL     OW23647   6.795   4.349   3.210
 7583SOL    HW123648   6.749   4.434   3.184
 7583SOL    HW223649   6.807   4.292   3.128
 7584SOL     OW23650   2.188   2.166   1.874
 7584SOL    HW123651   2.186   2.212   1.786
 7584SOL    HW223652   2.276   2.181   1.918
 7585SOL     OW23653   2.364   4.448   0.473
 7585SOL    HW123654   2.391   4.403   0.559
 7585SOL    HW223655   2.427   4.420   0.401
 7586SOL     OW23656   1.585   2.207   3.567
 7586SOL    HW123657   1.521   2.179   3.495
 7586SOL    HW223658   1.555   2.294   3.606
 7587SOL     OW23659   2.329   1.146   5.461
 7587SOL    HW123660   2.345   1.191   5.373
 7587SOL    HW223661   2.372   1.200   5.534
 7588SOL     OW23662   0.549   4.419   1.862
 7588SOL    HW123663   0.546   4.373   1.773
 7588SOL    HW223664   0.489   4.499   1.860
 7589SOL     OW23665   4.992   5.578   6.111
 7589SOL    HW123666   5.066   5.543   6.054
 7589SOL    HW223667   4.962   5.666   6.076
 7590SOL     OW23668   1.703   0.811   5.463
 7590SOL    HW123669   1.729   0.889   5.519
 7590SOL    HW223670   1.660   0.741   5.521
 7591SOL     OW23671   6.448   6.250   6.605
 7591SOL    HW123672   6.375   6.300   6.559
 7591SOL    HW223673   6.535   6.268   6.559
 7592SOL     OW23674   3.963   4.676   6.191
 7592SOL    HW123675   3.925   4.600   6.139
 7592SOL    HW223676   3.970   4.757   6.132
 7593SOL     OW23677   6.420   4.526   0.421
 7593SOL    HW123678   6.437   4.614   0.465
 7593SOL    HW223679   6.504   4.471   0.421
 7594SOL     OW23680   0.936   6.741   3.765
 7594SOL    HW123681   0.873   6.794   3.820
 7594SOL    HW223682   0.885   6.690   3.695
 7595SOL     OW23683   6.775   3.111   6.596
 7595SOL    HW123684   6.695   3.143   6.647
 7595SOL    HW223685   6.846   3.083   6.660
 7596SOL     OW23686   5.099   5.769   2.183
 7596SOL    HW123687   5.192   5.735   2.173
 7596SOL    HW223688   5.041   5.731   2.110
 7597SOL     OW23689   2.404   5.340   1.937
 7597SOL    HW123690   2.361   5.423   1.902
 7597SOL    HW223691   2.334   5.270   1.954
 7598SOL     OW23692   6.117   0.664   3.116
 7598SOL    HW123693   6.180   0.731   3.078
 7598SOL    HW223694   6.116   0.582   3.059
 7599SOL     OW23695   5.392   3.397   2.303
 7599SOL    HW123696   5.477   3.347   2.322
 7599SOL    HW223697   5.395   3.434   2.210
 7600SOL     OW23698   2.228   2.726   2.631
 7600SOL    HW123699   2.263   2.718   2.725
 7600SOL    HW223700   2.298   2.694   2.567
 7601SOL     OW23701   1.555   0.349   5.103
 7601SOL    HW123702   1.478   0.286   5.092
 7601SOL    HW223703   1.640   0.296   5.110
 7602SOL     OW23704   2.104   2.942   5.094
 7602SOL    HW123705   2.075   2.854   5.055
 7602SOL    HW223706   2.185   2.974   5.046
 7603SOL     OW23707   6.570   1.608   2.186
 7603SOL    HW123708   6.633   1.647   2.253
 7603SOL    HW223709   6.598   1.515   2.163
 7604SOL     OW23710   5.375   5.549   6.548
 7604SOL    HW123711   5.284   5.513   6.571
 7604SOL    HW223712   5.423   5.485   6.489
 7605SOL     OW23713   5.813   3.533   6.497
 7605SOL    HW123714   5.793   3.603   6.428
 7605SOL    HW223715   5.829   3.445   6.452
 7606SOL     OW23716   5.686   1.212   3.536
 7606SOL    HW123717   5.774   1.216   3.584
 7606SOL    HW223718   5.673   1.297   3.484
 7607SOL     OW23719   5.164   6.711   5.776
 7607SOL    HW123720   5.073   6.670   5.764
 7607SOL    HW223721   5.160   6.809   5.756
 7608SOL     OW23722   3.653   3.627   4.982
 7608SOL    HW123723   3.674   3.619   4.885
 7608SOL    HW223724   3.556   3.649   4.993
 7609SOL     OW23725   1.113   2.788   3.338
 7609SOL    HW123726   1.159   2.871   3.306
 7609SOL    HW223727   1.017   2.808   3.358
 7610SOL     OW23728   5.329   0.509   2.360
 7610SOL    HW123729   5.426   0.530   2.374
 7610SOL    HW223730   5.281   0.593   2.334
 7611SOL     OW23731   2.040   1.586   1.326
 7611SOL    HW123732   1.973   1.549   1.391
 7611SOL    HW223733   2.103   1.647   1.375
 7612SOL     OW23734   4.472   2.208   2.918
 7612SOL    HW123735   4.377   2.196   2.946
 7612SOL    HW223736   4.485   2.169   2.827
 7613SOL     OW23737   6.063   0.610   2.297
 7613SOL    HW123738   6.092   0.682   2.360
 7613SOL    HW223739   6.064   0.522   2.344
 7614SOL     OW23740   4.741   0.914   0.730
 7614SOL    HW123741   4.752   1.013   0.722
 7614SOL    HW223742   4.807   0.868   0.670
 7615SOL     OW23743   3.358   5.100   5.664
 7615SOL    HW123744   3.330   5.018   5.713
 7615SOL    HW223745   3.378   5.077   5.569
 7616SOL     OW23746   0.039   5.663   3.177
 7616SOL    HW123747   0.098   5.661   3.097
 7616SOL    HW223748   0.089   5.631   3.257
 7617SOL     OW23749   3.825   5.481   3.687
 7617SOL    HW123750   3.865   5.389   3.692
 7617SOL    HW223751   3.782   5.493   3.598
 7618SOL     OW23752   3.343   2.224   0.349
 7618SOL    HW123753   3.322   2.128   0.331
 7618SOL    HW223754   3.416   2.230   0.417
 7619SOL     OW23755   5.710   3.034   6.103
 7619SOL    HW123756   5.709   3.049   6.004
 7619SOL    HW223757   5.801   3.054   6.139
 7620SOL     OW23758   3.424   5.783   1.545
 7620SOL    HW123759   3.390   5.702   1.593
 7620SOL    HW223760   3.498   5.825   1.597
 7621SOL     OW23761   2.367   2.469   0.811
 7621SOL    HW123762   2.466   2.461   0.818
 7621SOL    HW223763   2.336   2.549   0.862
 7622SOL     OW23764   4.976   2.248   0.847
 7622SOL    HW123765   4.940   2.275   0.936
 7622SOL    HW223766   4.992   2.149   0.846
 7623SOL     OW23767   6.467   6.242   5.214
 7623SOL    HW123768   6.421   6.287   5.290
 7623SOL    HW223769   6.561   6.222   5.239
 7624SOL     OW23770   6.958   0.446   4.629
 7624SOL    HW123771   6.951   0.379   4.555
 7624SOL    HW223772   6.882   0.433   4.693
 7625SOL     OW23773   2.904   5.337   0.981
 7625SOL    HW123774   2.867   5.385   0.901
 7625SOL    HW223775   2.938   5.247   0.953
 7626SOL     OW23776   2.609   4.255   5.370
 7626SOL    HW123777   2.614   4.343   5.324
 7626SOL    HW223778   2.633   4.266   5.467
 7627SOL     OW23779   6.961   0.904   0.464
 7627SOL    HW123780   7.001   0.983   0.508
 7627SOL    HW223781   6.919   0.931   0.377
 7628SOL     OW23782   4.905   2.020   1.312
 7628SOL    HW123783   4.947   2.071   1.387
 7628SOL    HW223784   4.806   2.030   1.315
 7629SOL     OW23785   6.090   5.888   3.412
 7629SOL    HW123786   6.184   5.873   3.384
 7629SOL    HW223787   6.077   5.983   3.438
 7630SOL     OW23788   6.335   1.672   2.083
 7630SOL    HW123789   6.294   1.754   2.124
 7630SOL    HW223790   6.421   1.651   2.129
 7631SOL     OW23791   1.390   0.805   3.354
 7631SOL    HW123792   1.305   0.838   3.314
 7631SOL    HW223793   1.382   0.806   3.454
 7632SOL     OW23794   4.265   0.783   4.966
 7632SOL    HW123795   4.231   0.770   5.059
 7632SOL    HW223796   4.363   0.803   4.969
 7633SOL     OW23797   6.365   3.830   6.284
 7633SOL    HW123798   6.321   3.742   6.301
 7633SOL    HW223799   6.432   3.820   6.211
 7634SOL     OW23800   1.151   2.658   2.317
 7634SOL    HW123801   1.120   2.710   2.238
 7634SOL    HW223802   1.074   2.643   2.380
 7635SOL     OW23803   2.388   4.836   5.798
 7635SOL    HW123804   2.393   4.777   5.878
 7635SOL    HW223805   2.299   4.881   5.795
 7636SOL     OW23806   0.818   0.717   3.575
 7636SOL    HW123807   0.810   0.811   3.544
 7636SOL    HW223808   0.751   0.660   3.526
 7637SOL     OW23809   2.759   6.408   4.044
 7637SOL    HW123810   2.760   6.315   4.080
 7637SOL    HW223811   2.668   6.448   4.058
 7638SOL     OW23812   4.677   4.376   1.675
 7638SOL    HW123813   4.618   4.328   1.739
 7638SOL    HW223814   4.726   4.310   1.618
 7639SOL     OW23815   0.548   1.973   4.177
 7639SOL    HW123816   0.563   2.018   4.089
 7639SOL    HW223817   0.450   1.966   4.195
 7640SOL     OW23818   2.415   3.314   6.206
 7640SOL    HW123819   2.381   3.221   6.217
 7640SOL    HW223820   2.343   3.379   6.231
 7641SOL     OW23821   5.765   3.328   2.975
 7641SOL    HW123822   5.814   3.280   3.048
 7641SOL    HW223823   5.734   3.417   3.009
 7642SOL     OW23824   1.546   2.170   2.941
 7642SOL    HW123825   1.606   2.135   3.013
 7642SOL    HW223826   1.600   2.219   2.873
 7643SOL     OW23827   5.325   3.835   3.331
 7643SOL    HW123828   5.313   3.888   3.247
 7643SOL    HW223829   5.260   3.866   3.399
 7644SOL     OW23830   6.349   3.366   4.137
 7644SOL    HW123831   6.392   3.394   4.051
 7644SOL    HW223832   6.398   3.287   4.174
 7645SOL     OW23833   3.533   3.239   0.687
 7645SOL    HW123834   3.540   3.208   0.782
 7645SOL    HW223835   3.445   3.209   0.649
 7646SOL     OW23836   0.789   0.198   1.948
 7646SOL    HW123837   0.731   0.133   1.996
 7646SOL    HW223838   0.732   0.265   1.900
 7647SOL     OW23839   2.022   4.903   0.047
 7647SOL    HW123840   2.098   4.930   0.106
 7647SOL    HW223841   1.951   4.860   0.103
 7648SOL     OW23842   2.957   0.650   3.623
 7648SOL    HW123843   2.901   0.732   3.632
 7648SOL    HW223844   3.054   0.675   3.635
 7649SOL     OW23845   3.117   1.445   0.948
 7649SOL    HW123846   3.173   1.365   0.972
 7649SOL    HW223847   3.115   1.508   1.025
 7650SOL     OW23848   6.911   5.201   0.684
 7650SOL    HW123849   6.885   5.293   0.656
 7650SOL    HW223850   6.933   5.146   0.604
 7651SOL     OW23851   5.495   1.576   5.965
 7651SOL    HW123852   5.476   1.483   5.933
 7651SOL    HW223853   5.557   1.571   6.044
 7652SOL     OW23854   0.956   3.432   3.097
 7652SOL    HW123855   1.037   3.483   3.125
 7652SOL    HW223856   0.891   3.493   3.051
 7653SOL     OW23857   5.004   2.490   2.036
 7653SOL    HW123858   4.925   2.484   1.974
 7653SOL    HW223859   5.002   2.578   2.083
 7654SOL     OW23860   5.503   3.661   5.171
 7654SOL    HW123861   5.503   3.751   5.215
 7654SOL    HW223862   5.432   3.604   5.212
 7655SOL     OW23863   4.622   4.981   6.239
 7655SOL    HW123864   4.608   4.982   6.338
 7655SOL    HW223865   4.602   5.072   6.203
 7656SOL     OW23866   0.601   0.373   5.147
 7656SOL    HW123867   0.587   0.403   5.053
 7656SOL    HW223868   0.570   0.278   5.156
 7657SOL     OW23869   4.254   1.684   3.583
 7657SOL    HW123870   4.231   1.779   3.562
 7657SOL    HW223871   4.196   1.651   3.657
 7658SOL     OW23872   4.074   0.576   5.885
 7658SOL    HW123873   4.076   0.486   5.930
 7658SOL    HW223874   4.034   0.643   5.948
 7659SOL     OW23875   5.172   5.941   6.078
 7659SOL    HW123876   5.241   5.868   6.078
 7659SOL    HW223877   5.085   5.903   6.046
 7660SOL     OW23878   5.253   5.533   3.936
 7660SOL    HW123879   5.253   5.433   3.927
 7660SOL    HW223880   5.235   5.574   3.847
 7661SOL     OW23881   6.205   3.843   3.842
 7661SOL    HW123882   6.114   3.867   3.877
 7661SOL    HW223883   6.272   3.909   3.877
 7662SOL     OW23884   6.493   5.497   3.531
 7662SOL    HW123885   6.450   5.480   3.442
 7662SOL    HW223886   6.542   5.416   3.560
 7663SOL     OW23887   0.950   6.561   0.787
 7663SOL    HW123888   0.881   6.511   0.735
 7663SOL    HW223889   1.041   6.543   0.750
 7664SOL     OW23890   3.489   5.601   4.827
 7664SOL    HW123891   3.548   5.544   4.769
 7664SOL    HW223892   3.512   5.585   4.923
 7665SOL     OW23893   2.123   5.460   3.799
 7665SOL    HW123894   2.052   5.390   3.805
 7665SOL    HW223895   2.115   5.521   3.878
 7666SOL     OW23896   2.117   0.385   2.415
 7666SOL    HW123897   2.129   0.298   2.369
 7666SOL    HW223898   2.040   0.434   2.375
 7667SOL     OW23899   5.876   6.788   5.321
 7667SOL    HW123900   5.852   6.822   5.230
 7667SOL    HW223901   5.795   6.749   5.364
 7668SOL     OW23902   3.037   3.602   1.936
 7668SOL    HW123903   3.068   3.536   1.867
 7668SOL    HW223904   3.018   3.690   1.893
 7669SOL     OW23905   4.506   6.653   4.968
 7669SOL    HW123906   4.488   6.650   4.870
 7669SOL    HW223907   4.605   6.655   4.983
 7670SOL     OW23908   1.878   5.731   0.937
 7670SOL    HW123909   1.872   5.793   0.858
 7670SOL    HW223910   1.928   5.777   1.011
 7671SOL     OW23911   4.851   2.442   4.486
 7671SOL    HW123912   4.875   2.439   4.583
 7671SOL    HW223913   4.758   2.476   4.475
 7672SOL     OW23914   6.488   0.209   2.034
 7672SOL    HW123915   6.514   0.139   1.968
 7672SOL    HW223916   6.471   0.296   1.987
 7673SOL     OW23917   1.030   3.490   0.390
 7673SOL    HW123918   1.086   3.484   0.308
 7673SOL    HW223919   0.966   3.413   0.392
 7674SOL     OW23920   6.259   0.775   5.261
 7674SOL    HW123921   6.224   0.725   5.182
 7674SOL    HW223922   6.299   0.861   5.232
 7675SOL     OW23923   4.952   0.628   3.218
 7675SOL    HW123924   4.971   0.650   3.314
 7675SOL    HW223925   5.025   0.571   3.182
 7676SOL     OW23926   1.549   0.081   0.961
 7676SOL    HW123927   1.462   0.101   0.916
 7676SOL    HW223928   1.532   0.047   1.054
 7677SOL     OW23929   1.851   2.967   2.675
 7677SOL    HW123930   1.808   3.007   2.756
 7677SOL    HW223931   1.803   2.999   2.593
 7678SOL     OW23932   5.247   6.608   6.043
 7678SOL    HW123933   5.178   6.618   5.972
 7678SOL    HW223934   5.225   6.530   6.101
 7679SOL     OW23935   1.435   5.227   4.117
 7679SOL    HW123936   1.527   5.196   4.141
 7679SOL    HW223937   1.402   5.175   4.038
 7680SOL     OW23938   5.017   0.363   0.457
 7680SOL    HW123939   5.056   0.375   0.548
 7680SOL    HW223940   4.936   0.420   0.447
 7681SOL     OW23941   4.142   1.935   5.923
 7681SOL    HW123942   4.140   1.889   6.012
 7681SOL    HW223943   4.059   1.990   5.913
 7682SOL     OW23944   3.133   0.455   0.550
 7682SOL    HW123945   3.217   0.480   0.598
 7682SOL    HW223946   3.071   0.407   0.613
 7683SOL     OW23947   6.618   3.441   3.612
 7683SOL    HW123948   6.696   3.497   3.640
 7683SOL    HW223949   6.635   3.346   3.639
 7684SOL     OW23950   3.878   1.948   5.645
 7684SOL    HW123951   3.915   1.901   5.724
 7684SOL    HW223952   3.826   1.884   5.588
 7685SOL     OW23953   3.938   3.842   1.584
 7685SOL    HW123954   3.989   3.872   1.665
 7685SOL    HW223955   3.866   3.908   1.564
 7686SOL     OW23956   2.594   1.093   2.574
 7686SOL    HW123957   2.507   1.058   2.608
 7686SOL    HW223958   2.585   1.191   2.554
 7687SOL     OW23959   4.671   4.280   5.871
 7687SOL    HW123960   4.698   4.231   5.954
 7687SOL    HW223961   4.584   4.325   5.886
 7688SOL     OW23962   6.466   0.916   3.145
 7688SOL    HW123963   6.456   0.936   3.242
 7688SOL    HW223964   6.556   0.875   3.128
 7689SOL     OW23965   3.478   6.977   5.068
 7689SOL    HW123966   3.428   6.997   5.152
 7689SOL    HW223967   3.531   0.033   5.041
 7690SOL     OW23968   1.119   5.297   2.445
 7690SOL    HW123969   1.055   5.373   2.441
 7690SOL    HW223970   1.179   5.298   2.365
 7691SOL     OW23971   6.405   4.083   5.710
 7691SOL    HW123972   6.502   4.059   5.712
 7691SOL    HW223973   6.389   4.154   5.642
 7692SOL     OW23974   1.596   6.137   1.286
 7692SOL    HW123975   1.691   6.151   1.260
 7692SOL    HW223976   1.536   6.181   1.219
 7693SOL     OW23977   5.320   1.358   0.612
 7693SOL    HW123978   5.382   1.346   0.690
 7693SOL    HW223979   5.226   1.364   0.645
 7694SOL     OW23980   5.924   4.947   3.619
 7694SOL    HW123981   5.896   4.873   3.559
 7694SOL    HW223982   6.022   4.940   3.637
 7695SOL     OW23983   4.535   0.546   6.677
 7695SOL    HW123984   4.464   0.516   6.741
 7695SOL    HW223985   4.520   0.503   6.588
 7696SOL     OW23986   1.060   3.758   5.426
 7696SOL    HW123987   1.102   3.779   5.514
 7696SOL    HW223988   1.130   3.727   5.362
 7697SOL     OW23989   4.804   1.254   2.299
 7697SOL    HW123990   4.716   1.215   2.324
 7697SOL    HW223991   4.873   1.225   2.366
 7698SOL     OW23992   0.293   2.184   5.948
 7698SOL    HW123993   0.243   2.229   5.874
 7698SOL    HW223994   0.335   2.254   6.007
 7699SOL     OW23995   3.050   3.218   0.696
 7699SOL    HW123996   3.096   3.171   0.620
 7699SOL    HW223997   3.115   3.229   0.771
 7700SOL     OW23998   5.476   0.148   4.876
 7700SOL    HW123999   5.494   0.050   4.868
 7700SOL    HW224000   5.516   0.196   4.798
 7701SOL     OW24001   6.395   2.290   5.621
 7701SOL    HW124002   6.424   2.376   5.579
 7701SOL    HW224003   6.458   2.217   5.596
 7702SOL     OW24004   1.587   6.285   6.867
 7702SOL    HW124005   1.557   6.366   6.816
 7702SOL    HW224006   1.540   6.281   6.955
 7703SOL     OW24007   0.876   2.125   6.243
 7703SOL    HW124008   0.919   2.040   6.272
 7703SOL    HW224009   0.865   2.185   6.322
 7704SOL     OW24010   2.863   3.437   1.309
 7704SOL    HW124011   2.883   3.419   1.213
 7704SOL    HW224012   2.764   3.443   1.323
 7705SOL     OW24013   3.890   3.461   4.338
 7705SOL    HW124014   3.796   3.476   4.307
 7705SOL    HW224015   3.949   3.532   4.300
 7706SOL     OW24016   6.706   0.796   5.542
 7706SOL    HW124017   6.624   0.791   5.599
 7706SOL    HW224018   6.692   0.863   5.469
 7707SOL     OW24019   6.769   5.655   6.544
 7707SOL    HW124020   6.707   5.591   6.499
 7707SOL    HW224021   6.791   5.620   6.635
 7708SOL     OW24022   5.356   1.399   5.173
 7708SOL    HW124023   5.262   1.366   5.167
 7708SOL    HW224024   5.411   1.354   5.103
 7709SOL     OW24025   3.844   2.474   1.656
 7709SOL    HW124026   3.768   2.449   1.716
 7709SOL    HW224027   3.887   2.558   1.690
 7710SOL     OW24028   3.396   2.024   0.003
 7710SOL    HW124029   3.419   2.115   0.039
 7710SOL    HW224030   3.378   2.032   6.929
 7711SOL     OW24031   4.161   5.892   4.834
 7711SOL    HW124032   4.229   5.830   4.796
 7711SOL    HW224033   4.125   5.951   4.761
 7712SOL     OW24034   5.717   4.000   6.386
 7712SOL    HW124035   5.670   3.970   6.469
 7712SOL    HW224036   5.725   4.100   6.385
 7713SOL     OW24037   0.286   5.545   6.384
 7713SOL    HW124038   0.353   5.579   6.450
 7713SOL    HW224039   0.194   5.574   6.411
 7714SOL     OW24040   5.178   4.032   4.800
 7714SOL    HW124041   5.199   4.013   4.704
 7714SOL    HW224042   5.097   4.090   4.805
 7715SOL     OW24043   3.934   2.279   1.843
 7715SOL    HW124044   3.841   2.308   1.824
 7715SOL    HW224045   3.934   2.218   1.923
 7716SOL     OW24046   4.112   2.249   4.303
 7716SOL    HW124047   4.052   2.201   4.368
 7716SOL    HW224048   4.179   2.303   4.354
 7717SOL     OW24049   3.061   0.082   6.574
 7717SOL    HW124050   3.026   0.089   6.481
 7717SOL    HW224051   3.125   0.158   6.591
 7718SOL     OW24052   2.424   6.337   3.653
 7718SOL    HW124053   2.433   6.293   3.743
 7718SOL    HW224054   2.500   6.402   3.640
 7719SOL     OW24055   5.559   2.539   5.263
 7719SOL    HW124056   5.528   2.620   5.313
 7719SOL    HW224057   5.655   2.550   5.237
 7720SOL     OW24058   4.887   6.109   1.272
 7720SOL    HW124059   4.817   6.172   1.307
 7720SOL    HW224060   4.904   6.037   1.338
 7721SOL     OW24061   0.558   4.586   2.925
 7721SOL    HW124062   0.642   4.578   2.873
 7721SOL    HW224063   0.484   4.540   2.876
 7722SOL     OW24064   0.805   6.024   3.950
 7722SOL    HW124065   0.839   6.013   3.857
 7722SOL    HW224066   0.782   6.121   3.965
 7723SOL     OW24067   6.700   1.809   0.381
 7723SOL    HW124068   6.742   1.735   0.434
 7723SOL    HW224069   6.758   1.831   0.303
 7724SOL     OW24070   2.515   6.441   6.831
 7724SOL    HW124071   2.538   6.344   6.830
 7724SOL    HW224072   2.558   6.486   6.753
 7725SOL     OW24073   5.102   3.682   4.240
 7725SOL    HW124074   5.017   3.715   4.198
 7725SOL    HW224075   5.180   3.728   4.197
 7726SOL     OW24076   5.207   5.491   3.006
 7726SOL    HW124077   5.259   5.410   3.031
 7726SOL    HW224078   5.244   5.530   2.922
 7727SOL     OW24079   5.911   3.352   2.201
 7727SOL    HW124080   5.827   3.345   2.255
 7727SOL    HW224081   5.888   3.349   2.104
 7728SOL     OW24082   2.099   2.863   3.095
 7728SOL    HW124083   2.121   2.887   3.000
 7728SOL    HW224084   2.168   2.903   3.156
 7729SOL     OW24085   5.238   1.565   6.136
 7729SOL    HW124086   5.286   1.493   6.186
 7729SOL    HW224087   5.301   1.640   6.118
 7730SOL     OW24088   4.634   0.039   2.825
 7730SOL    HW124089   4.643   0.050   2.726
 7730SOL    HW224090   4.712   0.083   2.871
 7731SOL     OW24091   6.632   1.686   3.945
 7731SOL    HW124092   6.634   1.768   4.003
 7731SOL    HW224093   6.715   1.633   3.960
 7732SOL     OW24094   4.420   4.952   0.860
 7732SOL    HW124095   4.494   4.993   0.914
 7732SOL    HW224096   4.445   4.860   0.833
 7733SOL     OW24097   2.985   6.049   0.545
 7733SOL    HW124098   2.973   6.067   0.447
 7733SOL    HW224099   3.042   5.968   0.557
 7734SOL     OW24100   1.366   2.962   2.253
 7734SOL    HW124101   1.286   3.009   2.288
 7734SOL    HW224102   1.394   2.891   2.317
 7735SOL     OW24103   5.448   4.361   0.820
 7735SOL    HW124104   5.380   4.312   0.875
 7735SOL    HW224105   5.406   4.442   0.780
 7736SOL     OW24106   5.846   4.514   6.930
 7736SOL    HW124107   5.889   4.535   7.018
 7736SOL    HW224108   5.849   4.595   6.871
 7737SOL     OW24109   4.893   2.709   0.040
 7737SOL    HW124110   4.824   2.654   0.087
 7737SOL    HW224111   4.909   2.670   6.974
 7738SOL     OW24112   2.090   5.168   6.962
 7738SOL    HW124113   2.039   5.221   0.005
 7738SOL    HW224114   2.062   5.072   6.967
 7739SOL     OW24115   5.368   3.869   2.407
 7739SOL    HW124116   5.452   3.893   2.358
 7739SOL    HW224117   5.289   3.884   2.347
 7740SOL     OW24118   6.841   6.352   3.518
 7740SOL    HW124119   6.883   6.412   3.450
 7740SOL    HW224120   6.831   6.261   3.480
 7741SOL     OW24121   2.762   5.019   3.929
 7741SOL    HW124122   2.847   5.061   3.962
 7741SOL    HW224123   2.696   5.091   3.906
 7742SOL     OW24124   6.740   0.366   4.349
 7742SOL    HW124125   6.709   0.457   4.376
 7742SOL    HW224126   6.682   0.331   4.275
 7743SOL     OW24127   4.925   3.087   2.251
 7743SOL    HW124128   5.009   3.101   2.199
 7743SOL    HW224129   4.850   3.067   2.188
 7744SOL     OW24130   0.354   6.393   5.072
 7744SOL    HW124131   0.308   6.455   5.008
 7744SOL    HW224132   0.441   6.364   5.034
 7745SOL     OW24133   5.242   3.137   6.003
 7745SOL    HW124134   5.286   3.161   5.917
 7745SOL    HW224135   5.222   3.039   6.005
 7746SOL     OW24136   2.152   0.443   6.195
 7746SOL    HW124137   2.169   0.434   6.293
 7746SOL    HW224138   2.057   0.418   6.175
 7747SOL     OW24139   4.866   4.968   0.159
 7747SOL    HW124140   4.899   4.885   0.205
 7747SOL    HW224141   4.929   5.044   0.179
 7748SOL     OW24142   2.284   3.754   6.920
 7748SOL    HW124143   2.319   3.674   6.968
 7748SOL    HW224144   2.264   3.729   6.825
 7749SOL     OW24145   5.833   3.295   6.389
 7749SOL    HW124146   5.736   3.284   6.366
 7749SOL    HW224147   5.889   3.246   6.323
 7750SOL     OW24148   4.675   5.163   3.346
 7750SOL    HW124149   4.675   5.069   3.313
 7750SOL    HW224150   4.581   5.194   3.361
 7751SOL     OW24151   0.551   2.550   0.973
 7751SOL    HW124152   0.473   2.534   1.034
 7751SOL    HW224153   0.559   2.473   0.909
 7752SOL     OW24154   3.437   1.178   3.043
 7752SOL    HW124155   3.537   1.171   3.042
 7752SOL    HW224156   3.399   1.112   2.979
 7753SOL     OW24157   4.070   1.024   5.637
 7753SOL    HW124158   4.015   1.007   5.719
 7753SOL    HW224159   4.013   1.064   5.565
 7754SOL     OW24160   4.730   5.223   1.398
 7754SOL    HW124161   4.644   5.244   1.351
 7754SOL    HW224162   4.752   5.126   1.385
 7755SOL     OW24163   0.366   4.654   6.277
 7755SOL    HW124164   0.398   4.679   6.186
 7755SOL    HW224165   0.421   4.702   6.346
 7756SOL     OW24166   2.157   3.892   2.339
 7756SOL    HW124167   2.153   3.941   2.426
 7756SOL    HW224168   2.105   3.807   2.345
 7757SOL     OW24169   0.736   4.454   0.152
 7757SOL    HW124170   0.817   4.501   0.118
 7757SOL    HW224171   0.755   4.356   0.159
 7758SOL     OW24172   0.555   1.034   5.514
 7758SOL    HW124173   0.609   1.115   5.495
 7758SOL    HW224174   0.586   0.958   5.456
 7759SOL     OW24175   3.777   1.007   2.506
 7759SOL    HW124176   3.804   0.955   2.587
 7759SOL    HW224177   3.678   1.000   2.493
 7760SOL     OW24178   4.421   2.910   0.321
 7760SOL    HW124179   4.514   2.889   0.352
 7760SOL    HW224180   4.364   2.828   0.329
 7761SOL     OW24181   5.698   5.378   3.227
 7761SOL    HW124182   5.683   5.395   3.325
 7761SOL    HW224183   5.712   5.280   3.212
 7762SOL     OW24184   4.631   2.065   1.368
 7762SOL    HW124185   4.592   1.986   1.320
 7762SOL    HW224186   4.565   2.099   1.435
 7763SOL     OW24187   1.897   0.315   3.467
 7763SOL    HW124188   1.892   0.280   3.560
 7763SOL    HW224189   1.845   0.401   3.461
 7764SOL     OW24190   3.574   5.149   5.255
 7764SOL    HW124191   3.599   5.216   5.324
 7764SOL    HW224192   3.531   5.070   5.299
 7765SOL     OW24193   6.078   4.193   4.540
 7765SOL    HW124194   6.086   4.104   4.494
 7765SOL    HW224195   6.081   4.179   4.639
 7766SOL     OW24196   6.829   2.269   6.292
 7766SOL    HW124197   6.902   2.248   6.226
 7766SOL    HW224198   6.868   2.318   6.370
 7767SOL     OW24199   4.288   7.009   4.432
 7767SOL    HW124200   4.287   0.084   4.419
 7767SOL    HW224201   4.295   6.964   4.343
 7768SOL     OW24202   3.388   5.499   3.625
 7768SOL    HW124203   3.412   5.529   3.717
 7768SOL    HW224204   3.445   5.421   3.599
 7769SOL     OW24205   3.907   2.665   6.360
 7769SOL    HW124206   3.910   2.765   6.355
 7769SOL    HW224207   3.816   2.633   6.334
 7770SOL     OW24208   0.745   3.725   3.714
 7770SOL    HW124209   0.795   3.771   3.641
 7770SOL    HW224210   0.647   3.737   3.701
 7771SOL     OW24211   0.734   3.834   5.135
 7771SOL    HW124212   0.728   3.800   5.229
 7771SOL    HW224213   0.679   3.776   5.075
 7772SOL     OW24214   4.849   5.719   1.936
 7772SOL    HW124215   4.791   5.724   1.855
 7772SOL    HW224216   4.898   5.632   1.937
 7773SOL     OW24217   2.619   6.781   6.842
 7773SOL    HW124218   2.633   6.763   6.939
 7773SOL    HW224219   2.524   6.762   6.818
 7774SOL     OW24220   5.219   1.421   3.108
 7774SOL    HW124221   5.297   1.417   3.171
 7774SOL    HW224222   5.246   1.383   3.019
 7775SOL     OW24223   3.394   1.525   0.981
 7775SOL    HW124224   3.432   1.617   0.970
 7775SOL    HW224225   3.331   1.524   1.059
 7776SOL     OW24226   3.079   1.526   3.707
 7776SOL    HW124227   3.118   1.609   3.746
 7776SOL    HW224228   3.040   1.470   3.781
 7777SOL     OW24229   5.125   5.229   3.411
 7777SOL    HW124230   5.222   5.206   3.409
 7777SOL    HW224231   5.103   5.273   3.498
 7778SOL     OW24232   1.300   3.796   2.055
 7778SOL    HW124233   1.230   3.821   2.123
 7778SOL    HW224234   1.256   3.786   1.965
 7779SOL     OW24235   2.908   0.534   3.133
 7779SOL    HW124236   2.984   0.593   3.158
 7779SOL    HW224237   2.853   0.578   3.062
 7780SOL     OW24238   6.328   5.665   4.108
 7780SOL    HW124239   6.390   5.744   4.110
 7780SOL    HW224240   6.363   5.596   4.045
 7781SOL     OW24241   3.046   2.821   0.888
 7781SOL    HW124242   3.022   2.741   0.942
 7781SOL    HW224243   3.007   2.813   0.796
 7782SOL     OW24244   5.666   4.237   4.123
 7782SOL    HW124245   5.626   4.254   4.213
 7782SOL    HW224246   5.763   4.213   4.134
 7783SOL     OW24247   0.947   6.142   3.646
 7783SOL    HW124248   0.873   6.208   3.632
 7783SOL    HW224249   1.028   6.190   3.680
 7784SOL     OW24250   1.652   2.668   2.787
 7784SOL    HW124251   1.745   2.673   2.750
 7784SOL    HW224252   1.649   2.717   2.875
 7785SOL     OW24253   5.859   6.768   2.566
 7785SOL    HW124254   5.817   6.859   2.570
 7785SOL    HW224255   5.856   6.734   2.472
 7786SOL     OW24256   5.608   1.036   6.962
 7786SOL    HW124257   5.573   1.083   6.881
 7786SOL    HW224258   5.603   0.937   6.949
 7787SOL     OW24259   0.924   2.681   1.272
 7787SOL    HW124260   0.974   2.663   1.357
 7787SOL    HW224261   0.828   2.701   1.294
 7788SOL     OW24262   1.204   4.143   2.234
 7788SOL    HW124263   1.231   4.080   2.307
 7788SOL    HW224264   1.108   4.169   2.246
 7789SOL     OW24265   3.196   0.057   6.203
 7789SOL    HW124266   3.275   0.006   6.239
 7789SOL    HW224267   3.113   0.023   6.247
 7790SOL     OW24268   4.416   5.259   4.529
 7790SOL    HW124269   4.387   5.165   4.510
 7790SOL    HW224270   4.381   5.287   4.618
 7791SOL     OW24271   2.524   6.237   1.772
 7791SOL    HW124272   2.542   6.330   1.741
 7791SOL    HW224273   2.596   6.176   1.738
 7792SOL     OW24274   1.079   1.148   1.958
 7792SOL    HW124275   1.173   1.162   1.988
 7792SOL    HW224276   1.042   1.234   1.924
 7793SOL     OW24277   4.729   1.587   0.563
 7793SOL    HW124278   4.826   1.601   0.542
 7793SOL    HW224279   4.675   1.660   0.521
 7794SOL     OW24280   1.134   0.713   2.613
 7794SOL    HW124281   1.060   0.645   2.611
 7794SOL    HW224282   1.208   0.679   2.670
 7795SOL     OW24283   3.897   3.590   1.452
 7795SOL    HW124284   3.916   3.510   1.509
 7795SOL    HW224285   3.938   3.671   1.493
 7796SOL     OW24286   4.312   1.595   1.036
 7796SOL    HW124287   4.278   1.505   1.061
 7796SOL    HW224288   4.411   1.590   1.022
 7797SOL     OW24289   1.525   6.212   2.687
 7797SOL    HW124290   1.430   6.201   2.716
 7797SOL    HW224291   1.544   6.309   2.672
 7798SOL     OW24292   1.575   3.267   1.031
 7798SOL    HW124293   1.572   3.200   1.105
 7798SOL    HW224294   1.584   3.220   0.943
 7799SOL     OW24295   2.171   6.333   3.912
 7799SOL    HW124296   2.217   6.254   3.871
 7799SOL    HW224297   2.090   6.302   3.960
 7800SOL     OW24298   0.908   0.982   2.119
 7800SOL    HW124299   0.921   1.064   2.062
 7800SOL    HW224300   0.828   0.995   2.178
 7801SOL     OW24301   1.712   1.940   0.694
 7801SOL    HW124302   1.645   1.876   0.657
 7801SOL    HW224303   1.701   1.945   0.794
 7802SOL     OW24304   6.411   5.344   3.935
 7802SOL    HW124305   6.461   5.430   3.935
 7802SOL    HW224306   6.314   5.361   3.917
 7803SOL     OW24307   3.334   1.755   6.177
 7803SOL    HW124308   3.296   1.824   6.238
 7803SOL    HW224309   3.434   1.756   6.183
 7804SOL     OW24310   3.115   1.221   5.708
 7804SOL    HW124311   3.178   1.286   5.667
 7804SOL    HW224312   3.033   1.269   5.741
 7805SOL     OW24313   6.470   2.123   6.782
 7805SOL    HW124314   6.407   2.051   6.753
 7805SOL    HW224315   6.440   2.211   6.744
 7806SOL     OW24316   6.237   2.386   5.301
 7806SOL    HW124317   6.172   2.312   5.285
 7806SOL    HW224318   6.216   2.431   5.388
 7807SOL     OW24319   1.756   5.629   5.653
 7807SOL    HW124320   1.720   5.702   5.712
 7807SOL    HW224321   1.745   5.541   5.698
 7808SOL     OW24322   0.476   2.942   4.362
 7808SOL    HW124323   0.454   2.852   4.325
 7808SOL    HW224324   0.575   2.951   4.372
 7809SOL     OW24325   3.644   6.958   2.721
 7809SOL    HW124326   3.662   6.975   2.624
 7809SOL    HW224327   3.706   6.887   2.754
 7810SOL     OW24328   2.332   6.713   6.115
 7810SOL    HW124329   2.368   6.625   6.146
 7810SOL    HW224330   2.351   6.783   6.183
 7811SOL     OW24331   1.614   5.286   3.095
 7811SOL    HW124332   1.649   5.332   3.177
 7811SOL    HW224333   1.569   5.201   3.122
 7812SOL     OW24334   2.978   0.852   6.199
 7812SOL    HW124335   3.029   0.819   6.120
 7812SOL    HW224336   2.942   0.944   6.180
 7813SOL     OW24337   5.726   1.334   0.644
 7813SOL    HW124338   5.792   1.277   0.595
 7813SOL    HW224339   5.672   1.277   0.705
 7814SOL     OW24340   0.192   2.433   2.362
 7814SOL    HW124341   0.180   2.382   2.447
 7814SOL    HW224342   0.289   2.431   2.336
 7815SOL     OW24343   4.638   5.751   2.933
 7815SOL    HW124344   4.614   5.732   3.029
 7815SOL    HW224345   4.617   5.846   2.911
 7816SOL     OW24346   1.147   1.473   5.743
 7816SOL    HW124347   1.119   1.565   5.715
 7816SOL    HW224348   1.165   1.418   5.661
 7817SOL     OW24349   4.416   1.074   6.118
 7817SOL    HW124350   4.473   1.089   6.037
 7817SOL    HW224351   4.471   1.088   6.200
 7818SOL     OW24352   5.413   1.337   2.885
 7818SOL    HW124353   5.472   1.406   2.924
 7818SOL    HW224354   5.465   1.283   2.818
 7819SOL     OW24355   2.368   2.576   4.692
 7819SOL    HW124356   2.361   2.655   4.753
 7819SOL    HW224357   2.441   2.591   4.626
 7820SOL     OW24358   1.520   1.007   6.103
 7820SOL    HW124359   1.563   1.095   6.081
 7820SOL    HW224360   1.432   1.023   6.149
 7821SOL     OW24361   3.953   5.625   6.543
 7821SOL    HW124362   3.920   5.636   6.449
 7821SOL    HW224363   3.968   5.528   6.561
 7822SOL     OW24364   0.561   1.599   4.835
 7822SOL    HW124365   0.626   1.653   4.888
 7822SOL    HW224366   0.559   1.634   4.741
 7823SOL     OW24367   2.509   2.973   5.741
 7823SOL    HW124368   2.467   3.030   5.671
 7823SOL    HW224369   2.472   2.880   5.735
 7824SOL     OW24370   5.987   4.255   2.529
 7824SOL    HW124371   6.065   4.309   2.562
 7824SOL    HW224372   5.922   4.241   2.604
 7825SOL     OW24373   3.447   3.263   3.449
 7825SOL    HW124374   3.471   3.351   3.407
 7825SOL    HW224375   3.508   3.192   3.416
 7826SOL     OW24376   6.376   7.007   0.885
 7826SOL    HW124377   6.434   6.971   0.812
 7826SOL    HW224378   6.375   6.944   0.962
 7827SOL     OW24379   4.956   3.965   0.270
 7827SOL    HW124380   4.989   3.878   0.308
 7827SOL    HW224381   5.029   4.007   0.216
 7828SOL     OW24382   1.154   6.311   0.842
 7828SOL    HW124383   1.234   6.305   0.784
 7828SOL    HW224384   1.137   6.223   0.887
 7829SOL     OW24385   3.689   3.994   2.861
 7829SOL    HW124386   3.691   3.901   2.898
 7829SOL    HW224387   3.602   4.009   2.814
 7830SOL     OW24388   6.727   4.526   6.974
 7830SOL    HW124389   6.781   4.547   6.893
 7830SOL    HW224390   6.751   4.588   0.024
 7831SOL     OW24391   3.042   2.707   0.189
 7831SOL    HW124392   3.023   2.682   0.094
 7831SOL    HW224393   3.072   2.627   0.239
 7832SOL     OW24394   3.870   2.737   5.837
 7832SOL    HW124395   3.955   2.778   5.806
 7832SOL    HW224396   3.888   2.645   5.872
 7833SOL     OW24397   6.428   0.046   1.786
 7833SOL    HW124398   6.360   0.117   1.775
 7833SOL    HW224399   6.388   6.981   1.763
 7834SOL     OW24400   5.404   1.380   1.385
 7834SOL    HW124401   5.435   1.292   1.423
 7834SOL    HW224402   5.469   1.451   1.409
 7835SOL     OW24403   2.517   2.209   4.373
 7835SOL    HW124404   2.437   2.178   4.424
 7835SOL    HW224405   2.534   2.148   4.296
 7836SOL     OW24406   2.467   0.822   6.655
 7836SOL    HW124407   2.461   0.910   6.703
 7836SOL    HW224408   2.376   0.782   6.647
 7837SOL     OW24409   5.535   6.237   1.800
 7837SOL    HW124410   5.570   6.154   1.843
 7837SOL    HW224411   5.438   6.224   1.777
 7838SOL     OW24412   3.503   5.587   3.877
 7838SOL    HW124413   3.565   5.523   3.922
 7838SOL    HW224414   3.552   5.673   3.858
 7839SOL     OW24415   6.917   5.572   3.903
 7839SOL    HW124416   6.903   5.473   3.907
 7839SOL    HW224417   6.853   5.612   3.838
 7840SOL     OW24418   4.301   2.984   6.631
 7840SOL    HW124419   4.336   3.044   6.559
 7840SOL    HW224420   4.346   2.895   6.624
 7841SOL     OW24421   1.139   2.214   5.854
 7841SOL    HW124422   1.164   2.305   5.821
 7841SOL    HW224423   1.098   2.222   5.945
 7842SOL     OW24424   2.053   0.827   2.806
 7842SOL    HW124425   1.985   0.781   2.864
 7842SOL    HW224426   2.012   0.847   2.717
 7843SOL     OW24427   0.230   2.255   2.047
 7843SOL    HW124428   0.152   2.270   2.108
 7843SOL    HW224429   0.307   2.310   2.079
 7844SOL     OW24430   3.450   2.116   3.301
 7844SOL    HW124431   3.548   2.109   3.281
 7844SOL    HW224432   3.409   2.185   3.241
 7845SOL     OW24433   0.528   0.650   4.146
 7845SOL    HW124434   0.583   0.658   4.229
 7845SOL    HW224435   0.544   0.562   4.103
 7846SOL     OW24436   4.661   0.403   2.198
 7846SOL    HW124437   4.664   0.418   2.099
 7846SOL    HW224438   4.661   0.492   2.244
 7847SOL     OW24439   0.378   6.849   6.821
 7847SOL    HW124440   0.417   6.904   6.747
 7847SOL    HW224441   0.433   6.861   6.904
 7848SOL     OW24442   4.102   3.817   1.818
 7848SOL    HW124443   4.184   3.783   1.773
 7848SOL    HW224444   4.095   3.777   1.910
 7849SOL     OW24445   4.942   4.156   4.775
 7849SOL    HW124446   4.949   4.125   4.680
 7849SOL    HW224447   4.895   4.244   4.777
 7850SOL     OW24448   1.347   2.815   5.042
 7850SOL    HW124449   1.371   2.836   4.947
 7850SOL    HW224450   1.283   2.884   5.076
 7851SOL     OW24451   3.790   6.812   0.667
 7851SOL    HW124452   3.730   6.872   0.719
 7851SOL    HW224453   3.746   6.788   0.580
 7852SOL     OW24454   2.810   6.721   0.440
 7852SOL    HW124455   2.753   6.667   0.378
 7852SOL    HW224456   2.849   6.661   0.509
 7853SOL     OW24457   2.465   1.515   0.407
 7853SOL    HW124458   2.421   1.527   0.318
 7853SOL    HW224459   2.410   1.454   0.463
 7854SOL     OW24460   4.129   3.393   4.052
 7854SOL    HW124461   4.142   3.351   4.142
 7854SOL    HW224462   4.140   3.323   3.981
 7855SOL     OW24463   2.917   0.395   4.878
 7855SOL    HW124464   2.956   0.322   4.822
 7855SOL    HW224465   2.824   0.414   4.848
 7856SOL     OW24466   3.298   2.669   6.659
 7856SOL    HW124467   3.292   2.683   6.560
 7856SOL    HW224468   3.374   2.723   6.696
 7857SOL     OW24469   0.433   2.896   5.010
 7857SOL    HW124470   0.425   2.994   4.993
 7857SOL    HW224471   0.518   2.878   5.060
 7858SOL     OW24472   5.227   3.475   3.604
 7858SOL    HW124473   5.264   3.400   3.549
 7858SOL    HW224474   5.133   3.453   3.631
 7859SOL     OW24475   0.424   0.325   0.497
 7859SOL    HW124476   0.511   0.301   0.540
 7859SOL    HW224477   0.440   0.370   0.410
 7860SOL     OW24478   4.936   6.504   0.958
 7860SOL    HW124479   4.881   6.438   0.906
 7860SOL    HW224480   5.013   6.534   0.902
 7861SOL     OW24481   6.348   3.328   0.188
 7861SOL    HW124482   6.390   3.352   0.275
 7861SOL    HW224483   6.419   3.315   0.119
 7862SOL     OW24484   2.743   4.808   1.850
 7862SOL    HW124485   2.791   4.756   1.919
 7862SOL    HW224486   2.746   4.760   1.763
 7863SOL     OW24487   4.197   5.959   2.527
 7863SOL    HW124488   4.153   5.909   2.601
 7863SOL    HW224489   4.139   6.036   2.500
 7864SOL     OW24490   1.449   5.733   5.270
 7864SOL    HW124491   1.351   5.749   5.281
 7864SOL    HW224492   1.480   5.776   5.185
 7865SOL     OW24493   4.539   0.981   2.806
 7865SOL    HW124494   4.594   0.942   2.880
 7865SOL    HW224495   4.516   1.075   2.828
 7866SOL     OW24496   2.669   1.088   5.643
 7866SOL    HW124497   2.630   1.178   5.660
 7866SOL    HW224498   2.596   1.019   5.646
 7867SOL     OW24499   6.362   3.459   1.076
 7867SOL    HW124500   6.397   3.425   0.989
 7867SOL    HW224501   6.278   3.510   1.061
 7868SOL     OW24502   4.332   6.703   0.696
 7868SOL    HW124503   4.329   6.603   0.692
 7868SOL    HW224504   4.313   6.733   0.790
 7869SOL     OW24505   6.196   1.903   4.099
 7869SOL    HW124506   6.263   1.882   4.029
 7869SOL    HW224507   6.211   1.845   4.179
 7870SOL     OW24508   6.733   0.418   3.302
 7870SOL    HW124509   6.741   0.391   3.398
 7870SOL    HW224510   6.731   0.337   3.244
 7871SOL     OW24511   5.596   2.965   4.090
 7871SOL    HW124512   5.559   2.960   4.183
 7871SOL    HW224513   5.528   3.005   4.029
 7872SOL     OW24514   6.952   4.397   4.468
 7872SOL    HW124515   0.018   4.372   4.434
 7872SOL    HW224516   6.882   4.369   4.401
 7873SOL     OW24517   6.971   5.708   4.358
 7873SOL    HW124518   0.025   5.646   4.351
 7873SOL    HW224519   6.959   5.757   4.272
 7874SOL     OW24520   6.085   6.832   6.882
 7874SOL    HW124521   6.146   6.773   6.830
 7874SOL    HW224522   6.093   6.809   6.980
 7875SOL     OW24523   5.019   3.172   0.276
 7875SOL    HW124524   5.086   3.239   0.243
 7875SOL    HW224525   5.052   3.080   0.255
 7876SOL     OW24526   0.351   1.817   4.666
 7876SOL    HW124527   0.276   1.770   4.619
 7876SOL    HW224528   0.420   1.845   4.599
 7877SOL     OW24529   5.670   3.848   2.003
 7877SOL    HW124530   5.601   3.791   2.048
 7877SOL    HW224531   5.760   3.806   2.013
 7878SOL     OW24532   3.799   3.624   1.751
 7878SOL    HW124533   3.837   3.684   1.681
 7878SOL    HW224534   3.771   3.538   1.709
 7879SOL     OW24535   6.897   1.207   5.066
 7879SOL    HW124536   6.970   1.139   5.070
 7879SOL    HW224537   6.916   1.271   4.991
 7880SOL     OW24538   1.782   6.034   6.528
 7880SOL    HW124539   1.739   5.948   6.501
 7880SOL    HW224540   1.723   6.110   6.501
 7881SOL     OW24541   0.742   5.293   4.595
 7881SOL    HW124542   0.793   5.372   4.559
 7881SOL    HW224543   0.802   5.240   4.654
 7882SOL     OW24544   1.952   4.774   1.546
 7882SOL    HW124545   1.865   4.731   1.522
 7882SOL    HW224546   1.968   4.764   1.644
 7883SOL     OW24547   3.175   1.967   2.169
 7883SOL    HW124548   3.082   2.004   2.160
 7883SOL    HW224549   3.220   1.969   2.080
 7884SOL     OW24550   1.110   2.442   5.653
 7884SOL    HW124551   1.033   2.382   5.631
 7884SOL    HW224552   1.076   2.532   5.679
 7885SOL     OW24553   5.924   5.348   2.397
 7885SOL    HW124554   5.922   5.395   2.308
 7885SOL    HW224555   5.996   5.279   2.397
 7886SOL     OW24556   4.176   4.683   2.884
 7886SOL    HW124557   4.151   4.705   2.789
 7886SOL    HW224558   4.129   4.746   2.946
 7887SOL     OW24559   0.720   3.261   0.814
 7887SOL    HW124560   0.647   3.201   0.846
 7887SOL    HW224561   0.782   3.210   0.754
 7888SOL     OW24562   6.953   1.856   5.386
 7888SOL    HW124563   0.022   1.823   5.376
 7888SOL    HW224564   6.938   1.934   5.324
 7889SOL     OW24565   5.465   4.875   0.114
 7889SOL    HW124566   5.474   4.820   0.197
 7889SOL    HW224567   5.402   4.951   0.131
 7890SOL     OW24568   2.153   3.045   2.124
 7890SOL    HW124569   2.181   3.067   2.218
 7890SOL    HW224570   2.061   3.006   2.125
 7891SOL     OW24571   6.143   1.207   4.470
 7891SOL    HW124572   6.211   1.181   4.401
 7891SOL    HW224573   6.160   1.155   4.554
 7892SOL     OW24574   1.120   2.140   4.292
 7892SOL    HW124575   1.196   2.129   4.229
 7892SOL    HW224576   1.131   2.077   4.369
 7893SOL     OW24577   5.516   6.145   1.291
 7893SOL    HW124578   5.579   6.212   1.329
 7893SOL    HW224579   5.559   6.098   1.214
 7894SOL     OW24580   3.217   0.286   6.639
 7894SOL    HW124581   3.229   0.374   6.592
 7894SOL    HW224582   3.226   0.300   6.737
 7895SOL     OW24583   5.530   6.313   3.019
 7895SOL    HW124584   5.573   6.393   3.061
 7895SOL    HW224585   5.431   6.322   3.022
 7896SOL     OW24586   2.781   1.857   0.421
 7896SOL    HW124587   2.720   1.783   0.449
 7896SOL    HW224588   2.748   1.943   0.458
 7897SOL     OW24589   4.660   1.517   1.864
 7897SOL    HW124590   4.732   1.505   1.796
 7897SOL    HW224591   4.603   1.435   1.866
 7898SOL     OW24592   4.453   6.220   3.121
 7898SOL    HW124593   4.457   6.266   3.033
 7898SOL    HW224594   4.377   6.256   3.175
 7899SOL     OW24595   6.026   4.878   2.892
 7899SOL    HW124596   5.996   4.874   2.796
 7899SOL    HW224597   5.948   4.863   2.952
 7900SOL     OW24598   0.457   3.206   0.969
 7900SOL    HW124599   0.474   3.136   0.900
 7900SOL    HW224600   0.456   3.297   0.926
 7901SOL     OW24601   0.740   2.423   0.019
 7901SOL    HW124602   0.645   2.431   0.048
 7901SOL    HW224603   0.777   2.335   0.051
 7902SOL     OW24604   1.799   0.204   1.006
 7902SOL    HW124605   1.847   0.157   1.080
 7902SOL    HW224606   1.716   0.153   0.982
 7903SOL     OW24607   3.077   1.904   5.687
 7903SOL    HW124608   3.011   1.829   5.682
 7903SOL    HW224609   3.076   1.944   5.779
 7904SOL     OW24610   5.158   3.512   2.957
 7904SOL    HW124611   5.131   3.485   3.050
 7904SOL    HW224612   5.077   3.519   2.900
 7905SOL     OW24613   6.265   1.853   1.869
 7905SOL    HW124614   6.314   1.905   1.799
 7905SOL    HW224615   6.296   1.758   1.868
 7906SOL     OW24616   0.420   5.923   6.294
 7906SOL    HW124617   0.443   5.905   6.198
 7906SOL    HW224618   0.479   5.996   6.329
 7907SOL     OW24619   5.933   6.022   3.858
 7907SOL    HW124620   6.011   6.085   3.852
 7907SOL    HW224621   5.870   6.054   3.929
 7908SOL     OW24622   1.758   0.077   5.615
 7908SOL    HW124623   1.660   0.063   5.599
 7908SOL    HW224624   1.807   7.018   5.591
 7909SOL     OW24625   6.360   3.096   1.970
 7909SOL    HW124626   6.433   3.029   1.956
 7909SOL    HW224627   6.333   3.136   1.882
 7910SOL     OW24628   1.637   4.098   4.985
 7910SOL    HW124629   1.589   4.180   5.016
 7910SOL    HW224630   1.674   4.048   5.063
 7911SOL     OW24631   6.165   4.034   5.572
 7911SOL    HW124632   6.121   4.083   5.647
 7911SOL    HW224633   6.258   4.009   5.598
 7912SOL     OW24634   5.767   6.093   1.455
 7912SOL    HW124635   5.739   6.000   1.428
 7912SOL    HW224636   5.695   6.134   1.510
 7913SOL     OW24637   1.193   4.943   6.222
 7913SOL    HW124638   1.134   4.895   6.157
 7913SOL    HW224639   1.273   4.887   6.243
 7914SOL     OW24640   0.906   6.885   4.678
 7914SOL    HW124641   0.969   6.961   4.691
 7914SOL    HW224642   0.940   6.825   4.606
 7915SOL     OW24643   3.296   5.488   1.883
 7915SOL    HW124644   3.298   5.466   1.981
 7915SOL    HW224645   3.306   5.404   1.830
 7916SOL     OW24646   1.289   0.862   4.010
 7916SOL    HW124647   1.373   0.840   4.060
 7916SOL    HW224648   1.222   0.902   4.073
 7917SOL     OW24649   5.024   2.298   2.939
 7917SOL    HW124650   4.998   2.393   2.958
 7917SOL    HW224651   4.949   2.251   2.893
 7918SOL     OW24652   1.447   2.744   2.429
 7918SOL    HW124653   1.364   2.689   2.425
 7918SOL    HW224654   1.525   2.685   2.448
 7919SOL     OW24655   0.565   6.748   4.865
 7919SOL    HW124656   0.664   6.758   4.873
 7919SOL    HW224657   0.519   6.801   4.937
 7920SOL     OW24658   5.392   6.474   0.692
 7920SOL    HW124659   5.417   6.538   0.619
 7920SOL    HW224660   5.359   6.389   0.652
 7921SOL     OW24661   5.221   3.323   0.667
 7921SOL    HW124662   5.189   3.374   0.588
 7921SOL    HW224663   5.256   3.234   0.637
 7922SOL     OW24664   2.237   6.737   3.259
 7922SOL    HW124665   2.137   6.730   3.260
 7922SOL    HW224666   2.269   6.772   3.347
 7923SOL     OW24667   5.072   0.112   1.119
 7923SOL    HW124668   5.171   0.101   1.115
 7923SOL    HW224669   5.035   0.115   1.026
 7924SOL     OW24670   5.690   5.524   0.152
 7924SOL    HW124671   5.664   5.429   0.168
 7924SOL    HW224672   5.780   5.542   0.193
 7925SOL     OW24673   1.894   4.693   5.994
 7925SOL    HW124674   1.966   4.742   6.043
 7925SOL    HW224675   1.877   4.605   6.039
 7926SOL     OW24676   4.543   5.645   5.815
 7926SOL    HW124677   4.522   5.669   5.721
 7926SOL    HW224678   4.639   5.668   5.835
 7927SOL     OW24679   4.722   0.432   3.304
 7927SOL    HW124680   4.673   0.468   3.384
 7927SOL    HW224681   4.809   0.480   3.294
 7928SOL     OW24682   5.739   1.790   4.175
 7928SOL    HW124683   5.726   1.732   4.094
 7928SOL    HW224684   5.769   1.733   4.251
 7929SOL     OW24685   4.632   4.103   5.566
 7929SOL    HW124686   4.722   4.137   5.538
 7929SOL    HW224687   4.624   4.111   5.666
 7930SOL     OW24688   4.160   5.387   0.514
 7930SOL    HW124689   4.249   5.351   0.541
 7930SOL    HW224690   4.135   5.352   0.424
 7931SOL     OW24691   4.969   0.833   0.537
 7931SOL    HW124692   4.886   0.859   0.488
 7931SOL    HW224693   4.989   0.737   0.521
 7932SOL     OW24694   1.025   3.221   1.085
 7932SOL    HW124695   0.952   3.289   1.078
 7932SOL    HW224696   0.992   3.143   1.138
 7933SOL     OW24697   1.242   1.849   0.396
 7933SOL    HW124698   1.327   1.801   0.416
 7933SOL    HW224699   1.220   1.911   0.472
 7934SOL     OW24700   0.144   5.292   1.264
 7934SOL    HW124701   0.069   5.243   1.220
 7934SOL    HW224702   0.206   5.329   1.195
 7935SOL     OW24703   6.270   3.408   3.197
 7935SOL    HW124704   6.282   3.407   3.098
 7935SOL    HW224705   6.278   3.502   3.230
 7936SOL     OW24706   2.335   6.086   3.255
 7936SOL    HW124707   2.301   6.002   3.212
 7936SOL    HW224708   2.423   6.067   3.299
 7937SOL     OW24709   4.121   1.476   1.292
 7937SOL    HW124710   4.041   1.459   1.349
 7937SOL    HW224711   4.098   1.542   1.220
 7938SOL     OW24712   2.321   6.816   3.501
 7938SOL    HW124713   2.374   6.871   3.566
 7938SOL    HW224714   2.290   6.733   3.547
 7939SOL     OW24715   1.582   0.428   2.508
 7939SOL    HW124716   1.536   0.401   2.423
 7939SOL    HW224717   1.641   0.354   2.540
 7940SOL     OW24718   6.490   1.983   5.361
 7940SOL    HW124719   6.472   2.080   5.343
 7940SOL    HW224720   6.412   1.929   5.330
 7941SOL     OW24721   3.474   7.013   0.600
 7941SOL    HW124722   3.406   0.050   0.560
 7941SOL    HW224723   3.509   0.028   0.686
 7942SOL     OW24724   1.050   3.955   1.169
 7942SOL    HW124725   1.070   3.920   1.077
 7942SOL    HW224726   1.102   3.904   1.237
 7943SOL     OW24727   1.680   5.518   6.960
 7943SOL    HW124728   1.588   5.480   6.951
 7943SOL    HW224729   1.703   5.529   0.033
 7944SOL     OW24730   1.191   2.099   0.890
 7944SOL    HW124731   1.171   2.129   0.983
 7944SOL    HW224732   1.280   2.054   0.887
 7945SOL     OW24733   6.293   3.952   3.245
 7945SOL    HW124734   6.342   3.867   3.269
 7945SOL    HW224735   6.303   4.018   3.319
 7946SOL     OW24736   4.567   1.421   6.153
 7946SOL    HW124737   4.575   1.500   6.093
 7946SOL    HW224738   4.590   1.338   6.102
 7947SOL     OW24739   0.444   3.469   6.592
 7947SOL    HW124740   0.487   3.543   6.643
 7947SOL    HW224741   0.488   3.382   6.618
 7948SOL     OW24742   1.549   5.518   1.174
 7948SOL    HW124743   1.449   5.513   1.177
 7948SOL    HW224744   1.582   5.472   1.091
 7949SOL     OW24745   2.694   5.681   5.563
 7949SOL    HW124746   2.647   5.595   5.585
 7949SOL    HW224747   2.777   5.660   5.511
 7950SOL     OW24748   6.141   3.476   5.759
 7950SOL    HW124749   6.106   3.382   5.755
 7950SOL    HW224750   6.144   3.515   5.667
 7951SOL     OW24751   4.034   0.226   2.997
 7951SOL    HW124752   4.083   0.307   2.966
 7951SOL    HW224753   4.018   0.165   2.919
 7952SOL     OW24754   6.624   3.030   5.312
 7952SOL    HW124755   6.683   3.103   5.349
 7952SOL    HW224756   6.540   3.027   5.365
 7953SOL     OW24757   1.925   0.004   0.469
 7953SOL    HW124758   1.842   0.017   0.522
 7953SOL    HW224759   1.993   0.072   0.497
 7954SOL     OW24760   3.450   2.879   6.740
 7954SOL    HW124761   3.510   2.811   6.782
 7954SOL    HW224762   3.376   2.902   6.803
 7955SOL     OW24763   6.906   0.981   6.830
 7955SOL    HW124764   6.898   0.962   6.732
 7955SOL    HW224765   6.997   0.953   6.862
 7956SOL     OW24766   0.252   0.124   0.571
 7956SOL    HW124767   0.224   0.064   0.496
 7956SOL    HW224768   0.322   0.187   0.538
 7957SOL     OW24769   5.676   1.437   5.457
 7957SOL    HW124770   5.613   1.376   5.410
 7957SOL    HW224771   5.716   1.502   5.392
 7958SOL     OW24772   4.710   2.383   6.856
 7958SOL    HW124773   4.657   2.430   6.927
 7958SOL    HW224774   4.649   2.325   6.802
 7959SOL     OW24775   4.592   3.150   6.916
 7959SOL    HW124776   4.638   3.155   6.827
 7959SOL    HW224777   4.649   3.196   6.985
 7960SOL     OW24778   0.705   1.695   5.204
 7960SOL    HW124779   0.655   1.647   5.275
 7960SOL    HW224780   0.669   1.789   5.196
 7961SOL     OW24781   6.130   0.464   6.656
 7961SOL    HW124782   6.145   0.365   6.655
 7961SOL    HW224783   6.032   0.483   6.662
 7962SOL     OW24784   5.614   6.911   4.883
 7962SOL    HW124785   5.688   6.948   4.940
 7962SOL    HW224786   5.640   6.821   4.849
 7963SOL     OW24787   5.570   6.194   2.646
 7963SOL    HW124788   5.517   6.110   2.650
 7963SOL    HW224789   5.634   6.197   2.723
 7964SOL     OW24790   6.537   3.719   1.527
 7964SOL    HW124791   6.453   3.758   1.490
 7964SOL    HW224792   6.542   3.622   1.503
 7965SOL     OW24793   5.006   1.466   6.452
 7965SOL    HW124794   4.910   1.475   6.479
 7965SOL    HW224795   5.017   1.496   6.357
 7966SOL     OW24796   5.619   3.448   5.034
 7966SOL    HW124797   5.597   3.535   5.078
 7966SOL    HW224798   5.536   3.410   4.993
 7967SOL     OW24799   1.797   4.357   1.192
 7967SOL    HW124800   1.739   4.439   1.182
 7967SOL    HW224801   1.759   4.283   1.137
 7968SOL     OW24802   2.441   2.685   3.957
 7968SOL    HW124803   2.381   2.718   4.029
 7968SOL    HW224804   2.524   2.647   3.997
 7969SOL     OW24805   3.358   4.641   6.783
 7969SOL    HW124806   3.263   4.622   6.805
 7969SOL    HW224807   3.403   4.557   6.753
 7970SOL     OW24808   6.318   2.881   3.527
 7970SOL    HW124809   6.285   2.965   3.571
 7970SOL    HW224810   6.358   2.903   3.439
 7971SOL     OW24811   3.569   0.439   6.954
 7971SOL    HW124812   3.486   0.446   7.009
 7971SOL    HW224813   3.644   0.404   7.011
 7972SOL     OW24814   3.860   3.447   4.787
 7972SOL    HW124815   3.916   3.503   4.849
 7972SOL    HW224816   3.790   3.503   4.744
 7973SOL     OW24817   0.399   4.989   2.155
 7973SOL    HW124818   0.359   4.921   2.094
 7973SOL    HW224819   0.327   5.051   2.188
 7974SOL     OW24820   0.570   3.051   4.747
 7974SOL    HW124821   0.480   3.049   4.791
 7974SOL    HW224822   0.566   3.107   4.665
 7975SOL     OW24823   4.043   6.946   6.627
 7975SOL    HW124824   4.029   6.907   6.719
 7975SOL    HW224825   4.121   7.009   6.629
 7976SOL     OW24826   0.762   0.779   0.212
 7976SOL    HW124827   0.755   0.739   0.303
 7976SOL    HW224828   0.761   0.706   0.144
 7977SOL     OW24829   4.691   5.388   3.099
 7977SOL    HW124830   4.786   5.358   3.096
 7977SOL    HW224831   4.631   5.311   3.075
 7978SOL     OW24832   0.120   3.804   1.343
 7978SOL    HW124833   0.029   3.786   1.304
 7978SOL    HW224834   0.127   3.900   1.368
 7979SOL     OW24835   2.809   2.297   5.668
 7979SOL    HW124836   2.789   2.395   5.662
 7979SOL    HW224837   2.905   2.282   5.647
 7980SOL     OW24838   3.704   5.724   2.469
 7980SOL    HW124839   3.760   5.744   2.549
 7980SOL    HW224840   3.705   5.625   2.452
 7981SOL     OW24841   1.168   3.594   4.949
 7981SOL    HW124842   1.231   3.516   4.955
 7981SOL    HW224843   1.208   3.664   4.889
 7982SOL     OW24844   6.864   0.219   0.515
 7982SOL    HW124845   6.795   0.201   0.585
 7982SOL    HW224846   6.935   0.278   0.553
 7983SOL     OW24847   3.452   1.089   1.751
 7983SOL    HW124848   3.520   1.117   1.683
 7983SOL    HW224849   3.373   1.050   1.705
 7984SOL     OW24850   6.000   2.717   3.082
 7984SOL    HW124851   6.027   2.813   3.072
 7984SOL    HW224852   5.901   2.711   3.084
 7985SOL     OW24853   3.169   3.406   5.811
 7985SOL    HW124854   3.127   3.454   5.888
 7985SOL    HW224855   3.268   3.404   5.823
 7986SOL     OW24856   3.170   0.843   3.830
 7986SOL    HW124857   3.143   0.939   3.826
 7986SOL    HW224858   3.230   0.821   3.753
 7987SOL     OW24859   1.504   2.914   5.913
 7987SOL    HW124860   1.503   2.992   5.975
 7987SOL    HW224861   1.551   2.939   5.828
 7988SOL     OW24862   6.528   0.594   1.355
 7988SOL    HW124863   6.588   0.532   1.406
 7988SOL    HW224864   6.574   0.625   1.272
 7989SOL     OW24865   0.517   4.401   1.321
 7989SOL    HW124866   0.544   4.352   1.238
 7989SOL    HW224867   0.566   4.488   1.327
 7990SOL     OW24868   3.999   5.314   5.026
 7990SOL    HW124869   3.955   5.259   5.098
 7990SOL    HW224870   3.945   5.396   5.009
 7991SOL     OW24871   5.315   0.929   4.635
 7991SOL    HW124872   5.275   0.837   4.638
 7991SOL    HW224873   5.285   0.981   4.715
 7992SOL     OW24874   1.956   0.781   6.986
 7992SOL    HW124875   1.860   0.769   7.010
 7992SOL    HW224876   1.987   0.703   6.932
 7993SOL     OW24877   6.394   6.392   0.753
 7993SOL    HW124878   6.334   6.320   0.716
 7993SOL    HW224879   6.407   6.463   0.685
 7994SOL     OW24880   0.429   1.389   4.576
 7994SOL    HW124881   0.489   1.317   4.609
 7994SOL    HW224882   0.483   1.471   4.555
 7995SOL     OW24883   0.635   6.235   1.659
 7995SOL    HW124884   0.541   6.202   1.662
 7995SOL    HW224885   0.652   6.278   1.570
 7996SOL     OW24886   2.021   6.576   3.760
 7996SOL    HW124887   2.115   6.602   3.738
 7996SOL    HW224888   2.015   6.557   3.858
 7997SOL     OW24889   2.215   1.006   5.800
 7997SOL    HW124890   2.215   1.103   5.779
 7997SOL    HW224891   2.248   0.991   5.893
 7998SOL     OW24892   1.871   1.048   1.316
 7998SOL    HW124893   1.824   0.977   1.262
 7998SOL    HW224894   1.965   1.020   1.332
 7999SOL     OW24895   0.130   1.053   2.581
 7999SOL    HW124896   0.210   1.001   2.552
 7999SOL    HW224897   0.090   1.010   2.662
 8000SOL     OW24898   4.734   5.481   0.951
 8000SOL    HW124899   4.802   5.416   0.985
 8000SOL    HW224900   4.709   5.544   1.025
 8001SOL     OW24901   5.338   4.265   2.368
 8001SOL    HW124902   5.294   4.262   2.457
 8001SOL    HW224903   5.315   4.351   2.322
 8002SOL     OW24904   0.960   0.868   4.594
 8002SOL    HW124905   0.913   0.946   4.636
 8002SOL    HW224906   1.054   0.864   4.628
 8003SOL     OW24907   2.854   5.938   3.066
 8003SOL    HW124908   2.837   6.035   3.054
 8003SOL    HW224909   2.939   5.925   3.119
 8004SOL     OW24910   2.144   3.645   3.903
 8004SOL    HW124911   2.144   3.570   3.837
 8004SOL    HW224912   2.151   3.732   3.853
 8005SOL     OW24913   3.084   0.297   4.489
 8005SOL    HW124914   3.018   0.372   4.478
 8005SOL    HW224915   3.034   0.211   4.495
 8006SOL     OW24916   4.769   5.434   6.206
 8006SOL    HW124917   4.861   5.472   6.200
 8006SOL    HW224918   4.755   5.369   6.132
 8007SOL     OW24919   0.116   0.565   1.264
 8007SOL    HW124920   0.039   0.598   1.320
 8007SOL    HW224921   0.093   0.573   1.167
 8008SOL     OW24922   5.478   5.179   0.451
 8008SOL    HW124923   5.542   5.255   0.463
 8008SOL    HW224924   5.526   5.093   0.466
 8009SOL     OW24925   6.487   1.209   1.533
 8009SOL    HW124926   6.423   1.235   1.460
 8009SOL    HW224927   6.551   1.141   1.499
 8010SOL     OW24928   3.000   0.179   6.038
 8010SOL    HW124929   3.069   0.125   6.087
 8010SOL    HW224930   2.912   0.133   6.043
 8011SOL     OW24931   3.638   2.075   2.481
 8011SOL    HW124932   3.722   2.108   2.524
 8011SOL    HW224933   3.652   2.066   2.383
 8012SOL     OW24934   6.348   0.499   5.387
 8012SOL    HW124935   6.408   0.542   5.320
 8012SOL    HW224936   6.304   0.569   5.443
 8013SOL     OW24937   3.702   0.505   3.141
 8013SOL    HW124938   3.635   0.432   3.123
 8013SOL    HW224939   3.788   0.465   3.171
 8014SOL     OW24940   2.187   2.999   3.732
 8014SOL    HW124941   2.224   3.035   3.818
 8014SOL    HW224942   2.094   3.033   3.719
 8015SOL     OW24943   3.567   6.357   4.557
 8015SOL    HW124944   3.600   6.268   4.589
 8015SOL    HW224945   3.533   6.410   4.635
 8016SOL     OW24946   3.081   2.820   5.284
 8016SOL    HW124947   3.132   2.898   5.318
 8016SOL    HW224948   3.144   2.749   5.253
 8017SOL     OW24949   5.618   6.496   1.730
 8017SOL    HW124950   5.636   6.542   1.816
 8017SOL    HW224951   5.556   6.419   1.744
 8018SOL     OW24952   2.709   3.014   0.774
 8018SOL    HW124953   2.724   3.110   0.754
 8018SOL    HW224954   2.784   2.959   0.737
 8019SOL     OW24955   2.769   3.606   0.894
 8019SOL    HW124956   2.846   3.648   0.943
 8019SOL    HW224957   2.706   3.565   0.960
 8020SOL     OW24958   0.511   0.188   0.052
 8020SOL    HW124959   0.589   0.127   0.035
 8020SOL    HW224960   0.519   0.228   0.143
 8021SOL     OW24961   0.951   2.698   0.800
 8021SOL    HW124962   0.906   2.671   0.886
 8021SOL    HW224963   1.027   2.761   0.821
 8022SOL     OW24964   4.373   0.437   2.240
 8022SOL    HW124965   4.458   0.391   2.214
 8022SOL    HW224966   4.354   0.512   2.176
 8023SOL     OW24967   4.003   4.843   2.201
 8023SOL    HW124968   3.927   4.820   2.263
 8023SOL    HW224969   3.985   4.804   2.111
 8024SOL     OW24970   2.374   0.858   6.028
 8024SOL    HW124971   2.359   0.800   6.108
 8024SOL    HW224972   2.471   0.884   6.024
 8025SOL     OW24973   1.017   6.613   1.240
 8025SOL    HW124974   1.026   6.531   1.184
 8025SOL    HW224975   1.095   6.674   1.223
 8026SOL     OW24976   0.396   0.007   5.802
 8026SOL    HW124977   0.416   6.964   5.873
 8026SOL    HW224978   0.377   6.985   5.716
 8027SOL     OW24979   4.662   0.038   6.256
 8027SOL    HW124980   4.722   6.983   6.268
 8027SOL    HW224981   4.679   0.104   6.328
 8028SOL     OW24982   3.976   5.995   6.528
 8028SOL    HW124983   3.881   6.022   6.511
 8028SOL    HW224984   4.037   6.069   6.500
 8029SOL     OW24985   0.921   0.092   1.662
 8029SOL    HW124986   0.857   0.067   1.590
 8029SOL    HW224987   0.875   0.154   1.727
 8030SOL     OW24988   0.587   3.958   1.157
 8030SOL    HW124989   0.559   3.869   1.120
 8030SOL    HW224990   0.536   4.031   1.112
 8031SOL     OW24991   6.930   0.598   3.369
 8031SOL    HW124992   6.866   0.529   3.337
 8031SOL    HW224993   6.889   0.650   3.444
 8032SOL     OW24994   0.077   3.071   1.197
 8032SOL    HW124995   0.156   3.010   1.209
 8032SOL    HW224996   0.010   3.053   1.269
 8033SOL     OW24997   3.985   5.144   1.092
 8033SOL    HW124998   4.034   5.193   1.164
 8033SOL    HW224999   4.035   5.154   1.006
 8034SOL     OW25000   1.221   1.391   5.453
 8034SOL    HW125001   1.157   1.371   5.378
 8034SOL    HW225002   1.219   1.489   5.472
 8035SOL     OW25003   5.607   0.379   4.715
 8035SOL    HW125004   5.590   0.348   4.809
 8035SOL    HW225005   5.606   0.479   4.712
 8036SOL     OW25006   4.913   4.380   4.128
 8036SOL    HW125007   5.002   4.355   4.090
 8036SOL    HW225008   4.855   4.299   4.133
 8037SOL     OW25009   2.628   1.738   6.613
 8037SOL    HW125010   2.607   1.643   6.635
 8037SOL    HW225011   2.543   1.791   6.608
 8038SOL     OW25012   6.835   5.479   1.947
 8038SOL    HW125013   6.796   5.558   1.900
 8038SOL    HW225014   6.918   5.450   1.900
 8039SOL     OW25015   1.917   2.642   5.156
 8039SOL    HW125016   1.983   2.597   5.096
 8039SOL    HW225017   1.963   2.673   5.239
 8040SOL     OW25018   1.015   6.886   5.854
 8040SOL    HW125019   0.919   6.880   5.880
 8040SOL    HW225020   1.064   6.807   5.890
 8041SOL     OW25021   2.976   1.717   2.796
 8041SOL    HW125022   2.889   1.760   2.820
 8041SOL    HW225023   3.020   1.768   2.722
 8042SOL     OW25024   3.904   4.272   5.951
 8042SOL    HW125025   3.866   4.310   6.035
 8042SOL    HW225026   3.875   4.177   5.939
 8043SOL     OW25027   5.328   5.154   6.874
 8043SOL    HW125028   5.400   5.214   6.839
 8043SOL    HW225029   5.246   5.164   6.818
 8044SOL     OW25030   0.785   2.954   1.453
 8044SOL    HW125031   0.728   2.876   1.426
 8044SOL    HW225032   0.727   3.024   1.495
 8045SOL     OW25033   6.022   3.240   4.992
 8045SOL    HW125034   5.994   3.216   5.085
 8045SOL    HW225035   6.116   3.275   4.993
 8046SOL     OW25036   0.407   4.108   0.643
 8046SOL    HW125037   0.433   4.098   0.739
 8046SOL    HW225038   0.361   4.025   0.612
 8047SOL     OW25039   3.369   6.433   6.474
 8047SOL    HW125040   3.280   6.395   6.498
 8047SOL    HW225041   3.369   6.531   6.494
 8048SOL     OW25042   4.641   1.940   6.634
 8048SOL    HW125043   4.597   1.854   6.661
 8048SOL    HW225044   4.738   1.924   6.619
 8049SOL     OW25045   1.955   1.391   0.986
 8049SOL    HW125046   1.941   1.306   1.038
 8049SOL    HW225047   1.970   1.369   0.890
 8050SOL     OW25048   0.376   5.286   5.900
 8050SOL    HW125049   0.424   5.204   5.931
 8050SOL    HW225050   0.418   5.319   5.816
 8051SOL     OW25051   4.245   6.508   3.063
 8051SOL    HW125052   4.248   6.443   3.139
 8051SOL    HW225053   4.335   6.550   3.051
 8052SOL     OW25054   2.542   1.571   3.062
 8052SOL    HW125055   2.465   1.515   3.033
 8052SOL    HW225056   2.570   1.544   3.154
 8053SOL     OW25057   1.215   2.561   6.395
 8053SOL    HW125058   1.216   2.461   6.396
 8053SOL    HW225059   1.155   2.595   6.468
 8054SOL     OW25060   5.067   3.785   5.237
 8054SOL    HW125061   5.143   3.815   5.295
 8054SOL    HW225062   5.049   3.853   5.167
 8055SOL     OW25063   6.965   0.193   6.535
 8055SOL    HW125064   7.024   0.116   6.560
 8055SOL    HW225065   7.018   0.258   6.480
 8056SOL     OW25066   2.344   2.612   3.178
 8056SOL    HW125067   2.417   2.598   3.244
 8056SOL    HW225068   2.276   2.675   3.216
 8057SOL     OW25069   3.288   2.039   1.914
 8057SOL    HW125070   3.195   2.027   1.879
 8057SOL    HW225071   3.329   2.120   1.872
 8058SOL     OW25072   4.011   6.436   1.641
 8058SOL    HW125073   3.936   6.479   1.690
 8058SOL    HW225074   4.001   6.336   1.646
 8059SOL     OW25075   4.188   3.558   5.338
 8059SOL    HW125076   4.206   3.570   5.436
 8059SOL    HW225077   4.089   3.548   5.324
 8060SOL     OW25078   0.303   1.341   5.685
 8060SOL    HW125079   0.357   1.344   5.601
 8060SOL    HW225080   0.264   1.250   5.697
 8061SOL     OW25081   6.900   0.922   1.300
 8061SOL    HW125082   6.908   0.824   1.320
 8061SOL    HW225083   6.982   0.970   1.331
 8062SOL     OW25084   3.782   4.734   6.376
 8062SOL    HW125085   3.695   4.735   6.327
 8062SOL    HW225086   3.853   4.696   6.316
 8063SOL     OW25087   2.368   4.788   3.085
 8063SOL    HW125088   2.416   4.707   3.051
 8063SOL    HW225089   2.430   4.867   3.082
 8064SOL     OW25090   0.017   3.059   0.724
 8064SOL    HW125091   0.093   3.124   0.715
 8064SOL    HW225092   0.045   2.983   0.782
 8065SOL     OW25093   4.704   0.359   6.832
 8065SOL    HW125094   4.659   0.394   6.750
 8065SOL    HW225095   4.687   0.421   6.909
 8066SOL     OW25096   6.547   0.945   6.075
 8066SOL    HW125097   6.620   0.944   6.142
 8066SOL    HW225098   6.543   0.857   6.028
 8067SOL     OW25099   5.040   1.059   4.261
 8067SOL    HW125100   4.959   1.117   4.262
 8067SOL    HW225101   5.117   1.107   4.304
 8068SOL     OW25102   6.683   4.680   1.566
 8068SOL    HW125103   6.624   4.703   1.489
 8068SOL    HW225104   6.629   4.636   1.638
 8069SOL     OW25105   1.344   2.487   2.143
 8069SOL    HW125106   1.415   2.506   2.210
 8069SOL    HW225107   1.323   2.570   2.092
 8070SOL     OW25108   5.188   4.160   1.812
 8070SOL    HW125109   5.149   4.221   1.882
 8070SOL    HW225110   5.171   4.065   1.838
 8071SOL     OW25111   2.293   0.223   5.716
 8071SOL    HW125112   2.379   0.174   5.732
 8071SOL    HW225113   2.241   0.177   5.644
 8072SOL     OW25114   2.070   2.176   5.687
 8072SOL    HW125115   2.076   2.271   5.720
 8072SOL    HW225116   2.093   2.113   5.761
 8073SOL     OW25117   5.489   0.023   6.542
 8073SOL    HW125118   5.542   0.050   6.623
 8073SOL    HW225119   5.487   6.947   6.536
 8074SOL     OW25120   6.708   0.961   0.736
 8074SOL    HW125121   6.617   0.921   0.720
 8074SOL    HW225122   6.701   1.029   0.809
 8075SOL     OW25123   0.413   0.533   1.201
 8075SOL    HW125124   0.322   0.541   1.242
 8075SOL    HW225125   0.480   0.578   1.261
 8076SOL     OW25126   6.786   5.826   0.516
 8076SOL    HW125127   6.745   5.908   0.477
 8076SOL    HW225128   6.877   5.813   0.478
 8077SOL     OW25129   6.062   4.000   1.337
 8077SOL    HW125130   6.137   3.974   1.276
 8077SOL    HW225131   6.044   3.925   1.401
 8078SOL     OW25132   6.278   1.564   1.847
 8078SOL    HW125133   6.184   1.581   1.818
 8078SOL    HW225134   6.291   1.596   1.941
 8079SOL     OW25135   0.189   1.051   6.670
 8079SOL    HW125136   0.171   0.987   6.745
 8079SOL    HW225137   0.274   1.025   6.624
 8080SOL     OW25138   0.472   3.866   3.972
 8080SOL    HW125139   0.452   3.955   3.930
 8080SOL    HW225140   0.485   3.798   3.899
 8081SOL     OW25141   6.183   0.575   5.795
 8081SOL    HW125142   6.141   0.490   5.826
 8081SOL    HW225143   6.115   0.649   5.800
 8082SOL     OW25144   5.024   2.344   4.751
 8082SOL    HW125145   5.011   2.374   4.845
 8082SOL    HW225146   5.028   2.244   4.748
 8083SOL     OW25147   6.682   3.289   4.387
 8083SOL    HW125148   6.717   3.221   4.452
 8083SOL    HW225149   6.676   3.248   4.296
 8084SOL     OW25150   5.436   1.803   0.190
 8084SOL    HW125151   5.532   1.783   0.172
 8084SOL    HW225152   5.380   1.773   0.112
 8085SOL     OW25153   1.371   6.142   4.486
 8085SOL    HW125154   1.448   6.089   4.522
 8085SOL    HW225155   1.406   6.222   4.437
 8086SOL     OW25156   0.538   2.592   2.521
 8086SOL    HW125157   0.600   2.666   2.547
 8086SOL    HW225158   0.462   2.630   2.469
 8087SOL     OW25159   6.664   0.755   6.429
 8087SOL    HW125160   6.621   0.665   6.415
 8087SOL    HW225161   6.706   0.786   6.344
 8088SOL     OW25162   0.024   0.015   5.410
 8088SOL    HW125163   6.977   0.071   5.368
 8088SOL    HW225164   0.096   0.074   5.447
 8089SOL     OW25165   6.453   1.487   0.137
 8089SOL    HW125166   6.459   1.388   0.129
 8089SOL    HW225167   6.440   1.527   0.046
 8090SOL     OW25168   4.747   2.125   4.705
 8090SOL    HW125169   4.796   2.155   4.623
 8090SOL    HW225170   4.783   2.037   4.735
 8091SOL     OW25171   0.621   3.595   5.009
 8091SOL    HW125172   0.659   3.575   4.919
 8091SOL    HW225173   0.630   3.515   5.068
 8092SOL     OW25174   4.892   0.085   5.914
 8092SOL    HW125175   4.798   0.071   5.884
 8092SOL    HW225176   4.953   0.026   5.861
 8093SOL     OW25177   3.388   6.868   3.464
 8093SOL    HW125178   3.475   6.913   3.442
 8093SOL    HW225179   3.318   6.938   3.480
 8094SOL     OW25180   1.718   4.064   3.692
 8094SOL    HW125181   1.695   3.968   3.674
 8094SOL    HW225182   1.735   4.077   3.789
 8095SOL     OW25183   1.324   5.591   4.545
 8095SOL    HW125184   1.265   5.643   4.484
 8095SOL    HW225185   1.395   5.545   4.491
 8096SOL     OW25186   0.789   4.701   1.048
 8096SOL    HW125187   0.887   4.698   1.071
 8096SOL    HW225188   0.737   4.725   1.130
 8097SOL     OW25189   5.054   6.558   0.152
 8097SOL    HW125190   5.065   6.645   0.200
 8097SOL    HW225191   4.959   6.549   0.121
 8098SOL     OW25192   2.823   6.161   4.490
 8098SOL    HW125193   2.730   6.191   4.509
 8098SOL    HW225194   2.879   6.240   4.462
 8099SOL     OW25195   1.951   3.773   2.650
 8099SOL    HW125196   2.016   3.841   2.617
 8099SOL    HW225197   1.990   3.681   2.637
 8100SOL     OW25198   0.076   6.743   0.328
 8100SOL    HW125199   0.131   6.743   0.244
 8100SOL    HW225200   7.003   6.742   0.304
 8101SOL     OW25201   2.251   4.951   0.205
 8101SOL    HW125202   2.304   5.035   0.220
 8101SOL    HW225203   2.311   4.872   0.214
 8102SOL     OW25204   1.190   4.469   4.000
 8102SOL    HW125205   1.234   4.509   3.919
 8102SOL    HW225206   1.261   4.437   4.064
 8103SOL     OW25207   4.369   0.615   1.505
 8103SOL    HW125208   4.454   0.566   1.525
 8103SOL    HW225209   4.293   0.550   1.499
 8104SOL     OW25210   0.815   6.043   6.890
 8104SOL    HW125211   0.743   6.066   6.824
 8104SOL    HW225212   0.814   6.109   6.965
 8105SOL     OW25213   6.635   0.025   2.693
 8105SOL    HW125214   6.586   0.078   2.762
 8105SOL    HW225215   6.634   6.953   2.718
 8106SOL     OW25216   2.881   6.226   6.512
 8106SOL    HW125217   2.863   6.145   6.456
 8106SOL    HW225218   2.826   6.222   6.596
 8107SOL     OW25219   1.051   6.740   0.257
 8107SOL    HW125220   1.041   6.673   0.183
 8107SOL    HW225221   0.979   6.725   0.325
 8108SOL     OW25222   1.628   1.180   0.688
 8108SOL    HW125223   1.638   1.279   0.697
 8108SOL    HW225224   1.660   1.136   0.772
 8109SOL     OW25225   0.349   3.867   2.089
 8109SOL    HW125226   0.299   3.796   2.039
 8109SOL    HW225227   0.322   3.865   2.185
 8110SOL     OW25228   4.608   4.262   0.244
 8110SOL    HW125229   4.561   4.197   0.303
 8110SOL    HW225230   4.696   4.223   0.215
 8111SOL     OW25231   5.982   2.166   2.281
 8111SOL    HW125232   6.048   2.229   2.322
 8111SOL    HW225233   5.901   2.161   2.339
 8112SOL     OW25234   2.340   4.755   6.568
 8112SOL    HW125235   2.368   4.847   6.542
 8112SOL    HW225236   2.241   4.747   6.560
 8113SOL     OW25237   5.481   5.267   6.474
 8113SOL    HW125238   5.388   5.252   6.440
 8113SOL    HW225239   5.527   5.178   6.484
 8114SOL     OW25240   2.095   3.498   2.978
 8114SOL    HW125241   2.137   3.409   2.958
 8114SOL    HW225242   1.996   3.485   2.991
 8115SOL     OW25243   2.330   1.721   6.316
 8115SOL    HW125244   2.284   1.652   6.372
 8115SOL    HW225245   2.425   1.695   6.303
 8116SOL     OW25246   4.034   3.186   2.313
 8116SOL    HW125247   3.966   3.115   2.295
 8116SOL    HW225248   4.068   3.222   2.227
 8117SOL     OW25249   0.898   0.238   4.151
 8117SOL    HW125250   0.900   0.328   4.107
 8117SOL    HW225251   0.899   0.166   4.081
 8118SOL     OW25252   6.579   2.376   6.969
 8118SOL    HW125253   6.496   2.428   6.987
 8118SOL    HW225254   6.557   2.278   6.970
 8119SOL     OW25255   5.267   5.150   6.038
 8119SOL    HW125256   5.358   5.191   6.037
 8119SOL    HW225257   5.276   5.050   6.043
 8120SOL     OW25258   2.297   6.778   2.529
 8120SOL    HW125259   2.301   6.869   2.569
 8120SOL    HW225260   2.359   6.717   2.580
 8121SOL     OW25261   1.878   2.458   2.556
 8121SOL    HW125262   1.934   2.381   2.587
 8121SOL    HW225263   1.928   2.544   2.572
 8122SOL     OW25264   0.966   4.852   1.463
 8122SOL    HW125265   0.955   4.951   1.447
 8122SOL    HW225266   0.877   4.812   1.483
 8123SOL     OW25267   6.863   1.920   6.575
 8123SOL    HW125268   6.880   1.991   6.643
 8123SOL    HW225269   6.898   1.832   6.609
 8124SOL     OW25270   6.379   5.816   5.149
 8124SOL    HW125271   6.421   5.727   5.130
 8124SOL    HW225272   6.391   5.839   5.245
 8125SOL     OW25273   0.869   6.291   2.024
 8125SOL    HW125274   0.892   6.337   2.110
 8125SOL    HW225275   0.818   6.352   1.965
 8126SOL     OW25276   3.599   5.648   4.364
 8126SOL    HW125277   3.605   5.550   4.345
 8126SOL    HW225278   3.567   5.696   4.283
 8127SOL     OW25279   4.309   1.478   6.238
 8127SOL    HW125280   4.403   1.500   6.212
 8127SOL    HW225281   4.297   1.495   6.336
 8128SOL     OW25282   3.311   3.363   1.521
 8128SOL    HW125283   3.240   3.313   1.470
 8128SOL    HW225284   3.398   3.314   1.514
 8129SOL     OW25285   6.964   2.363   3.947
 8129SOL    HW125286   0.005   2.396   3.878
 8129SOL    HW225287   7.010   2.299   4.009
 8130SOL     OW25288   6.891   6.469   0.017
 8130SOL    HW125289   6.917   6.420   6.959
 8130SOL    HW225290   6.911   6.567   0.006
 8131SOL     OW25291   1.871   2.459   1.017
 8131SOL    HW125292   1.923   2.486   0.936
 8131SOL    HW225293   1.934   2.449   1.094
 8132SOL     OW25294   6.551   1.637   4.590
 8132SOL    HW125295   6.482   1.565   4.592
 8132SOL    HW225296   6.519   1.717   4.640
 8133SOL     OW25297   3.644   5.394   1.512
 8133SOL    HW125298   3.731   5.421   1.554
 8133SOL    HW225299   3.621   5.458   1.439
 8134SOL     OW25300   5.708   2.134   6.392
 8134SOL    HW125301   5.643   2.173   6.458
 8134SOL    HW225302   5.670   2.050   6.353
 8135SOL     OW25303   2.369   6.153   1.978
 8135SOL    HW125304   2.435   6.193   1.915
 8135SOL    HW225305   2.296   6.220   1.996
 8136SOL     OW25306   4.561   5.108   2.787
 8136SOL    HW125307   4.585   5.179   2.721
 8136SOL    HW225308   4.472   5.068   2.762
 8137SOL     OW25309   4.486   0.733   5.879
 8137SOL    HW125310   4.395   0.761   5.909
 8137SOL    HW225311   4.504   0.640   5.911
 8138SOL     OW25312   5.778   0.778   2.385
 8138SOL    HW125313   5.748   0.872   2.371
 8138SOL    HW225314   5.830   0.748   2.305
 8139SOL     OW25315   0.493   0.918   4.438
 8139SOL    HW125316   0.566   0.869   4.391
 8139SOL    HW225317   0.432   0.960   4.370
 8140SOL     OW25318   5.014   2.570   2.992
 8140SOL    HW125319   5.017   2.665   2.962
 8140SOL    HW225320   4.934   2.557   3.051
 8141SOL     OW25321   5.935   4.006   3.632
 8141SOL    HW125322   5.940   3.907   3.628
 8141SOL    HW225323   6.027   4.044   3.648
 8142SOL     OW25324   0.051   6.487   0.469
 8142SOL    HW125325   0.076   6.549   0.543
 8142SOL    HW225326   0.075   6.529   0.381
 8143SOL     OW25327   6.374   2.849   5.709
 8143SOL    HW125328   6.428   2.822   5.788
 8143SOL    HW225329   6.392   2.945   5.687
 8144SOL     OW25330   5.166   6.011   6.770
 8144SOL    HW125331   5.093   6.052   6.825
 8144SOL    HW225332   5.163   5.912   6.779
 8145SOL     OW25333   4.582   6.023   3.735
 8145SOL    HW125334   4.544   6.113   3.756
 8145SOL    HW225335   4.626   5.986   3.817
 8146SOL     OW25336   3.695   1.798   3.975
 8146SOL    HW125337   3.793   1.812   3.960
 8146SOL    HW225338   3.644   1.860   3.916
 8147SOL     OW25339   5.088   1.178   3.335
 8147SOL    HW125340   5.048   1.198   3.246
 8147SOL    HW225341   5.016   1.143   3.396
 8148SOL     OW25342   6.823   3.888   3.155
 8148SOL    HW125343   6.763   3.870   3.077
 8148SOL    HW225344   6.850   3.801   3.197
 8149SOL     OW25345   4.039   5.319   3.872
 8149SOL    HW125346   3.971   5.270   3.818
 8149SOL    HW225347   4.012   5.415   3.881
 8150SOL     OW25348   1.173   6.332   1.427
 8150SOL    HW125349   1.213   6.295   1.511
 8150SOL    HW225350   1.216   6.419   1.405
 8151SOL     OW25351   0.437   1.947   4.955
 8151SOL    HW125352   0.381   2.023   4.921
 8151SOL    HW225353   0.436   1.873   4.887
 8152SOL     OW25354   1.097   0.647   3.536
 8152SOL    HW125355   1.143   0.667   3.622
 8152SOL    HW225356   0.998   0.641   3.550
 8153SOL     OW25357   2.225   6.313   0.467
 8153SOL    HW125358   2.163   6.305   0.545
 8153SOL    HW225359   2.181   6.366   0.394
 8154SOL     OW25360   2.073   6.480   3.443
 8154SOL    HW125361   2.053   6.396   3.494
 8154SOL    HW225362   2.144   6.461   3.375
 8155SOL     OW25363   3.012   4.010   4.864
 8155SOL    HW125364   3.083   4.041   4.928
 8155SOL    HW225365   3.026   4.052   4.775
 8156SOL     OW25366   0.254   6.981   5.266
 8156SOL    HW125367   0.315   0.019   5.315
 8156SOL    HW225368   0.167   6.975   5.314
 8157SOL     OW25369   5.557   2.239   6.584
 8157SOL    HW125370   5.466   2.241   6.626
 8157SOL    HW225371   5.627   2.253   6.655
 8158SOL     OW25372   1.497   5.356   2.720
 8158SOL    HW125373   1.581   5.330   2.768
 8158SOL    HW225374   1.513   5.438   2.665
 8159SOL     OW25375   0.389   5.812   0.350
 8159SOL    HW125376   0.364   5.729   0.300
 8159SOL    HW225377   0.328   5.887   0.324
 8160SOL     OW25378   4.852   1.991   1.774
 8160SOL    HW125379   4.846   2.067   1.710
 8160SOL    HW225380   4.897   1.913   1.730
 8161SOL     OW25381   4.175   3.196   1.537
 8161SOL    HW125382   4.255   3.252   1.559
 8161SOL    HW225383   4.192   3.102   1.567
 8162SOL     OW25384   6.170   0.851   2.461
 8162SOL    HW125385   6.142   0.939   2.424
 8162SOL    HW225386   6.250   0.863   2.519
 8163SOL     OW25387   2.237   2.861   5.512
 8163SOL    HW125388   2.308   2.899   5.454
 8163SOL    HW225389   2.278   2.800   5.580
 8164SOL     OW25390   5.077   3.691   1.932
 8164SOL    HW125391   5.073   3.791   1.925
 8164SOL    HW225392   5.102   3.652   1.843
 8165SOL     OW25393   1.660   4.286   1.724
 8165SOL    HW125394   1.707   4.233   1.794
 8165SOL    HW225395   1.628   4.225   1.652
 8166SOL     OW25396   3.359   0.152   1.477
 8166SOL    HW125397   3.309   0.071   1.446
 8166SOL    HW225398   3.300   0.232   1.471
 8167SOL     OW25399   5.516   2.737   4.623
 8167SOL    HW125400   5.552   2.669   4.686
 8167SOL    HW225401   5.425   2.767   4.654
 8168SOL     OW25402   2.567   1.975   3.275
 8168SOL    HW125403   2.545   1.895   3.331
 8168SOL    HW225404   2.666   1.987   3.271
 8169SOL     OW25405   5.092   4.029   5.048
 8169SOL    HW125406   5.032   4.109   5.038
 8169SOL    HW225407   5.133   4.007   4.959
 8170SOL     OW25408   1.573   5.453   3.953
 8170SOL    HW125409   1.559   5.402   3.868
 8170SOL    HW225410   1.492   5.444   4.010
 8171SOL     OW25411   1.839   1.115   6.965
 8171SOL    HW125412   1.877   1.061   0.016
 8171SOL    HW225413   1.739   1.120   6.974
 8172SOL     OW25414   0.389   6.681   1.880
 8172SOL    HW125415   0.449   6.759   1.863
 8172SOL    HW225416   0.314   6.709   1.940
 8173SOL     OW25417   6.885   2.938   0.514
 8173SOL    HW125418   6.874   3.013   0.448
 8173SOL    HW225419   6.941   2.970   0.591
 8174SOL     OW25420   4.821   6.487   2.541
 8174SOL    HW125421   4.906   6.528   2.573
 8174SOL    HW225422   4.833   6.452   2.448
 8175SOL     OW25423   1.658   3.269   3.895
 8175SOL    HW125424   1.735   3.295   3.954
 8175SOL    HW225425   1.685   3.281   3.799
 8176SOL     OW25426   3.877   5.501   3.365
 8176SOL    HW125427   3.969   5.468   3.384
 8176SOL    HW225428   3.878   5.601   3.358
 8177SOL     OW25429   1.666   6.307   6.461
 8177SOL    HW125430   1.585   6.354   6.424
 8177SOL    HW225431   1.674   6.328   6.559
 8178SOL     OW25432   2.197   6.382   6.213
 8178SOL    HW125433   2.144   6.336   6.284
 8178SOL    HW225434   2.266   6.440   6.256
 8179SOL     OW25435   4.133   0.515   6.877
 8179SOL    HW125436   4.151   0.488   6.782
 8179SOL    HW225437   4.080   0.599   6.878
 8180SOL     OW25438   5.199   4.649   4.846
 8180SOL    HW125439   5.148   4.733   4.864
 8180SOL    HW225440   5.209   4.636   4.747
 8181SOL     OW25441   2.443   2.184   1.927
 8181SOL    HW125442   2.487   2.112   1.873
 8181SOL    HW225443   2.509   2.255   1.949
 8182SOL     OW25444   5.475   2.739   5.418
 8182SOL    HW125445   5.513   2.726   5.510
 8182SOL    HW225446   5.380   2.769   5.426
 8183SOL     OW25447   2.074   3.519   3.277
 8183SOL    HW125448   2.058   3.616   3.260
 8183SOL    HW225449   2.114   3.477   3.196
 8184SOL     OW25450   6.113   5.960   4.477
 8184SOL    HW125451   6.144   6.027   4.545
 8184SOL    HW225452   6.180   5.953   4.404
 8185SOL     OW25453   0.939   2.366   3.684
 8185SOL    HW125454   1.036   2.379   3.665
 8185SOL    HW225455   0.887   2.441   3.644
 8186SOL     OW25456   4.479   3.954   6.822
 8186SOL    HW125457   4.416   3.877   6.830
 8186SOL    HW225458   4.504   3.966   6.726
 8187SOL     OW25459   2.046   1.244   6.094
 8187SOL    HW125460   2.049   1.296   6.179
 8187SOL    HW225461   2.138   1.240   6.054
 8188SOL     OW25462   4.931   3.199   2.535
 8188SOL    HW125463   4.935   3.156   2.445
 8188SOL    HW225464   4.924   3.298   2.524
 8189SOL     OW25465   6.489   5.153   3.250
 8189SOL    HW125466   6.447   5.236   3.287
 8189SOL    HW225467   6.570   5.178   3.197
 8190SOL     OW25468   5.926   3.666   2.780
 8190SOL    HW125469   5.959   3.749   2.824
 8190SOL    HW225470   5.826   3.665   2.782
 8191SOL     OW25471   5.601   4.968   1.706
 8191SOL    HW125472   5.503   4.982   1.716
 8191SOL    HW225473   5.644   4.966   1.796
 8192SOL     OW25474   1.360   2.591   1.017
 8192SOL    HW125475   1.459   2.576   1.022
 8192SOL    HW225476   1.338   2.632   0.928
 8193SOL     OW25477   4.160   6.501   5.614
 8193SOL    HW125478   4.225   6.576   5.619
 8193SOL    HW225479   4.127   6.479   5.706
 8194SOL     OW25480   1.557   0.891   2.674
 8194SOL    HW125481   1.501   0.810   2.654
 8194SOL    HW225482   1.497   0.969   2.693
 8195SOL     OW25483   5.877   1.092   1.696
 8195SOL    HW125484   5.917   1.151   1.766
 8195SOL    HW225485   5.888   0.996   1.723
 8196SOL     OW25486   2.027   1.044   0.909
 8196SOL    HW125487   1.935   1.013   0.929
 8196SOL    HW225488   2.066   0.990   0.835
 8197SOL     OW25489   0.528   0.222   1.216
 8197SOL    HW125490   0.489   0.139   1.253
 8197SOL    HW225491   0.564   0.279   1.290
 8198SOL     OW25492   3.169   0.988   2.673
 8198SOL    HW125493   3.109   0.936   2.735
 8198SOL    HW225494   3.173   1.083   2.703
 8199SOL     OW25495   5.435   4.583   1.593
 8199SOL    HW125496   5.486   4.634   1.523
 8199SOL    HW225497   5.436   4.486   1.570
 8200SOL     OW25498   4.136   4.170   1.558
 8200SOL    HW125499   4.154   4.072   1.572
 8200SOL    HW225500   4.043   4.182   1.522
 8201SOL     OW25501   0.765   1.067   4.937
 8201SOL    HW125502   0.785   1.075   5.035
 8201SOL    HW225503   0.668   1.051   4.924
 8202SOL     OW25504   1.677   3.876   4.016
 8202SOL    HW125505   1.578   3.866   4.012
 8202SOL    HW225506   1.720   3.793   3.979
 8203SOL     OW25507   6.460   4.462   6.155
 8203SOL    HW125508   6.405   4.449   6.073
 8203SOL    HW225509   6.505   4.375   6.180
 8204SOL     OW25510   3.688   0.210   0.709
 8204SOL    HW125511   3.722   0.264   0.786
 8204SOL    HW225512   3.730   0.120   0.711
 8205SOL     OW25513   3.873   6.740   3.354
 8205SOL    HW125514   3.903   6.800   3.279
 8205SOL    HW225515   3.859   6.648   3.319
 8206SOL     OW25516   3.638   2.077   4.586
 8206SOL    HW125517   3.690   2.078   4.671
 8206SOL    HW225518   3.642   1.986   4.545
 8207SOL     OW25519   2.918   5.695   0.021
 8207SOL    HW125520   2.881   5.688   6.953
 8207SOL    HW225521   3.012   5.729   0.017
 8208SOL     OW25522   1.544   5.407   0.897
 8208SOL    HW125523   1.456   5.386   0.854
 8208SOL    HW225524   1.568   5.502   0.876
 8209SOL     OW25525   1.079   5.610   5.238
 8209SOL    HW125526   1.046   5.629   5.330
 8209SOL    HW225527   1.083   5.511   5.224
 8210SOL     OW25528   2.329   0.750   0.889
 8210SOL    HW125529   2.396   0.706   0.830
 8210SOL    HW225530   2.259   0.794   0.834
 8211SOL     OW25531   3.886   3.989   3.904
 8211SOL    HW125532   3.922   3.903   3.940
 8211SOL    HW225533   3.913   4.064   3.965
 8212SOL     OW25534   4.007   4.824   6.600
 8212SOL    HW125535   4.063   4.780   6.531
 8212SOL    HW225536   4.059   4.897   6.644
 8213SOL     OW25537   4.818   4.208   1.914
 8213SOL    HW125538   4.723   4.234   1.930
 8213SOL    HW225539   4.822   4.124   1.859
 8214SOL     OW25540   4.137   5.469   3.400
 8214SOL    HW125541   4.220   5.525   3.397
 8214SOL    HW225542   4.151   5.385   3.347
 8215SOL     OW25543   2.879   6.331   5.841
 8215SOL    HW125544   2.785   6.355   5.865
 8215SOL    HW225545   2.941   6.403   5.872
 8216SOL     OW25546   5.754   5.182   0.762
 8216SOL    HW125547   5.752   5.092   0.805
 8216SOL    HW225548   5.709   5.248   0.822
 8217SOL     OW25549   2.961   6.497   3.633
 8217SOL    HW125550   2.920   6.448   3.710
 8217SOL    HW225551   3.024   6.436   3.585
 8218SOL     OW25552   1.713   6.511   4.162
 8218SOL    HW125553   1.809   6.498   4.138
 8218SOL    HW225554   1.657   6.450   4.107
 8219SOL     OW25555   3.685   3.219   3.687
 8219SOL    HW125556   3.704   3.121   3.693
 8219SOL    HW225557   3.727   3.256   3.604
 8220SOL     OW25558   4.391   4.393   5.878
 8220SOL    HW125559   4.312   4.332   5.878
 8220SOL    HW225560   4.403   4.431   5.787
 8221SOL     OW25561   6.858   4.022   3.613
 8221SOL    HW125562   6.870   3.924   3.600
 8221SOL    HW225563   6.842   4.065   3.524
 8222SOL     OW25564   4.954   1.995   5.862
 8222SOL    HW125565   4.898   2.058   5.918
 8222SOL    HW225566   5.021   1.950   5.920
 8223SOL     OW25567   1.185   6.287   5.615
 8223SOL    HW125568   1.161   6.349   5.690
 8223SOL    HW225569   1.212   6.340   5.535
 8224SOL     OW25570   5.923   0.743   5.831
 8224SOL    HW125571   5.902   0.795   5.748
 8224SOL    HW225572   5.905   0.800   5.911
 8225SOL     OW25573   6.205   2.756   0.280
 8225SOL    HW125574   6.247   2.728   0.193
 8225SOL    HW225575   6.209   2.680   0.345
 8226SOL     OW25576   4.281   1.009   6.675
 8226SOL    HW125577   4.200   1.046   6.721
 8226SOL    HW225578   4.300   0.917   6.708
 8227SOL     OW25579   5.590   3.925   2.279
 8227SOL    HW125580   5.654   3.986   2.324
 8227SOL    HW225581   5.620   3.908   2.185
 8228SOL     OW25582   2.751   1.485   4.655
 8228SOL    HW125583   2.718   1.575   4.626
 8228SOL    HW225584   2.681   1.416   4.636
 8229SOL     OW25585   3.810   4.644   0.597
 8229SOL    HW125586   3.905   4.669   0.574
 8229SOL    HW225587   3.810   4.562   0.655
 8230SOL     OW25588   6.296   0.698   6.496
 8230SOL    HW125589   6.346   0.745   6.423
 8230SOL    HW225590   6.292   0.600   6.477
 8231SOL     OW25591   3.445   1.585   2.220
 8231SOL    HW125592   3.413   1.619   2.131
 8231SOL    HW225593   3.505   1.506   2.207
 8232SOL     OW25594   3.561   6.634   3.588
 8232SOL    HW125595   3.541   6.673   3.498
 8232SOL    HW225596   3.538   6.537   3.588
 8233SOL     OW25597   2.875   0.800   6.445
 8233SOL    HW125598   2.922   0.827   6.361
 8233SOL    HW225599   2.789   0.851   6.453
 8234SOL     OW25600   0.922   3.065   0.125
 8234SOL    HW125601   1.013   3.026   0.135
 8234SOL    HW225602   0.863   2.999   0.078
 8235SOL     OW25603   0.756   6.361   0.712
 8235SOL    HW125604   0.784   6.285   0.653
 8235SOL    HW225605   0.659   6.380   0.698
 8236SOL     OW25606   1.300   0.094   0.843
 8236SOL    HW125607   1.294   0.175   0.784
 8236SOL    HW225608   1.251   0.018   0.800
 8237SOL     OW25609   3.852   5.214   5.229
 8237SOL    HW125610   3.864   5.124   5.271
 8237SOL    HW225611   3.755   5.238   5.228
 8238SOL     OW25612   6.683   5.420   0.154
 8238SOL    HW125613   6.639   5.444   0.240
 8238SOL    HW225614   6.620   5.437   0.078
 8239SOL     OW25615   4.659   1.865   3.940
 8239SOL    HW125616   4.663   1.767   3.920
 8239SOL    HW225617   4.713   1.915   3.872
 8240SOL     OW25618   3.941   3.382   5.135
 8240SOL    HW125619   4.031   3.419   5.114
 8240SOL    HW225620   3.931   3.291   5.095
 8241SOL     OW25621   0.842   3.089   5.779
 8241SOL    HW125622   0.820   3.147   5.857
 8241SOL    HW225623   0.909   3.136   5.720
 8242SOL     OW25624   0.237   2.857   3.781
 8242SOL    HW125625   0.147   2.852   3.737
 8242SOL    HW225626   0.281   2.767   3.776
 8243SOL     OW25627   1.484   6.037   3.391
 8243SOL    HW125628   1.539   6.113   3.426
 8243SOL    HW225629   1.427   6.001   3.465
 8244SOL     OW25630   5.294   0.672   4.239
 8244SOL    HW125631   5.328   0.580   4.223
 8244SOL    HW225632   5.217   0.669   4.303
 8245SOL     OW25633   5.784   4.206   2.110
 8245SOL    HW125634   5.820   4.140   2.177
 8245SOL    HW225635   5.725   4.271   2.156
 8246SOL     OW25636   1.990   4.284   6.879
 8246SOL    HW125637   1.942   4.369   6.859
 8246SOL    HW225638   1.974   4.218   6.806
 8247SOL     OW25639   1.988   4.763   3.258
 8247SOL    HW125640   1.978   4.827   3.334
 8247SOL    HW225641   1.958   4.806   3.173
 8248SOL     OW25642   6.109   6.782   2.651
 8248SOL    HW125643   6.020   6.755   2.613
 8248SOL    HW225644   6.145   6.859   2.598
 8249SOL     OW25645   3.560   0.292   6.416
 8249SOL    HW125646   3.531   0.379   6.456
 8249SOL    HW225647   3.505   0.272   6.335
 8250SOL     OW25648   0.990   1.446   0.401
 8250SOL    HW125649   0.926   1.468   0.475
 8250SOL    HW225650   1.063   1.387   0.436
 8251SOL     OW25651   1.480   2.104   6.727
 8251SOL    HW125652   1.575   2.127   6.750
 8251SOL    HW225653   1.479   2.044   6.647
 8252SOL     OW25654   0.931   1.503   6.593
 8252SOL    HW125655   0.832   1.507   6.606
 8252SOL    HW225656   0.952   1.437   6.521
 8253SOL     OW25657   6.563   4.500   5.777
 8253SOL    HW125658   6.588   4.423   5.718
 8253SOL    HW225659   6.480   4.478   5.828
 8254SOL     OW25660   5.337   4.359   7.017
 8254SOL    HW125661   5.398   4.429   6.981
 8254SOL    HW225662   5.246   4.371   6.978
 8255SOL     OW25663   1.378   6.584   5.542
 8255SOL    HW125664   1.413   6.508   5.595
 8255SOL    HW225665   1.450   6.619   5.481
 8256SOL     OW25666   1.784   5.843   2.587
 8256SOL    HW125667   1.690   5.810   2.601
 8256SOL    HW225668   1.825   5.864   2.676
 8257SOL     OW25669   4.485   4.571   3.904
 8257SOL    HW125670   4.477   4.611   3.812
 8257SOL    HW225671   4.575   4.529   3.914
 8258SOL     OW25672   0.481   3.165   4.495
 8258SOL    HW125673   0.530   3.221   4.429
 8258SOL    HW225674   0.467   3.073   4.458
 8259SOL     OW25675   5.809   2.853   3.923
 8259SOL    HW125676   5.752   2.914   3.977
 8259SOL    HW225677   5.775   2.849   3.829
 8260SOL     OW25678   4.710   2.026   6.228
 8260SOL    HW125679   4.753   1.942   6.194
 8260SOL    HW225680   4.637   2.054   6.166
 8261SOL     OW25681   5.666   2.721   2.815
 8261SOL    HW125682   5.715   2.694   2.732
 8261SOL    HW225683   5.568   2.713   2.800
 8262SOL     OW25684   5.038   4.149   2.189
 8262SOL    HW125685   5.021   4.228   2.130
 8262SOL    HW225686   5.018   4.174   2.283
 8263SOL     OW25687   6.593   1.872   6.553
 8263SOL    HW125688   6.607   1.774   6.566
 8263SOL    HW225689   6.679   1.920   6.570
 8264SOL     OW25690   3.250   0.948   1.634
 8264SOL    HW125691   3.180   1.013   1.666
 8264SOL    HW225692   3.223   0.855   1.658
 8265SOL     OW25693   4.724   5.339   0.386
 8265SOL    HW125694   4.821   5.332   0.410
 8265SOL    HW225695   4.701   5.435   0.369
 8266SOL     OW25696   4.839   2.476   3.202
 8266SOL    HW125697   4.853   2.415   3.280
 8266SOL    HW225698   4.752   2.524   3.211
 8267SOL     OW25699   1.943   3.099   3.150
 8267SOL    HW125700   1.953   3.005   3.117
 8267SOL    HW225701   1.981   3.106   3.242
 8268SOL     OW25702   2.916   5.439   1.742
 8268SOL    HW125703   2.940   5.345   1.718
 8268SOL    HW225704   2.830   5.439   1.792
 8269SOL     OW25705   6.843   1.520   3.906
 8269SOL    HW125706   6.903   1.446   3.936
 8269SOL    HW225707   6.804   1.497   3.816
 8270SOL     OW25708   4.080   4.553   0.490
 8270SOL    HW125709   4.064   4.455   0.501
 8270SOL    HW225710   4.107   4.572   0.395
 8271SOL     OW25711   2.987   6.992   5.152
 8271SOL    HW125712   3.057   6.921   5.159
 8271SOL    HW225713   2.926   6.987   5.231
 8272SOL     OW25714   0.687   0.809   1.832
 8272SOL    HW125715   0.716   0.746   1.905
 8272SOL    HW225716   0.757   0.879   1.819
 8273SOL     OW25717   5.249   6.929   6.043
 8273SOL    HW125718   5.310   6.853   6.019
 8273SOL    HW225719   5.167   6.893   6.088
 8274SOL     OW25720   5.101   0.147   4.415
 8274SOL    HW125721   5.013   0.194   4.407
 8274SOL    HW225722   5.105   0.072   4.349
 8275SOL     OW25723   4.548   0.954   4.355
 8275SOL    HW125724   4.460   0.977   4.313
 8275SOL    HW225725   4.576   0.862   4.327
 8276SOL     OW25726   6.038   2.889   1.008
 8276SOL    HW125727   6.031   2.849   0.917
 8276SOL    HW225728   6.041   2.816   1.076
 8277SOL     OW25729   1.351   6.806   2.029
 8277SOL    HW125730   1.273   6.770   2.080
 8277SOL    HW225731   1.387   6.734   1.969
 8278SOL     OW25732   1.363   0.494   1.308
 8278SOL    HW125733   1.283   0.435   1.292
 8278SOL    HW225734   1.391   0.485   1.404
 8279SOL     OW25735   6.334   4.883   5.841
 8279SOL    HW125736   6.296   4.844   5.925
 8279SOL    HW225737   6.311   4.980   5.836
 8280SOL     OW25738   6.931   4.348   6.718
 8280SOL    HW125739   6.864   4.325   6.788
 8280SOL    HW225740   7.013   4.386   6.761
 8281SOL     OW25741   3.122   5.029   0.003
 8281SOL    HW125742   3.087   4.943   6.991
 8281SOL    HW225743   3.047   5.096   0.007
 8282SOL     OW25744   4.123   2.986   0.587
 8282SOL    HW125745   4.163   3.069   0.550
 8282SOL    HW225746   4.066   3.009   0.666
 8283SOL     OW25747   0.459   1.178   3.269
 8283SOL    HW125748   0.375   1.200   3.318
 8283SOL    HW225749   0.538   1.209   3.322
 8284SOL     OW25750   4.962   2.286   1.123
 8284SOL    HW125751   4.865   2.290   1.144
 8284SOL    HW225752   5.007   2.222   1.186
 8285SOL     OW25753   0.565   4.578   7.021
 8285SOL    HW125754   0.560   4.671   0.033
 8285SOL    HW225755   0.632   4.525   0.050
 8286SOL     OW25756   6.608   1.918   6.277
 8286SOL    HW125757   6.599   2.017   6.284
 8286SOL    HW225758   6.615   1.879   6.369
 8287SOL     OW25759   7.016   0.984   3.188
 8287SOL    HW125760   0.063   1.035   3.236
 8287SOL    HW225761   7.016   1.010   3.092
 8288SOL     OW25762   2.745   6.871   2.319
 8288SOL    HW125763   2.669   6.824   2.274
 8288SOL    HW225764   2.829   6.854   2.267
 8289SOL     OW25765   6.340   6.992   0.051
 8289SOL    HW125766   6.348   6.933   0.131
 8289SOL    HW225767   6.416   0.033   0.050
 8290SOL     OW25768   4.750   2.820   1.842
 8290SOL    HW125769   4.827   2.819   1.777
 8290SOL    HW225770   4.715   2.913   1.850
 8291SOL     OW25771   5.384   5.644   5.546
 8291SOL    HW125772   5.368   5.548   5.568
 8291SOL    HW225773   5.472   5.673   5.583
 8292SOL     OW25774   6.645   3.652   5.589
 8292SOL    HW125775   6.576   3.704   5.539
 8292SOL    HW225776   6.605   3.566   5.621
 8293SOL     OW25777   2.711   5.634   4.366
 8293SOL    HW125778   2.644   5.704   4.389
 8293SOL    HW225779   2.800   5.677   4.350
 8294SOL     OW25780   6.737   3.651   6.029
 8294SOL    HW125781   6.814   3.607   5.982
 8294SOL    HW225782   6.738   3.626   6.126
 8295SOL     OW25783   4.028   4.619   1.387
 8295SOL    HW125784   3.930   4.615   1.368
 8295SOL    HW225785   4.079   4.584   1.308
 8296SOL     OW25786   3.159   0.380   1.783
 8296SOL    HW125787   3.235   0.315   1.793
 8296SOL    HW225788   3.074   0.337   1.812
 8297SOL     OW25789   6.051   4.463   1.807
 8297SOL    HW125790   5.976   4.440   1.746
 8297SOL    HW225791   6.022   4.453   1.902
 8298SOL     OW25792   6.913   6.908   0.814
 8298SOL    HW125793   6.971   6.988   0.828
 8298SOL    HW225794   6.875   6.910   0.721
 8299SOL     OW25795   1.027   2.384   6.610
 8299SOL    HW125796   0.955   2.426   6.665
 8299SOL    HW225797   1.114   2.392   6.658
 8300SOL     OW25798   4.979   6.012   3.906
 8300SOL    HW125799   5.004   5.937   3.844
 8300SOL    HW225800   4.939   5.974   3.990
 8301SOL     OW25801   6.507   5.505   0.392
 8301SOL    HW125802   6.425   5.471   0.439
 8301SOL    HW225803   6.575   5.533   0.460
 8302SOL     OW25804   3.581   6.260   5.468
 8302SOL    HW125805   3.538   6.206   5.397
 8302SOL    HW225806   3.679   6.241   5.471
 8303SOL     OW25807   0.718   4.947   3.816
 8303SOL    HW125808   0.726   4.903   3.726
 8303SOL    HW225809   0.803   4.933   3.868
 8304SOL     OW25810   5.408   2.404   3.658
 8304SOL    HW125811   5.408   2.406   3.758
 8304SOL    HW225812   5.333   2.460   3.623
 8305SOL     OW25813   4.514   6.169   5.111
 8305SOL    HW125814   4.604   6.186   5.152
 8305SOL    HW225815   4.465   6.255   5.101
 8306SOL     OW25816   5.008   1.384   4.125
 8306SOL    HW125817   4.911   1.360   4.119
 8306SOL    HW225818   5.057   1.312   4.174
 8307SOL     OW25819   0.043   4.937   4.106
 8307SOL    HW125820   0.125   4.971   4.153
 8307SOL    HW225821   7.001   5.011   4.096
 8308SOL     OW25822   2.021   5.458   0.447
 8308SOL    HW125823   2.090   5.451   0.374
 8308SOL    HW225824   1.979   5.368   0.462
 8309SOL     OW25825   5.789   5.420   2.620
 8309SOL    HW125826   5.808   5.357   2.696
 8309SOL    HW225827   5.825   5.382   2.535
 8310SOL     OW25828   1.633   6.114   2.910
 8310SOL    HW125829   1.631   6.186   2.980
 8310SOL    HW225830   1.592   6.149   2.826
 8311SOL     OW25831   4.315   6.421   1.899
 8311SOL    HW125832   4.223   6.440   1.931
 8311SOL    HW225833   4.369   6.505   1.897
 8312SOL     OW25834   6.489   0.646   0.406
 8312SOL    HW125835   6.549   0.636   0.486
 8312SOL    HW225836   6.542   0.681   0.329
 8313SOL     OW25837   4.972   2.449   5.703
 8313SOL    HW125838   5.026   2.421   5.783
 8313SOL    HW225839   4.995   2.543   5.678
 8314SOL     OW25840   4.963   5.856   4.593
 8314SOL    HW125841   4.910   5.940   4.577
 8314SOL    HW225842   5.057   5.869   4.564
 8315SOL     OW25843   3.449   1.721   0.696
 8315SOL    HW125844   3.409   1.629   0.704
 8315SOL    HW225845   3.517   1.721   0.622
 8316SOL     OW25846   1.745   1.515   4.703
 8316SOL    HW125847   1.698   1.523   4.790
 8316SOL    HW225848   1.692   1.563   4.632
 8317SOL     OW25849   1.915   1.811   6.445
 8317SOL    HW125850   1.867   1.891   6.483
 8317SOL    HW225851   1.849   1.747   6.408
 8318SOL     OW25852   4.432   6.138   5.470
 8318SOL    HW125853   4.433   6.116   5.567
 8318SOL    HW225854   4.448   6.056   5.416
 8319SOL     OW25855   2.836   5.802   6.491
 8319SOL    HW125856   2.923   5.844   6.464
 8319SOL    HW225857   2.806   5.741   6.418
 8320SOL     OW25858   3.950   4.980   5.357
 8320SOL    HW125859   3.903   5.033   5.427
 8320SOL    HW225860   4.005   4.908   5.401
 8321SOL     OW25861   0.476   0.495   0.862
 8321SOL    HW125862   0.562   0.447   0.882
 8321SOL    HW225863   0.468   0.575   0.922
 8322SOL     OW25864   2.199   0.463   1.472
 8322SOL    HW125865   2.286   0.496   1.436
 8322SOL    HW225866   2.138   0.440   1.395
 8323SOL     OW25867   5.987   5.166   6.725
 8323SOL    HW125868   5.964   5.263   6.721
 8323SOL    HW225869   6.058   5.151   6.794
 8324SOL     OW25870   5.853   6.330   6.281
 8324SOL    HW125871   5.923   6.260   6.294
 8324SOL    HW225872   5.764   6.293   6.308
 8325SOL     OW25873   1.534   6.210   4.740
 8325SOL    HW125874   1.591   6.192   4.821
 8325SOL    HW225875   1.583   6.272   4.678
 8326SOL     OW25876   2.405   1.592   6.902
 8326SOL    HW125877   2.453   1.679   6.916
 8326SOL    HW225878   2.307   1.608   6.895
 8327SOL     OW25879   0.581   5.440   5.331
 8327SOL    HW125880   0.666   5.391   5.351
 8327SOL    HW225881   0.602   5.536   5.309
 8328SOL     OW25882   1.074   0.509   0.379
 8328SOL    HW125883   0.987   0.460   0.378
 8328SOL    HW225884   1.077   0.573   0.303
 8329SOL     OW25885   1.802   2.359   5.267
 8329SOL    HW125886   1.860   2.433   5.232
 8329SOL    HW225887   1.714   2.398   5.297
 8330SOL     OW25888   3.156   6.902   0.180
 8330SOL    HW125889   3.248   6.891   0.219
 8330SOL    HW225890   3.153   6.857   0.091
 8331SOL     OW25891   2.111   2.126   6.206
 8331SOL    HW125892   2.127   2.037   6.249
 8331SOL    HW225893   2.101   2.196   6.277
 8332SOL     OW25894   5.586   3.974   0.762
 8332SOL    HW125895   5.564   3.945   0.855
 8332SOL    HW225896   5.668   3.927   0.731
 8333SOL     OW25897   2.864   4.730   6.399
 8333SOL    HW125898   2.849   4.802   6.466
 8333SOL    HW225899   2.807   4.747   6.318
 8334SOL     OW25900   3.320   2.671   5.330
 8334SOL    HW125901   3.348   2.635   5.241
 8334SOL    HW225902   3.279   2.597   5.384
 8335SOL     OW25903   5.549   3.318   6.370
 8335SOL    HW125904   5.472   3.276   6.322
 8335SOL    HW225905   5.556   3.414   6.343
 8336SOL     OW25906   1.316   4.674   3.815
 8336SOL    HW125907   1.307   4.729   3.898
 8336SOL    HW225908   1.295   4.731   3.735
 8337SOL     OW25909   5.933   0.446   4.193
 8337SOL    HW125910   5.840   0.410   4.188
 8337SOL    HW225911   5.998   0.372   4.173
 8338SOL     OW25912   2.880   5.496   1.462
 8338SOL    HW125913   2.958   5.554   1.441
 8338SOL    HW225914   2.892   5.457   1.553
 8339SOL     OW25915   6.729   0.532   2.035
 8339SOL    HW125916   6.656   0.504   1.972
 8339SOL    HW225917   6.690   0.580   2.113
 8340SOL     OW25918   5.955   2.603   6.397
 8340SOL    HW125919   5.962   2.592   6.496
 8340SOL    HW225920   5.863   2.577   6.367
 8341SOL     OW25921   3.219   6.900   1.003
 8341SOL    HW125922   3.174   6.946   1.080
 8341SOL    HW225923   3.255   6.812   1.034
 8342SOL     OW25924   4.102   1.059   1.030
 8342SOL    HW125925   4.003   1.053   1.034
 8342SOL    HW225926   4.142   0.977   1.072
 8343SOL     OW25927   4.565   6.020   2.845
 8343SOL    HW125928   4.547   6.100   2.902
 8343SOL    HW225929   4.544   6.042   2.750
 8344SOL     OW25930   2.084   4.564   5.685
 8344SOL    HW125931   2.064   4.650   5.638
 8344SOL    HW225932   2.169   4.526   5.650
 8345SOL     OW25933   6.296   0.389   4.204
 8345SOL    HW125934   6.222   0.359   4.143
 8345SOL    HW225935   6.285   0.487   4.223
 8346SOL     OW25936   5.922   4.219   3.411
 8346SOL    HW125937   5.930   4.136   3.467
 8346SOL    HW225938   5.990   4.285   3.440
 8347SOL     OW25939   1.394   1.524   6.406
 8347SOL    HW125940   1.466   1.532   6.475
 8347SOL    HW225941   1.405   1.439   6.355
 8348SOL     OW25942   3.526   5.947   1.055
 8348SOL    HW125943   3.606   5.892   1.031
 8348SOL    HW225944   3.472   5.899   1.125
 8349SOL     OW25945   4.367   5.379   1.402
 8349SOL    HW125946   4.314   5.330   1.472
 8349SOL    HW225947   4.389   5.471   1.435
 8350SOL     OW25948   2.180   0.451   6.468
 8350SOL    HW125949   2.118   0.422   6.541
 8350SOL    HW225950   2.271   0.467   6.507
 8351SOL     OW25951   6.789   3.125   3.110
 8351SOL    HW125952   6.852   3.194   3.073
 8351SOL    HW225953   6.803   3.117   3.208
 8352SOL     OW25954   2.609   6.554   6.153
 8352SOL    HW125955   2.653   6.641   6.134
 8352SOL    HW225956   2.678   6.489   6.187
 8353SOL     OW25957   0.538   5.592   2.606
 8353SOL    HW125958   0.586   5.661   2.551
 8353SOL    HW225959   0.444   5.583   2.573
 8354SOL     OW25960   4.660   2.442   3.739
 8354SOL    HW125961   4.755   2.411   3.750
 8354SOL    HW225962   4.600   2.363   3.726
 8355SOL     OW25963   3.350   4.771   6.157
 8355SOL    HW125964   3.370   4.757   6.253
 8355SOL    HW225965   3.339   4.683   6.111
 8356SOL     OW25966   3.105   3.137   1.495
 8356SOL    HW125967   3.090   3.153   1.398
 8356SOL    HW225968   3.037   3.186   1.548
 8357SOL     OW25969   2.719   7.022   4.430
 8357SOL    HW125970   2.636   6.968   4.438
 8357SOL    HW225971   2.695   0.095   4.425
 8358SOL     OW25972   6.987   0.263   4.414
 8358SOL    HW125973   6.895   0.269   4.375
 8358SOL    HW225974   0.029   0.302   4.350
 8359SOL     OW25975   5.062   2.006   5.173
 8359SOL    HW125976   5.096   2.099   5.160
 8359SOL    HW225977   5.056   1.987   5.271
 8360SOL     OW25978   2.769   0.502   2.114
 8360SOL    HW125979   2.856   0.536   2.151
 8360SOL    HW225980   2.772   0.509   2.014
 8361SOL     OW25981   5.049   1.028   0.291
 8361SOL    HW125982   5.113   1.067   0.357
 8361SOL    HW225983   5.076   0.935   0.268
 8362SOL     OW25984   0.846   4.337   1.642
 8362SOL    HW125985   0.927   4.392   1.664
 8362SOL    HW225986   0.843   4.257   1.702
 8363SOL     OW25987   2.312   2.010   1.031
 8363SOL    HW125988   2.285   2.096   0.987
 8363SOL    HW225989   2.251   1.991   1.108
 8364SOL     OW25990   0.275   1.224   3.517
 8364SOL    HW125991   0.187   1.260   3.485
 8364SOL    HW225992   0.276   1.222   3.617
 8365SOL     OW25993   2.187   3.012   1.038
 8365SOL    HW125994   2.253   3.068   1.087
 8365SOL    HW225995   2.096   3.024   1.079
 8366SOL     OW25996   5.401   5.882   1.769
 8366SOL    HW125997   5.470   5.836   1.712
 8366SOL    HW225998   5.314   5.833   1.762
 8367SOL     OW25999   1.962   4.435   3.548
 8367SOL    HW126000   1.893   4.506   3.544
 8367SOL    HW226001   2.028   4.455   3.621
 8368SOL     OW26002   0.601   3.712   6.310
 8368SOL    HW126003   0.509   3.698   6.272
 8368SOL    HW226004   0.595   3.771   6.390
 8369SOL     OW26005   0.942   0.214   0.499
 8369SOL    HW126006   1.020   0.245   0.553
 8369SOL    HW226007   0.876   0.168   0.559
 8370SOL     OW26008   3.024   2.562   0.611
 8370SOL    HW126009   3.114   2.589   0.646
 8370SOL    HW226010   2.992   2.482   0.661
 8371SOL     OW26011   2.703   4.258   5.619
 8371SOL    HW126012   2.724   4.355   5.611
 8371SOL    HW226013   2.774   4.205   5.572
 8372SOL     OW26014   1.647   6.805   2.607
 8372SOL    HW126015   1.676   6.792   2.702
 8372SOL    HW226016   1.551   6.832   2.605
 8373SOL     OW26017   5.334   0.938   4.342
 8373SOL    HW126018   5.322   0.841   4.318
 8373SOL    HW226019   5.303   0.953   4.436
 8374SOL     OW26020   0.826   1.663   3.357
 8374SOL    HW126021   0.891   1.637   3.285
 8374SOL    HW226022   0.828   1.762   3.369
 8375SOL     OW26023   1.867   2.637   5.778
 8375SOL    HW126024   1.820   2.636   5.690
 8375SOL    HW226025   1.802   2.614   5.851
 8376SOL     OW26026   0.436   1.530   3.720
 8376SOL    HW126027   0.465   1.577   3.637
 8376SOL    HW226028   0.340   1.501   3.711
 8377SOL     OW26029   3.369   5.142   1.253
 8377SOL    HW126030   3.302   5.200   1.300
 8377SOL    HW226031   3.360   5.154   1.154
 8378SOL     OW26032   4.416   5.517   4.902
 8378SOL    HW126033   4.451   5.565   4.982
 8378SOL    HW226034   4.347   5.451   4.930
 8379SOL     OW26035   5.492   2.863   2.157
 8379SOL    HW126036   5.563   2.902   2.098
 8379SOL    HW226037   5.410   2.919   2.151
 8380SOL     OW26038   1.827   5.527   2.998
 8380SOL    HW126039   1.802   5.457   2.931
 8380SOL    HW226040   1.781   5.613   2.976
 8381SOL     OW26041   1.316   2.037   2.902
 8381SOL    HW126042   1.262   2.102   2.849
 8381SOL    HW226043   1.407   2.075   2.920
 8382SOL     OW26044   1.187   0.124   1.582
 8382SOL    HW126045   1.089   0.134   1.596
 8382SOL    HW226046   1.232   0.113   1.671
 8383SOL     OW26047   2.645   0.209   4.805
 8383SOL    HW126048   2.649   0.305   4.777
 8383SOL    HW226049   2.683   0.199   4.897
 8384SOL     OW26050   0.303   3.522   3.681
 8384SOL    HW126051   0.227   3.579   3.649
 8384SOL    HW226052   0.279   3.425   3.670
 8385SOL     OW26053   4.572   2.496   2.045
 8385SOL    HW126054   4.532   2.423   2.101
 8385SOL    HW226055   4.607   2.568   2.105
 8386SOL     OW26056   0.037   5.411   1.761
 8386SOL    HW126057   0.106   5.476   1.728
 8386SOL    HW226058   6.989   5.401   1.692
 8387SOL     OW26059   0.382   1.849   3.451
 8387SOL    HW126060   0.365   1.779   3.381
 8387SOL    HW226061   0.308   1.847   3.519
 8388SOL     OW26062   3.793   5.709   1.548
 8388SOL    HW126063   3.746   5.663   1.473
 8388SOL    HW226064   3.879   5.663   1.567
 8389SOL     OW26065   1.715   2.375   4.506
 8389SOL    HW126066   1.740   2.376   4.409
 8389SOL    HW226067   1.735   2.464   4.547
 8390SOL     OW26068   2.286   0.205   6.108
 8390SOL    HW126069   2.222   0.129   6.118
 8390SOL    HW226070   2.242   0.290   6.139
 8391SOL     OW26071   4.827   6.066   0.719
 8391SOL    HW126072   4.848   6.162   0.702
 8391SOL    HW226073   4.804   6.053   0.815
 8392SOL     OW26074   4.045   5.122   0.056
 8392SOL    HW126075   4.033   5.161   0.148
 8392SOL    HW226076   4.099   5.038   0.063
 8393SOL     OW26077   1.458   6.008   1.752
 8393SOL    HW126078   1.539   5.970   1.797
 8393SOL    HW226079   1.483   6.090   1.701
 8394SOL     OW26080   1.898   1.051   3.714
 8394SOL    HW126081   1.805   1.052   3.677
 8394SOL    HW226082   1.921   1.142   3.749
 8395SOL     OW26083   2.317   5.826   6.359
 8395SOL    HW126084   2.234   5.799   6.408
 8395SOL    HW226085   2.347   5.752   6.300
 8396SOL     OW26086   4.490   2.474   0.891
 8396SOL    HW126087   4.485   2.572   0.910
 8396SOL    HW226088   4.583   2.450   0.865
 8397SOL     OW26089   0.891   4.442   3.229
 8397SOL    HW126090   0.906   4.366   3.292
 8397SOL    HW226091   0.906   4.410   3.135
 8398SOL     OW26092   5.371   1.384   0.173
 8398SOL    HW126093   5.324   1.313   0.226
 8398SOL    HW226094   5.307   1.459   0.155
 8399SOL     OW26095   5.770   6.483   5.260
 8399SOL    HW126096   5.791   6.547   5.186
 8399SOL    HW226097   5.829   6.403   5.253
 8400SOL     OW26098   6.270   6.336   3.615
 8400SOL    HW126099   6.322   6.325   3.530
 8400SOL    HW226100   6.245   6.433   3.625
 8401SOL     OW26101   2.880   3.606   5.094
 8401SOL    HW126102   2.979   3.615   5.101
 8401SOL    HW226103   2.841   3.692   5.062
 8402SOL     OW26104   4.772   0.821   5.416
 8402SOL    HW126105   4.742   0.782   5.504
 8402SOL    HW226106   4.781   0.748   5.349
 8403SOL     OW26107   1.008   2.290   6.084
 8403SOL    HW126108   0.928   2.327   6.035
 8403SOL    HW226109   0.976   2.240   6.165
 8404SOL     OW26110   4.675   4.910   5.621
 8404SOL    HW126111   4.743   4.932   5.692
 8404SOL    HW226112   4.614   4.838   5.655
 8405SOL     OW26113   1.212   2.952   5.692
 8405SOL    HW126114   1.192   3.011   5.771
 8405SOL    HW226115   1.168   2.863   5.704
 8406SOL     OW26116   5.735   3.622   1.406
 8406SOL    HW126117   5.756   3.633   1.503
 8406SOL    HW226118   5.740   3.711   1.361
 8407SOL     OW26119   4.889   3.750   2.398
 8407SOL    HW126120   4.845   3.838   2.414
 8407SOL    HW226121   4.886   3.729   2.300
 8408SOL     OW26122   4.742   4.171   4.110
 8408SOL    HW126123   4.782   4.094   4.061
 8408SOL    HW226124   4.643   4.167   4.104
 8409SOL     OW26125   2.148   2.040   4.033
 8409SOL    HW126126   2.108   2.071   3.947
 8409SOL    HW226127   2.226   1.981   4.014
 8410SOL     OW26128   2.162   5.169   2.462
 8410SOL    HW126129   2.241   5.179   2.523
 8410SOL    HW226130   2.182   5.099   2.393
 8411SOL     OW26131   1.510   3.253   3.144
 8411SOL    HW126132   1.505   3.293   3.053
 8411SOL    HW226133   1.575   3.176   3.143
 8412SOL     OW26134   6.005   2.879   2.158
 8412SOL    HW126135   5.947   2.932   2.220
 8412SOL    HW226136   5.958   2.795   2.131
 8413SOL     OW26137   2.313   5.264   1.383
 8413SOL    HW126138   2.271   5.296   1.297
 8413SOL    HW226139   2.374   5.188   1.363
 8414SOL     OW26140   5.648   0.616   4.077
 8414SOL    HW126141   5.714   0.684   4.107
 8414SOL    HW226142   5.669   0.588   3.983
 8415SOL     OW26143   0.267   4.907   1.015
 8415SOL    HW126144   0.272   4.899   1.114
 8415SOL    HW226145   0.322   4.984   0.984
 8416SOL     OW26146   4.722   4.654   2.821
 8416SOL    HW126147   4.679   4.681   2.735
 8416SOL    HW226148   4.803   4.598   2.801
 8417SOL     OW26149   1.150   5.240   0.134
 8417SOL    HW126150   1.145   5.340   0.137
 8417SOL    HW226151   1.068   5.201   0.176
 8418SOL     OW26152   5.299   5.642   2.740
 8418SOL    HW126153   5.215   5.678   2.700
 8418SOL    HW226154   5.325   5.557   2.693
 8419SOL     OW26155   3.815   1.012   3.585
 8419SOL    HW126156   3.835   1.035   3.489
 8419SOL    HW226157   3.828   0.914   3.599
 8420SOL     OW26158   4.729   1.665   5.256
 8420SOL    HW126159   4.688   1.754   5.233
 8420SOL    HW226160   4.828   1.673   5.256
 8421SOL     OW26161   0.690   1.002   0.738
 8421SOL    HW126162   0.622   1.074   0.748
 8421SOL    HW226163   0.738   1.013   0.651
 8422SOL     OW26164   2.514   0.461   1.780
 8422SOL    HW126165   2.608   0.483   1.804
 8422SOL    HW226166   2.463   0.437   1.863
 8423SOL     OW26167   2.201   4.549   1.016
 8423SOL    HW126168   2.168   4.521   1.107
 8423SOL    HW226169   2.168   4.484   0.947
 8424SOL     OW26170   2.961   2.292   1.620
 8424SOL    HW126171   2.913   2.322   1.703
 8424SOL    HW226172   3.018   2.366   1.586
 8425SOL     OW26173   0.628   4.224   6.016
 8425SOL    HW126174   0.693   4.211   5.942
 8425SOL    HW226175   0.591   4.135   6.044
 8426SOL     OW26176   3.586   3.265   2.574
 8426SOL    HW126177   3.653   3.304   2.510
 8426SOL    HW226178   3.496   3.263   2.530
 8427SOL     OW26179   2.549   1.798   7.004
 8427SOL    HW126180   2.571   1.864   6.932
 8427SOL    HW226181   2.632   1.776   0.031
 8428SOL     OW26182   6.572   3.788   0.473
 8428SOL    HW126183   6.605   3.873   0.512
 8428SOL    HW226184   6.647   3.721   0.468
 8429SOL     OW26185   1.307   6.776   3.006
 8429SOL    HW126186   1.261   6.815   2.926
 8429SOL    HW226187   1.262   6.809   3.089
 8430SOL     OW26188   3.850   5.796   2.682
 8430SOL    HW126189   3.807   5.876   2.726
 8430SOL    HW226190   3.949   5.800   2.696
 8431SOL     OW26191   2.858   3.430   2.583
 8431SOL    HW126192   2.908   3.453   2.667
 8431SOL    HW226193   2.767   3.471   2.586
 8432SOL     OW26194   4.754   6.341   0.210
 8432SOL    HW126195   4.658   6.364   0.227
 8432SOL    HW226196   4.778   6.365   0.116
 8433SOL     OW26197   6.907   1.161   3.744
 8433SOL    HW126198   6.987   1.216   3.723
 8433SOL    HW226199   6.825   1.219   3.746
 8434SOL     OW26200   5.614   6.746   6.720
 8434SOL    HW126201   5.632   6.651   6.744
 8434SOL    HW226202   5.695   6.802   6.741
 8435SOL     OW26203   4.658   2.787   1.110
 8435SOL    HW126204   4.589   2.810   1.042
 8435SOL    HW226205   4.673   2.688   1.111
 8436SOL     OW26206   3.044   4.257   1.739
 8436SOL    HW126207   2.980   4.314   1.791
 8436SOL    HW226208   2.993   4.194   1.681
 8437SOL     OW26209   6.847   2.552   1.286
 8437SOL    HW126210   6.903   2.496   1.347
 8437SOL    HW226211   6.816   2.634   1.336
 8438SOL     OW26212   2.233   5.755   1.282
 8438SOL    HW126213   2.223   5.658   1.258
 8438SOL    HW226214   2.224   5.765   1.381
 8439SOL     OW26215   5.626   0.420   1.843
 8439SOL    HW126216   5.672   0.455   1.760
 8439SOL    HW226217   5.642   0.322   1.850
 8440SOL     OW26218   1.335   3.169   4.214
 8440SOL    HW126219   1.257   3.143   4.155
 8440SOL    HW226220   1.352   3.267   4.205
 8441SOL     OW26221   4.242   6.127   1.262
 8441SOL    HW126222   4.289   6.156   1.346
 8441SOL    HW226223   4.146   6.111   1.282
 8442SOL     OW26224   2.247   2.258   0.889
 8442SOL    HW126225   2.293   2.344   0.867
 8442SOL    HW226226   2.166   2.249   0.831
 8443SOL     OW26227   0.209   2.298   1.360
 8443SOL    HW126228   0.259   2.293   1.447
 8443SOL    HW226229   0.188   2.206   1.328
 8444SOL     OW26230   5.207   2.118   3.447
 8444SOL    HW126231   5.248   2.106   3.357
 8444SOL    HW226232   5.160   2.206   3.450
 8445SOL     OW26233   4.789   5.502   2.204
 8445SOL    HW126234   4.733   5.576   2.244
 8445SOL    HW226235   4.886   5.525   2.213
 8446SOL     OW26236   6.525   3.625   3.015
 8446SOL    HW126237   6.592   3.672   2.956
 8446SOL    HW226238   6.542   3.526   3.012
 8447SOL     OW26239   4.813   4.360   1.359
 8447SOL    HW126240   4.811   4.460   1.356
 8447SOL    HW226241   4.728   4.324   1.320
 8448SOL     OW26242   1.986   4.237   5.573
 8448SOL    HW126243   1.972   4.279   5.662
 8448SOL    HW226244   2.083   4.219   5.559
 8449SOL     OW26245   1.013   0.481   5.110
 8449SOL    HW126246   1.003   0.384   5.133
 8449SOL    HW226247   0.943   0.534   5.158
 8450SOL     OW26248   1.924   5.201   0.550
 8450SOL    HW126249   1.876   5.116   0.529
 8450SOL    HW226250   1.872   5.253   0.618
 8451SOL     OW26251   2.903   4.286   0.993
 8451SOL    HW126252   2.839   4.214   0.964
 8451SOL    HW226253   2.853   4.355   1.046
 8452SOL     OW26254   6.798   5.952   2.070
 8452SOL    HW126255   6.759   5.865   2.042
 8452SOL    HW226256   6.752   6.027   2.022
 8453SOL     OW26257   0.203   4.890   5.266
 8453SOL    HW126258   0.174   4.801   5.232
 8453SOL    HW226259   0.266   4.932   5.200
 8454SOL     OW26260   2.198   0.354   4.822
 8454SOL    HW126261   2.263   0.278   4.814
 8454SOL    HW226262   2.112   0.329   4.778
 8455SOL     OW26263   6.492   2.903   0.618
 8455SOL    HW126264   6.559   2.855   0.560
 8455SOL    HW226265   6.536   2.983   0.659
 8456SOL     OW26266   5.699   5.062   3.703
 8456SOL    HW126267   5.794   5.040   3.678
 8456SOL    HW226268   5.697   5.118   3.785
 8457SOL     OW26269   6.102   6.157   6.106
 8457SOL    HW126270   6.096   6.212   6.023
 8457SOL    HW226271   6.113   6.060   6.082
 8458SOL     OW26272   1.418   1.911   0.921
 8458SOL    HW126273   1.424   1.889   1.018
 8458SOL    HW226274   1.489   1.976   0.896
 8459SOL     OW26275   2.739   5.069   3.266
 8459SOL    HW126276   2.731   5.056   3.167
 8459SOL    HW226277   2.739   5.167   3.287
 8460SOL     OW26278   3.628   1.226   1.518
 8460SOL    HW126279   3.585   1.315   1.502
 8460SOL    HW226280   3.695   1.234   1.591
 8461SOL     OW26281   5.492   4.186   3.291
 8461SOL    HW126282   5.423   4.128   3.248
 8461SOL    HW226283   5.534   4.137   3.367
 8462SOL     OW26284   1.885   3.886   0.883
 8462SOL    HW126285   1.933   3.847   0.961
 8462SOL    HW226286   1.952   3.913   0.813
 8463SOL     OW26287   0.410   6.987   1.285
 8463SOL    HW126288   0.411   6.952   1.378
 8463SOL    HW226289   0.369   6.919   1.224
 8464SOL     OW26290   0.311   3.271   6.400
 8464SOL    HW126291   0.224   3.240   6.437
 8464SOL    HW226292   0.331   3.363   6.432
 8465SOL     OW26293   5.504   4.747   0.814
 8465SOL    HW126294   5.438   4.677   0.787
 8465SOL    HW226295   5.596   4.717   0.790
 8466SOL     OW26296   0.348   1.213   5.042
 8466SOL    HW126297   0.276   1.281   5.056
 8466SOL    HW226298   0.437   1.258   5.048
 8467SOL     OW26299   3.123   1.157   0.285
 8467SOL    HW126300   3.155   1.240   0.238
 8467SOL    HW226301   3.124   1.173   0.384
 8468SOL     OW26302   6.067   4.040   0.590
 8468SOL    HW126303   6.008   3.970   0.630
 8468SOL    HW226304   6.162   4.020   0.614
 8469SOL     OW26305   3.636   2.983   5.043
 8469SOL    HW126306   3.669   2.973   4.949
 8469SOL    HW226307   3.543   2.947   5.050
 8470SOL     OW26308   1.999   5.417   1.448
 8470SOL    HW126309   2.025   5.355   1.374
 8470SOL    HW226310   1.928   5.375   1.504
 8471SOL     OW26311   4.264   1.349   3.543
 8471SOL    HW126312   4.229   1.365   3.451
 8471SOL    HW226313   4.232   1.260   3.577
 8472SOL     OW26314   5.816   1.797   6.655
 8472SOL    HW126315   5.899   1.845   6.626
 8472SOL    HW226316   5.806   1.713   6.602
 8473SOL     OW26317   4.859   4.655   5.897
 8473SOL    HW126318   4.856   4.613   5.987
 8473SOL    HW226319   4.822   4.593   5.829
 8474SOL     OW26320   3.448   3.314   5.822
 8474SOL    HW126321   3.436   3.215   5.813
 8474SOL    HW226322   3.498   3.335   5.906
 8475SOL     OW26323   0.641   2.086   2.653
 8475SOL    HW126324   0.578   2.049   2.721
 8475SOL    HW226325   0.724   2.117   2.697
 8476SOL     OW26326   6.475   0.847   2.426
 8476SOL    HW126327   6.471   0.933   2.375
 8476SOL    HW226328   6.497   0.772   2.363
 8477SOL     OW26329   5.552   6.908   1.114
 8477SOL    HW126330   5.628   6.942   1.058
 8477SOL    HW226331   5.469   6.903   1.058
 8478SOL     OW26332   1.573   6.967   6.794
 8478SOL    HW126333   1.646   6.909   6.829
 8478SOL    HW226334   1.484   6.928   6.820
 8479SOL     OW26335   1.073   2.715   0.122
 8479SOL    HW126336   1.136   2.746   0.194
 8479SOL    HW226337   1.017   2.641   0.157
 8480SOL     OW26338   3.118   4.352   1.475
 8480SOL    HW126339   3.111   4.429   1.538
 8480SOL    HW226340   3.136   4.268   1.527
 8481SOL     OW26341   4.939   3.493   2.488
 8481SOL    HW126342   4.946   3.588   2.459
 8481SOL    HW226343   5.019   3.442   2.456
 8482SOL     OW26344   4.864   0.501   5.924
 8482SOL    HW126345   4.838   0.509   6.021
 8482SOL    HW226346   4.834   0.583   5.875
 8483SOL     OW26347   4.432   5.295   3.306
 8483SOL    HW126348   4.397   5.337   3.222
 8483SOL    HW226349   4.472   5.366   3.364
 8484SOL     OW26350   6.597   6.731   5.088
 8484SOL    HW126351   6.536   6.776   5.153
 8484SOL    HW226352   6.563   6.639   5.068
 8485SOL     OW26353   3.860   0.518   5.734
 8485SOL    HW126354   3.819   0.608   5.720
 8485SOL    HW226355   3.945   0.528   5.787
 8486SOL     OW26356   4.907   2.517   4.128
 8486SOL    HW126357   4.972   2.464   4.183
 8486SOL    HW226358   4.821   2.466   4.120
 8487SOL     OW26359   7.020   2.149   6.085
 8487SOL    HW126360   0.055   2.070   6.097
 8487SOL    HW226361   6.925   2.119   6.074
 8488SOL     OW26362   4.031   4.884   3.019
 8488SOL    HW126363   4.021   4.956   2.950
 8488SOL    HW226364   3.944   4.871   3.067
 8489SOL     OW26365   6.681   1.971   2.110
 8489SOL    HW126366   6.758   1.910   2.127
 8489SOL    HW226367   6.666   2.029   2.190
 8490SOL     OW26368   3.457   6.437   0.564
 8490SOL    HW126369   3.497   6.354   0.525
 8490SOL    HW226370   3.530   6.497   0.597
 8491SOL     OW26371   3.414   5.944   2.434
 8491SOL    HW126372   3.396   6.042   2.423
 8491SOL    HW226373   3.471   5.929   2.515
 8492SOL     OW26374   5.391   6.550   4.075
 8492SOL    HW126375   5.298   6.585   4.064
 8492SOL    HW226376   5.445   6.573   3.995
 8493SOL     OW26377   5.178   0.568   5.476
 8493SOL    HW126378   5.186   0.532   5.383
 8493SOL    HW226379   5.189   0.493   5.542
 8494SOL     OW26380   0.221   3.462   2.307
 8494SOL    HW126381   0.251   3.393   2.242
 8494SOL    HW226382   0.166   3.420   2.379
 8495SOL     OW26383   5.369   6.034   5.435
 8495SOL    HW126384   5.432   5.983   5.377
 8495SOL    HW226385   5.396   6.130   5.436
 8496SOL     OW26386   4.172   1.949   2.771
 8496SOL    HW126387   4.140   1.997   2.852
 8496SOL    HW226388   4.269   1.969   2.757
 8497SOL     OW26389   6.123   0.694   3.393
 8497SOL    HW126390   6.132   0.692   3.294
 8497SOL    HW226391   6.211   0.674   3.435
 8498SOL     OW26392   4.682   6.384   4.084
 8498SOL    HW126393   4.723   6.470   4.115
 8498SOL    HW226394   4.748   6.309   4.097
 8499SOL     OW26395   6.053   6.994   5.407
 8499SOL    HW126396   6.066   7.020   5.311
 8499SOL    HW226397   6.006   6.905   5.411
 8500SOL     OW26398   1.330   0.667   6.535
 8500SOL    HW126399   1.391   0.596   6.572
 8500SOL    HW226400   1.289   0.633   6.450
 8501SOL     OW26401   3.423   1.022   5.438
 8501SOL    HW126402   3.361   0.966   5.384
 8501SOL    HW226403   3.405   1.007   5.536
 8502SOL     OW26404   6.892   2.884   7.011
 8502SOL    HW126405   6.825   2.893   0.060
 8502SOL    HW226406   6.984   2.894   0.023
 8503SOL     OW26407   4.552   1.690   5.577
 8503SOL    HW126408   4.598   1.639   5.504
 8503SOL    HW226409   4.620   1.734   5.635
 8504SOL     OW26410   1.295   0.528   3.345
 8504SOL    HW126411   1.221   0.572   3.396
 8504SOL    HW226412   1.351   0.597   3.301
 8505SOL     OW26413   6.114   2.345   2.485
 8505SOL    HW126414   6.052   2.360   2.562
 8505SOL    HW226415   6.125   2.430   2.433
 8506SOL     OW26416   1.917   0.909   5.087
 8506SOL    HW126417   1.854   0.863   5.149
 8506SOL    HW226418   1.953   0.843   5.021
 8507SOL     OW26419   4.258   4.958   6.131
 8507SOL    HW126420   4.314   5.038   6.109
 8507SOL    HW226421   4.270   4.934   6.227
 8508SOL     OW26422   3.837   0.395   6.429
 8508SOL    HW126423   3.826   0.462   6.501
 8508SOL    HW226424   3.781   0.315   6.449
 8509SOL     OW26425   4.526   2.046   2.424
 8509SOL    HW126426   4.585   2.110   2.472
 8509SOL    HW226427   4.469   2.095   2.358
 8510SOL     OW26428   0.867   1.945   4.688
 8510SOL    HW126429   0.851   1.915   4.782
 8510SOL    HW226430   0.827   2.036   4.674
 8511SOL     OW26431   5.784   2.077   4.137
 8511SOL    HW126432   5.752   1.983   4.149
 8511SOL    HW226433   5.712   2.131   4.093
 8512SOL     OW26434   1.848   6.540   5.846
 8512SOL    HW126435   1.783   6.574   5.913
 8512SOL    HW226436   1.941   6.567   5.872
 8513SOL     OW26437   4.439   5.385   6.850
 8513SOL    HW126438   4.429   5.312   6.917
 8513SOL    HW226439   4.449   5.473   6.896
 8514SOL     OW26440   3.739   5.896   4.357
 8514SOL    HW126441   3.737   5.945   4.270
 8514SOL    HW226442   3.673   5.821   4.354
 8515SOL     OW26443   5.379   3.094   1.427
 8515SOL    HW126444   5.298   3.123   1.478
 8515SOL    HW226445   5.432   3.174   1.401
 8516SOL     OW26446   0.092   1.897   1.440
 8516SOL    HW126447   0.092   1.803   1.408
 8516SOL    HW226448   0.095   1.898   1.540
 8517SOL     OW26449   1.235   3.980   4.413
 8517SOL    HW126450   1.211   4.077   4.407
 8517SOL    HW226451   1.178   3.935   4.481
 8518SOL     OW26452   3.301   5.964   0.869
 8518SOL    HW126453   3.247   6.036   0.911
 8518SOL    HW226454   3.396   5.972   0.898
 8519SOL     OW26455   2.648   5.530   3.524
 8519SOL    HW126456   2.576   5.520   3.593
 8519SOL    HW226457   2.700   5.445   3.518
 8520SOL     OW26458   3.644   5.871   6.687
 8520SOL    HW126459   3.717   5.869   6.755
 8520SOL    HW226460   3.660   5.946   6.623
 8521SOL     OW26461   1.186   0.759   2.355
 8521SOL    HW126462   1.179   0.855   2.327
 8521SOL    HW226463   1.160   0.752   2.452
 8522SOL     OW26464   1.900   6.474   4.419
 8522SOL    HW126465   1.831   6.494   4.349
 8522SOL    HW226466   1.990   6.501   4.386
 8523SOL     OW26467   1.700   5.838   6.989
 8523SOL    HW126468   1.789   5.865   0.002
 8523SOL    HW226469   1.677   5.897   6.912
 8524SOL     OW26470   1.692   1.607   0.324
 8524SOL    HW126471   1.749   1.563   0.394
 8524SOL    HW226472   1.746   1.677   0.277
 8525SOL     OW26473   5.384   4.705   4.012
 8525SOL    HW126474   5.291   4.685   4.043
 8525SOL    HW226475   5.381   4.766   3.933
 8526SOL     OW26476   0.584   3.647   2.040
 8526SOL    HW126477   0.674   3.613   2.067
 8526SOL    HW226478   0.524   3.648   2.119
 8527SOL     OW26479   4.827   0.580   4.671
 8527SOL    HW126480   4.881   0.618   4.746
 8527SOL    HW226481   4.813   0.650   4.601
 8528SOL     OW26482   5.457   0.430   0.537
 8528SOL    HW126483   5.530   0.469   0.592
 8528SOL    HW226484   5.474   0.333   0.523
 8529SOL     OW26485   6.996   0.073   4.848
 8529SOL    HW126486   6.914   0.069   4.906
 8529SOL    HW226487   0.052   0.045   4.901
 8530SOL     OW26488   2.165   4.624   6.228
 8530SOL    HW126489   2.177   4.574   6.142
 8530SOL    HW226490   2.127   4.715   6.209
 8531SOL     OW26491   4.000   5.550   2.383
 8531SOL    HW126492   4.024   5.556   2.480
 8531SOL    HW226493   3.900   5.540   2.373
 8532SOL     OW26494   1.587   4.290   6.856
 8532SOL    HW126495   1.627   4.261   6.943
 8532SOL    HW226496   1.633   4.243   6.780
 8533SOL     OW26497   3.104   6.949   5.524
 8533SOL    HW126498   3.184   6.896   5.551
 8533SOL    HW226499   3.042   6.960   5.602
 8534SOL     OW26500   2.421   2.116   0.552
 8534SOL    HW126501   2.453   2.139   0.644
 8534SOL    HW226502   2.435   2.018   0.535
 8535SOL     OW26503   0.391   3.404   6.006
 8535SOL    HW126504   0.457   3.413   6.080
 8535SOL    HW226505   0.360   3.309   6.000
 8536SOL     OW26506   6.397   0.445   5.885
 8536SOL    HW126507   6.464   0.428   5.812
 8536SOL    HW226508   6.329   0.511   5.853
 8537SOL     OW26509   3.806   6.500   3.244
 8537SOL    HW126510   3.772   6.438   3.315
 8537SOL    HW226511   3.749   6.490   3.162
 8538SOL     OW26512   4.178   1.062   5.147
 8538SOL    HW126513   4.230   1.088   5.065
 8538SOL    HW226514   4.211   0.974   5.181
 8539SOL     OW26515   0.670   3.105   3.371
 8539SOL    HW126516   0.668   3.126   3.468
 8539SOL    HW226517   0.759   3.128   3.333
 8540SOL     OW26518   4.833   6.177   5.925
 8540SOL    HW126519   4.778   6.105   5.967
 8540SOL    HW226520   4.929   6.149   5.922
 8541SOL     OW26521   3.025   6.201   5.422
 8541SOL    HW126522   3.034   6.214   5.323
 8541SOL    HW226523   3.062   6.112   5.448
 8542SOL     OW26524   2.055   4.857   6.151
 8542SOL    HW126525   1.993   4.892   6.221
 8542SOL    HW226526   2.124   4.926   6.131
 8543SOL     OW26527   3.520   1.747   5.735
 8543SOL    HW126528   3.597   1.794   5.779
 8543SOL    HW226529   3.459   1.814   5.694
 8544SOL     OW26530   5.520   3.445   5.434
 8544SOL    HW126531   5.613   3.452   5.396
 8544SOL    HW226532   5.454   3.459   5.360
 8545SOL     OW26533   2.089   0.344   5.835
 8545SOL    HW126534   2.020   0.305   5.773
 8545SOL    HW226535   2.170   0.285   5.835
 8546SOL     OW26536   2.902   1.452   3.925
 8546SOL    HW126537   2.960   1.465   4.006
 8546SOL    HW226538   2.818   1.505   3.935
 8547SOL     OW26539   5.590   5.444   5.435
 8547SOL    HW126540   5.519   5.401   5.491
 8547SOL    HW226541   5.680   5.407   5.460
 8548SOL     OW26542   1.472   4.140   4.296
 8548SOL    HW126543   1.420   4.107   4.375
 8548SOL    HW226544   1.463   4.074   4.221
 8549SOL     OW26545   3.248   0.714   3.601
 8549SOL    HW126546   3.261   0.643   3.532
 8549SOL    HW226547   3.241   0.803   3.556
 8550SOL     OW26548   0.379   3.710   4.964
 8550SOL    HW126549   0.464   3.659   4.971
 8550SOL    HW226550   0.381   3.787   5.028
 8551SOL     OW26551   3.859   1.493   3.643
 8551SOL    HW126552   3.821   1.513   3.553
 8551SOL    HW226553   3.790   1.510   3.713
 8552SOL     OW26554   4.230   1.601   1.984
 8552SOL    HW126555   4.152   1.654   2.015
 8552SOL    HW226556   4.302   1.662   1.950
 8553SOL     OW26557   5.119   3.778   0.407
 8553SOL    HW126558   5.205   3.798   0.360
 8553SOL    HW226559   5.123   3.688   0.449
 8554SOL     OW26560   0.995   1.322   6.827
 8554SOL    HW126561   1.091   1.332   6.800
 8554SOL    HW226562   0.941   1.396   6.789
 8555SOL     OW26563   3.385   1.522   3.354
 8555SOL    HW126564   3.396   1.504   3.257
 8555SOL    HW226565   3.288   1.514   3.379
 8556SOL     OW26566   0.227   4.367   5.147
 8556SOL    HW126567   0.173   4.434   5.197
 8556SOL    HW226568   0.191   4.275   5.163
 8557SOL     OW26569   6.389   0.894   0.728
 8557SOL    HW126570   6.322   0.935   0.666
 8557SOL    HW226571   6.398   0.796   0.708
 8558SOL     OW26572   2.577   6.147   3.429
 8558SOL    HW126573   2.535   6.214   3.489
 8558SOL    HW226574   2.577   6.057   3.473
 8559SOL     OW26575   1.029   3.351   3.519
 8559SOL    HW126576   1.093   3.380   3.590
 8559SOL    HW226577   0.964   3.425   3.500
 8560SOL     OW26578   3.444   4.318   1.449
 8560SOL    HW126579   3.439   4.218   1.443
 8560SOL    HW226580   3.366   4.352   1.503
 8561SOL     OW26581   4.055   0.997   2.403
 8561SOL    HW126582   3.976   1.003   2.465
 8561SOL    HW226583   4.131   0.954   2.451
 8562SOL     OW26584   5.241   2.685   6.531
 8562SOL    HW126585   5.256   2.733   6.617
 8562SOL    HW226586   5.256   2.749   6.455
 8563SOL     OW26587   0.793   4.563   2.788
 8563SOL    HW126588   0.818   4.660   2.788
 8563SOL    HW226589   0.875   4.507   2.779
 8564SOL     OW26590   4.315   6.238   0.002
 8564SOL    HW126591   4.225   6.265   6.991
 8564SOL    HW226592   4.335   6.144   7.000
 8565SOL     OW26593   1.321   4.969   1.415
 8565SOL    HW126594   1.373   5.053   1.406
 8565SOL    HW226595   1.240   4.986   1.472
 8566SOL     OW26596   2.745   1.118   3.445
 8566SOL    HW126597   2.763   1.019   3.440
 8566SOL    HW226598   2.646   1.133   3.452
 8567SOL     OW26599   1.665   3.202   0.780
 8567SOL    HW126600   1.650   3.113   0.737
 8567SOL    HW226601   1.613   3.272   0.732
 8568SOL     OW26602   5.660   6.631   5.733
 8568SOL    HW126603   5.661   6.730   5.748
 8568SOL    HW226604   5.680   6.584   5.820
 8569SOL     OW26605   5.240   1.245   6.422
 8569SOL    HW126606   5.188   1.314   6.471
 8569SOL    HW226607   5.211   1.242   6.326
 8570SOL     OW26608   1.744   2.182   3.878
 8570SOL    HW126609   1.797   2.256   3.835
 8570SOL    HW226610   1.751   2.100   3.821
 8571SOL     OW26611   1.284   1.247   3.578
 8571SOL    HW126612   1.244   1.189   3.506
 8571SOL    HW226613   1.377   1.216   3.597
 8572SOL     OW26614   2.630   3.548   5.846
 8572SOL    HW126615   2.701   3.494   5.800
 8572SOL    HW226616   2.570   3.589   5.777
 8573SOL     OW26617   1.541   5.889   6.485
 8573SOL    HW126618   1.582   5.809   6.441
 8573SOL    HW226619   1.476   5.932   6.423
 8574SOL     OW26620   5.682   2.151   5.679
 8574SOL    HW126621   5.693   2.167   5.777
 8574SOL    HW226622   5.630   2.226   5.638
 8575SOL     OW26623   2.563   6.234   4.474
 8575SOL    HW126624   2.492   6.248   4.405
 8575SOL    HW226625   2.524   6.184   4.552
 8576SOL     OW26626   1.561   3.678   4.989
 8576SOL    HW126627   1.525   3.743   4.922
 8576SOL    HW226628   1.490   3.656   5.056
 8577SOL     OW26629   1.726   0.993   0.501
 8577SOL    HW126630   1.697   1.057   0.571
 8577SOL    HW226631   1.756   0.908   0.544
 8578SOL     OW26632   1.244   0.123   5.543
 8578SOL    HW126633   1.195   0.203   5.508
 8578SOL    HW226634   1.181   0.045   5.550
 8579SOL     OW26635   3.434   6.901   2.126
 8579SOL    HW126636   3.455   6.832   2.195
 8579SOL    HW226637   3.469   6.990   2.156
 8580SOL     OW26638   1.659   0.748   2.007
 8580SOL    HW126639   1.668   0.690   2.088
 8580SOL    HW226640   1.621   0.695   1.932
 8581SOL     OW26641   3.954   3.633   3.425
 8581SOL    HW126642   3.916   3.725   3.419
 8581SOL    HW226643   4.012   3.615   3.346
 8582SOL     OW26644   4.495   5.275   5.692
 8582SOL    HW126645   4.490   5.337   5.614
 8582SOL    HW226646   4.582   5.227   5.691
 8583SOL     OW26647   3.557   0.219   2.796
 8583SOL    HW126648   3.554   0.124   2.763
 8583SOL    HW226649   3.579   0.220   2.893
 8584SOL     OW26650   5.845   2.252   5.447
 8584SOL    HW126651   5.755   2.294   5.432
 8584SOL    HW226652   5.837   2.176   5.511
 8585SOL     OW26653   4.772   2.427   2.705
 8585SOL    HW126654   4.701   2.497   2.719
 8585SOL    HW226655   4.841   2.462   2.641
 8586SOL     OW26656   6.749   6.474   5.195
 8586SOL    HW126657   6.816   6.506   5.262
 8586SOL    HW226658   6.689   6.551   5.170
 8587SOL     OW26659   6.932   0.277   0.964
 8587SOL    HW126660   6.899   0.361   0.922
 8587SOL    HW226661   6.858   0.234   1.015
 8588SOL     OW26662   1.406   1.182   5.560
 8588SOL    HW126663   1.461   1.212   5.638
 8588SOL    HW226664   1.345   1.256   5.532
 8589SOL     OW26665   5.667   3.004   6.588
 8589SOL    HW126666   5.626   2.945   6.658
 8589SOL    HW226667   5.609   3.084   6.574
 8590SOL     OW26668   1.254   0.767   3.071
 8590SOL    HW126669   1.159   0.793   3.086
 8590SOL    HW226670   1.308   0.850   3.055
 8591SOL     OW26671   1.147   4.160   5.401
 8591SOL    HW126672   1.205   4.176   5.481
 8591SOL    HW226673   1.078   4.091   5.422
 8592SOL     OW26674   0.315   2.462   5.029
 8592SOL    HW126675   0.241   2.487   5.091
 8592SOL    HW226676   0.332   2.537   4.965
 8593SOL     OW26677   6.482   1.225   0.129
 8593SOL    HW126678   6.566   1.236   0.181
 8593SOL    HW226679   6.498   1.165   0.050
 8594SOL     OW26680   5.863   4.018   6.730
 8594SOL    HW126681   5.845   4.104   6.776
 8594SOL    HW226682   5.811   4.014   6.645
 8595SOL     OW26683   5.392   6.491   2.354
 8595SOL    HW126684   5.439   6.416   2.401
 8595SOL    HW226685   5.354   6.554   2.422
 8596SOL     OW26686   0.590   2.325   5.991
 8596SOL    HW126687   0.579   2.413   6.036
 8596SOL    HW226688   0.563   2.251   6.053
 8597SOL     OW26689   6.090   2.249   5.731
 8597SOL    HW126690   6.068   2.162   5.688
 8597SOL    HW226691   6.109   2.317   5.660
 8598SOL     OW26692   0.097   0.636   5.990
 8598SOL    HW126693   0.038   0.595   5.921
 8598SOL    HW226694   0.073   0.732   6.003
 8599SOL     OW26695   5.359   4.202   4.934
 8599SOL    HW126696   5.311   4.132   4.881
 8599SOL    HW226697   5.297   4.279   4.951
 8600SOL     OW26698   4.249   2.944   1.692
 8600SOL    HW126699   4.339   2.985   1.703
 8600SOL    HW226700   4.258   2.855   1.647
 8601SOL     OW26701   4.666   5.276   2.320
 8601SOL    HW126702   4.706   5.362   2.290
 8601SOL    HW226703   4.738   5.208   2.333
 8602SOL     OW26704   2.039   6.094   4.754
 8602SOL    HW126705   1.996   6.112   4.842
 8602SOL    HW226706   2.137   6.076   4.767
 8603SOL     OW26707   0.878   1.492   0.017
 8603SOL    HW126708   0.853   1.446   0.102
 8603SOL    HW226709   0.957   1.446   7.001
 8604SOL     OW26710   1.493   5.646   6.114
 8604SOL    HW126711   1.571   5.592   6.084
 8604SOL    HW226712   1.451   5.601   6.193
 8605SOL     OW26713   6.681   4.677   4.250
 8605SOL    HW126714   6.617   4.660   4.325
 8605SOL    HW226715   6.769   4.707   4.287
 8606SOL     OW26716   1.131   0.043   6.597
 8606SOL    HW126717   1.184   0.050   6.681
 8606SOL    HW226718   1.098   0.134   6.570
 8607SOL     OW26719   2.805   2.912   1.274
 8607SOL    HW126720   2.827   2.943   1.182
 8607SOL    HW226721   2.860   2.832   1.296
 8608SOL     OW26722   2.255   5.556   1.863
 8608SOL    HW126723   2.278   5.558   1.765
 8608SOL    HW226724   2.224   5.647   1.891
 8609SOL     OW26725   4.858   2.166   4.468
 8609SOL    HW126726   4.874   2.265   4.461
 8609SOL    HW226727   4.837   2.129   4.378
 8610SOL     OW26728   6.657   5.428   2.540
 8610SOL    HW126729   6.662   5.443   2.441
 8610SOL    HW226730   6.648   5.330   2.558
 8611SOL     OW26731   1.988   1.319   5.566
 8611SOL    HW126732   2.022   1.358   5.481
 8611SOL    HW226733   1.955   1.226   5.550
 8612SOL     OW26734   2.992   3.348   5.605
 8612SOL    HW126735   2.898   3.320   5.626
 8612SOL    HW226736   3.049   3.337   5.687
 8613SOL     OW26737   2.947   3.382   3.316
 8613SOL    HW126738   3.001   3.321   3.374
 8613SOL    HW226739   2.898   3.328   3.247
 8614SOL     OW26740   0.510   2.711   3.794
 8614SOL    HW126741   0.496   2.707   3.893
 8614SOL    HW226742   0.600   2.752   3.775
 8615SOL     OW26743   3.692   0.897   5.469
 8615SOL    HW126744   3.609   0.951   5.481
 8615SOL    HW226745   3.741   0.928   5.388
 8616SOL     OW26746   6.023   4.127   5.344
 8616SOL    HW126747   5.953   4.193   5.372
 8616SOL    HW226748   6.093   4.121   5.415
 8617SOL     OW26749   0.883   0.164   3.222
 8617SOL    HW126750   0.937   0.247   3.207
 8617SOL    HW226751   0.788   0.180   3.198
 8618SOL     OW26752   6.380   4.927   0.768
 8618SOL    HW126753   6.384   4.841   0.717
 8618SOL    HW226754   6.393   5.004   0.704
 8619SOL     OW26755   5.469   5.714   6.305
 8619SOL    HW126756   5.519   5.634   6.274
 8619SOL    HW226757   5.462   5.712   6.405
 8620SOL     OW26758   1.150   6.563   4.183
 8620SOL    HW126759   1.134   6.613   4.098
 8620SOL    HW226760   1.107   6.473   4.176
 8621SOL     OW26761   6.296   3.454   1.364
 8621SOL    HW126762   6.299   3.402   1.279
 8621SOL    HW226763   6.220   3.518   1.362
 8622SOL     OW26764   1.233   5.616   1.411
 8622SOL    HW126765   1.247   5.710   1.441
 8622SOL    HW226766   1.140   5.606   1.374
 8623SOL     OW26767   2.109   1.990   3.123
 8623SOL    HW126768   2.096   1.977   3.221
 8623SOL    HW226769   2.189   2.048   3.107
 8624SOL     OW26770   3.278   3.536   5.597
 8624SOL    HW126771   3.192   3.579   5.571
 8624SOL    HW226772   3.267   3.491   5.686
 8625SOL     OW26773   4.219   3.058   5.926
 8625SOL    HW126774   4.313   3.088   5.945
 8625SOL    HW226775   4.159   3.089   5.999
 8626SOL     OW26776   5.318   2.029   1.042
 8626SOL    HW126777   5.304   2.125   1.017
 8626SOL    HW226778   5.387   1.988   0.981
 8627SOL     OW26779   0.122   6.996   2.489
 8627SOL    HW126780   0.096   6.924   2.554
 8627SOL    HW226781   0.073   0.056   2.512
 8628SOL     OW26782   1.467   6.728   0.728
 8628SOL    HW126783   1.370   6.751   0.737
 8628SOL    HW226784   1.511   6.736   0.817
 8629SOL     OW26785   0.129   0.660   4.402
 8629SOL    HW126786   0.166   0.753   4.393
 8629SOL    HW226787   0.203   0.596   4.420
 8630SOL     OW26788   4.878   3.232   1.287
 8630SOL    HW126789   4.832   3.145   1.305
 8630SOL    HW226790   4.951   3.218   1.220
 8631SOL     OW26791   1.498   5.972   6.747
 8631SOL    HW126792   1.524   5.943   6.655
 8631SOL    HW226793   1.455   6.063   6.742
 8632SOL     OW26794   6.258   5.989   4.217
 8632SOL    HW126795   6.344   5.943   4.194
 8632SOL    HW226796   6.202   5.999   4.135
 8633SOL     OW26797   6.554   3.328   5.095
 8633SOL    HW126798   6.624   3.352   5.163
 8633SOL    HW226799   6.564   3.232   5.070
 8634SOL     OW26800   5.168   4.910   6.187
 8634SOL    HW126801   5.257   4.890   6.228
 8634SOL    HW226802   5.100   4.923   6.259
 8635SOL     OW26803   5.242   1.950   6.175
 8635SOL    HW126804   5.323   1.955   6.117
 8635SOL    HW226805   5.222   2.041   6.211
 8636SOL     OW26806   4.002   6.039   0.795
 8636SOL    HW126807   4.057   6.054   0.877
 8636SOL    HW226808   4.025   6.108   0.726
 8637SOL     OW26809   3.094   2.429   0.848
 8637SOL    HW126810   3.154   2.418   0.927
 8637SOL    HW226811   3.018   2.490   0.872
 8638SOL     OW26812   5.172   2.453   4.505
 8638SOL    HW126813   5.133   2.543   4.485
 8638SOL    HW226814   5.129   2.415   4.587
 8639SOL     OW26815   3.495   4.140   0.219
 8639SOL    HW126816   3.494   4.187   0.307
 8639SOL    HW226817   3.553   4.058   0.226
 8640SOL     OW26818   3.317   2.119   6.748
 8640SOL    HW126819   3.345   2.101   6.654
 8640SOL    HW226820   3.325   2.217   6.767
 8641SOL     OW26821   3.443   4.950   3.500
 8641SOL    HW126822   3.486   4.957   3.410
 8641SOL    HW226823   3.513   4.928   3.568
 8642SOL     OW26824   2.248   6.358   3.267
 8642SOL    HW126825   2.297   6.272   3.253
 8642SOL    HW226826   2.306   6.434   3.241
 8643SOL     OW26827   3.977   6.254   1.157
 8643SOL    HW126828   4.046   6.323   1.135
 8643SOL    HW226829   3.914   6.243   1.080
 8644SOL     OW26830   5.492   2.351   6.285
 8644SOL    HW126831   5.473   2.288   6.360
 8644SOL    HW226832   5.471   2.444   6.314
 8645SOL     OW26833   4.853   5.245   2.768
 8645SOL    HW126834   4.839   5.275   2.863
 8645SOL    HW226835   4.769   5.262   2.715
 8646SOL     OW26836   6.995   1.928   4.431
 8646SOL    HW126837   6.918   1.894   4.486
 8646SOL    HW226838   6.962   1.956   4.341
 8647SOL     OW26839   2.137   4.598   1.765
 8647SOL    HW126840   2.123   4.606   1.864
 8647SOL    HW226841   2.166   4.686   1.728
 8648SOL     OW26842   5.594   5.487   6.061
 8648SOL    HW126843   5.555   5.395   6.069
 8648SOL    HW226844   5.606   5.525   6.152
 8649SOL     OW26845   5.552   2.397   2.050
 8649SOL    HW126846   5.494   2.318   2.069
 8649SOL    HW226847   5.542   2.424   1.954
 8650SOL     OW26848   1.182   0.804   4.791
 8650SOL    HW126849   1.163   0.714   4.829
 8650SOL    HW226850   1.113   0.870   4.824
 8651SOL     OW26851   4.585   2.172   1.839
 8651SOL    HW126852   4.643   2.092   1.823
 8651SOL    HW226853   4.500   2.143   1.884
 8652SOL     OW26854   6.482   2.693   4.635
 8652SOL    HW126855   6.386   2.666   4.631
 8652SOL    HW226856   6.536   2.630   4.579
 8653SOL     OW26857   5.467   0.668   0.972
 8653SOL    HW126858   5.482   0.720   1.056
 8653SOL    HW226859   5.458   0.571   0.993
 8654SOL     OW26860   0.109   4.585   2.593
 8654SOL    HW126861   0.026   4.595   2.538
 8654SOL    HW226862   0.107   4.651   2.668
 8655SOL     OW26863   1.230   6.951   4.824
 8655SOL    HW126864   1.219   0.006   4.764
 8655SOL    HW226865   1.253   6.871   4.769
 8656SOL     OW26866   4.176   6.065   0.994
 8656SOL    HW126867   4.185   6.104   1.086
 8656SOL    HW226868   4.252   6.002   0.978
 8657SOL     OW26869   3.142   1.831   2.569
 8657SOL    HW126870   3.176   1.804   2.479
 8657SOL    HW226871   3.140   1.931   2.574
 8658SOL     OW26872   6.645   4.042   0.576
 8658SOL    HW126873   6.591   4.057   0.660
 8658SOL    HW226874   6.679   4.129   0.543
 8659SOL     OW26875   3.418   0.271   3.335
 8659SOL    HW126876   3.436   0.369   3.336
 8659SOL    HW226877   3.420   0.236   3.429
 8660SOL     OW26878   6.922   3.977   1.504
 8660SOL    HW126879   7.011   4.021   1.501
 8660SOL    HW226880   6.901   3.949   1.598
 8661SOL     OW26881   6.151   3.299   2.325
 8661SOL    HW126882   6.084   3.350   2.270
 8661SOL    HW226883   6.170   3.211   2.281
 8662SOL     OW26884   1.690   2.387   2.861
 8662SOL    HW126885   1.779   2.373   2.906
 8662SOL    HW226886   1.699   2.459   2.792
 8663SOL     OW26887   3.305   4.911   2.677
 8663SOL    HW126888   3.294   4.858   2.593
 8663SOL    HW226889   3.225   4.895   2.736
 8664SOL     OW26890   3.351   5.969   3.964
 8664SOL    HW126891   3.369   6.032   3.889
 8664SOL    HW226892   3.298   5.891   3.931
 8665SOL     OW26893   0.213   3.640   6.516
 8665SOL    HW126894   0.303   3.596   6.520
 8665SOL    HW226895   0.225   3.739   6.523
 8666SOL     OW26896   4.630   0.094   2.568
 8666SOL    HW126897   4.660   0.017   2.512
 8666SOL    HW226898   4.672   0.178   2.534
 8667SOL     OW26899   5.155   2.347   2.196
 8667SOL    HW126900   5.104   2.374   2.114
 8667SOL    HW226901   5.200   2.260   2.180
 8668SOL     OW26902   3.757   2.049   3.323
 8668SOL    HW126903   3.733   1.966   3.373
 8668SOL    HW226904   3.856   2.063   3.326
 8669SOL     OW26905   0.513   6.040   5.781
 8669SOL    HW126906   0.534   5.979   5.705
 8669SOL    HW226907   0.483   5.986   5.860
 8670SOL     OW26908   0.373   5.439   4.956
 8670SOL    HW126909   0.411   5.416   4.867
 8670SOL    HW226910   0.442   5.488   5.010
 8671SOL     OW26911   0.076   3.354   3.952
 8671SOL    HW126912   0.091   3.449   3.979
 8671SOL    HW226913   0.114   3.339   3.861
 8672SOL     OW26914   6.279   1.229   2.394
 8672SOL    HW126915   6.201   1.174   2.365
 8672SOL    HW226916   6.270   1.250   2.491
 8673SOL     OW26917   0.620   1.432   1.309
 8673SOL    HW126918   0.570   1.354   1.273
 8673SOL    HW226919   0.625   1.426   1.408
 8674SOL     OW26920   0.091   3.651   3.974
 8674SOL    HW126921   0.116   3.705   3.894
 8674SOL    HW226922   0.137   3.687   4.055
 8675SOL     OW26923   4.991   2.430   5.018
 8675SOL    HW126924   5.064   2.378   5.063
 8675SOL    HW226925   4.919   2.451   5.085
 8676SOL     OW26926   4.669   2.509   0.502
 8676SOL    HW126927   4.683   2.608   0.502
 8676SOL    HW226928   4.704   2.471   0.588
 8677SOL     OW26929   3.364   0.832   0.096
 8677SOL    HW126930   3.451   0.792   0.125
 8677SOL    HW226931   3.290   0.795   0.153
 8678SOL     OW26932   3.312   1.963   0.413
 8678SOL    HW126933   3.303   1.952   0.512
 8678SOL    HW226934   3.409   1.964   0.389
 8679SOL     OW26935   1.739   2.115   6.812
 8679SOL    HW126936   1.830   2.075   6.820
 8679SOL    HW226937   1.698   2.124   6.903
 8680SOL     OW26938   0.070   0.263   1.256
 8680SOL    HW126939   0.131   0.295   1.183
 8680SOL    HW226940   7.000   0.288   1.233
 8681SOL     OW26941   5.496   5.671   1.007
 8681SOL    HW126942   5.408   5.635   0.976
 8681SOL    HW226943   5.559   5.675   0.930
 8682SOL     OW26944   1.561   1.595   2.676
 8682SOL    HW126945   1.508   1.513   2.651
 8682SOL    HW226946   1.582   1.647   2.593
 8683SOL     OW26947   2.366   4.482   4.087
 8683SOL    HW126948   2.334   4.576   4.073
 8683SOL    HW226949   2.459   4.473   4.050
 8684SOL     OW26950   2.082   4.178   3.509
 8684SOL    HW126951   2.042   4.148   3.423
 8684SOL    HW226952   2.067   4.277   3.520
 8685SOL     OW26953   4.986   3.090   5.414
 8685SOL    HW126954   5.059   3.108   5.481
 8685SOL    HW226955   5.007   3.139   5.329
 8686SOL     OW26956   1.427   4.778   2.770
 8686SOL    HW126957   1.451   4.856   2.713
 8686SOL    HW226958   1.510   4.733   2.802
 8687SOL     OW26959   6.061   4.157   5.797
 8687SOL    HW126960   6.054   4.090   5.870
 8687SOL    HW226961   5.990   4.226   5.808
 8688SOL     OW26962   0.357   3.950   5.149
 8688SOL    HW126963   0.268   3.995   5.152
 8688SOL    HW226964   0.427   4.017   5.122
 8689SOL     OW26965   5.173   3.429   0.895
 8689SOL    HW126966   5.181   3.380   0.808
 8689SOL    HW226967   5.256   3.482   0.912
 8690SOL     OW26968   1.635   2.369   2.458
 8690SOL    HW126969   1.645   2.269   2.462
 8690SOL    HW226970   1.701   2.411   2.520
 8691SOL     OW26971   3.305   1.204   6.848
 8691SOL    HW126972   3.378   1.185   6.782
 8691SOL    HW226973   3.328   1.162   6.936
 8692SOL     OW26974   5.472   2.035   4.547
 8692SOL    HW126975   5.569   2.043   4.523
 8692SOL    HW226976   5.420   2.012   4.465
 8693SOL     OW26977   0.834   6.779   5.514
 8693SOL    HW126978   0.766   6.751   5.583
 8693SOL    HW226979   0.906   6.832   5.558
 8694SOL     OW26980   4.384   3.930   5.356
 8694SOL    HW126981   4.363   3.856   5.292
 8694SOL    HW226982   4.471   3.911   5.401
 8695SOL     OW26983   4.250   4.110   1.169
 8695SOL    HW126984   4.310   4.033   1.146
 8695SOL    HW226985   4.277   4.147   1.258
 8696SOL     OW26986   2.789   5.630   6.797
 8696SOL    HW126987   2.693   5.657   6.800
 8696SOL    HW226988   2.831   5.665   6.713
 8697SOL     OW26989   1.303   3.369   5.009
 8697SOL    HW126990   1.249   3.325   4.938
 8697SOL    HW226991   1.369   3.303   5.046
 8698SOL     OW26992   5.839   4.255   6.889
 8698SOL    HW126993   5.829   4.354   6.899
 8698SOL    HW226994   5.930   4.227   6.920
 8699SOL     OW26995   2.775   2.443   1.248
 8699SOL    HW126996   2.739   2.410   1.335
 8699SOL    HW226997   2.712   2.418   1.175
 8700SOL     OW26998   0.154   1.772   4.286
 8700SOL    HW126999   0.095   1.692   4.277
 8700SOL    HW227000   0.106   1.843   4.339
 8701SOL     OW27001   2.265   2.864   6.816
 8701SOL    HW127002   2.187   2.810   6.785
 8701SOL    HW227003   2.233   2.941   6.870
 8702SOL     OW27004   5.515   3.857   0.993
 8702SOL    HW127005   5.416   3.870   0.984
 8702SOL    HW227006   5.548   3.907   1.073
 8703SOL     OW27007   2.168   5.178   1.962
 8703SOL    HW127008   2.117   5.247   2.015
 8703SOL    HW227009   2.104   5.123   1.909
 8704SOL     OW27010   6.251   0.833   3.685
 8704SOL    HW127011   6.156   0.864   3.696
 8704SOL    HW227012   6.257   0.773   3.606
 8705SOL     OW27013   3.652   1.927   0.094
 8705SOL    HW127014   3.671   1.946   7.022
 8705SOL    HW227015   3.562   1.884   0.103
 8706SOL     OW27016   4.752   2.945   5.153
 8706SOL    HW127017   4.711   2.874   5.095
 8706SOL    HW227018   4.831   2.983   5.106
 8707SOL     OW27019   0.970   1.155   4.001
 8707SOL    HW127020   0.871   1.168   4.005
 8707SOL    HW227021   1.013   1.239   3.967
 8708SOL     OW27022   6.010   2.788   0.771
 8708SOL    HW127023   5.912   2.805   0.766
 8708SOL    HW227024   6.027   2.699   0.814
 8709SOL     OW27025   6.336   6.449   4.079
 8709SOL    HW127026   6.416   6.398   4.111
 8709SOL    HW227027   6.352   6.547   4.090
 8710SOL     OW27028   2.207   3.034   4.028
 8710SOL    HW127029   2.222   2.935   4.024
 8710SOL    HW227030   2.247   3.071   4.112
 8711SOL     OW27031   1.034   2.163   2.150
 8711SOL    HW127032   0.953   2.141   2.094
 8711SOL    HW227033   1.014   2.143   2.246
 8712SOL     OW27034   0.927   3.957   4.297
 8712SOL    HW127035   0.965   3.887   4.358
 8712SOL    HW227036   0.849   3.918   4.247
 8713SOL     OW27037   0.195   4.741   3.609
 8713SOL    HW127038   0.164   4.815   3.667
 8713SOL    HW227039   0.270   4.693   3.654
 8714SOL     OW27040   0.329   4.381   6.240
 8714SOL    HW127041   0.238   4.338   6.239
 8714SOL    HW227042   0.320   4.477   6.264
 8715SOL     OW27043   2.388   4.995   1.408
 8715SOL    HW127044   2.358   4.962   1.319
 8715SOL    HW227045   2.308   5.019   1.463
 8716SOL     OW27046   5.665   0.332   2.641
 8716SOL    HW127047   5.578   0.369   2.673
 8716SOL    HW227048   5.651   0.288   2.552
 8717SOL     OW27049   3.517   2.379   6.529
 8717SOL    HW127050   3.481   2.349   6.440
 8717SOL    HW227051   3.610   2.343   6.540
 8718SOL     OW27052   2.960   5.288   5.932
 8718SOL    HW127053   3.023   5.358   5.898
 8718SOL    HW227054   2.908   5.324   6.009
 8719SOL     OW27055   3.015   2.173   4.479
 8719SOL    HW127056   3.056   2.187   4.569
 8719SOL    HW227057   2.942   2.240   4.465
 8720SOL     OW27058   0.296   6.571   4.866
 8720SOL    HW127059   0.385   6.612   4.887
 8720SOL    HW227060   0.223   6.631   4.898
 8721SOL     OW27061   1.043   0.632   1.369
 8721SOL    HW127062   1.085   0.546   1.340
 8721SOL    HW227063   0.953   0.614   1.408
 8722SOL     OW27064   4.112   1.523   0.122
 8722SOL    HW127065   4.194   1.478   0.156
 8722SOL    HW227066   4.031   1.477   0.158
 8723SOL     OW27067   4.006   6.805   2.823
 8723SOL    HW127068   3.944   6.786   2.900
 8723SOL    HW227069   3.955   6.802   2.737
 8724SOL     OW27070   3.756   0.274   5.086
 8724SOL    HW127071   3.749   0.190   5.031
 8724SOL    HW227072   3.702   0.263   5.170
 8725SOL     OW27073   6.350   0.827   2.688
 8725SOL    HW127074   6.365   0.909   2.743
 8725SOL    HW227075   6.404   0.832   2.604
 8726SOL     OW27076   6.787   1.383   0.655
 8726SOL    HW127077   6.720   1.331   0.602
 8726SOL    HW227078   6.763   1.381   0.752
 8727SOL     OW27079   5.127   5.725   6.303
 8727SOL    HW127080   5.083   5.693   6.219
 8727SOL    HW227081   5.213   5.770   6.281
 8728SOL     OW27082   5.872   6.766   4.211
 8728SOL    HW127083   5.867   6.865   4.205
 8728SOL    HW227084   5.779   6.728   4.216
 8729SOL     OW27085   5.805   6.543   5.964
 8729SOL    HW127086   5.901   6.550   5.938
 8729SOL    HW227087   5.790   6.588   6.053
 8730SOL     OW27088   4.050   4.745   1.945
 8730SOL    HW127089   4.031   4.706   1.855
 8730SOL    HW227090   4.100   4.679   2.001
 8731SOL     OW27091   6.850   2.005   4.180
 8731SOL    HW127092   6.895   1.983   4.093
 8731SOL    HW227093   6.809   2.096   4.174
 8732SOL     OW27094   4.896   5.978   5.246
 8732SOL    HW127095   4.859   6.070   5.254
 8732SOL    HW227096   4.976   5.968   5.305
 8733SOL     OW27097   5.703   4.434   2.271
 8733SOL    HW127098   5.634   4.484   2.219
 8733SOL    HW227099   5.679   4.435   2.368
 8734SOL     OW27100   0.944   5.749   1.471
 8734SOL    HW127101   0.859   5.696   1.464
 8734SOL    HW227102   0.947   5.815   1.396
 8735SOL     OW27103   1.196   2.700   6.630
 8735SOL    HW127104   1.231   2.610   6.657
 8735SOL    HW227105   1.268   2.768   6.642
 8736SOL     OW27106   1.114   5.966   4.035
 8736SOL    HW127107   1.131   5.887   4.094
 8736SOL    HW227108   1.116   6.049   4.091
 8737SOL     OW27109   0.476   5.149   0.093
 8737SOL    HW127110   0.520   5.071   0.050
 8737SOL    HW227111   0.407   5.116   0.158
 8738SOL     OW27112   2.173   2.407   2.562
 8738SOL    HW127113   2.167   2.507   2.555
 8738SOL    HW227114   2.208   2.370   2.476
 8739SOL     OW27115   4.453   4.646   3.560
 8739SOL    HW127116   4.494   4.556   3.573
 8739SOL    HW227117   4.518   4.707   3.515
 8740SOL     OW27118   2.769   0.827   3.693
 8740SOL    HW127119   2.705   0.903   3.688
 8740SOL    HW227120   2.719   0.743   3.716
 8741SOL     OW27121   2.227   2.210   2.726
 8741SOL    HW127122   2.223   2.292   2.669
 8741SOL    HW227123   2.323   2.185   2.743
 8742SOL     OW27124   1.239   3.487   1.343
 8742SOL    HW127125   1.323   3.538   1.327
 8742SOL    HW227126   1.254   3.390   1.327
 8743SOL     OW27127   1.427   3.174   7.009
 8743SOL    HW127128   1.489   3.101   6.981
 8743SOL    HW227129   1.430   3.184   0.084
 8744SOL     OW27130   2.553   4.303   6.119
 8744SOL    HW127131   2.489   4.228   6.134
 8744SOL    HW227132   2.518   4.363   6.047
 8745SOL     OW27133   5.706   1.555   6.573
 8745SOL    HW127134   5.759   1.470   6.572
 8745SOL    HW227135   5.632   1.547   6.640
 8746SOL     OW27136   4.801   4.710   4.604
 8746SOL    HW127137   4.782   4.718   4.701
 8746SOL    HW227138   4.735   4.647   4.562
 8747SOL     OW27139   0.474   6.982   1.567
 8747SOL    HW127140   0.511   6.981   1.660
 8747SOL    HW227141   0.543   7.015   1.503
 8748SOL     OW27142   6.008   1.151   4.736
 8748SOL    HW127143   5.950   1.144   4.655
 8748SOL    HW227144   6.025   1.060   4.773
 8749SOL     OW27145   2.783   1.617   3.653
 8749SOL    HW127146   2.877   1.650   3.664
 8749SOL    HW227147   2.785   1.522   3.623
 8750SOL     OW27148   3.909   3.252   1.834
 8750SOL    HW127149   3.903   3.306   1.750
 8750SOL    HW227150   3.825   3.262   1.886
 8751SOL     OW27151   2.309   6.797   0.087
 8751SOL    HW127152   2.361   6.807   0.171
 8751SOL    HW227153   2.219   6.839   0.098
 8752SOL     OW27154   0.697   3.285   6.633
 8752SOL    HW127155   0.704   3.385   6.638
 8752SOL    HW227156   0.697   3.248   6.726
 8753SOL     OW27157   2.009   1.842   0.880
 8753SOL    HW127158   2.089   1.829   0.821
 8753SOL    HW227159   1.991   1.759   0.931
 8754SOL     OW27160   1.491   6.059   6.257
 8754SOL    HW127161   1.439   6.014   6.185
 8754SOL    HW227162   1.589   6.044   6.242
 8755SOL     OW27163   0.544   1.865   1.870
 8755SOL    HW127164   0.516   1.924   1.946
 8755SOL    HW227165   0.490   1.887   1.789
 8756SOL     OW27166   1.652   1.721   2.427
 8756SOL    HW127167   1.600   1.769   2.356
 8756SOL    HW227168   1.702   1.787   2.483
 8757SOL     OW27169   5.441   5.853   4.448
 8757SOL    HW127170   5.497   5.925   4.488
 8757SOL    HW227171   5.345   5.880   4.450
 8758SOL     OW27172   3.477   5.034   6.367
 8758SOL    HW127173   3.473   4.979   6.450
 8758SOL    HW227174   3.410   5.108   6.372
 8759SOL     OW27175   6.769   1.435   1.832
 8759SOL    HW127176   6.795   1.360   1.893
 8759SOL    HW227177   6.680   1.416   1.791
 8760SOL     OW27178   1.658   2.904   4.505
 8760SOL    HW127179   1.711   2.952   4.574
 8760SOL    HW227180   1.656   2.958   4.421
 8761SOL     OW27181   5.129   2.791   3.237
 8761SOL    HW127182   5.099   2.814   3.144
 8761SOL    HW227183   5.050   2.785   3.297
 8762SOL     OW27184   4.041   6.191   2.455
 8762SOL    HW127185   3.979   6.269   2.448
 8762SOL    HW227186   4.100   6.203   2.535
 8763SOL     OW27187   7.013   2.134   5.686
 8763SOL    HW127188   7.023   2.036   5.673
 8763SOL    HW227189   6.919   2.155   5.713
 8764SOL     OW27190   2.746   5.769   6.089
 8764SOL    HW127191   2.680   5.837   6.057
 8764SOL    HW227192   2.717   5.733   6.178
 8765SOL     OW27193   4.470   6.995   3.603
 8765SOL    HW127194   4.497   6.966   3.511
 8765SOL    HW227195   4.415   6.923   3.646
 8766SOL     OW27196   6.169   6.981   4.690
 8766SOL    HW127197   6.157   6.971   4.789
 8766SOL    HW227198   6.242   0.022   4.672
 8767SOL     OW27199   1.860   1.147   4.339
 8767SOL    HW127200   1.911   1.220   4.383
 8767SOL    HW227201   1.774   1.183   4.303
 8768SOL     OW27202   0.014   2.073   1.242
 8768SOL    HW127203   6.990   2.017   1.174
 8768SOL    HW227204   0.047   2.015   1.316
 8769SOL     OW27205   6.833   0.031   6.345
 8769SOL    HW127206   6.883   0.073   6.421
 8769SOL    HW227207   6.747   7.017   6.379
 8770SOL     OW27208   4.842   1.785   0.852
 8770SOL    HW127209   4.757   1.821   0.815
 8770SOL    HW227210   4.888   1.729   0.783
 8771SOL     OW27211   0.960   3.126   6.769
 8771SOL    HW127212   0.956   3.060   6.694
 8771SOL    HW227213   1.055   3.150   6.788
 8772SOL     OW27214   0.775   6.527   3.357
 8772SOL    HW127215   0.713   6.530   3.279
 8772SOL    HW227216   0.854   6.585   3.338
 8773SOL     OW27217   6.679   1.514   4.272
 8773SOL    HW127218   6.581   1.512   4.293
 8773SOL    HW227219   6.697   1.454   4.194
 8774SOL     OW27220   1.531   2.493   0.096
 8774SOL    HW127221   1.586   2.557   0.043
 8774SOL    HW227222   1.548   2.399   0.064
 8775SOL     OW27223   5.279   2.228   2.481
 8775SOL    HW127224   5.295   2.225   2.382
 8775SOL    HW227225   5.260   2.322   2.509
 8776SOL     OW27226   5.242   3.455   1.338
 8776SOL    HW127227   5.182   3.425   1.412
 8776SOL    HW227228   5.337   3.439   1.363
 8777SOL     OW27229   6.332   2.561   4.256
 8777SOL    HW127230   6.263   2.531   4.190
 8777SOL    HW227231   6.410   2.601   4.207
 8778SOL     OW27232   1.547   4.254   6.424
 8778SOL    HW127233   1.599   4.257   6.339
 8778SOL    HW227234   1.466   4.312   6.417
 8779SOL     OW27235   4.134   6.573   2.638
 8779SOL    HW127236   4.076   6.510   2.689
 8779SOL    HW227237   4.156   6.652   2.695
 8780SOL     OW27238   0.646   3.643   4.725
 8780SOL    HW127239   0.737   3.603   4.730
 8780SOL    HW227240   0.652   3.741   4.746
 8781SOL     OW27241   4.018   1.740   2.072
 8781SOL    HW127242   3.977   1.733   2.163
 8781SOL    HW227243   3.947   1.732   2.003
 8782SOL     OW27244   6.741   2.618   0.298
 8782SOL    HW127245   6.761   2.556   0.221
 8782SOL    HW227246   6.739   2.712   0.265
 8783SOL     OW27247   3.868   3.983   5.984
 8783SOL    HW127248   3.899   3.889   5.997
 8783SOL    HW227249   3.788   3.999   6.041
 8784SOL     OW27250   4.632   1.311   5.710
 8784SOL    HW127251   4.651   1.377   5.637
 8784SOL    HW227252   4.534   1.309   5.729
 8785SOL     OW27253   6.996   6.066   6.406
 8785SOL    HW127254   6.920   6.022   6.454
 8785SOL    HW227255   0.053   6.008   6.414
 8786SOL     OW27256   5.882   2.280   3.041
 8786SOL    HW127257   5.802   2.250   2.990
 8786SOL    HW227258   5.875   2.378   3.060
 8787SOL     OW27259   3.676   5.110   2.594
 8787SOL    HW127260   3.679   5.023   2.643
 8787SOL    HW227261   3.591   5.158   2.616
 8788SOL     OW27262   0.478   6.693   3.564
 8788SOL    HW127263   0.505   6.602   3.596
 8788SOL    HW227264   0.387   6.715   3.600
 8789SOL     OW27265   2.012   3.192   0.205
 8789SOL    HW127266   2.002   3.215   0.302
 8789SOL    HW227267   1.959   3.109   0.185
 8790SOL     OW27268   5.061   3.239   5.194
 8790SOL    HW127269   5.143   3.276   5.149
 8790SOL    HW227270   5.036   3.152   5.151
 8791SOL     OW27271   4.187   6.328   5.186
 8791SOL    HW127272   4.236   6.240   5.180
 8791SOL    HW227273   4.253   6.403   5.179
 8792SOL     OW27274   5.724   4.600   0.759
 8792SOL    HW127275   5.757   4.549   0.680
 8792SOL    HW227276   5.780   4.577   0.839
 8793SOL     OW27277   6.629   0.246   5.826
 8793SOL    HW127278   6.696   0.220   5.895
 8793SOL    HW227279   6.659   0.331   5.782
 8794SOL     OW27280   7.011   2.808   3.684
 8794SOL    HW127281   0.024   2.721   3.653
 8794SOL    HW227282   6.920   2.794   3.723
 8795SOL     OW27283   1.253   0.470   6.873
 8795SOL    HW127284   1.236   0.537   6.945
 8795SOL    HW227285   1.330   0.499   6.817
 8796SOL     OW27286   5.508   5.147   4.333
 8796SOL    HW127287   5.490   5.054   4.304
 8796SOL    HW227288   5.422   5.195   4.349
 8797SOL     OW27289   5.932   5.745   5.363
 8797SOL    HW127290   5.972   5.825   5.316
 8797SOL    HW227291   5.856   5.709   5.308
 8798SOL     OW27292   1.898   5.466   6.819
 8798SOL    HW127293   1.889   5.394   6.751
 8798SOL    HW227294   1.814   5.472   6.873
 8799SOL     OW27295   1.644   6.151   1.920
 8799SOL    HW127296   1.640   6.136   2.018
 8799SOL    HW227297   1.736   6.130   1.887
 8800SOL     OW27298   6.600   6.343   4.206
 8800SOL    HW127299   6.593   6.351   4.305
 8800SOL    HW227300   6.696   6.335   4.180
 8801SOL     OW27301   4.819   3.162   5.620
 8801SOL    HW127302   4.724   3.131   5.617
 8801SOL    HW227303   4.866   3.136   5.535
 8802SOL     OW27304   1.157   6.656   6.733
 8802SOL    HW127305   1.206   6.726   6.785
 8802SOL    HW227306   1.182   6.662   6.636
 8803SOL     OW27307   4.800   4.677   5.332
 8803SOL    HW127308   4.770   4.764   5.372
 8803SOL    HW227309   4.896   4.683   5.307
 8804SOL     OW27310   2.211   6.459   1.823
 8804SOL    HW127311   2.208   6.559   1.821
 8804SOL    HW227312   2.245   6.429   1.913
 8805SOL     OW27313   4.404   4.951   1.195
 8805SOL    HW127314   4.463   5.014   1.144
 8805SOL    HW227315   4.412   4.970   1.293
 8806SOL     OW27316   1.621   1.585   1.942
 8806SOL    HW127317   1.682   1.633   2.005
 8806SOL    HW227318   1.616   1.633   1.855
 8807SOL     OW27319   6.078   2.193   1.735
 8807SOL    HW127320   6.026   2.116   1.697
 8807SOL    HW227321   6.059   2.201   1.833
 8808SOL     OW27322   1.416   1.477   0.609
 8808SOL    HW127323   1.434   1.394   0.557
 8808SOL    HW227324   1.481   1.483   0.685
 8809SOL     OW27325   0.838   3.206   3.005
 8809SOL    HW127326   0.902   3.130   2.996
 8809SOL    HW227327   0.886   3.287   3.038
 8810SOL     OW27328   6.196   2.493   4.020
 8810SOL    HW127329   6.175   2.395   4.025
 8810SOL    HW227330   6.232   2.514   3.929
 8811SOL     OW27331   4.053   5.534   2.642
 8811SOL    HW127332   4.146   5.497   2.637
 8811SOL    HW227333   3.990   5.464   2.676
 8812SOL     OW27334   5.678   0.738   0.451
 8812SOL    HW127335   5.610   0.771   0.516
 8812SOL    HW227336   5.645   0.655   0.407
 8813SOL     OW27337   1.502   2.756   1.872
 8813SOL    HW127338   1.542   2.808   1.797
 8813SOL    HW227339   1.559   2.767   1.954
 8814SOL     OW27340   5.790   6.663   5.038
 8814SOL    HW127341   5.781   6.762   5.028
 8814SOL    HW227342   5.755   6.618   4.956
 8815SOL     OW27343   5.070   0.525   0.970
 8815SOL    HW127344   5.108   0.512   1.061
 8815SOL    HW227345   5.032   0.618   0.963
 8816SOL     OW27346   0.041   0.871   2.758
 8816SOL    HW127347   0.138   0.848   2.765
 8816SOL    HW227348   7.012   0.786   2.753
 8817SOL     OW27349   0.739   2.267   4.111
 8817SOL    HW127350   0.791   2.182   4.112
 8817SOL    HW227351   0.757   2.318   4.196
 8818SOL     OW27352   1.210   5.912   6.522
 8818SOL    HW127353   1.274   5.989   6.519
 8818SOL    HW227354   1.117   5.946   6.535
 8819SOL     OW27355   5.119   6.187   5.945
 8819SOL    HW127356   5.206   6.213   5.905
 8819SOL    HW227357   5.130   6.103   5.998
 8820SOL     OW27358   3.578   6.471   5.628
 8820SOL    HW127359   3.676   6.490   5.635
 8820SOL    HW227360   3.563   6.396   5.563
 8821SOL     OW27361   1.326   5.616   5.507
 8821SOL    HW127362   1.233   5.642   5.481
 8821SOL    HW227363   1.380   5.597   5.425
 8822SOL     OW27364   6.504   0.299   4.834
 8822SOL    HW127365   6.543   0.297   4.927
 8822SOL    HW227366   6.489   0.394   4.807
 8823SOL     OW27367   4.035   2.022   3.356
 8823SOL    HW127368   4.024   1.929   3.321
 8823SOL    HW227369   4.115   2.026   3.415
 8824SOL     OW27370   1.669   0.325   4.357
 8824SOL    HW127371   1.609   0.342   4.436
 8824SOL    HW227372   1.637   0.378   4.279
 8825SOL     OW27373   1.603   6.841   0.522
 8825SOL    HW127374   1.562   6.789   0.596
 8825SOL    HW227375   1.641   6.927   0.558
 8826SOL     OW27376   0.342   3.929   0.243
 8826SOL    HW127377   0.263   3.956   0.187
 8826SOL    HW227378   0.309   3.882   0.325
 8827SOL     OW27379   4.964   5.667   3.925
 8827SOL    HW127380   4.949   5.568   3.930
 8827SOL    HW227381   5.005   5.699   4.011
 8828SOL     OW27382   5.329   2.473   5.639
 8828SOL    HW127383   5.302   2.380   5.662
 8828SOL    HW227384   5.286   2.500   5.552
 8829SOL     OW27385   6.427   1.028   2.867
 8829SOL    HW127386   6.511   1.027   2.813
 8829SOL    HW227387   6.444   0.987   2.956
 8830SOL     OW27388   2.652   0.829   2.714
 8830SOL    HW127389   2.701   0.871   2.790
 8830SOL    HW227390   2.665   0.885   2.632
 8831SOL     OW27391   1.008   2.417   2.969
 8831SOL    HW127392   1.025   2.326   3.006
 8831SOL    HW227393   1.035   2.486   3.037
 8832SOL     OW27394   5.914   0.200   4.592
 8832SOL    HW127395   5.926   0.101   4.603
 8832SOL    HW227396   5.848   0.217   4.519
 8833SOL     OW27397   4.585   3.192   1.048
 8833SOL    HW127398   4.526   3.117   1.020
 8833SOL    HW227399   4.640   3.222   0.970
 8834SOL     OW27400   6.167   4.580   5.809
 8834SOL    HW127401   6.116   4.666   5.800
 8834SOL    HW227402   6.186   4.563   5.906
 8835SOL     OW27403   6.702   1.182   5.507
 8835SOL    HW127404   6.663   1.241   5.436
 8835SOL    HW227405   6.629   1.144   5.563
 8836SOL     OW27406   4.321   1.791   1.236
 8836SOL    HW127407   4.323   1.720   1.166
 8836SOL    HW227408   4.321   1.881   1.192
 8837SOL     OW27409   5.680   4.967   6.982
 8837SOL    HW127410   5.678   5.042   0.023
 8837SOL    HW227411   5.597   4.912   6.990
 8838SOL     OW27412   1.674   3.534   2.184
 8838SOL    HW127413   1.737   3.462   2.155
 8838SOL    HW227414   1.672   3.537   2.284
 8839SOL     OW27415   4.538   4.224   1.216
 8839SOL    HW127416   4.540   4.127   1.238
 8839SOL    HW227417   4.446   4.260   1.234
 8840SOL     OW27418   0.271   0.497   1.566
 8840SOL    HW127419   0.193   0.507   1.505
 8840SOL    HW227420   0.305   0.403   1.562
 8841SOL     OW27421   4.397   2.062   0.438
 8841SOL    HW127422   4.429   2.088   0.529
 8841SOL    HW227423   4.438   2.122   0.369
 8842SOL     OW27424   3.038   3.095   3.690
 8842SOL    HW127425   3.016   3.126   3.782
 8842SOL    HW227426   3.087   3.008   3.695
 8843SOL     OW27427   2.468   6.163   4.852
 8843SOL    HW127428   2.523   6.244   4.872
 8843SOL    HW227429   2.528   6.089   4.824
 8844SOL     OW27430   4.205   2.708   5.396
 8844SOL    HW127431   4.210   2.670   5.304
 8844SOL    HW227432   4.187   2.634   5.461
 8845SOL     OW27433   0.405   3.944   2.626
 8845SOL    HW127434   0.477   4.007   2.600
 8845SOL    HW227435   0.324   3.995   2.656
 8846SOL     OW27436   5.879   5.390   4.633
 8846SOL    HW127437   5.793   5.342   4.655
 8846SOL    HW227438   5.889   5.396   4.534
 8847SOL     OW27439   1.205   2.403   3.920
 8847SOL    HW127440   1.240   2.483   3.872
 8847SOL    HW227441   1.128   2.430   3.978
 8848SOL     OW27442   5.681   2.474   1.165
 8848SOL    HW127443   5.746   2.470   1.089
 8848SOL    HW227444   5.718   2.422   1.242
 8849SOL     OW27445   3.638   5.110   4.541
 8849SOL    HW127446   3.587   5.143   4.620
 8849SOL    HW227447   3.577   5.099   4.463
 8850SOL     OW27448   3.812   2.260   0.894
 8850SOL    HW127449   3.789   2.202   0.972
 8850SOL    HW227450   3.898   2.307   0.912
 8851SOL     OW27451   6.766   5.756   3.218
 8851SOL    HW127452   6.862   5.733   3.235
 8851SOL    HW227453   6.743   5.736   3.123
 8852SOL     OW27454   5.531   3.771   4.923
 8852SOL    HW127455   5.543   3.730   5.013
 8852SOL    HW227456   5.562   3.866   4.924
 8853SOL     OW27457   5.098   1.946   4.468
 8853SOL    HW127458   5.154   1.989   4.397
 8853SOL    HW227459   5.054   2.016   4.524
 8854SOL     OW27460   3.388   0.280   6.209
 8854SOL    HW127461   3.389   0.324   6.119
 8854SOL    HW227462   3.318   0.210   6.211
 8855SOL     OW27463   6.531   4.738   6.112
 8855SOL    HW127464   6.546   4.789   6.197
 8855SOL    HW227465   6.531   4.640   6.132
 8856SOL     OW27466   5.281   1.603   5.459
 8856SOL    HW127467   5.327   1.607   5.548
 8856SOL    HW227468   5.319   1.672   5.398
 8857SOL     OW27469   2.011   3.603   4.403
 8857SOL    HW127470   1.933   3.607   4.466
 8857SOL    HW227471   2.074   3.531   4.433
 8858SOL     OW27472   0.629   3.455   5.487
 8858SOL    HW127473   0.564   3.388   5.522
 8858SOL    HW227474   0.716   3.410   5.467
 8859SOL     OW27475   2.585   6.561   5.116
 8859SOL    HW127476   2.606   6.632   5.184
 8859SOL    HW227477   2.588   6.472   5.161
 8860SOL     OW27478   1.992   1.569   1.984
 8860SOL    HW127479   2.074   1.528   2.024
 8860SOL    HW227480   1.967   1.520   1.901
 8861SOL     OW27481   2.108   1.727   0.115
 8861SOL    HW127482   2.131   1.644   0.065
 8861SOL    HW227483   2.156   1.805   0.076
 8862SOL     OW27484   6.813   2.683   4.210
 8862SOL    HW127485   6.816   2.734   4.295
 8862SOL    HW227486   6.895   2.626   4.203
 8863SOL     OW27487   2.175   5.621   5.335
 8863SOL    HW127488   2.097   5.642   5.394
 8863SOL    HW227489   2.258   5.613   5.392
 8864SOL     OW27490   1.857   4.850   5.783
 8864SOL    HW127491   1.899   4.940   5.800
 8864SOL    HW227492   1.880   4.788   5.857
 8865SOL     OW27493   2.685   1.789   5.758
 8865SOL    HW127494   2.596   1.814   5.722
 8865SOL    HW227495   2.705   1.844   5.840
 8866SOL     OW27496   4.874   0.358   5.428
 8866SOL    HW127497   4.840   0.277   5.477
 8866SOL    HW227498   4.879   0.435   5.492
 8867SOL     OW27499   5.612   0.446   3.467
 8867SOL    HW127500   5.665   0.463   3.384
 8867SOL    HW227501   5.559   0.362   3.457
 8868SOL     OW27502   5.639   2.916   0.170
 8868SOL    HW127503   5.624   2.945   0.265
 8868SOL    HW227504   5.726   2.952   0.138
 8869SOL     OW27505   2.845   1.936   2.961
 8869SOL    HW127506   2.757   1.965   2.924
 8869SOL    HW227507   2.848   1.954   3.059
 8870SOL     OW27508   4.538   6.976   1.800
 8870SOL    HW127509   4.620   6.967   1.856
 8870SOL    HW227510   4.565   6.986   1.704
 8871SOL     OW27511   1.405   2.228   4.186
 8871SOL    HW127512   1.401   2.275   4.274
 8871SOL    HW227513   1.501   2.208   4.163
 8872SOL     OW27514   0.959   1.754   2.459
 8872SOL    HW127515   1.041   1.736   2.513
 8872SOL    HW227516   0.906   1.670   2.450
 8873SOL     OW27517   6.947   5.494   5.130
 8873SOL    HW127518   6.983   5.441   5.207
 8873SOL    HW227519   6.855   5.463   5.109
 8874SOL     OW27520   1.462   1.241   6.411
 8874SOL    HW127521   1.394   1.263   6.343
 8874SOL    HW227522   1.423   1.249   6.503
 8875SOL     OW27523   1.544   1.221   3.635
 8875SOL    HW127524   1.572   1.127   3.653
 8875SOL    HW227525   1.546   1.273   3.720
 8876SOL     OW27526   2.434   1.224   4.854
 8876SOL    HW127527   2.513   1.234   4.914
 8876SOL    HW227528   2.399   1.314   4.829
 8877SOL     OW27529   3.345   6.814   4.527
 8877SOL    HW127530   3.267   6.756   4.551
 8877SOL    HW227531   3.318   6.910   4.533
 8878SOL     OW27532   6.482   4.786   5.199
 8878SOL    HW127533   6.515   4.693   5.210
 8878SOL    HW227534   6.538   4.848   5.254
 8879SOL     OW27535   5.488   5.468   4.674
 8879SOL    HW127536   5.550   5.534   4.715
 8879SOL    HW227537   5.445   5.508   4.593
 8880SOL     OW27538   0.814   6.823   4.938
 8880SOL    HW127539   0.836   6.902   4.995
 8880SOL    HW227540   0.843   6.839   4.844
 8881SOL     OW27541   6.996   2.085   2.573
 8881SOL    HW127542   6.910   2.085   2.623
 8881SOL    HW227543   7.019   1.992   2.546
 8882SOL     OW27544   5.759   2.627   0.410
 8882SOL    HW127545   5.857   2.607   0.408
 8882SOL    HW227546   5.745   2.718   0.449
 8883SOL     OW27547   5.709   1.649   5.637
 8883SOL    HW127548   5.807   1.669   5.633
 8883SOL    HW227549   5.690   1.566   5.584
 8884SOL     OW27550   0.171   1.290   6.372
 8884SOL    HW127551   0.107   1.309   6.447
 8884SOL    HW227552   0.265   1.297   6.405
 8885SOL     OW27553   5.993   3.899   1.013
 8885SOL    HW127554   6.086   3.924   1.040
 8885SOL    HW227555   5.931   3.911   1.090
 8886SOL     OW27556   2.976   5.624   5.872
 8886SOL    HW127557   3.053   5.618   5.935
 8886SOL    HW227558   2.994   5.696   5.805
 8887SOL     OW27559   1.619   1.166   1.106
 8887SOL    HW127560   1.661   1.225   1.175
 8887SOL    HW227561   1.520   1.176   1.109
 8888SOL     OW27562   2.381   2.465   2.801
 8888SOL    HW127563   2.462   2.448   2.745
 8888SOL    HW227564   2.328   2.381   2.809
 8889SOL     OW27565   3.395   1.410   4.717
 8889SOL    HW127566   3.395   1.424   4.816
 8889SOL    HW227567   3.403   1.312   4.697
 8890SOL     OW27568   6.676   4.801   3.558
 8890SOL    HW127569   6.691   4.732   3.487
 8890SOL    HW227570   6.622   4.762   3.632
 8891SOL     OW27571   3.616   1.704   6.429
 8891SOL    HW127572   3.683   1.752   6.485
 8891SOL    HW227573   3.526   1.711   6.472
 8892SOL     OW27574   0.978   0.043   2.936
 8892SOL    HW127575   1.057   7.013   2.907
 8892SOL    HW227576   0.988   0.067   3.033
 8893SOL     OW27577   0.379   1.235   0.524
 8893SOL    HW127578   0.326   1.270   0.447
 8893SOL    HW227579   0.322   1.175   0.580
 8894SOL     OW27580   4.560   1.884   5.861
 8894SOL    HW127581   4.548   1.971   5.910
 8894SOL    HW227582   4.652   1.881   5.822
 8895SOL     OW27583   1.231   1.046   2.976
 8895SOL    HW127584   1.161   1.118   2.978
 8895SOL    HW227585   1.302   1.067   3.042
 8896SOL     OW27586   1.526   4.307   5.090
 8896SOL    HW127587   1.428   4.287   5.097
 8896SOL    HW227588   1.558   4.351   5.174
 8897SOL     OW27589   1.087   2.421   2.106
 8897SOL    HW127590   1.177   2.465   2.105
 8897SOL    HW227591   1.097   2.325   2.134
 8898SOL     OW27592   6.829   2.857   5.300
 8898SOL    HW127593   6.861   2.878   5.207
 8898SOL    HW227594   6.742   2.905   5.316
 8899SOL     OW27595   3.431   5.720   2.051
 8899SOL    HW127596   3.524   5.751   2.035
 8899SOL    HW227597   3.369   5.766   1.987
 8900SOL     OW27598   6.740   1.906   3.493
 8900SOL    HW127599   6.806   1.838   3.463
 8900SOL    HW227600   6.756   1.992   3.444
 8901SOL     OW27601   1.915   0.105   2.035
 8901SOL    HW127602   1.878   0.197   2.027
 8901SOL    HW227603   1.982   0.089   1.961
 8902SOL     OW27604   3.835   6.478   5.598
 8902SOL    HW127605   3.854   6.388   5.637
 8902SOL    HW227606   3.917   6.535   5.603
 8903SOL     OW27607   6.654   1.198   3.037
 8903SOL    HW127608   6.597   1.228   3.114
 8903SOL    HW227609   6.696   1.110   3.059
 8904SOL     OW27610   1.128   3.812   3.998
 8904SOL    HW127611   1.125   3.908   4.027
 8904SOL    HW227612   1.036   3.774   3.996
 8905SOL     OW27613   1.812   3.843   4.904
 8905SOL    HW127614   1.753   3.922   4.921
 8905SOL    HW227615   1.795   3.774   4.974
 8906SOL     OW27616   2.388   5.252   4.718
 8906SOL    HW127617   2.406   5.333   4.774
 8906SOL    HW227618   2.475   5.216   4.685
 8907SOL     OW27619   3.733   2.313   6.286
 8907SOL    HW127620   3.749   2.386   6.220
 8907SOL    HW227621   3.799   2.239   6.271
 8908SOL     OW27622   0.575   3.317   3.031
 8908SOL    HW127623   0.500   3.252   3.047
 8908SOL    HW227624   0.663   3.269   3.041
 8909SOL     OW27625   3.610   6.719   5.525
 8909SOL    HW127626   3.526   6.772   5.525
 8909SOL    HW227627   3.589   6.622   5.539
 8910SOL     OW27628   4.302   2.669   0.085
 8910SOL    HW127629   4.373   2.739   0.077
 8910SOL    HW227630   4.247   2.666   0.001
 8911SOL     OW27631   5.094   2.721   4.055
 8911SOL    HW127632   5.017   2.657   4.055
 8911SOL    HW227633   5.077   2.794   4.122
 8912SOL     OW27634   4.529   1.167   6.944
 8912SOL    HW127635   4.538   1.233   7.018
 8912SOL    HW227636   4.618   1.125   6.926
 8913SOL     OW27637   4.320   4.256   0.583
 8913SOL    HW127638   4.288   4.167   0.552
 8913SOL    HW227639   4.316   4.322   0.508
 8914SOL     OW27640   4.949   2.410   3.775
 8914SOL    HW127641   4.987   2.338   3.833
 8914SOL    HW227642   5.022   2.471   3.744
 8915SOL     OW27643   0.736   5.314   2.253
 8915SOL    HW127644   0.794   5.243   2.292
 8915SOL    HW227645   0.779   5.404   2.268
 8916SOL     OW27646   5.981   3.275   1.934
 8916SOL    HW127647   6.009   3.216   2.010
 8916SOL    HW227648   5.977   3.222   1.850
 8917SOL     OW27649   5.284   4.301   5.667
 8917SOL    HW127650   5.356   4.238   5.696
 8917SOL    HW227651   5.325   4.377   5.616
 8918SOL     OW27652   4.721   3.974   5.851
 8918SOL    HW127653   4.732   4.036   5.929
 8918SOL    HW227654   4.808   3.928   5.832
 8919SOL     OW27655   1.814   3.362   1.618
 8919SOL    HW127656   1.751   3.435   1.592
 8919SOL    HW227657   1.778   3.313   1.697
 8920SOL     OW27658   6.401   5.659   6.134
 8920SOL    HW127659   6.336   5.646   6.209
 8920SOL    HW227660   6.351   5.664   6.047
 8921SOL     OW27661   0.993   5.678   3.840
 8921SOL    HW127662   0.941   5.650   3.759
 8921SOL    HW227663   1.046   5.761   3.818
 8922SOL     OW27664   0.656   3.170   6.933
 8922SOL    HW127665   0.625   3.216   7.016
 8922SOL    HW227666   0.741   3.120   6.953
 8923SOL     OW27667   2.426   4.625   4.417
 8923SOL    HW127668   2.424   4.674   4.329
 8923SOL    HW227669   2.336   4.633   4.460
 8924SOL     OW27670   2.204   6.698   4.421
 8924SOL    HW127671   2.265   6.642   4.477
 8924SOL    HW227672   2.150   6.758   4.480
 8925SOL     OW27673   4.271   5.328   1.013
 8925SOL    HW127674   4.245   5.235   0.985
 8925SOL    HW227675   4.205   5.394   0.977
 8926SOL     OW27676   5.445   6.933   6.982
 8926SOL    HW127677   5.353   6.893   6.982
 8926SOL    HW227678   5.505   6.878   0.016
 8927SOL     OW27679   2.876   2.317   4.707
 8927SOL    HW127680   2.814   2.299   4.784
 8927SOL    HW227681   2.967   2.280   4.728
 8928SOL     OW27682   0.859   0.598   5.507
 8928SOL    HW127683   0.944   0.606   5.559
 8928SOL    HW227684   0.878   0.606   5.409
 8929SOL     OW27685   5.090   4.472   3.059
 8929SOL    HW127686   5.187   4.489   3.043
 8929SOL    HW227687   5.044   4.454   2.972
 8930SOL     OW27688   0.334   5.331   5.371
 8930SOL    HW127689   0.361   5.245   5.413
 8930SOL    HW227690   0.411   5.395   5.374
 8931SOL     OW27691   4.614   0.861   1.787
 8931SOL    HW127692   4.631   0.763   1.797
 8931SOL    HW227693   4.597   0.901   1.877
 8932SOL     OW27694   4.750   0.889   0.407
 8932SOL    HW127695   4.663   0.892   0.456
 8932SOL    HW227696   4.758   0.970   0.348
 8933SOL     OW27697   1.571   6.687   5.400
 8933SOL    HW127698   1.548   6.763   5.340
 8933SOL    HW227699   1.628   6.621   5.351
 8934SOL     OW27700   3.593   6.829   4.057
 8934SOL    HW127701   3.645   6.910   4.086
 8934SOL    HW227702   3.655   6.751   4.049
 8935SOL     OW27703   5.757   2.184   2.424
 8935SOL    HW127704   5.742   2.262   2.485
 8935SOL    HW227705   5.691   2.113   2.445
 8936SOL     OW27706   1.569   3.961   2.052
 8936SOL    HW127707   1.538   3.944   2.145
 8936SOL    HW227708   1.540   3.886   1.993
 8937SOL     OW27709   3.195   6.823   4.920
 8937SOL    HW127710   3.288   6.855   4.906
 8937SOL    HW227711   3.180   6.807   5.018
 8938SOL     OW27712   5.125   6.782   2.059
 8938SOL    HW127713   5.053   6.841   2.097
 8938SOL    HW227714   5.116   6.779   1.959
 8939SOL     OW27715   6.557   2.941   4.649
 8939SOL    HW127716   6.526   2.846   4.641
 8939SOL    HW227717   6.489   2.994   4.698
 8940SOL     OW27718   5.975   3.541   2.554
 8940SOL    HW127719   5.945   3.594   2.475
 8940SOL    HW227720   5.931   3.576   2.637
 8941SOL     OW27721   5.636   2.158   3.254
 8941SOL    HW127722   5.732   2.145   3.230
 8941SOL    HW227723   5.628   2.183   3.350
 8942SOL     OW27724   5.070   5.750   4.153
 8942SOL    HW127725   5.142   5.818   4.141
 8942SOL    HW227726   5.094   5.688   4.227
 8943SOL     OW27727   4.229   3.945   0.554
 8943SOL    HW127728   4.281   3.865   0.525
 8943SOL    HW227729   4.255   3.969   0.648
 8944SOL     OW27730   4.401   5.895   5.121
 8944SOL    HW127731   4.438   5.982   5.152
 8944SOL    HW227732   4.302   5.893   5.136
 8945SOL     OW27733   6.462   5.084   1.726
 8945SOL    HW127734   6.425   5.099   1.818
 8945SOL    HW227735   6.395   5.035   1.671
 8946SOL     OW27736   3.084   1.918   4.376
 8946SOL    HW127737   3.090   2.010   4.415
 8946SOL    HW227738   3.031   1.860   4.437
 8947SOL     OW27739   2.643   5.368   0.542
 8947SOL    HW127740   2.603   5.280   0.519
 8947SOL    HW227741   2.738   5.371   0.509
 8948SOL     OW27742   5.442   0.508   2.698
 8948SOL    HW127743   5.362   0.561   2.724
 8948SOL    HW227744   5.472   0.535   2.606
 8949SOL     OW27745   4.245   6.445   0.497
 8949SOL    HW127746   4.212   6.467   0.405
 8949SOL    HW227747   4.171   6.404   0.550
 8950SOL     OW27748   3.636   4.071   3.793
 8950SOL    HW127749   3.711   4.113   3.742
 8950SOL    HW227750   3.673   4.023   3.873
 8951SOL     OW27751   0.932   0.641   3.805
 8951SOL    HW127752   0.865   0.672   3.738
 8951SOL    HW227753   0.993   0.717   3.829
 8952SOL     OW27754   1.289   3.769   4.790
 8952SOL    HW127755   1.209   3.811   4.748
 8952SOL    HW227756   1.349   3.840   4.827
 8953SOL     OW27757   0.800   5.448   0.809
 8953SOL    HW127758   0.822   5.512   0.883
 8953SOL    HW227759   0.876   5.443   0.745
 8954SOL     OW27760   2.334   4.517   5.570
 8954SOL    HW127761   2.316   4.613   5.546
 8954SOL    HW227762   2.372   4.470   5.491
 8955SOL     OW27763   5.848   3.270   5.933
 8955SOL    HW127764   5.923   3.223   5.978
 8955SOL    HW227765   5.840   3.239   5.838
 8956SOL     OW27766   0.911   6.204   1.358
 8956SOL    HW127767   0.938   6.109   1.374
 8956SOL    HW227768   0.989   6.264   1.374
 8957SOL     OW27769   0.661   0.162   3.477
 8957SOL    HW127770   0.665   0.076   3.428
 8957SOL    HW227771   0.584   0.216   3.445
 8958SOL     OW27772   6.900   3.222   5.048
 8958SOL    HW127773   6.968   3.279   5.003
 8958SOL    HW227774   6.858   3.274   5.123
 8959SOL     OW27775   4.966   1.430   3.856
 8959SOL    HW127776   5.010   1.443   3.944
 8959SOL    HW227777   4.986   1.339   3.821
 8960SOL     OW27778   4.471   5.950   2.179
 8960SOL    HW127779   4.426   5.993   2.101
 8960SOL    HW227780   4.509   6.020   2.239
 8961SOL     OW27781   2.296   1.726   5.596
 8961SOL    HW127782   2.222   1.689   5.653
 8961SOL    HW227783   2.327   1.812   5.634
 8962SOL     OW27784   6.973   6.337   1.411
 8962SOL    HW127785   6.930   6.380   1.332
 8962SOL    HW227786   0.001   6.405   1.462
 8963SOL     OW27787   2.441   5.265   5.988
 8963SOL    HW127788   2.364   5.311   5.944
 8963SOL    HW227789   2.498   5.332   6.035
 8964SOL     OW27790   1.544   2.841   4.219
 8964SOL    HW127791   1.445   2.850   4.233
 8964SOL    HW227792   1.588   2.930   4.231
 8965SOL     OW27793   3.137   5.829   0.062
 8965SOL    HW127794   3.162   5.925   0.045
 8965SOL    HW227795   3.154   5.807   0.158
 8966SOL     OW27796   5.172   0.175   5.449
 8966SOL    HW127797   5.141   0.228   5.370
 8966SOL    HW227798   5.147   0.079   5.438
 8967SOL     OW27799   2.518   0.500   3.514
 8967SOL    HW127800   2.548   0.533   3.424
 8967SOL    HW227801   2.456   0.423   3.502
 8968SOL     OW27802   3.197   5.261   2.124
 8968SOL    HW127803   3.185   5.212   2.038
 8968SOL    HW227804   3.295   5.275   2.141
 8969SOL     OW27805   6.920   1.260   2.470
 8969SOL    HW127806   7.018   1.279   2.473
 8969SOL    HW227807   6.870   1.341   2.502
 8970SOL     OW27808   2.202   1.615   4.622
 8970SOL    HW127809   2.154   1.659   4.698
 8970SOL    HW227810   2.242   1.685   4.563
 8971SOL     OW27811   3.349   4.982   1.519
 8971SOL    HW127812   3.396   5.042   1.454
 8971SOL    HW227813   3.276   4.933   1.472
 8972SOL     OW27814   6.006   3.739   6.163
 8972SOL    HW127815   5.908   3.736   6.184
 8972SOL    HW227816   6.043   3.646   6.160
 8973SOL     OW27817   2.483   1.672   3.532
 8973SOL    HW127818   2.581   1.691   3.534
 8973SOL    HW227819   2.433   1.758   3.524
 8974SOL     OW27820   1.861   4.727   5.210
 8974SOL    HW127821   1.899   4.691   5.295
 8974SOL    HW227822   1.865   4.657   5.139
 8975SOL     OW27823   0.806   3.682   6.106
 8975SOL    HW127824   0.792   3.634   6.019
 8975SOL    HW227825   0.723   3.678   6.160
 8976SOL     OW27826   6.131   0.160   1.223
 8976SOL    HW127827   6.170   0.132   1.310
 8976SOL    HW227828   6.200   0.210   1.170
 8977SOL     OW27829   0.487   4.982   5.732
 8977SOL    HW127830   0.389   5.001   5.729
 8977SOL    HW227831   0.506   4.893   5.692
 8978SOL     OW27832   6.571   5.173   5.277
 8978SOL    HW127833   6.600   5.107   5.346
 8978SOL    HW227834   6.475   5.198   5.292
 8979SOL     OW27835   1.522   4.437   3.442
 8979SOL    HW127836   1.513   4.455   3.540
 8979SOL    HW227837   1.581   4.357   3.428
 8980SOL     OW27838   5.295   0.824   0.789
 8980SOL    HW127839   5.365   0.779   0.844
 8980SOL    HW227840   5.210   0.829   0.840
 8981SOL     OW27841   3.991   2.418   6.668
 8981SOL    HW127842   4.033   2.462   6.589
 8981SOL    HW227843   4.057   2.356   6.711
 8982SOL     OW27844   0.481   0.752   2.662
 8982SOL    HW127845   0.571   0.714   2.684
 8982SOL    HW227846   0.418   0.732   2.736
 8983SOL     OW27847   1.348   6.667   2.377
 8983SOL    HW127848   1.443   6.647   2.353
 8983SOL    HW227849   1.345   6.752   2.430
 8984SOL     OW27850   6.006   0.980   3.754
 8984SOL    HW127851   5.911   0.993   3.780
 8984SOL    HW227852   6.064   1.043   3.804
 8985SOL     OW27853   5.373   0.040   1.622
 8985SOL    HW127854   5.471   0.035   1.605
 8985SOL    HW227855   5.342   0.135   1.614
 8986SOL     OW27856   0.756   6.681   6.440
 8986SOL    HW127857   0.791   6.610   6.501
 8986SOL    HW227858   0.784   6.662   6.346
 8987SOL     OW27859   2.998   6.482   2.082
 8987SOL    HW127860   2.915   6.449   2.036
 8987SOL    HW227861   3.079   6.446   2.035
 8988SOL     OW27862   2.512   6.806   0.778
 8988SOL    HW127863   2.494   6.870   0.702
 8988SOL    HW227864   2.610   6.793   0.789
 8989SOL     OW27865   6.503   1.033   2.214
 8989SOL    HW127866   6.468   1.123   2.243
 8989SOL    HW227867   6.600   1.027   2.237
 8990SOL     OW27868   3.708   1.093   3.040
 8990SOL    HW127869   3.768   1.060   2.967
 8990SOL    HW227870   3.761   1.101   3.125
 8991SOL     OW27871   1.168   2.186   1.166
 8991SOL    HW127872   1.158   2.286   1.158
 8991SOL    HW227873   1.207   2.164   1.255
 8992SOL     OW27874   1.091   5.327   5.160
 8992SOL    HW127875   0.994   5.321   5.139
 8992SOL    HW227876   1.114   5.262   5.233
 8993SOL     OW27877   5.421   4.198   3.974
 8993SOL    HW127878   5.501   4.203   4.034
 8993SOL    HW227879   5.446   4.151   3.889
 8994SOL     OW27880   1.634   5.810   1.882
 8994SOL    HW127881   1.609   5.817   1.979
 8994SOL    HW227882   1.710   5.746   1.872
 8995SOL     OW27883   2.146   4.012   3.706
 8995SOL    HW127884   2.102   4.057   3.784
 8995SOL    HW227885   2.131   4.066   3.624
 8996SOL     OW27886   2.748   3.263   1.071
 8996SOL    HW127887   2.684   3.334   1.044
 8996SOL    HW227888   2.842   3.294   1.056
 8997SOL     OW27889   4.829   1.853   4.697
 8997SOL    HW127890   4.841   1.817   4.605
 8997SOL    HW227891   4.835   1.778   4.764
 8998SOL     OW27892   0.848   1.687   6.872
 8998SOL    HW127893   0.936   1.721   6.841
 8998SOL    HW227894   0.862   1.614   6.938
 8999SOL     OW27895   5.679   2.920   5.825
 8999SOL    HW127896   5.623   2.852   5.778
 8999SOL    HW227897   5.639   3.011   5.810
 9000SOL     OW27898   4.802   4.952   1.313
 9000SOL    HW127899   4.771   4.902   1.232
 9000SOL    HW227900   4.777   4.901   1.395
 9001SOL     OW27901   0.882   3.202   4.251
 9001SOL    HW127902   0.950   3.129   4.257
 9001SOL    HW227903   0.821   3.183   4.174
 9002SOL     OW27904   5.011   2.715   5.581
 9002SOL    HW127905   5.069   2.779   5.631
 9002SOL    HW227906   4.965   2.764   5.507
 9003SOL     OW27907   0.189   3.374   6.781
 9003SOL    HW127908   0.285   3.369   6.754
 9003SOL    HW227909   0.177   3.331   6.870
 9004SOL     OW27910   4.696   5.605   0.355
 9004SOL    HW127911   4.698   5.642   0.262
 9004SOL    HW227912   4.707   5.679   0.421
 9005SOL     OW27913   4.918   3.800   3.683
 9005SOL    HW127914   4.930   3.840   3.592
 9005SOL    HW227915   4.990   3.732   3.699
 9006SOL     OW27916   3.243   6.470   1.671
 9006SOL    HW127917   3.281   6.542   1.729
 9006SOL    HW227918   3.304   6.391   1.672
 9007SOL     OW27919   1.566   6.352   5.622
 9007SOL    HW127920   1.560   6.382   5.717
 9007SOL    HW227921   1.661   6.325   5.602
 9008SOL     OW27922   0.201   4.518   2.124
 9008SOL    HW127923   0.232   4.507   2.218
 9008SOL    HW227924   0.218   4.434   2.072
 9009SOL     OW27925   3.816   6.430   0.024
 9009SOL    HW127926   3.867   6.351   0.057
 9009SOL    HW227927   3.727   6.401   7.014
 9010SOL     OW27928   6.881   5.981   4.395
 9010SOL    HW127929   6.958   6.037   4.363
 9010SOL    HW227930   6.913   5.888   4.415
 9011SOL     OW27931   4.456   2.520   1.603
 9011SOL    HW127932   4.440   2.473   1.690
 9011SOL    HW227933   4.553   2.539   1.593
 9012SOL     OW27934   4.294   4.978   2.818
 9012SOL    HW127935   4.298   4.942   2.911
 9012SOL    HW227936   4.220   4.933   2.768
 9013SOL     OW27937   3.970   5.616   2.081
 9013SOL    HW127938   3.970   5.580   2.174
 9013SOL    HW227939   3.988   5.714   2.082
 9014SOL     OW27940   2.244   0.882   1.941
 9014SOL    HW127941   2.191   0.902   2.023
 9014SOL    HW227942   2.317   0.949   1.930
 9015SOL     OW27943   6.475   2.311   4.630
 9015SOL    HW127944   6.384   2.291   4.594
 9015SOL    HW227945   6.532   2.350   4.557
 9016SOL     OW27946   0.064   5.523   6.612
 9016SOL    HW127947   6.993   5.553   6.617
 9016SOL    HW227948   0.070   5.440   6.558
 9017SOL     OW27949   6.234   3.010   2.772
 9017SOL    HW127950   6.182   3.090   2.800
 9017SOL    HW227951   6.284   3.030   2.688
 9018SOL     OW27952   5.224   1.540   6.879
 9018SOL    HW127953   5.256   1.469   6.941
 9018SOL    HW227954   5.127   1.527   6.861
 9019SOL     OW27955   1.930   5.277   0.183
 9019SOL    HW127956   1.878   5.197   0.211
 9019SOL    HW227957   1.889   5.359   0.221
 9020SOL     OW27958   1.187   5.273   4.550
 9020SOL    HW127959   1.130   5.242   4.475
 9020SOL    HW227960   1.154   5.361   4.584
 9021SOL     OW27961   6.414   5.501   5.456
 9021SOL    HW127962   6.392   5.410   5.421
 9021SOL    HW227963   6.329   5.548   5.483
 9022SOL     OW27964   1.819   6.854   6.126
 9022SOL    HW127965   1.816   6.931   6.062
 9022SOL    HW227966   1.914   6.827   6.141
 9023SOL     OW27967   3.396   3.912   4.559
 9023SOL    HW127968   3.481   3.883   4.603
 9023SOL    HW227969   3.410   4.000   4.514
 9024SOL     OW27970   1.013   0.025   6.967
 9024SOL    HW127971   1.074   0.095   6.929
 9024SOL    HW227972   1.007   0.036   0.042
 9025SOL     OW27973   0.504   3.087   0.302
 9025SOL    HW127974   0.491   3.137   0.388
 9025SOL    HW227975   0.528   3.152   0.229
 9026SOL     OW27976   2.958   3.630   5.919
 9026SOL    HW127977   2.991   3.644   5.826
 9026SOL    HW227978   2.884   3.695   5.939
 9027SOL     OW27979   1.763   3.273   2.435
 9027SOL    HW127980   1.705   3.355   2.444
 9027SOL    HW227981   1.715   3.205   2.379
 9028SOL     OW27982   2.336   4.400   4.869
 9028SOL    HW127983   2.313   4.491   4.903
 9028SOL    HW227984   2.322   4.397   4.770
 9029SOL     OW27985   5.402   5.324   3.103
 9029SOL    HW127986   5.486   5.379   3.107
 9029SOL    HW227987   5.388   5.280   3.192
 9030SOL     OW27988   4.686   2.767   3.004
 9030SOL    HW127989   4.666   2.726   3.093
 9030SOL    HW227990   4.707   2.864   3.015
 9031SOL     OW27991   2.465   1.094   2.249
 9031SOL    HW127992   2.482   1.014   2.191
 9031SOL    HW227993   2.446   1.064   2.342
 9032SOL     OW27994   0.291   3.697   2.657
 9032SOL    HW127995   0.337   3.785   2.663
 9032SOL    HW227996   0.192   3.711   2.648
 9033SOL     OW27997   1.239   3.732   2.386
 9033SOL    HW127998   1.253   3.634   2.397
 9033SOL    HW227999   1.260   3.778   2.472
 9034SOL     OW28000   1.555   6.631   6.969
 9034SOL    HW128001   1.652   6.609   6.982
 9034SOL    HW228002   1.524   6.692   0.017
 9035SOL     OW28003   6.266   1.130   4.204
 9035SOL    HW128004   6.340   1.116   4.269
 9035SOL    HW228005   6.196   1.061   4.218
 9036SOL     OW28006   0.411   1.663   5.067
 9036SOL    HW128007   0.313   1.682   5.058
 9036SOL    HW228008   0.446   1.627   4.981
 9037SOL     OW28009   2.442   4.349   5.782
 9037SOL    HW128010   2.423   4.423   5.717
 9037SOL    HW228011   2.506   4.284   5.741
 9038SOL     OW28012   4.033   5.470   5.618
 9038SOL    HW128013   4.074   5.382   5.596
 9038SOL    HW228014   3.933   5.464   5.607
 9039SOL     OW28015   2.833   4.741   0.182
 9039SOL    HW128016   2.761   4.809   0.195
 9039SOL    HW228017   2.838   4.681   0.262
 9040SOL     OW28018   3.281   0.928   2.441
 9040SOL    HW128019   3.230   0.950   2.524
 9040SOL    HW228020   3.219   0.892   2.372
 9041SOL     OW28021   2.142   2.464   5.658
 9041SOL    HW128022   2.215   2.498   5.598
 9041SOL    HW228023   2.053   2.495   5.623
 9042SOL     OW28024   1.947   5.524   2.357
 9042SOL    HW128025   1.930   5.622   2.351
 9042SOL    HW228026   2.012   5.505   2.430
 9043SOL     OW28027   0.530   1.753   6.893
 9043SOL    HW128028   0.432   1.750   6.913
 9043SOL    HW228029   0.575   1.673   6.935
 9044SOL     OW28030   0.704   4.158   0.548
 9044SOL    HW128031   0.693   4.244   0.598
 9044SOL    HW228032   0.794   4.157   0.505
 9045SOL     OW28033   2.335   4.939   4.839
 9045SOL    HW128034   2.297   4.976   4.754
 9045SOL    HW228035   2.345   5.012   4.906
 9046SOL     OW28036   3.283   4.082   5.989
 9046SOL    HW128037   3.258   4.110   6.081
 9046SOL    HW228038   3.320   3.989   5.991
 9047SOL     OW28039   0.787   4.153   4.463
 9047SOL    HW128040   0.708   4.102   4.498
 9047SOL    HW228041   0.845   4.091   4.409
 9048SOL     OW28042   1.625   2.944   4.957
 9048SOL    HW128043   1.550   2.929   4.893
 9048SOL    HW228044   1.630   2.867   5.021
 9049SOL     OW28045   4.821   6.400   5.719
 9049SOL    HW128046   4.868   6.346   5.649
 9049SOL    HW228047   4.769   6.339   5.779
 9050SOL     OW28048   0.069   4.092   5.996
 9050SOL    HW128049   0.097   3.996   5.999
 9050SOL    HW228050   0.043   4.115   5.902
 9051SOL     OW28051   6.409   6.559   6.394
 9051SOL    HW128052   6.341   6.494   6.428
 9051SOL    HW228053   6.493   6.549   6.448
 9052SOL     OW28054   2.681   5.043   4.694
 9052SOL    HW128055   2.705   5.002   4.781
 9052SOL    HW228056   2.639   4.974   4.634
 9053SOL     OW28057   1.888   0.989   2.620
 9053SOL    HW128058   1.931   1.078   2.608
 9053SOL    HW228059   1.812   0.998   2.685
 9054SOL     OW28060   1.446   0.055   1.512
 9054SOL    HW128061   1.358   0.092   1.543
 9054SOL    HW228062   1.520   0.101   1.559
 9055SOL     OW28063   1.401   2.109   4.941
 9055SOL    HW128064   1.455   2.048   4.999
 9055SOL    HW228065   1.429   2.203   4.956
 9056SOL     OW28066   5.481   2.257   1.510
 9056SOL    HW128067   5.454   2.251   1.414
 9056SOL    HW228068   5.479   2.165   1.551
 9057SOL     OW28069   3.659   6.767   6.682
 9057SOL    HW128070   3.626   6.678   6.714
 9057SOL    HW228071   3.655   6.770   6.583
 9058SOL     OW28072   2.150   2.752   4.026
 9058SOL    HW128073   2.178   2.732   4.120
 9058SOL    HW228074   2.060   2.795   4.027
 9059SOL     OW28075   6.968   0.524   2.468
 9059SOL    HW128076   6.961   0.556   2.563
 9059SOL    HW228077   6.884   0.477   2.443
 9060SOL     OW28078   6.974   4.782   0.300
 9060SOL    HW128079   6.918   4.763   0.220
 9060SOL    HW228080   0.037   4.823   0.271
 9061SOL     OW28081   4.427   4.484   2.541
 9061SOL    HW128082   4.341   4.488   2.592
 9061SOL    HW228083   4.500   4.524   2.596
 9062SOL     OW28084   0.224   6.096   3.081
 9062SOL    HW128085   0.143   6.117   3.026
 9062SOL    HW228086   0.241   5.997   3.079
 9063SOL     OW28087   5.711   6.632   1.013
 9063SOL    HW128088   5.757   6.630   1.102
 9063SOL    HW228089   5.746   6.708   0.959
 9064SOL     OW28090   1.584   5.714   2.958
 9064SOL    HW128091   1.635   5.792   2.923
 9064SOL    HW228092   1.545   5.737   3.047
 9065SOL     OW28093   3.227   4.143   6.688
 9065SOL    HW128094   3.189   4.158   6.597
 9065SOL    HW228095   3.289   4.218   6.711
 9066SOL     OW28096   4.982   4.619   3.780
 9066SOL    HW128097   4.976   4.687   3.708
 9066SOL    HW228098   5.071   4.574   3.777
 9067SOL     OW28099   1.995   6.556   4.085
 9067SOL    HW128100   2.060   6.618   4.040
 9067SOL    HW228101   2.041   6.509   4.160
 9068SOL     OW28102   5.055   0.299   5.930
 9068SOL    HW128103   4.999   0.382   5.926
 9068SOL    HW228104   4.997   0.219   5.941
 9069SOL     OW28105   4.803   2.465   1.862
 9069SOL    HW128106   4.836   2.371   1.855
 9069SOL    HW228107   4.718   2.467   1.915
 9070SOL     OW28108   1.441   0.920   6.627
 9070SOL    HW128109   1.378   0.996   6.642
 9070SOL    HW228110   1.395   0.849   6.574
 9071SOL     OW28111   4.982   2.685   6.815
 9071SOL    HW128112   4.998   2.599   6.768
 9071SOL    HW228113   5.047   2.754   6.783
 9072SOL     OW28114   6.797   0.941   2.205
 9072SOL    HW128115   6.872   1.006   2.196
 9072SOL    HW228116   6.788   0.888   2.120
 9073SOL     OW28117   4.748   2.528   5.601
 9073SOL    HW128118   4.754   2.611   5.656
 9073SOL    HW228119   4.832   2.474   5.611
 9074SOL     OW28120   2.197   1.152   3.580
 9074SOL    HW128121   2.221   1.098   3.661
 9074SOL    HW228122   2.209   1.249   3.600
 9075SOL     OW28123   5.030   5.377   0.608
 9075SOL    HW128124   5.027   5.457   0.667
 9075SOL    HW228125   4.958   5.314   0.634
 9076SOL     OW28126   1.424   5.990   2.356
 9076SOL    HW128127   1.504   6.036   2.395
 9076SOL    HW228128   1.343   6.013   2.409
 9077SOL     OW28129   6.672   1.569   6.505
 9077SOL    HW128130   6.683   1.556   6.407
 9077SOL    HW228131   6.575   1.563   6.529
 9078SOL     OW28132   4.971   6.654   6.820
 9078SOL    HW128133   4.907   6.726   6.845
 9078SOL    HW228134   5.058   6.669   6.867
 9079SOL     OW28135   1.603   1.568   6.612
 9079SOL    HW128136   1.625   1.471   6.621
 9079SOL    HW228137   1.685   1.618   6.584
 9080SOL     OW28138   6.348   4.249   0.895
 9080SOL    HW128139   6.346   4.271   0.992
 9080SOL    HW228140   6.260   4.273   0.854
 9081SOL     OW28141   5.013   1.433   0.406
 9081SOL    HW128142   4.984   1.426   0.310
 9081SOL    HW228143   4.994   1.525   0.440
 9082SOL     OW28144   3.461   4.898   6.600
 9082SOL    HW128145   3.432   4.806   6.572
 9082SOL    HW228146   3.559   4.899   6.615
 9083SOL     OW28147   4.265   0.586   0.924
 9083SOL    HW128148   4.224   0.661   0.977
 9083SOL    HW228149   4.212   0.573   0.840
 9084SOL     OW28150   6.998   4.691   4.496
 9084SOL    HW128151   6.967   4.598   4.512
 9084SOL    HW228152   7.008   4.706   4.397
 9085SOL     OW28153   3.209   4.744   1.342
 9085SOL    HW128154   3.154   4.741   1.426
 9085SOL    HW228155   3.172   4.679   1.276
 9086SOL     OW28156   6.715   2.387   0.709
 9086SOL    HW128157   6.641   2.324   0.687
 9086SOL    HW228158   6.754   2.423   0.624
 9087SOL     OW28159   4.750   1.307   1.348
 9087SOL    HW128160   4.846   1.335   1.359
 9087SOL    HW228161   4.691   1.388   1.351
 9088SOL     OW28162   5.575   6.370   6.401
 9088SOL    HW128163   5.500   6.377   6.466
 9088SOL    HW228164   5.543   6.325   6.318
 9089SOL     OW28165   4.907   5.668   2.876
 9089SOL    HW128166   4.932   5.580   2.835
 9089SOL    HW228167   4.808   5.670   2.892
 9090SOL     OW28168   6.151   5.657   5.495
 9090SOL    HW128169   6.153   5.750   5.532
 9090SOL    HW228170   6.087   5.653   5.418
 9091SOL     OW28171   2.678   2.406   1.500
 9091SOL    HW128172   2.650   2.454   1.584
 9091SOL    HW228173   2.732   2.325   1.525
 9092SOL     OW28174   2.982   1.906   5.168
 9092SOL    HW128175   2.891   1.930   5.135
 9092SOL    HW228176   3.031   1.857   5.097
 9093SOL     OW28177   2.080   3.598   0.658
 9093SOL    HW128178   2.085   3.503   0.688
 9093SOL    HW228179   1.993   3.614   0.612
 9094SOL     OW28180   6.781   2.182   0.379
 9094SOL    HW128181   6.847   2.129   0.433
 9094SOL    HW228182   6.827   2.261   0.338
 9095SOL     OW28183   2.123   2.531   0.018
 9095SOL    HW128184   2.055   2.600   0.040
 9095SOL    HW228185   2.135   2.469   0.096
 9096SOL     OW28186   6.579   4.841   2.805
 9096SOL    HW128187   6.548   4.852   2.900
 9096SOL    HW228188   6.511   4.790   2.753
 9097SOL     OW28189   6.658   5.585   5.986
 9097SOL    HW128190   6.679   5.497   5.944
 9097SOL    HW228191   6.575   5.577   6.041
 9098SOL     OW28192   3.931   3.124   5.032
 9098SOL    HW128193   3.962   3.044   4.981
 9098SOL    HW228194   3.832   3.132   5.026
 9099SOL     OW28195   1.985   2.370   6.793
 9099SOL    HW128196   2.077   2.407   6.812
 9099SOL    HW228197   1.991   2.306   6.716
 9100SOL     OW28198   1.311   2.724   0.808
 9100SOL    HW128199   1.252   2.805   0.809
 9100SOL    HW228200   1.285   2.666   0.731
 9101SOL     OW28201   2.008   2.027   0.062
 9101SOL    HW128202   2.083   2.020   0.127
 9101SOL    HW228203   1.921   2.015   0.110
 9102SOL     OW28204   4.420   6.308   2.158
 9102SOL    HW128205   4.419   6.406   2.178
 9102SOL    HW228206   4.436   6.294   2.061
 9103SOL     OW28207   0.984   4.111   6.141
 9103SOL    HW128208   1.035   4.197   6.146
 9103SOL    HW228209   0.903   4.123   6.083
 9104SOL     OW28210   4.591   0.361   3.058
 9104SOL    HW128211   4.603   0.378   2.960
 9104SOL    HW228212   4.638   0.431   3.110
 9105SOL     OW28213   3.018   2.041   6.191
 9105SOL    HW128214   3.066   1.975   6.250
 9105SOL    HW228215   2.941   2.080   6.242
 9106SOL     OW28216   6.425   5.448   1.914
 9106SOL    HW128217   6.450   5.461   1.818
 9106SOL    HW228218   6.470   5.365   1.949
 9107SOL     OW28219   4.932   6.216   6.286
 9107SOL    HW128220   4.843   6.249   6.256
 9107SOL    HW228221   4.923   6.121   6.317
 9108SOL     OW28222   3.315   5.612   0.180
 9108SOL    HW128223   3.407   5.649   0.174
 9108SOL    HW228224   3.293   5.563   0.096
 9109SOL     OW28225   3.343   1.828   4.058
 9109SOL    HW128226   3.249   1.821   4.094
 9109SOL    HW228227   3.367   1.924   4.047
 9110SOL     OW28228   0.773   3.773   3.229
 9110SOL    HW128229   0.766   3.697   3.294
 9110SOL    HW228230   0.685   3.821   3.226
 9111SOL     OW28231   3.880   4.180   1.463
 9111SOL    HW128232   3.891   4.131   1.377
 9111SOL    HW228233   3.800   4.145   1.512
 9112SOL     OW28234   0.879   5.950   2.265
 9112SOL    HW128235   0.859   5.856   2.238
 9112SOL    HW228236   0.946   5.989   2.202
 9113SOL     OW28237   2.698   5.441   0.085
 9113SOL    HW128238   2.731   5.369   0.024
 9113SOL    HW228239   2.737   5.529   0.057
 9114SOL     OW28240   2.578   3.570   1.708
 9114SOL    HW128241   2.479   3.573   1.722
 9114SOL    HW228242   2.617   3.497   1.763
 9115SOL     OW28243   1.591   3.996   4.536
 9115SOL    HW128244   1.536   3.984   4.618
 9115SOL    HW228245   1.686   3.973   4.555
 9116SOL     OW28246   2.520   2.086   5.995
 9116SOL    HW128247   2.521   2.153   5.921
 9116SOL    HW228248   2.608   2.039   5.998
 9117SOL     OW28249   0.758   3.290   0.415
 9117SOL    HW128250   0.741   3.307   0.512
 9117SOL    HW228251   0.740   3.194   0.394
 9118SOL     OW28252   0.765   6.429   1.800
 9118SOL    HW128253   0.736   6.360   1.733
 9118SOL    HW228254   0.862   6.449   1.787
 9119SOL     OW28255   6.092   0.236   0.903
 9119SOL    HW128256   6.101   0.138   0.884
 9119SOL    HW228257   6.054   0.282   0.823
 9120SOL     OW28258   6.282   0.349   6.911
 9120SOL    HW128259   6.266   0.272   6.849
 9120SOL    HW228260   6.261   0.435   6.863
 9121SOL     OW28261   1.324   1.644   6.888
 9121SOL    HW128262   1.238   1.694   6.895
 9121SOL    HW228263   1.395   1.705   6.853
 9122SOL     OW28264   0.362   2.799   1.522
 9122SOL    HW128265   0.409   2.720   1.482
 9122SOL    HW228266   0.417   2.835   1.597
 9123SOL     OW28267   1.999   6.393   6.816
 9123SOL    HW128268   1.994   6.293   6.810
 9123SOL    HW228269   2.065   6.418   6.887
 9124SOL     OW28270   6.953   4.331   5.384
 9124SOL    HW128271   6.968   4.287   5.473
 9124SOL    HW228272   6.923   4.262   5.318
 9125SOL     OW28273   4.659   5.704   1.130
 9125SOL    HW128274   4.592   5.672   1.196
 9125SOL    HW228275   4.675   5.802   1.142
 9126SOL     OW28276   5.469   0.207   3.438
 9126SOL    HW128277   5.379   0.163   3.442
 9126SOL    HW228278   5.518   0.175   3.357
 9127SOL     OW28279   5.826   5.799   5.986
 9127SOL    HW128280   5.811   5.719   5.927
 9127SOL    HW228281   5.755   5.803   6.055
 9128SOL     OW28282   4.544   2.575   5.392
 9128SOL    HW128283   4.509   2.668   5.402
 9128SOL    HW228284   4.605   2.554   5.469
 9129SOL     OW28285   2.580   1.322   6.964
 9129SOL    HW128286   2.521   1.400   6.943
 9129SOL    HW228287   2.676   1.351   6.962
 9130SOL     OW28288   5.796   5.790   0.977
 9130SOL    HW128289   5.877   5.821   0.927
 9130SOL    HW228290   5.807   5.694   1.002
 9131SOL     OW28291   1.432   4.437   3.760
 9131SOL    HW128292   1.397   4.522   3.800
 9131SOL    HW228293   1.496   4.394   3.824
 9132SOL     OW28294   1.970   2.957   4.284
 9132SOL    HW128295   2.067   2.963   4.261
 9132SOL    HW228296   1.946   3.030   4.348
 9133SOL     OW28297   1.672   5.008   1.230
 9133SOL    HW128298   1.697   5.012   1.134
 9133SOL    HW228299   1.752   4.981   1.284
 9134SOL     OW28300   2.538   5.032   6.213
 9134SOL    HW128301   2.590   4.956   6.173
 9134SOL    HW228302   2.462   4.996   6.268
 9135SOL     OW28303   0.983   6.491   3.944
 9135SOL    HW128304   0.993   6.534   3.854
 9135SOL    HW228305   0.903   6.528   3.990
 9136SOL     OW28306   3.185   5.122   5.126
 9136SOL    HW128307   3.166   5.047   5.063
 9136SOL    HW228308   3.272   5.165   5.101
 9137SOL     OW28309   4.091   0.634   1.847
 9137SOL    HW128310   4.141   0.704   1.797
 9137SOL    HW228311   4.000   0.622   1.807
 9138SOL     OW28312   3.160   4.163   1.047
 9138SOL    HW128313   3.186   4.248   1.092
 9138SOL    HW228314   3.076   4.177   0.996
 9139SOL     OW28315   3.581   0.651   5.834
 9139SOL    HW128316   3.614   0.557   5.822
 9139SOL    HW228317   3.637   0.712   5.778
 9140SOL     OW28318   6.348   2.598   3.456
 9140SOL    HW128319   6.369   2.685   3.500
 9140SOL    HW228320   6.304   2.615   3.367
 9141SOL     OW28321   5.692   0.464   5.719
 9141SOL    HW128322   5.786   0.460   5.750
 9141SOL    HW228323   5.649   0.548   5.753
 9142SOL     OW28324   1.075   4.418   6.623
 9142SOL    HW128325   1.050   4.450   6.715
 9142SOL    HW228326   1.082   4.318   6.623
 9143SOL     OW28327   5.649   4.230   0.747
 9143SOL    HW128328   5.628   4.132   0.745
 9143SOL    HW228329   5.564   4.282   0.759
 9144SOL     OW28330   1.420   5.270   4.701
 9144SOL    HW128331   1.374   5.300   4.617
 9144SOL    HW228332   1.515   5.247   4.680
 9145SOL     OW28333   0.573   3.984   6.106
 9145SOL    HW128334   0.555   3.896   6.062
 9145SOL    HW228335   0.601   3.969   6.201
 9146SOL     OW28336   0.714   1.908   1.144
 9146SOL    HW128337   0.778   1.984   1.146
 9146SOL    HW228338   0.641   1.928   1.079
 9147SOL     OW28339   4.331   5.469   5.839
 9147SOL    HW128340   4.353   5.413   5.760
 9147SOL    HW228341   4.411   5.522   5.866
 9148SOL     OW28342   3.527   5.027   3.027
 9148SOL    HW128343   3.434   4.992   3.042
 9148SOL    HW228344   3.540   5.111   3.080
 9149SOL     OW28345   6.428   2.985   5.101
 9149SOL    HW128346   6.382   2.906   5.060
 9149SOL    HW228347   6.495   2.954   5.168
 9150SOL     OW28348   4.228   1.612   2.823
 9150SOL    HW128349   4.161   1.639   2.754
 9150SOL    HW228350   4.201   1.525   2.863
 9151SOL     OW28351   0.351   3.312   2.100
 9151SOL    HW128352   0.370   3.389   2.038
 9151SOL    HW228353   0.314   3.236   2.047
 9152SOL     OW28354   2.224   5.047   3.465
 9152SOL    HW128355   2.198   5.009   3.553
 9152SOL    HW228356   2.288   5.123   3.480
 9153SOL     OW28357   1.875   2.596   0.131
 9153SOL    HW128358   1.895   2.498   0.126
 9153SOL    HW228359   1.879   2.626   0.226
 9154SOL     OW28360   1.058   5.405   0.647
 9154SOL    HW128361   1.152   5.427   0.621
 9154SOL    HW228362   1.051   5.307   0.665
 9155SOL     OW28363   1.642   4.596   6.966
 9155SOL    HW128364   1.626   4.526   0.011
 9155SOL    HW228365   1.587   4.677   6.987
 9156SOL     OW28366   4.910   2.752   1.596
 9156SOL    HW128367   4.975   2.685   1.560
 9156SOL    HW228368   4.896   2.824   1.527
 9157SOL     OW28369   5.086   3.417   5.492
 9157SOL    HW128370   5.157   3.444   5.427
 9157SOL    HW228371   4.996   3.429   5.450
 9158SOL     OW28372   0.547   4.043   3.636
 9158SOL    HW128373   0.640   4.038   3.674
 9158SOL    HW228374   0.538   4.127   3.583
 9159SOL     OW28375   6.566   4.532   2.586
 9159SOL    HW128376   6.576   4.586   2.502
 9159SOL    HW228377   6.652   4.485   2.606
 9160SOL     OW28378   0.393   0.226   0.817
 9160SOL    HW128379   0.339   0.168   0.756
 9160SOL    HW228380   0.378   0.322   0.793
 9161SOL     OW28381   5.003   4.232   2.459
 9161SOL    HW128382   5.067   4.180   2.514
 9161SOL    HW228383   5.019   4.330   2.473
 9162SOL     OW28384   4.965   2.561   2.530
 9162SOL    HW128385   5.055   2.552   2.487
 9162SOL    HW228386   4.896   2.572   2.460
 9163SOL     OW28387   3.332   0.923   5.014
 9163SOL    HW128388   3.299   0.849   4.956
 9163SOL    HW228389   3.432   0.928   5.006
 9164SOL     OW28390   2.908   0.166   0.905
 9164SOL    HW128391   2.869   0.080   0.870
 9164SOL    HW228392   2.935   0.153   1.000
 9165SOL     OW28393   4.689   5.821   0.543
 9165SOL    HW128394   4.607   5.879   0.547
 9165SOL    HW228395   4.718   5.797   0.635
 9166SOL     OW28396   3.079   5.671   1.440
 9166SOL    HW128397   3.146   5.641   1.372
 9166SOL    HW228398   3.103   5.632   1.529
 9167SOL     OW28399   0.296   3.721   4.626
 9167SOL    HW128400   0.251   3.632   4.630
 9167SOL    HW228401   0.339   3.741   4.715
 9168SOL     OW28402   3.441   0.418   0.393
 9168SOL    HW128403   3.524   0.453   0.349
 9168SOL    HW228404   3.450   0.427   0.492
 9169SOL     OW28405   0.699   6.886   3.464
 9169SOL    HW128406   0.798   6.891   3.481
 9169SOL    HW228407   0.660   6.811   3.517
 9170SOL     OW28408   6.438   6.355   0.166
 9170SOL    HW128409   6.399   6.405   0.089
 9170SOL    HW228410   6.369   6.345   0.238
 9171SOL     OW28411   3.039   5.373   5.179
 9171SOL    HW128412   3.068   5.282   5.148
 9171SOL    HW228413   3.054   5.440   5.107
 9172SOL     OW28414   2.523   2.493   4.251
 9172SOL    HW128415   2.588   2.486   4.175
 9172SOL    HW228416   2.487   2.403   4.274
 9173SOL     OW28417   0.661   5.118   5.168
 9173SOL    HW128418   0.703   5.206   5.147
 9173SOL    HW228419   0.728   5.045   5.157
 9174SOL     OW28420   0.552   5.854   6.659
 9174SOL    HW128421   0.500   5.934   6.629
 9174SOL    HW228422   0.648   5.864   6.633
 9175SOL     OW28423   1.908   6.430   5.571
 9175SOL    HW128424   1.879   6.344   5.530
 9175SOL    HW228425   1.874   6.436   5.665
 9176SOL     OW28426   1.479   1.716   5.775
 9176SOL    HW128427   1.569   1.753   5.798
 9176SOL    HW228428   1.486   1.617   5.762
 9177SOL     OW28429   0.985   4.925   2.980
 9177SOL    HW128430   0.965   5.013   2.938
 9177SOL    HW228431   1.065   4.933   3.038
 9178SOL     OW28432   2.117   4.167   0.472
 9178SOL    HW128433   2.216   4.165   0.485
 9178SOL    HW228434   2.073   4.111   0.543
 9179SOL     OW28435   2.459   5.082   5.140
 9179SOL    HW128436   2.517   5.155   5.103
 9179SOL    HW228437   2.514   4.998   5.149
 9180SOL     OW28438   5.650   2.269   2.883
 9180SOL    HW128439   5.569   2.263   2.940
 9180SOL    HW228440   5.636   2.216   2.799
 9181SOL     OW28441   3.795   1.273   2.432
 9181SOL    HW128442   3.782   1.175   2.443
 9181SOL    HW228443   3.721   1.311   2.377
 9182SOL     OW28444   2.598   6.639   2.031
 9182SOL    HW128445   2.544   6.699   2.090
 9182SOL    HW228446   2.640   6.567   2.086
 9183SOL     OW28447   5.290   5.516   5.831
 9183SOL    HW128448   5.368   5.527   5.768
 9183SOL    HW228449   5.246   5.428   5.814
 9184SOL     OW28450   5.000   6.377   6.789
 9184SOL    HW128451   5.000   6.473   6.818
 9184SOL    HW228452   5.017   6.372   6.691
 9185SOL     OW28453   4.612   1.576   4.493
 9185SOL    HW128454   4.687   1.642   4.484
 9185SOL    HW228455   4.531   1.623   4.529
 9186SOL     OW28456   4.881   6.946   6.613
 9186SOL    HW128457   4.936   0.005   6.620
 9186SOL    HW228458   4.861   6.912   6.705
 9187SOL     OW28459   2.474   6.639   2.674
 9187SOL    HW128460   2.561   6.668   2.634
 9187SOL    HW228461   2.489   6.559   2.732
 9188SOL     OW28462   2.086   5.952   0.821
 9188SOL    HW128463   2.111   5.885   0.892
 9188SOL    HW228464   2.169   5.985   0.776
 9189SOL     OW28465   5.177   5.458   2.148
 9189SOL    HW128466   5.259   5.473   2.202
 9189SOL    HW228467   5.142   5.366   2.164
 9190SOL     OW28468   0.869   5.622   0.233
 9190SOL    HW128469   0.780   5.653   0.200
 9190SOL    HW228470   0.892   5.672   0.316
 9191SOL     OW28471   6.931   0.733   5.770
 9191SOL    HW128472   7.006   0.724   5.705
 9191SOL    HW228473   6.877   0.814   5.749
 9192SOL     OW28474   1.027   3.830   5.094
 9192SOL    HW128475   1.085   3.754   5.065
 9192SOL    HW228476   0.936   3.795   5.118
 9193SOL     OW28477   2.753   3.648   0.309
 9193SOL    HW128478   2.735   3.708   0.231
 9193SOL    HW228479   2.850   3.653   0.334
 9194SOL     OW28480   3.056   0.856   4.439
 9194SOL    HW128481   2.966   0.881   4.405
 9194SOL    HW228482   3.120   0.931   4.421
 9195SOL     OW28483   1.726   0.900   3.946
 9195SOL    HW128484   1.651   0.939   3.999
 9195SOL    HW228485   1.769   0.826   3.998
 9196SOL     OW28486   5.148   1.565   5.878
 9196SOL    HW128487   5.150   1.487   5.815
 9196SOL    HW228488   5.173   1.535   5.970
 9197SOL     OW28489   2.715   4.081   0.510
 9197SOL    HW128490   2.677   4.071   0.419
 9197SOL    HW228491   2.808   4.044   0.512
 9198SOL     OW28492   1.054   4.872   4.337
 9198SOL    HW128493   1.050   4.777   4.306
 9198SOL    HW228494   1.007   4.881   4.425
 9199SOL     OW28495   5.770   3.937   5.341
 9199SOL    HW128496   5.789   4.034   5.325
 9199SOL    HW228497   5.851   3.894   5.381
 9200SOL     OW28498   2.993   0.622   0.410
 9200SOL    HW128499   3.046   0.690   0.359
 9200SOL    HW228500   3.055   0.561   0.458
 9201SOL     OW28501   1.947   4.223   0.775
 9201SOL    HW128502   1.962   4.129   0.746
 9201SOL    HW228503   1.849   4.242   0.777
 9202SOL     OW28504   2.341   0.820   4.053
 9202SOL    HW128505   2.431   0.809   4.010
 9202SOL    HW228506   2.270   0.800   3.986
 9203SOL     OW28507   6.529   6.624   0.669
 9203SOL    HW128508   6.619   6.584   0.655
 9203SOL    HW228509   6.518   6.647   0.766
 9204SOL     OW28510   6.099   0.384   5.197
 9204SOL    HW128511   6.046   0.398   5.280
 9204SOL    HW228512   6.170   0.316   5.213
 9205SOL     OW28513   0.194   5.278   1.934
 9205SOL    HW128514   0.134   5.212   1.980
 9205SOL    HW228515   0.142   5.326   1.863
 9206SOL     OW28516   3.882   6.858   6.878
 9206SOL    HW128517   3.923   6.781   6.926
 9206SOL    HW228518   3.826   6.824   6.803
 9207SOL     OW28519   5.593   5.839   6.121
 9207SOL    HW128520   5.525   5.806   6.187
 9207SOL    HW228521   5.623   5.931   6.148
 9208SOL     OW28522   1.199   4.012   2.468
 9208SOL    HW128523   1.109   3.968   2.466
 9208SOL    HW228524   1.257   3.966   2.535
 9209SOL     OW28525   2.355   6.729   6.835
 9209SOL    HW128526   2.362   6.753   6.932
 9209SOL    HW228527   2.278   6.667   6.821
 9210SOL     OW28528   6.242   0.454   3.897
 9210SOL    HW128529   6.249   0.540   3.948
 9210SOL    HW228530   6.283   0.466   3.807
 9211SOL     OW28531   0.596   1.677   2.456
 9211SOL    HW128532   0.601   1.773   2.430
 9211SOL    HW228533   0.519   1.664   2.519
 9212SOL     OW28534   3.590   5.366   4.302
 9212SOL    HW128535   3.665   5.301   4.314
 9212SOL    HW228536   3.515   5.321   4.253
 9213SOL     OW28537   6.139   4.042   6.598
 9213SOL    HW128538   6.078   3.992   6.660
 9213SOL    HW228539   6.119   4.016   6.504
 9214SOL     OW28540   6.976   4.978   0.528
 9214SOL    HW128541   7.019   4.958   0.616
 9214SOL    HW228542   7.000   4.907   0.462
 9215SOL     OW28543   1.236   1.722   0.846
 9215SOL    HW128544   1.275   1.631   0.832
 9215SOL    HW228545   1.310   1.789   0.850
 9216SOL     OW28546   2.091   0.125   3.678
 9216SOL    HW128547   2.031   0.062   3.629
 9216SOL    HW228548   2.129   0.191   3.614
 9217SOL     OW28549   0.554   2.635   0.609
 9217SOL    HW128550   0.527   2.548   0.649
 9217SOL    HW228551   0.601   2.620   0.522
 9218SOL     OW28552   2.102   0.961   0.347
 9218SOL    HW128553   2.010   0.933   0.321
 9218SOL    HW228554   2.099   1.012   0.433
 9219SOL     OW28555   6.323   1.760   0.546
 9219SOL    HW128556   6.250   1.750   0.613
 9219SOL    HW228557   6.388   1.685   0.556
 9220SOL     OW28558   3.511   6.272   0.892
 9220SOL    HW128559   3.468   6.291   0.980
 9220SOL    HW228560   3.450   6.302   0.818
 9221SOL     OW28561   2.835   4.760   4.728
 9221SOL    HW128562   2.847   4.704   4.810
 9221SOL    HW228563   2.743   4.745   4.692
 9222SOL     OW28564   2.815   2.132   6.312
 9222SOL    HW128565   2.814   2.103   6.407
 9222SOL    HW228566   2.821   2.232   6.308
 9223SOL     OW28567   2.992   3.283   5.205
 9223SOL    HW128568   3.059   3.356   5.212
 9223SOL    HW228569   2.900   3.321   5.204
 9224SOL     OW28570   2.217   4.764   5.479
 9224SOL    HW128571   2.173   4.851   5.503
 9224SOL    HW228572   2.245   4.766   5.383
 9225SOL     OW28573   1.787   6.043   0.251
 9225SOL    HW128574   1.863   6.041   0.186
 9225SOL    HW228575   1.702   6.023   0.204
 9226SOL     OW28576   4.649   6.539   0.852
 9226SOL    HW128577   4.671   6.627   0.893
 9226SOL    HW228578   4.570   6.499   0.898
 9227SOL     OW28579   1.434   6.630   1.706
 9227SOL    HW128580   1.412   6.534   1.691
 9227SOL    HW228581   1.521   6.636   1.756
 9228SOL     OW28582   0.782   6.527   6.890
 9228SOL    HW128583   0.846   6.474   6.834
 9228SOL    HW228584   0.744   6.601   6.836
 9229SOL     OW28585   0.730   5.608   5.580
 9229SOL    HW128586   0.757   5.611   5.677
 9229SOL    HW228587   0.721   5.513   5.551
 9230SOL     OW28588   4.853   1.324   3.576
 9230SOL    HW128589   4.916   1.270   3.634
 9230SOL    HW228590   4.898   1.409   3.550
 9231SOL     OW28591   1.904   3.557   3.499
 9231SOL    HW128592   1.937   3.649   3.520
 9231SOL    HW228593   1.951   3.523   3.418
 9232SOL     OW28594   4.137   5.279   1.291
 9232SOL    HW128595   4.071   5.349   1.321
 9232SOL    HW228596   4.229   5.317   1.295
 9233SOL     OW28597   5.382   4.688   0.361
 9233SOL    HW128598   5.351   4.640   0.444
 9233SOL    HW228599   5.478   4.715   0.372
 9234SOL     OW28600   1.636   6.250   3.586
 9234SOL    HW128601   1.566   6.256   3.658
 9234SOL    HW228602   1.722   6.218   3.625
 9235SOL     OW28603   0.795   2.550   3.550
 9235SOL    HW128604   0.714   2.503   3.515
 9235SOL    HW228605   0.794   2.645   3.518
 9236SOL     OW28606   4.006   2.265   5.819
 9236SOL    HW128607   4.078   2.239   5.755
 9236SOL    HW228608   3.992   2.192   5.886
 9237SOL     OW28609   1.417   3.789   3.144
 9237SOL    HW128610   1.396   3.878   3.104
 9237SOL    HW228611   1.446   3.801   3.239
 9238SOL     OW28612   4.318   3.518   6.691
 9238SOL    HW128613   4.302   3.437   6.747
 9238SOL    HW228614   4.409   3.512   6.648
 9239SOL     OW28615   1.610   3.332   6.483
 9239SOL    HW128616   1.706   3.355   6.497
 9239SOL    HW228617   1.579   3.271   6.556
 9240SOL     OW28618   4.623   1.027   2.031
 9240SOL    HW128619   4.567   1.073   2.100
 9240SOL    HW228620   4.712   1.072   2.025
 9241SOL     OW28621   0.757   5.310   6.187
 9241SOL    HW128622   0.671   5.274   6.149
 9241SOL    HW228623   0.826   5.314   6.115
 9242SOL     OW28624   5.905   6.368   1.417
 9242SOL    HW128625   5.947   6.383   1.328
 9242SOL    HW228626   5.875   6.273   1.424
 9243SOL     OW28627   5.621   6.692   4.218
 9243SOL    HW128628   5.547   6.625   4.231
 9243SOL    HW228629   5.581   6.784   4.215
 9244SOL     OW28630   4.048   5.625   0.552
 9244SOL    HW128631   4.096   5.549   0.508
 9244SOL    HW228632   4.097   5.651   0.635
 9245SOL     OW28633   0.240   6.802   1.652
 9245SOL    HW128634   0.219   6.707   1.676
 9245SOL    HW228635   0.310   6.804   1.582
 9246SOL     OW28636   6.902   4.920   3.633
 9246SOL    HW128637   6.871   4.997   3.689
 9246SOL    HW228638   6.824   4.862   3.609
 9247SOL     OW28639   1.302   0.038   3.363
 9247SOL    HW128640   1.389   0.018   3.318
 9247SOL    HW228641   1.304   0.131   3.400
 9248SOL     OW28642   4.136   1.861   6.181
 9248SOL    HW128643   4.222   1.812   6.171
 9248SOL    HW228644   4.060   1.796   6.179
 9249SOL     OW28645   4.336   6.659   3.418
 9249SOL    HW128646   4.402   6.711   3.472
 9249SOL    HW228647   4.276   6.723   3.370
 9250SOL     OW28648   5.251   4.030   3.168
 9250SOL    HW128649   5.205   4.099   3.225
 9250SOL    HW228650   5.228   4.046   3.072
 9251SOL     OW28651   3.560   1.948   2.736
 9251SOL    HW128652   3.579   1.865   2.685
 9251SOL    HW228653   3.564   2.027   2.675
 9252SOL     OW28654   1.317   6.914   4.360
 9252SOL    HW128655   1.352   6.996   4.406
 9252SOL    HW228656   1.315   6.929   4.262
 9253SOL     OW28657   1.533   6.859   6.105
 9253SOL    HW128658   1.542   6.791   6.032
 9253SOL    HW228659   1.623   6.877   6.145
 9254SOL     OW28660   5.380   2.305   1.256
 9254SOL    HW128661   5.380   2.402   1.281
 9254SOL    HW228662   5.355   2.295   1.160
 9255SOL     OW28663   0.148   5.339   0.737
 9255SOL    HW128664   0.094   5.416   0.772
 9255SOL    HW228665   0.088   5.262   0.717
 9256SOL     OW28666   3.715   5.459   2.404
 9256SOL    HW128667   3.620   5.426   2.400
 9256SOL    HW228668   3.777   5.381   2.414
 9257SOL     OW28669   0.845   3.426   1.017
 9257SOL    HW128670   0.819   3.521   1.002
 9257SOL    HW228671   0.817   3.371   0.938
 9258SOL     OW28672   2.983   3.167   3.948
 9258SOL    HW128673   2.905   3.147   4.007
 9258SOL    HW228674   3.064   3.183   4.005
 9259SOL     OW28675   1.600   2.354   0.592
 9259SOL    HW128676   1.581   2.431   0.654
 9259SOL    HW228677   1.514   2.319   0.555
 9260SOL     OW28678   6.466   3.972   6.998
 9260SOL    HW128679   6.547   4.004   0.023
 9260SOL    HW228680   6.492   3.946   6.905
 9261SOL     OW28681   3.332   6.805   6.062
 9261SOL    HW128682   3.327   6.710   6.030
 9261SOL    HW228683   3.380   6.860   5.993
 9262SOL     OW28684   5.500   0.642   5.781
 9262SOL    HW128685   5.431   0.570   5.771
 9262SOL    HW228686   5.507   0.668   5.877
 9263SOL     OW28687   6.088   3.929   1.837
 9263SOL    HW128688   6.154   3.957   1.767
 9263SOL    HW228689   6.092   3.992   1.914
 9264SOL     OW28690   5.987   2.557   0.093
 9264SOL    HW128691   5.987   2.517   0.184
 9264SOL    HW228692   6.020   2.651   0.098
 9265SOL     OW28693   1.587   1.473   5.677
 9265SOL    HW128694   1.613   1.376   5.672
 9265SOL    HW228695   1.639   1.525   5.609
 9266SOL     OW28696   2.488   6.165   2.244
 9266SOL    HW128697   2.474   6.146   2.147
 9266SOL    HW228698   2.431   6.104   2.299
 9267SOL     OW28699   2.595   5.029   5.879
 9267SOL    HW128700   2.555   5.072   5.959
 9267SOL    HW228701   2.533   4.958   5.845
 9268SOL     OW28702   1.212   1.413   3.193
 9268SOL    HW128703   1.182   1.456   3.107
 9268SOL    HW228704   1.298   1.454   3.222
 9269SOL     OW28705   4.351   1.784   5.151
 9269SOL    HW128706   4.439   1.810   5.192
 9269SOL    HW228707   4.290   1.751   5.223
 9270SOL     OW28708   1.359   0.171   5.888
 9270SOL    HW128709   1.343   0.126   5.800
 9270SOL    HW228710   1.373   0.269   5.873
 9271SOL     OW28711   0.441   4.751   6.016
 9271SOL    HW128712   0.428   4.685   5.941
 9271SOL    HW228713   0.538   4.776   6.022
 9272SOL     OW28714   2.434   5.089   6.719
 9272SOL    HW128715   2.437   5.064   6.622
 9272SOL    HW228716   2.341   5.119   6.743
 9273SOL     OW28717   3.872   5.756   5.764
 9273SOL    HW128718   3.941   5.753   5.691
 9273SOL    HW228719   3.896   5.690   5.835
 9274SOL     OW28720   5.695   2.438   1.458
 9274SOL    HW128721   5.733   2.510   1.516
 9274SOL    HW228722   5.647   2.371   1.515
 9275SOL     OW28723   0.306   0.381   5.962
 9275SOL    HW128724   0.359   0.460   5.989
 9275SOL    HW228725   0.253   0.402   5.879
 9276SOL     OW28726   4.779   6.604   3.760
 9276SOL    HW128727   4.777   6.540   3.682
 9276SOL    HW228728   4.687   6.613   3.797
 9277SOL     OW28729   3.685   2.767   0.319
 9277SOL    HW128730   3.706   2.851   0.368
 9277SOL    HW228731   3.741   2.762   0.236
 9278SOL     OW28732   1.494   2.344   1.363
 9278SOL    HW128733   1.424   2.286   1.404
 9278SOL    HW228734   1.575   2.345   1.421
 9279SOL     OW28735   1.924   6.395   0.839
 9279SOL    HW128736   1.931   6.494   0.844
 9279SOL    HW228737   2.007   6.358   0.795
 9280SOL     OW28738   1.598   0.551   2.845
 9280SOL    HW128739   1.649   0.467   2.863
 9280SOL    HW228740   1.655   0.630   2.865
 9281SOL     OW28741   2.232   2.355   0.519
 9281SOL    HW128742   2.323   2.313   0.520
 9281SOL    HW228743   2.183   2.326   0.601
 9282SOL     OW28744   4.752   1.040   6.426
 9282SOL    HW128745   4.697   0.995   6.497
 9282SOL    HW228746   4.699   1.116   6.387
 9283SOL     OW28747   5.396   2.751   2.873
 9283SOL    HW128748   5.392   2.781   2.969
 9283SOL    HW228749   5.336   2.672   2.861
 9284SOL     OW28750   3.458   3.974   1.864
 9284SOL    HW128751   3.521   4.051   1.854
 9284SOL    HW228752   3.501   3.891   1.828
 9285SOL     OW28753   6.515   2.781   6.570
 9285SOL    HW128754   6.421   2.745   6.571
 9285SOL    HW228755   6.513   2.880   6.557
 9286SOL     OW28756   5.485   5.333   4.976
 9286SOL    HW128757   5.385   5.322   4.976
 9286SOL    HW228758   5.514   5.361   4.884
 9287SOL     OW28759   2.528   0.161   2.142
 9287SOL    HW128760   2.581   0.239   2.173
 9287SOL    HW228761   2.510   0.099   2.219
 9288SOL     OW28762   4.810   2.209   5.979
 9288SOL    HW128763   4.761   2.293   5.957
 9288SOL    HW228764   4.878   2.227   6.050
 9289SOL     OW28765   5.804   4.167   2.726
 9289SOL    HW128766   5.762   4.197   2.812
 9289SOL    HW228767   5.742   4.186   2.650
 9290SOL     OW28768   4.654   2.057   4.210
 9290SOL    HW128769   4.653   2.028   4.114
 9290SOL    HW228770   4.652   1.977   4.269
 9291SOL     OW28771   0.817   1.778   4.971
 9291SOL    HW128772   0.783   1.730   5.052
 9291SOL    HW228773   0.917   1.776   4.970
 9292SOL     OW28774   0.105   3.975   0.093
 9292SOL    HW128775   0.113   4.074   0.076
 9292SOL    HW228776   0.049   3.934   0.021
 9293SOL     OW28777   6.508   3.823   6.064
 9293SOL    HW128778   6.432   3.810   6.000
 9293SOL    HW228779   6.584   3.763   6.038
 9294SOL     OW28780   5.248   6.158   6.371
 9294SOL    HW128781   5.161   6.108   6.365
 9294SOL    HW228782   5.310   6.111   6.434
 9295SOL     OW28783   4.847   2.263   3.397
 9295SOL    HW128784   4.834   2.210   3.313
 9295SOL    HW228785   4.817   2.209   3.476
 9296SOL     OW28786   6.782   0.082   5.007
 9296SOL    HW128787   6.748   0.168   5.044
 9296SOL    HW228788   6.778   0.012   5.079
 9297SOL     OW28789   0.860   0.666   1.576
 9297SOL    HW128790   0.927   0.740   1.571
 9297SOL    HW228791   0.769   0.704   1.590
 9298SOL     OW28792   0.597   5.970   4.955
 9298SOL    HW128793   0.628   6.034   4.885
 9298SOL    HW228794   0.500   5.987   4.975
 9299SOL     OW28795   1.838   3.293   4.104
 9299SOL    HW128796   1.929   3.263   4.074
 9299SOL    HW228797   1.820   3.259   4.196
 9300SOL     OW28798   5.651   4.485   3.854
 9300SOL    HW128799   5.648   4.391   3.889
 9300SOL    HW228800   5.699   4.544   3.919
 9301SOL     OW28801   6.323   4.706   1.663
 9301SOL    HW128802   6.385   4.641   1.707
 9301SOL    HW228803   6.297   4.672   1.573
 9302SOL     OW28804   1.667   2.094   2.393
 9302SOL    HW128805   1.703   2.041   2.470
 9302SOL    HW228806   1.714   2.067   2.309
 9303SOL     OW28807   5.113   4.141   0.627
 9303SOL    HW128808   5.122   4.224   0.682
 9303SOL    HW228809   5.031   4.146   0.571
 9304SOL     OW28810   4.437   3.502   0.317
 9304SOL    HW128811   4.504   3.516   0.244
 9304SOL    HW228812   4.373   3.430   0.290
 9305SOL     OW28813   4.813   3.960   2.075
 9305SOL    HW128814   4.836   4.005   1.989
 9305SOL    HW228815   4.768   4.026   2.136
 9306SOL     OW28816   6.109   5.538   4.408
 9306SOL    HW128817   6.125   5.451   4.456
 9306SOL    HW228818   6.033   5.587   4.452
 9307SOL     OW28819   2.488   0.684   5.819
 9307SOL    HW128820   2.544   0.745   5.764
 9307SOL    HW228821   2.482   0.718   5.912
 9308SOL     OW28822   0.077   2.168   0.360
 9308SOL    HW128823   0.156   2.140   0.307
 9308SOL    HW228824   0.085   2.264   0.386
 9309SOL     OW28825   5.004   2.601   6.388
 9309SOL    HW128826   5.072   2.648   6.444
 9309SOL    HW228827   4.919   2.653   6.387
 9310SOL     OW28828   4.332   6.641   1.276
 9310SOL    HW128829   4.421   6.662   1.316
 9310SOL    HW228830   4.311   6.707   1.203
 9311SOL     OW28831   6.820   3.544   1.304
 9311SOL    HW128832   6.857   3.633   1.275
 9311SOL    HW228833   6.736   3.558   1.357
 9312SOL     OW28834   1.876   4.248   4.952
 9312SOL    HW128835   1.962   4.206   4.922
 9312SOL    HW228836   1.807   4.176   4.962
 9313SOL     OW28837   6.016   6.591   2.274
 9313SOL    HW128838   6.010   6.527   2.198
 9313SOL    HW228839   6.107   6.632   2.276
 9314SOL     OW28840   6.170   4.008   0.224
 9314SOL    HW128841   6.215   3.992   0.311
 9314SOL    HW228842   6.126   3.924   0.193
 9315SOL     OW28843   0.330   6.580   6.649
 9315SOL    HW128844   0.416   6.598   6.697
 9315SOL    HW228845   0.258   6.636   6.688
 9316SOL     OW28846   3.393   5.732   4.584
 9316SOL    HW128847   3.434   5.712   4.673
 9316SOL    HW228848   3.443   5.682   4.513
 9317SOL     OW28849   4.432   4.262   5.477
 9317SOL    HW128850   4.506   4.207   5.516
 9317SOL    HW228851   4.345   4.234   5.518
 9318SOL     OW28852   0.020   6.851   5.947
 9318SOL    HW128853   6.986   6.864   6.027
 9318SOL    HW228854   6.991   6.813   5.872
 9319SOL     OW28855   6.119   3.112   4.765
 9319SOL    HW128856   6.091   3.019   4.788
 9319SOL    HW228857   6.097   3.173   4.841
 9320SOL     OW28858   4.184   2.769   6.227
 9320SOL    HW128859   4.087   2.785   6.243
 9320SOL    HW228860   4.200   2.754   6.129
 9321SOL     OW28861   5.686   5.872   3.976
 9321SOL    HW128862   5.617   5.866   4.048
 9321SOL    HW228863   5.776   5.884   4.016
 9322SOL     OW28864   1.130   6.507   0.570
 9322SOL    HW128865   1.221   6.500   0.610
 9322SOL    HW228866   1.102   6.418   0.535
 9323SOL     OW28867   0.715   1.346   6.496
 9323SOL    HW128868   0.752   1.273   6.553
 9323SOL    HW228869   0.672   1.416   6.553
 9324SOL     OW28870   1.630   5.152   6.756
 9324SOL    HW128871   1.636   5.238   6.706
 9324SOL    HW228872   1.648   5.169   6.853
 9325SOL     OW28873   0.326   2.781   0.637
 9325SOL    HW128874   0.386   2.702   0.634
 9325SOL    HW228875   0.346   2.835   0.719
 9326SOL     OW28876   2.390   5.534   1.464
 9326SOL    HW128877   2.300   5.506   1.496
 9326SOL    HW228878   2.448   5.454   1.451
 9327SOL     OW28879   3.070   1.475   3.442
 9327SOL    HW128880   3.072   1.505   3.537
 9327SOL    HW228881   2.994   1.519   3.395
 9328SOL     OW28882   2.706   0.735   2.282
 9328SOL    HW128883   2.686   0.806   2.214
 9328SOL    HW228884   2.762   0.664   2.241
 9329SOL     OW28885   1.137   4.191   1.969
 9329SOL    HW128886   1.227   4.171   1.931
 9329SOL    HW228887   1.126   4.144   2.057
 9330SOL     OW28888   5.494   6.764   6.445
 9330SOL    HW128889   5.563   6.746   6.515
 9330SOL    HW228890   5.411   6.712   6.465
 9331SOL     OW28891   0.846   2.191   0.132
 9331SOL    HW128892   0.938   2.160   0.156
 9331SOL    HW228893   0.804   2.126   0.068
 9332SOL     OW28894   3.759   3.575   5.304
 9332SOL    HW128895   3.725   3.580   5.397
 9332SOL    HW228896   3.812   3.657   5.283
 9333SOL     OW28897   5.017   5.609   0.762
 9333SOL    HW128898   5.041   5.638   0.854
 9333SOL    HW228899   4.977   5.686   0.712
 9334SOL     OW28900   2.841   0.064   4.657
 9334SOL    HW128901   2.764   0.102   4.708
 9334SOL    HW228902   2.810   0.031   4.568
 9335SOL     OW28903   1.038   1.436   1.966
 9335SOL    HW128904   1.108   1.473   1.904
 9335SOL    HW228905   1.070   1.445   2.060
 9336SOL     OW28906   3.419   0.418   5.249
 9336SOL    HW128907   3.487   0.351   5.279
 9336SOL    HW228908   3.451   0.464   5.166
 9337SOL     OW28909   4.740   0.305   2.461
 9337SOL    HW128910   4.839   0.317   2.458
 9337SOL    HW228911   4.698   0.353   2.384
 9338SOL     OW28912   3.368   6.632   1.912
 9338SOL    HW128913   3.328   6.560   1.969
 9338SOL    HW228914   3.364   6.719   1.960
 9339SOL     OW28915   3.617   5.607   1.354
 9339SOL    HW128916   3.568   5.689   1.384
 9339SOL    HW228917   3.591   5.584   1.261
 9340SOL     OW28918   6.467   3.365   0.848
 9340SOL    HW128919   6.438   3.426   0.775
 9340SOL    HW228920   6.560   3.389   0.876
 9341SOL     OW28921   6.882   3.941   5.602
 9341SOL    HW128922   6.935   3.869   5.647
 9341SOL    HW228923   6.928   4.029   5.615
 9342SOL     OW28924   1.568   0.216   6.662
 9342SOL    HW128925   1.496   0.160   6.703
 9342SOL    HW228926   1.594   0.177   6.574
 9343SOL     OW28927   5.607   6.192   3.977
 9343SOL    HW128928   5.685   6.243   4.013
 9343SOL    HW228929   5.613   6.189   3.877
 9344SOL     OW28930   5.145   6.574   0.790
 9344SOL    HW128931   5.111   6.657   0.747
 9344SOL    HW228932   5.237   6.554   0.756
 9345SOL     OW28933   0.538   3.009   0.783
 9345SOL    HW128934   0.610   2.956   0.739
 9345SOL    HW228935   0.469   2.947   0.821
 9346SOL     OW28936   6.014   0.736   0.572
 9346SOL    HW128937   6.098   0.698   0.535
 9346SOL    HW228938   5.979   0.805   0.508
 9347SOL     OW28939   2.139   6.571   2.247
 9347SOL    HW128940   2.074   6.568   2.171
 9347SOL    HW228941   2.092   6.599   2.330
 9348SOL     OW28942   2.744   4.879   0.517
 9348SOL    HW128943   2.768   4.861   0.612
 9348SOL    HW228944   2.776   4.970   0.491
 9349SOL     OW28945   1.817   6.160   2.300
 9349SOL    HW128946   1.912   6.166   2.332
 9349SOL    HW228947   1.759   6.126   2.374
 9350SOL     OW28948   0.204   3.096   5.961
 9350SOL    HW128949   0.114   3.140   5.955
 9350SOL    HW228950   0.193   2.999   5.981
 9351SOL     OW28951   3.202   0.541   6.495
 9351SOL    HW128952   3.174   0.541   6.399
 9351SOL    HW228953   3.134   0.590   6.549
 9352SOL     OW28954   2.640   5.296   6.216
 9352SOL    HW128955   2.733   5.292   6.250
 9352SOL    HW228956   2.602   5.203   6.209
 9353SOL     OW28957   5.982   0.976   1.019
 9353SOL    HW128958   5.904   0.989   0.958
 9353SOL    HW228959   6.065   1.004   0.972
 9354SOL     OW28960   1.055   1.280   6.391
 9354SOL    HW128961   0.991   1.243   6.325
 9354SOL    HW228962   1.060   1.220   6.470
 9355SOL     OW28963   0.557   1.325   4.873
 9355SOL    HW128964   0.652   1.298   4.856
 9355SOL    HW228965   0.549   1.424   4.870
 9356SOL     OW28966   4.356   6.794   3.753
 9356SOL    HW128967   4.260   6.768   3.743
 9356SOL    HW228968   4.396   6.743   3.830
 9357SOL     OW28969   1.536   1.972   0.379
 9357SOL    HW128970   1.509   1.884   0.418
 9357SOL    HW228971   1.493   1.983   0.290
 9358SOL     OW28972   1.274   2.139   1.438
 9358SOL    HW128973   1.242   2.045   1.442
 9358SOL    HW228974   1.200   2.201   1.464
 9359SOL     OW28975   0.789   0.608   5.226
 9359SOL    HW128976   0.756   0.655   5.144
 9359SOL    HW228977   0.753   0.515   5.228
 9360SOL     OW28978   0.351   0.602   6.107
 9360SOL    HW128979   0.260   0.580   6.069
 9360SOL    HW228980   0.341   0.629   6.203
 9361SOL     OW28981   2.218   5.264   4.453
 9361SOL    HW128982   2.222   5.200   4.376
 9361SOL    HW228983   2.297   5.324   4.449
 9362SOL     OW28984   1.795   0.614   2.583
 9362SOL    HW128985   1.708   0.567   2.595
 9362SOL    HW228986   1.796   0.660   2.494
 9363SOL     OW28987   1.657   3.104   2.221
 9363SOL    HW128988   1.563   3.119   2.193
 9363SOL    HW228989   1.716   3.102   2.140
 9364SOL     OW28990   0.225   2.286   0.018
 9364SOL    HW128991   0.240   2.209   0.081
 9364SOL    HW228992   0.136   2.328   0.038
 9365SOL     OW28993   2.152   0.638   5.316
 9365SOL    HW128994   2.110   0.686   5.394
 9365SOL    HW228995   2.250   0.658   5.315
 9366SOL     OW28996   4.080   6.653   2.395
 9366SOL    HW128997   4.161   6.705   2.368
 9366SOL    HW228998   4.103   6.591   2.470
 9367SOL     OW28999   6.839   0.643   1.342
 9367SOL    HW129000   6.829   0.545   1.323
 9367SOL    HW229001   6.797   0.664   1.431
 9368SOL     OW29002   2.289   0.478   2.693
 9368SOL    HW129003   2.358   0.426   2.743
 9368SOL    HW229004   2.214   0.502   2.754
 9369SOL     OW29005   3.726   5.241   1.075
 9369SOL    HW129006   3.823   5.219   1.070
 9369SOL    HW229007   3.674   5.158   1.094
 9370SOL     OW29008   4.410   2.335   4.990
 9370SOL    HW129009   4.445   2.415   5.039
 9370SOL    HW229010   4.310   2.333   4.996
 9371SOL     OW29011   4.184   4.700   0.693
 9371SOL    HW129012   4.164   4.657   0.605
 9371SOL    HW229013   4.115   4.671   0.760
 9372SOL     OW29014   4.158   6.456   1.026
 9372SOL    HW129015   4.073   6.491   0.985
 9372SOL    HW229016   4.195   6.524   1.089
 9373SOL     OW29017   0.302   2.338   1.612
 9373SOL    HW129018   0.299   2.253   1.664
 9373SOL    HW229019   0.246   2.407   1.658
 9374SOL     OW29020   0.168   5.296   6.184
 9374SOL    HW129021   0.133   5.204   6.204
 9374SOL    HW229022   0.193   5.342   6.269
 9375SOL     OW29023   1.044   1.222   0.105
 9375SOL    HW129024   0.955   1.243   0.146
 9375SOL    HW229025   1.106   1.299   0.118
 9376SOL     OW29026   2.756   3.266   0.680
 9376SOL    HW129027   2.856   3.270   0.681
 9376SOL    HW229028   2.720   3.346   0.631
 9377SOL     OW29029   1.053   0.829   3.294
 9377SOL    HW129030   0.966   0.838   3.247
 9377SOL    HW229031   1.057   0.740   3.340
 9378SOL     OW29032   3.800   1.493   5.078
 9378SOL    HW129033   3.778   1.528   4.987
 9378SOL    HW229034   3.799   1.569   5.143
 9379SOL     OW29035   4.159   0.596   4.497
 9379SOL    HW129036   4.185   0.639   4.410
 9379SOL    HW229037   4.210   0.639   4.571
 9380SOL     OW29038   5.127   5.343   1.190
 9380SOL    HW129039   5.225   5.345   1.210
 9380SOL    HW229040   5.113   5.357   1.092
 9381SOL     OW29041   5.683   1.046   5.009
 9381SOL    HW129042   5.730   0.974   5.060
 9381SOL    HW229043   5.648   1.008   4.923
 9382SOL     OW29044   3.497   5.456   6.225
 9382SOL    HW129045   3.525   5.371   6.181
 9382SOL    HW229046   3.460   5.435   6.316
 9383SOL     OW29047   6.021   3.766   1.537
 9383SOL    HW129048   6.067   3.697   1.593
 9383SOL    HW229049   5.936   3.794   1.580
 9384SOL     OW29050   4.197   7.005   0.686
 9384SOL    HW129051   4.236   6.934   0.745
 9384SOL    HW229052   4.246   0.067   0.702
 9385SOL     OW29053   4.107   2.223   3.867
 9385SOL    HW129054   4.173   2.273   3.923
 9385SOL    HW229055   4.037   2.184   3.926
 9386SOL     OW29056   5.698   6.868   1.351
 9386SOL    HW129057   5.789   6.893   1.318
 9386SOL    HW229058   5.633   6.875   1.275
 9387SOL     OW29059   2.154   1.841   6.582
 9387SOL    HW129060   2.158   1.941   6.577
 9387SOL    HW229061   2.067   1.809   6.544
 9388SOL     OW29062   2.663   0.293   4.401
 9388SOL    HW129063   2.734   0.350   4.359
 9388SOL    HW229064   2.593   0.271   4.333
 9389SOL     OW29065   2.196   4.016   2.082
 9389SOL    HW129066   2.182   3.960   2.164
 9389SOL    HW229067   2.259   4.091   2.103
 9390SOL     OW29068   5.780   4.747   3.943
 9390SOL    HW129069   5.755   4.784   3.853
 9390SOL    HW229070   5.833   4.815   3.993
 9391SOL     OW29071   1.443   4.270   4.566
 9391SOL    HW129072   1.533   4.227   4.577
 9391SOL    HW229073   1.389   4.254   4.648
 9392SOL     OW29074   4.435   4.937   2.317
 9392SOL    HW129075   4.466   4.962   2.225
 9392SOL    HW229076   4.511   4.947   2.381
 9393SOL     OW29077   1.913   4.974   6.676
 9393SOL    HW129078   1.907   4.967   6.775
 9393SOL    HW229079   1.821   4.968   6.636
 9394SOL     OW29080   4.680   0.384   0.326
 9394SOL    HW129081   4.612   0.435   0.378
 9394SOL    HW229082   4.687   0.423   0.234
 9395SOL     OW29083   1.199   1.699   1.505
 9395SOL    HW129084   1.284   1.653   1.480
 9395SOL    HW229085   1.122   1.638   1.488
 9396SOL     OW29086   1.076   0.732   6.374
 9396SOL    HW129087   1.131   0.701   6.297
 9396SOL    HW229088   1.040   0.823   6.355
 9397SOL     OW29089   3.032   1.482   4.672
 9397SOL    HW129090   2.933   1.494   4.662
 9397SOL    HW229091   3.053   1.454   4.765
 9398SOL     OW29092   6.828   1.589   0.097
 9398SOL    HW129093   6.851   1.685   0.116
 9398SOL    HW229094   6.766   1.555   0.168
 9399SOL     OW29095   1.322   1.934   4.711
 9399SOL    HW129096   1.349   1.986   4.792
 9399SOL    HW229097   1.404   1.909   4.659
 9400SOL     OW29098   5.681   1.527   1.466
 9400SOL    HW129099   5.739   1.507   1.387
 9400SOL    HW229100   5.720   1.484   1.548
 9401SOL     OW29101   0.131   2.375   3.766
 9401SOL    HW129102   0.117   2.438   3.690
 9401SOL    HW229103   0.216   2.398   3.813
 9402SOL     OW29104   3.514   6.129   5.244
 9402SOL    HW129105   3.449   6.057   5.218
 9402SOL    HW229106   3.535   6.185   5.165
 9403SOL     OW29107   5.760   2.079   1.193
 9403SOL    HW129108   5.786   2.008   1.259
 9403SOL    HW229109   5.783   2.169   1.230
 9404SOL     OW29110   2.321   2.697   0.643
 9404SOL    HW129111   2.327   2.598   0.649
 9404SOL    HW229112   2.413   2.736   0.640
 9405SOL     OW29113   6.080   5.857   5.150
 9405SOL    HW129114   6.049   5.813   5.066
 9405SOL    HW229115   6.180   5.867   5.148
 9406SOL     OW29116   1.700   1.722   0.938
 9406SOL    HW129117   1.757   1.693   1.015
 9406SOL    HW229118   1.627   1.782   0.971
 9407SOL     OW29119   1.542   4.403   4.794
 9407SOL    HW129120   1.498   4.359   4.873
 9407SOL    HW229121   1.501   4.493   4.780
 9408SOL     OW29122   5.540   4.538   4.152
 9408SOL    HW129123   5.493   4.610   4.100
 9408SOL    HW229124   5.549   4.456   4.096
 9409SOL     OW29125   5.718   5.835   1.387
 9409SOL    HW129126   5.777   5.759   1.361
 9409SOL    HW229127   5.641   5.841   1.323
 9410SOL     OW29128   4.693   0.126   1.064
 9410SOL    HW129129   4.618   0.180   1.102
 9410SOL    HW229130   4.776   0.182   1.058
 9411SOL     OW29131   3.381   4.033   3.715
 9411SOL    HW129132   3.319   4.003   3.788
 9411SOL    HW229133   3.472   4.048   3.754
 9412SOL     OW29134   4.416   0.271   1.459
 9412SOL    HW129135   4.496   0.212   1.476
 9412SOL    HW229136   4.341   0.242   1.517
 9413SOL     OW29137   3.886   4.908   3.275
 9413SOL    HW129138   3.900   5.006   3.259
 9413SOL    HW229139   3.800   4.895   3.325
 9414SOL     OW29140   1.947   1.452   2.294
 9414SOL    HW129141   1.924   1.549   2.285
 9414SOL    HW229142   1.891   1.411   2.365
 9415SOL     OW29143   5.249   0.459   1.437
 9415SOL    HW129144   5.316   0.527   1.406
 9415SOL    HW229145   5.295   0.391   1.494
 9416SOL     OW29146   6.359   4.810   5.586
 9416SOL    HW129147   6.455   4.791   5.610
 9416SOL    HW229148   6.308   4.831   5.670
 9417SOL     OW29149   3.696   6.130   2.428
 9417SOL    HW129150   3.686   6.066   2.352
 9417SOL    HW229151   3.605   6.156   2.461
 9418SOL     OW29152   3.127   2.163   4.729
 9418SOL    HW129153   3.124   2.184   4.827
 9418SOL    HW229154   3.210   2.111   4.708
 9419SOL     OW29155   2.310   2.558   5.999
 9419SOL    HW129156   2.283   2.582   6.093
 9419SOL    HW229157   2.281   2.465   5.978
 9420SOL     OW29158   5.431   3.499   5.818
 9420SOL    HW129159   5.499   3.481   5.889
 9420SOL    HW229160   5.466   3.569   5.755
 9421SOL     OW29161   3.996   6.638   0.010
 9421SOL    HW129162   4.030   6.714   0.066
 9421SOL    HW229163   3.919   6.594   0.056
 9422SOL     OW29164   2.354   6.815   5.822
 9422SOL    HW129165   2.329   6.775   5.910
 9422SOL    HW229166   2.430   6.763   5.782
 9423SOL     OW29167   4.212   4.821   1.062
 9423SOL    HW129168   4.301   4.855   1.091
 9423SOL    HW229169   4.169   4.887   1.000
 9424SOL     OW29170   6.100   0.270   4.044
 9424SOL    HW129171   6.144   0.337   3.985
 9424SOL    HW229172   6.126   0.178   4.015
 9425SOL     OW29173   0.282   5.247   1.024
 9425SOL    HW129174   0.228   5.280   0.947
 9425SOL    HW229175   0.373   5.287   1.021
 9426SOL     OW29176   4.394   2.268   6.379
 9426SOL    HW129177   4.477   2.252   6.433
 9426SOL    HW229178   4.318   2.288   6.441
 9427SOL     OW29179   3.752   5.223   2.121
 9427SOL    HW129180   3.783   5.240   2.214
 9427SOL    HW229181   3.801   5.283   2.058
 9428SOL     OW29182   0.698   5.968   5.209
 9428SOL    HW129183   0.696   6.054   5.260
 9428SOL    HW229184   0.667   5.985   5.115
 9429SOL     OW29185   2.943   2.251   3.805
 9429SOL    HW129186   2.989   2.264   3.892
 9429SOL    HW229187   3.011   2.229   3.734
 9430SOL     OW29188   1.015   6.838   4.277
 9430SOL    HW129189   1.089   6.793   4.227
 9430SOL    HW229190   1.051   6.920   4.321
 9431SOL     OW29191   1.498   4.963   4.877
 9431SOL    HW129192   1.584   4.991   4.834
 9431SOL    HW229193   1.423   5.015   4.837
 9432SOL     OW29194   6.632   1.236   3.421
 9432SOL    HW129195   6.597   1.303   3.354
 9432SOL    HW229196   6.716   1.195   3.386
 9433SOL     OW29197   4.611   5.376   1.808
 9433SOL    HW129198   4.530   5.417   1.850
 9433SOL    HW229199   4.603   5.277   1.808
 9434SOL     OW29200   4.153   5.860   5.107
 9434SOL    HW129201   4.058   5.883   5.127
 9434SOL    HW229202   4.167   5.858   5.009
 9435SOL     OW29203   6.504   4.375   6.706
 9435SOL    HW129204   6.470   4.416   6.791
 9435SOL    HW229205   6.430   4.327   6.660
 9436SOL     OW29206   2.781   1.473   2.705
 9436SOL    HW129207   2.719   1.536   2.751
 9436SOL    HW229208   2.860   1.523   2.671
 9437SOL     OW29209   5.217   1.294   4.311
 9437SOL    HW129210   5.160   1.335   4.383
 9437SOL    HW229211   5.310   1.329   4.318
 9438SOL     OW29212   5.053   0.271   2.403
 9438SOL    HW129213   5.128   0.256   2.339
 9438SOL    HW229214   5.006   0.184   2.420
 9439SOL     OW29215   2.270   4.793   0.883
 9439SOL    HW129216   2.230   4.702   0.878
 9439SOL    HW229217   2.367   4.788   0.861
 9440SOL     OW29218   2.000   5.654   5.532
 9440SOL    HW129219   1.906   5.668   5.562
 9440SOL    HW229220   2.027   5.559   5.550
 9441SOL     OW29221   6.969   6.217   3.965
 9441SOL    HW129222   6.934   6.241   4.056
 9441SOL    HW229223   6.948   6.291   3.901
 9442SOL     OW29224   6.417   3.017   1.000
 9442SOL    HW129225   6.501   2.962   1.003
 9442SOL    HW229226   6.355   2.986   1.071
 9443SOL     OW29227   2.328   4.594   1.467
 9443SOL    HW129228   2.335   4.508   1.518
 9443SOL    HW229229   2.280   4.662   1.523
 9444SOL     OW29230   1.953   5.559   6.305
 9444SOL    HW129231   1.916   5.466   6.318
 9444SOL    HW229232   2.022   5.576   6.374
 9445SOL     OW29233   0.504   0.720   3.864
 9445SOL    HW129234   0.453   0.641   3.829
 9445SOL    HW229235   0.493   0.725   3.963
 9446SOL     OW29236   5.771   5.146   4.215
 9446SOL    HW129237   5.693   5.184   4.266
 9446SOL    HW229238   5.855   5.160   4.267
 9447SOL     OW29239   5.623   5.110   2.392
 9447SOL    HW129240   5.659   5.037   2.451
 9447SOL    HW229241   5.690   5.182   2.382
 9448SOL     OW29242   4.936   2.360   6.532
 9448SOL    HW129243   4.983   2.430   6.478
 9448SOL    HW229244   4.958   2.370   6.628
 9449SOL     OW29245   4.756   6.425   3.016
 9449SOL    HW129246   4.677   6.371   2.987
 9449SOL    HW229247   4.796   6.384   3.098
 9450SOL     OW29248   1.003   0.336   2.029
 9450SOL    HW129249   0.998   0.433   2.004
 9450SOL    HW229250   0.923   0.288   1.993
 9451SOL     OW29251   4.218   5.071   0.405
 9451SOL    HW129252   4.300   5.085   0.460
 9451SOL    HW229253   4.142   5.041   0.463
 9452SOL     OW29254   6.175   3.353   6.227
 9452SOL    HW129255   6.191   3.302   6.311
 9452SOL    HW229256   6.263   3.384   6.190
 9453SOL     OW29257   6.921   4.944   2.320
 9453SOL    HW129258   6.902   4.978   2.412
 9453SOL    HW229259   7.011   4.902   2.318
 9454SOL     OW29260   5.269   5.369   0.477
 9454SOL    HW129261   5.178   5.361   0.518
 9454SOL    HW229262   5.314   5.280   0.480
 9455SOL     OW29263   4.744   0.614   1.208
 9455SOL    HW129264   4.835   0.648   1.233
 9455SOL    HW229265   4.717   0.541   1.270
 9456SOL     OW29266   6.862   2.612   2.555
 9456SOL    HW129267   6.904   2.676   2.491
 9456SOL    HW229268   6.765   2.600   2.531
 9457SOL     OW29269   6.457   6.559   4.391
 9457SOL    HW129270   6.553   6.564   4.367
 9457SOL    HW229271   6.416   6.650   4.385
 9458SOL     OW29272   6.686   4.071   0.092
 9458SOL    HW129273   6.743   4.108   0.166
 9458SOL    HW229274   6.697   4.127   0.010
 9459SOL     OW29275   5.396   4.673   5.016
 9459SOL    HW129276   5.368   4.661   5.112
 9459SOL    HW229277   5.316   4.665   4.957
 9460SOL     OW29278   1.935   2.600   3.165
 9460SOL    HW129279   1.963   2.694   3.148
 9460SOL    HW229280   1.940   2.548   3.080
 9461SOL     OW29281   2.679   1.748   1.663
 9461SOL    HW129282   2.773   1.729   1.633
 9461SOL    HW229283   2.615   1.712   1.596
 9462SOL     OW29284   0.111   1.576   5.651
 9462SOL    HW129285   0.104   1.520   5.733
 9462SOL    HW229286   0.127   1.517   5.572
 9463SOL     OW29287   6.823   4.879   0.795
 9463SOL    HW129288   6.765   4.951   0.833
 9463SOL    HW229289   6.919   4.897   0.819
 9464SOL     OW29290   1.420   0.258   2.266
 9464SOL    HW129291   1.379   0.184   2.212
 9464SOL    HW229292   1.349   0.303   2.320
 9465SOL     OW29293   0.003   5.749   0.427
 9465SOL    HW129294   0.033   5.778   0.336
 9465SOL    HW229295   7.009   5.650   0.426
 9466SOL     OW29296   4.279   3.981   5.705
 9466SOL    HW129297   4.276   4.056   5.772
 9466SOL    HW229298   4.262   4.018   5.614
 9467SOL     OW29299   1.399   3.906   1.009
 9467SOL    HW129300   1.479   3.853   1.036
 9467SOL    HW229301   1.318   3.847   1.008
 9468SOL     OW29302   6.368   1.364   1.316
 9468SOL    HW129303   6.284   1.311   1.324
 9468SOL    HW229304   6.383   1.416   1.400
 9469SOL     OW29305   6.200   6.875   2.009
 9469SOL    HW129306   6.278   6.936   2.024
 9469SOL    HW229307   6.229   6.780   2.023
 9470SOL     OW29308   3.460   3.137   1.406
 9470SOL    HW129309   3.482   3.047   1.444
 9470SOL    HW229310   3.393   3.127   1.334
 9471SOL     OW29311   6.317   3.235   4.526
 9471SOL    HW129312   6.367   3.198   4.448
 9471SOL    HW229313   6.227   3.192   4.532
 9472SOL     OW29314   2.469   3.334   6.555
 9472SOL    HW129315   2.415   3.394   6.495
 9472SOL    HW229316   2.512   3.389   6.627
 9473SOL     OW29317   3.060   3.154   1.233
 9473SOL    HW129318   3.149   3.115   1.211
 9473SOL    HW229319   2.988   3.102   1.188
 9474SOL     OW29320   5.815   4.421   0.585
 9474SOL    HW129321   5.910   4.393   0.593
 9474SOL    HW229322   5.757   4.362   0.642
 9475SOL     OW29323   6.239   3.426   6.752
 9475SOL    HW129324   6.251   3.502   6.816
 9475SOL    HW229325   6.143   3.399   6.750
 9476SOL     OW29326   3.660   4.093   0.924
 9476SOL    HW129327   3.668   4.013   0.984
 9476SOL    HW229328   3.716   4.168   0.960
 9477SOL     OW29329   1.492   5.143   0.402
 9477SOL    HW129330   1.525   5.064   0.453
 9477SOL    HW229331   1.563   5.213   0.399
 9478SOL     OW29332   6.756   3.104   5.708
 9478SOL    HW129333   6.769   3.171   5.635
 9478SOL    HW229334   6.839   3.099   5.764
 9479SOL     OW29335   4.218   0.999   2.129
 9479SOL    HW129336   4.258   0.978   2.218
 9479SOL    HW229337   4.151   1.073   2.139
 9480SOL     OW29338   5.570   0.229   0.776
 9480SOL    HW129339   5.480   0.208   0.738
 9480SOL    HW229340   5.591   0.326   0.762
 9481SOL     OW29341   4.547   0.082   3.948
 9481SOL    HW129342   4.473   0.143   3.976
 9481SOL    HW229343   4.508   0.004   3.898
 9482SOL     OW29344   6.262   4.508   5.348
 9482SOL    HW129345   6.347   4.558   5.364
 9482SOL    HW229346   6.226   4.473   5.434
 9483SOL     OW29347   6.293   4.959   6.602
 9483SOL    HW129348   6.281   4.864   6.574
 9483SOL    HW229349   6.255   4.971   6.694
 9484SOL     OW29350   1.632   6.274   4.040
 9484SOL    HW129351   1.553   6.242   3.988
 9484SOL    HW229352   1.708   6.209   4.031
 9485SOL     OW29353   0.178   1.043   4.766
 9485SOL    HW129354   0.251   0.978   4.745
 9485SOL    HW229355   0.167   1.106   4.690
 9486SOL     OW29356   6.835   5.654   0.069
 9486SOL    HW129357   6.798   5.563   0.087
 9486SOL    HW229358   6.766   5.723   0.092
 9487SOL     OW29359   3.248   3.574   3.883
 9487SOL    HW129360   3.265   3.500   3.818
 9487SOL    HW229361   3.154   3.606   3.874
 9488SOL     OW29362   1.160   1.044   2.253
 9488SOL    HW129363   1.221   1.104   2.202
 9488SOL    HW229364   1.071   1.041   2.208
 9489SOL     OW29365   6.533   4.505   6.464
 9489SOL    HW129366   6.529   4.447   6.382
 9489SOL    HW229367   6.510   4.449   6.544
 9490SOL     OW29368   5.592   3.700   4.630
 9490SOL    HW129369   5.566   3.717   4.725
 9490SOL    HW229370   5.672   3.755   4.607
 9491SOL     OW29371   5.412   0.100   2.581
 9491SOL    HW129372   5.353   0.170   2.622
 9491SOL    HW229373   5.445   0.133   2.493
 9492SOL     OW29374   4.842   2.861   4.184
 9492SOL    HW129375   4.837   2.801   4.264
 9492SOL    HW229376   4.775   2.934   4.193
 9493SOL     OW29377   2.701   6.069   2.391
 9493SOL    HW129378   2.614   6.093   2.347
 9493SOL    HW229379   2.694   5.979   2.433
 9494SOL     OW29380   4.803   2.978   2.655
 9494SOL    HW129381   4.829   3.071   2.629
 9494SOL    HW229382   4.759   2.979   2.744
 9495SOL     OW29383   5.079   3.299   1.123
 9495SOL    HW129384   5.114   3.333   1.036
 9495SOL    HW229385   5.120   3.351   1.198
 9496SOL     OW29386   6.005   3.171   1.306
 9496SOL    HW129387   5.964   3.105   1.368
 9496SOL    HW229388   5.984   3.146   1.211
 9497SOL     OW29389   5.035   4.410   5.393
 9497SOL    HW129390   5.045   4.481   5.463
 9497SOL    HW229391   5.118   4.354   5.391
 9498SOL     OW29392   0.797   5.642   5.832
 9498SOL    HW129393   0.731   5.710   5.861
 9498SOL    HW229394   0.890   5.676   5.848
 9499SOL     OW29395   5.155   6.656   4.005
 9499SOL    HW129396   5.070   6.704   4.028
 9499SOL    HW229397   5.135   6.579   3.944
 9500SOL     OW29398   2.862   1.474   0.817
 9500SOL    HW129399   2.949   1.495   0.861
 9500SOL    HW229400   2.869   1.487   0.719
 9501SOL     OW29401   1.649   3.263   5.278
 9501SOL    HW129402   1.621   3.244   5.184
 9501SOL    HW229403   1.592   3.336   5.315
 9502SOL     OW29404   5.960   4.615   3.726
 9502SOL    HW129405   5.998   4.659   3.808
 9502SOL    HW229406   5.944   4.518   3.745
 9503SOL     OW29407   5.826   1.290   0.293
 9503SOL    HW129408   5.920   1.318   0.275
 9503SOL    HW229409   5.780   1.360   0.348
 9504SOL     OW29410   6.097   5.601   2.467
 9504SOL    HW129411   6.172   5.605   2.534
 9504SOL    HW229412   6.031   5.673   2.487
 9505SOL     OW29413   4.662   3.400   6.596
 9505SOL    HW129414   4.680   3.438   6.687
 9505SOL    HW229415   4.668   3.472   6.528
 9506SOL     OW29416   3.357   1.661   1.961
 9506SOL    HW129417   3.394   1.569   1.951
 9506SOL    HW229418   3.403   1.722   1.896
 9507SOL     OW29419   0.107   6.133   1.390
 9507SOL    HW129420   0.042   6.208   1.406
 9507SOL    HW229421   0.092   6.060   1.457
 9508SOL     OW29422   5.223   1.206   2.016
 9508SOL    HW129423   5.314   1.202   1.975
 9508SOL    HW229424   5.189   1.299   2.012
 9509SOL     OW29425   6.106   1.604   4.161
 9509SOL    HW129426   6.007   1.606   4.144
 9509SOL    HW229427   6.123   1.574   4.255
 9510SOL     OW29428   1.555   3.460   2.462
 9510SOL    HW129429   1.486   3.395   2.431
 9510SOL    HW229430   1.520   3.511   2.541
 9511SOL     OW29431   1.093   1.821   1.049
 9511SOL    HW129432   1.166   1.798   0.983
 9511SOL    HW229433   1.045   1.902   1.018
 9512SOL     OW29434   6.511   2.418   1.361
 9512SOL    HW129435   6.422   2.399   1.403
 9512SOL    HW229436   6.496   2.466   1.274
 9513SOL     OW29437   4.761   4.121   5.112
 9513SOL    HW129438   4.830   4.186   5.143
 9513SOL    HW229439   4.672   4.167   5.110
 9514SOL     OW29440   3.965   3.132   1.402
 9514SOL    HW129441   4.054   3.160   1.439
 9514SOL    HW229442   3.936   3.047   1.446
 9515SOL     OW29443   0.022   6.139   2.916
 9515SOL    HW129444   0.045   6.108   2.824
 9515SOL    HW229445   6.983   6.217   2.909
 9516SOL     OW29446   0.609   3.894   5.789
 9516SOL    HW129447   0.568   3.836   5.859
 9516SOL    HW229448   0.705   3.911   5.812
 9517SOL     OW29449   1.198   5.946   1.806
 9517SOL    HW129450   1.282   5.991   1.836
 9517SOL    HW229451   1.161   5.891   1.882
 9518SOL     OW29452   0.873   1.009   1.121
 9518SOL    HW129453   0.839   0.918   1.146
 9518SOL    HW229454   0.842   1.033   1.029
 9519SOL     OW29455   1.622   2.358   5.636
 9519SOL    HW129456   1.613   2.418   5.557
 9519SOL    HW229457   1.531   2.333   5.669
 9520SOL     OW29458   4.421   6.712   1.776
 9520SOL    HW129459   4.323   6.709   1.754
 9520SOL    HW229460   4.456   6.804   1.759
 9521SOL     OW29461   5.332   4.610   3.038
 9521SOL    HW129462   5.354   4.667   2.958
 9521SOL    HW229463   5.411   4.607   3.099
 9522SOL     OW29464   3.254   5.358   5.861
 9522SOL    HW129465   3.223   5.360   5.766
 9522SOL    HW229466   3.330   5.293   5.870
 9523SOL     OW29467   1.754   0.008   4.992
 9523SOL    HW129468   1.691   6.974   4.941
 9523SOL    HW229469   1.820   6.975   5.041
 9524SOL     OW29470   6.203   3.103   0.175
 9524SOL    HW129471   6.104   3.115   0.164
 9524SOL    HW229472   6.247   3.193   0.181
 9525SOL     OW29473   3.879   0.702   4.736
 9525SOL    HW129474   3.830   0.734   4.655
 9525SOL    HW229475   3.882   0.775   4.804
 9526SOL     OW29476   5.114   5.060   0.535
 9526SOL    HW129477   5.198   5.055   0.589
 9526SOL    HW229478   5.035   5.054   0.596
 9527SOL     OW29479   0.285   2.093   0.220
 9527SOL    HW129480   0.259   2.018   0.159
 9527SOL    HW229481   0.345   2.058   0.292
 9528SOL     OW29482   6.164   0.940   1.683
 9528SOL    HW129483   6.115   0.873   1.627
 9528SOL    HW229484   6.192   1.017   1.626
 9529SOL     OW29485   1.384   2.050   5.487
 9529SOL    HW129486   1.356   2.029   5.581
 9529SOL    HW229487   1.392   2.149   5.476
 9530SOL     OW29488   2.427   1.485   3.902
 9530SOL    HW129489   2.428   1.425   3.981
 9530SOL    HW229490   2.462   1.436   3.822
 9531SOL     OW29491   2.837   6.654   3.897
 9531SOL    HW129492   2.841   6.576   3.959
 9531SOL    HW229493   2.898   6.726   3.930
 9532SOL     OW29494   3.522   1.435   1.978
 9532SOL    HW129495   3.611   1.458   1.938
 9532SOL    HW229496   3.532   1.353   2.034
 9533SOL     OW29497   0.172   1.921   4.038
 9533SOL    HW129498   0.082   1.911   3.997
 9533SOL    HW229499   0.174   1.876   4.128
 9534SOL     OW29500   5.813   1.603   4.356
 9534SOL    HW129501   5.829   1.594   4.454
 9534SOL    HW229502   5.771   1.518   4.322
 9535SOL     OW29503   2.826   1.720   4.864
 9535SOL    HW129504   2.903   1.669   4.903
 9535SOL    HW229505   2.740   1.677   4.891
 9536SOL     OW29506   2.225   6.131   6.632
 9536SOL    HW129507   2.297   6.197   6.611
 9536SOL    HW229508   2.196   6.143   6.727
 9537SOL     OW29509   2.097   0.868   0.722
 9537SOL    HW129510   2.000   0.844   0.717
 9537SOL    HW229511   2.149   0.810   0.659
 9538SOL     OW29512   6.264   3.839   2.309
 9538SOL    HW129513   6.243   3.923   2.360
 9538SOL    HW229514   6.317   3.777   2.367
 9539SOL     OW29515   0.340   3.741   6.885
 9539SOL    HW129516   0.261   3.795   6.856
 9539SOL    HW229517   0.310   3.668   6.946
 9540SOL     OW29518   5.386   3.241   5.768
 9540SOL    HW129519   5.381   3.336   5.799
 9540SOL    HW229520   5.479   3.221   5.737
 9541SOL     OW29521   6.371   2.097   3.512
 9541SOL    HW129522   6.287   2.112   3.460
 9541SOL    HW229523   6.421   2.020   3.472
 9542SOL     OW29524   4.840   3.704   4.410
 9542SOL    HW129525   4.876   3.727   4.500
 9542SOL    HW229526   4.822   3.605   4.406
 9543SOL     OW29527   3.939   2.109   0.661
 9543SOL    HW129528   3.916   2.197   0.621
 9543SOL    HW229529   3.857   2.068   0.702
 9544SOL     OW29530   5.498   0.598   1.588
 9544SOL    HW129531   5.574   0.643   1.635
 9544SOL    HW229532   5.531   0.562   1.500
 9545SOL     OW29533   1.301   6.766   4.578
 9545SOL    HW129534   1.206   6.737   4.566
 9545SOL    HW229535   1.322   6.838   4.512
 9546SOL     OW29536   2.829   4.134   1.623
 9546SOL    HW129537   2.730   4.148   1.627
 9546SOL    HW229538   2.856   4.071   1.696
 9547SOL     OW29539   5.065   6.319   2.546
 9547SOL    HW129540   4.967   6.304   2.551
 9547SOL    HW229541   5.088   6.408   2.586
 9548SOL     OW29542   5.672   6.776   2.182
 9548SOL    HW129543   5.763   6.766   2.223
 9548SOL    HW229544   5.616   6.834   2.241
 9549SOL     OW29545   1.990   5.570   0.089
 9549SOL    HW129546   1.899   5.571   0.130
 9549SOL    HW229547   1.983   5.539   7.018
 9550SOL     OW29548   1.711   0.744   0.145
 9550SOL    HW129549   1.618   0.740   0.108
 9550SOL    HW229550   1.728   0.663   0.200
 9551SOL     OW29551   1.383   5.480   5.065
 9551SOL    HW129552   1.332   5.565   5.053
 9551SOL    HW229553   1.364   5.442   5.155
 9552SOL     OW29554   6.697   5.521   2.792
 9552SOL    HW129555   6.621   5.516   2.857
 9552SOL    HW229556   6.664   5.504   2.700
 9553SOL     OW29557   5.662   4.557   6.711
 9553SOL    HW129558   5.747   4.532   6.757
 9553SOL    HW229559   5.683   4.610   6.629
 9554SOL     OW29560   1.764   2.276   2.007
 9554SOL    HW129561   1.858   2.306   1.992
 9554SOL    HW229562   1.763   2.199   2.070
 9555SOL     OW29563   6.891   2.872   6.387
 9555SOL    HW129564   6.816   2.923   6.428
 9555SOL    HW229565   6.855   2.799   6.329
 9556SOL     OW29566   6.673   0.682   1.012
 9556SOL    HW129567   6.639   0.588   1.005
 9556SOL    HW229568   6.597   0.746   1.000
 9557SOL     OW29569   5.180   1.579   1.822
 9557SOL    HW129570   5.167   1.542   1.730
 9557SOL    HW229571   5.112   1.539   1.884
 9558SOL     OW29572   6.848   3.996   1.043
 9558SOL    HW129573   6.848   4.081   0.992
 9558SOL    HW229574   6.769   3.940   1.015
 9559SOL     OW29575   0.311   4.478   2.905
 9559SOL    HW129576   0.303   4.483   3.005
 9559SOL    HW229577   0.306   4.382   2.876
 9560SOL     OW29578   3.759   1.770   5.887
 9560SOL    HW129579   3.765   1.762   5.987
 9560SOL    HW229580   3.783   1.682   5.845
 9561SOL     OW29581   3.620   5.080   0.028
 9561SOL    HW129582   3.601   5.073   0.126
 9561SOL    HW229583   3.545   5.130   7.007
 9562SOL     OW29584   6.612   5.513   4.009
 9562SOL    HW129585   6.663   5.481   3.930
 9562SOL    HW229586   6.598   5.612   4.002
 9563SOL     OW29587   0.837   6.945   6.239
 9563SOL    HW129588   0.917   7.005   6.237
 9563SOL    HW229589   0.760   6.994   6.279
 9564SOL     OW29590   0.979   0.520   5.899
 9564SOL    HW129591   0.880   0.513   5.909
 9564SOL    HW229592   1.008   0.614   5.917
 9565SOL     OW29593   2.809   5.638   5.194
 9565SOL    HW129594   2.838   5.595   5.280
 9565SOL    HW229595   2.710   5.653   5.197
 9566SOL     OW29596   2.608   5.847   4.982
 9566SOL    HW129597   2.650   5.933   4.952
 9566SOL    HW229598   2.623   5.777   4.912
 9567SOL     OW29599   5.628   5.233   4.552
 9567SOL    HW129600   5.582   5.204   4.468
 9567SOL    HW229601   5.580   5.313   4.590
 9568SOL     OW29602   5.832   3.309   5.507
 9568SOL    HW129603   5.758   3.243   5.493
 9568SOL    HW229604   5.817   3.388   5.448
 9569SOL     OW29605   5.334   6.626   1.580
 9569SOL    HW129606   5.315   6.575   1.664
 9569SOL    HW229607   5.423   6.598   1.543
 9570SOL     OW29608   0.549   2.612   6.822
 9570SOL    HW129609   0.593   2.663   6.748
 9570SOL    HW229610   0.566   2.514   6.810
 9571SOL     OW29611   3.882   1.797   0.074
 9571SOL    HW129612   3.971   1.844   0.075
 9571SOL    HW229613   3.811   1.860   0.106
 9572SOL     OW29614   0.867   3.704   1.048
 9572SOL    HW129615   0.962   3.681   1.028
 9572SOL    HW229616   0.857   3.716   1.147
 9573SOL     OW29617   5.127   2.075   1.945
 9573SOL    HW129618   5.178   2.090   2.030
 9573SOL    HW229619   5.032   2.100   1.958
 9574SOL     OW29620   2.686   1.614   3.906
 9574SOL    HW129621   2.723   1.610   3.813
 9574SOL    HW229622   2.593   1.576   3.905
 9575SOL     OW29623   3.169   1.479   2.720
 9575SOL    HW129624   3.080   1.524   2.730
 9575SOL    HW229625   3.242   1.547   2.729
 9576SOL     OW29626   3.915   3.509   5.938
 9576SOL    HW129627   3.909   3.605   5.965
 9576SOL    HW229628   3.846   3.489   5.868
 9577SOL     OW29629   0.352   5.413   3.584
 9577SOL    HW129630   0.305   5.332   3.618
 9577SOL    HW229631   0.437   5.386   3.538
 9578SOL     OW29632   6.869   4.181   1.272
 9578SOL    HW129633   6.875   4.133   1.185
 9578SOL    HW229634   6.876   4.114   1.347
 9579SOL     OW29635   1.548   4.408   2.920
 9579SOL    HW129636   1.537   4.453   3.009
 9579SOL    HW229637   1.526   4.311   2.929
 9580SOL     OW29638   4.017   4.005   5.058
 9580SOL    HW129639   3.955   3.927   5.064
 9580SOL    HW229640   4.036   4.025   4.962
 9581SOL     OW29641   1.377   6.679   6.261
 9581SOL    HW129642   1.338   6.742   6.328
 9581SOL    HW229643   1.418   6.732   6.186
 9582SOL     OW29644   3.783   6.036   3.369
 9582SOL    HW129645   3.690   6.030   3.333
 9582SOL    HW229646   3.789   5.985   3.455
 9583SOL     OW29647   1.205   4.824   2.167
 9583SOL    HW129648   1.180   4.860   2.257
 9583SOL    HW229649   1.226   4.900   2.106
 9584SOL     OW29650   5.486   3.882   6.916
 9584SOL    HW129651   5.405   3.848   6.870
 9584SOL    HW229652   5.525   3.959   6.865
 9585SOL     OW29653   5.946   1.460   3.027
 9585SOL    HW129654   5.971   1.442   3.122
 9585SOL    HW229655   5.864   1.408   3.003
 9586SOL     OW29656   4.673   4.371   2.424
 9586SOL    HW129657   4.576   4.393   2.436
 9586SOL    HW229658   4.681   4.293   2.362
 9587SOL     OW29659   4.386   6.189   1.494
 9587SOL    HW129660   4.424   6.207   1.585
 9587SOL    HW229661   4.355   6.275   1.454
 9588SOL     OW29662   5.924   1.302   3.659
 9588SOL    HW129663   5.927   1.372   3.588
 9588SOL    HW229664   6.017   1.269   3.677
 9589SOL     OW29665   4.005   1.966   5.372
 9589SOL    HW129666   4.049   1.878   5.354
 9589SOL    HW229667   3.957   1.963   5.460
 9590SOL     OW29668   0.208   4.843   4.524
 9590SOL    HW129669   0.231   4.803   4.613
 9590SOL    HW229670   0.154   4.778   4.471
 9591SOL     OW29671   6.802   4.420   2.640
 9591SOL    HW129672   6.847   4.331   2.633
 9591SOL    HW229673   6.833   4.466   2.724
 9592SOL     OW29674   4.028   5.253   0.300
 9592SOL    HW129675   3.971   5.323   0.343
 9592SOL    HW229676   4.032   5.173   0.360
 9593SOL     OW29677   1.874   2.193   3.587
 9593SOL    HW129678   1.906   2.263   3.651
 9593SOL    HW229679   1.774   2.195   3.582
 9594SOL     OW29680   5.722   0.049   0.977
 9594SOL    HW129681   5.667   0.105   0.915
 9594SOL    HW229682   5.789   0.106   1.023
 9595SOL     OW29683   2.326   5.330   5.674
 9595SOL    HW129684   2.418   5.362   5.694
 9595SOL    HW229685   2.310   5.243   5.721
 9596SOL     OW29686   5.531   4.874   2.169
 9596SOL    HW129687   5.467   4.890   2.245
 9596SOL    HW229688   5.624   4.866   2.205
 9597SOL     OW29689   1.962   4.371   1.731
 9597SOL    HW129690   1.879   4.399   1.778
 9597SOL    HW229691   2.024   4.449   1.725
 9598SOL     OW29692   1.062   5.908   5.622
 9598SOL    HW129693   1.154   5.939   5.642
 9598SOL    HW229694   1.010   5.981   5.578
 9599SOL     OW29695   3.667   2.144   5.722
 9599SOL    HW129696   3.682   2.238   5.692
 9599SOL    HW229697   3.736   2.085   5.680
 9600SOL     OW29698   1.324   5.874   6.926
 9600SOL    HW129699   1.317   5.955   6.984
 9600SOL    HW229700   1.387   5.891   6.851
 9601SOL     OW29701   1.461   6.922   4.995
 9601SOL    HW129702   1.474   6.824   5.011
 9601SOL    HW229703   1.407   6.935   4.912
 9602SOL     OW29704   1.083   5.804   6.269
 9602SOL    HW129705   1.115   5.818   6.362
 9602SOL    HW229706   1.050   5.711   6.258
 9603SOL     OW29707   1.221   5.312   1.943
 9603SOL    HW129708   1.132   5.335   1.980
 9603SOL    HW229709   1.293   5.354   1.999
 9604SOL     OW29710   6.984   0.533   6.204
 9604SOL    HW129711   6.885   0.545   6.190
 9604SOL    HW229712   0.009   0.578   6.131
 9605SOL     OW29713   3.983   4.675   0.869
 9605SOL    HW129714   3.994   4.736   0.947
 9605SOL    HW229715   3.898   4.623   0.878
 9606SOL     OW29716   6.968   1.638   5.084
 9606SOL    HW129717   0.037   1.668   5.066
 9606SOL    HW229718   6.960   1.610   5.180
 9607SOL     OW29719   6.755   2.800   3.773
 9607SOL    HW129720   6.656   2.793   3.762
 9607SOL    HW229721   6.786   2.733   3.840
 9608SOL     OW29722   6.009   0.779   1.529
 9608SOL    HW129723   6.019   0.681   1.514
 9608SOL    HW229724   6.046   0.830   1.452
 9609SOL     OW29725   1.335   2.387   4.433
 9609SOL    HW129726   1.406   2.345   4.489
 9609SOL    HW229727   1.257   2.411   4.490
 9610SOL     OW29728   5.137   0.800   5.731
 9610SOL    HW129729   5.120   0.886   5.779
 9610SOL    HW229730   5.148   0.818   5.633
 9611SOL     OW29731   4.929   5.640   1.485
 9611SOL    HW129732   4.983   5.561   1.458
 9611SOL    HW229733   4.886   5.622   1.573
 9612SOL     OW29734   5.480   4.155   3.680
 9612SOL    HW129735   5.511   4.094   3.607
 9612SOL    HW229736   5.439   4.237   3.641
 9613SOL     OW29737   5.416   0.663   4.901
 9613SOL    HW129738   5.389   0.683   4.807
 9613SOL    HW229739   5.462   0.574   4.904
 9614SOL     OW29740   2.940   2.169   0.778
 9614SOL    HW129741   2.890   2.230   0.716
 9614SOL    HW229742   3.006   2.222   0.831
 9615SOL     OW29743   6.803   6.101   3.448
 9615SOL    HW129744   6.717   6.084   3.399
 9615SOL    HW229745   6.835   6.016   3.491
 9616SOL     OW29746   0.537   2.231   1.200
 9616SOL    HW129747   0.473   2.307   1.197
 9616SOL    HW229748   0.503   2.156   1.143
 9617SOL     OW29749   0.253   3.262   3.716
 9617SOL    HW129750   0.191   3.229   3.644
 9617SOL    HW229751   0.327   3.197   3.729
 9618SOL     OW29752   5.133   3.912   2.291
 9618SOL    HW129753   5.047   3.862   2.305
 9618SOL    HW229754   5.113   4.000   2.247
 9619SOL     OW29755   1.150   0.639   0.934
 9619SOL    HW129756   1.199   0.693   0.866
 9619SOL    HW229757   1.191   0.654   1.024
 9620SOL     OW29758   4.263   1.014   6.407
 9620SOL    HW129759   4.265   1.021   6.507
 9620SOL    HW229760   4.252   1.106   6.368
 9621SOL     OW29761   6.823   1.400   1.343
 9621SOL    HW129762   6.886   1.327   1.318
 9621SOL    HW229763   6.831   1.418   1.442
 9622SOL     OW29764   6.665   6.490   4.687
 9622SOL    HW129765   6.585   6.497   4.627
 9622SOL    HW229766   6.737   6.438   4.641
 9623SOL     OW29767   2.023   5.962   6.197
 9623SOL    HW129768   2.056   5.875   6.161
 9623SOL    HW229769   2.049   5.970   6.293
 9624SOL     OW29770   4.382   4.845   6.706
 9624SOL    HW129771   4.440   4.907   6.758
 9624SOL    HW229772   4.334   4.783   6.768
 9625SOL     OW29773   5.222   4.513   5.902
 9625SOL    HW129774   5.226   4.613   5.893
 9625SOL    HW229775   5.223   4.471   5.812
 9626SOL     OW29776   2.567   2.814   6.800
 9626SOL    HW129777   2.468   2.827   6.810
 9626SOL    HW229778   2.594   2.834   6.706
 9627SOL     OW29779   6.682   6.061   0.455
 9627SOL    HW129780   6.721   6.135   0.401
 9627SOL    HW229781   6.654   6.095   0.544
 9628SOL     OW29782   5.916   1.597   5.323
 9628SOL    HW129783   5.929   1.510   5.275
 9628SOL    HW229784   5.937   1.586   5.420
 9629SOL     OW29785   0.537   5.431   4.093
 9629SOL    HW129786   0.583   5.487   4.162
 9629SOL    HW229787   0.582   5.442   4.005
 9630SOL     OW29788   6.104   0.216   6.397
 9630SOL    HW129789   6.132   0.312   6.385
 9630SOL    HW229790   6.134   0.162   6.318
 9631SOL     OW29791   4.987   5.724   0.333
 9631SOL    HW129792   4.950   5.729   0.426
 9631SOL    HW229793   5.061   5.791   0.324
 9632SOL     OW29794   3.092   5.267   2.606
 9632SOL    HW129795   3.168   5.202   2.601
 9632SOL    HW229796   3.046   5.271   2.518
 9633SOL     OW29797   3.258   3.030   5.338
 9633SOL    HW129798   3.205   3.107   5.374
 9633SOL    HW229799   3.351   3.035   5.374
 9634SOL     OW29800   6.248   4.867   2.533
 9634SOL    HW129801   6.289   4.825   2.452
 9634SOL    HW229802   6.256   4.967   2.526
 9635SOL     OW29803   0.687   5.526   4.290
 9635SOL    HW129804   0.627   5.576   4.352
 9635SOL    HW229805   0.752   5.590   4.249
 9636SOL     OW29806   5.222   3.323   3.969
 9636SOL    HW129807   5.257   3.414   3.948
 9636SOL    HW229808   5.287   3.254   3.936
 9637SOL     OW29809   2.886   2.428   6.342
 9637SOL    HW129810   2.974   2.434   6.295
 9637SOL    HW229811   2.814   2.467   6.285
 9638SOL     OW29812   0.374   4.400   5.521
 9638SOL    HW129813   0.385   4.477   5.458
 9638SOL    HW229814   0.289   4.352   5.500
 9639SOL     OW29815   5.047   2.783   1.295
 9639SOL    HW129816   5.023   2.697   1.340
 9639SOL    HW229817   4.964   2.835   1.276
 9640SOL     OW29818   3.214   0.048   3.534
 9640SOL    HW129819   3.135   0.100   3.501
 9640SOL    HW229820   3.213   0.047   3.634
 9641SOL     OW29821   0.780   2.583   4.625
 9641SOL    HW129822   0.840   2.617   4.553
 9641SOL    HW229823   0.768   2.654   4.695
 9642SOL     OW29824   0.583   3.131   5.310
 9642SOL    HW129825   0.666   3.080   5.288
 9642SOL    HW229826   0.572   3.136   5.410
 9643SOL     OW29827   5.852   5.080   4.631
 9643SOL    HW129828   5.813   5.172   4.630
 9643SOL    HW229829   5.778   5.013   4.628
 9644SOL     OW29830   0.450   4.406   3.733
 9644SOL    HW129831   0.409   4.315   3.731
 9644SOL    HW229832   0.535   4.403   3.786
 9645SOL     OW29833   1.302   4.875   6.988
 9645SOL    HW129834   1.278   4.779   7.004
 9645SOL    HW229835   1.305   4.923   0.050
 9646SOL     OW29836   2.790   4.863   0.808
 9646SOL    HW129837   2.857   4.793   0.832
 9646SOL    HW229838   2.764   4.914   0.890
 9647SOL     OW29839   5.609   0.020   3.123
 9647SOL    HW129840   5.642   6.950   3.130
 9647SOL    HW229841   5.599   0.045   3.026
 9648SOL     OW29842   3.620   2.503   1.076
 9648SOL    HW129843   3.708   2.512   1.122
 9648SOL    HW229844   3.597   2.406   1.067
 9649SOL     OW29845   0.002   5.998   0.868
 9649SOL    HW129846   0.050   5.962   0.949
 9649SOL    HW229847   0.020   6.096   0.860
 9650SOL     OW29848   0.475   5.361   4.691
 9650SOL    HW129849   0.573   5.346   4.684
 9650SOL    HW229850   0.427   5.296   4.631
 9651SOL     OW29851   4.598   1.483   6.785
 9651SOL    HW129852   4.629   1.442   6.871
 9651SOL    HW229853   4.544   1.417   6.734
 9652SOL     OW29854   6.975   3.671   0.685
 9652SOL    HW129855   6.962   3.739   0.613
 9652SOL    HW229856   6.903   3.602   0.679
 9653SOL     OW29857   5.262   3.875   5.395
 9653SOL    HW129858   5.287   3.889   5.491
 9653SOL    HW229859   5.346   3.873   5.339
 9654SOL     OW29860   3.947   3.306   4.560
 9654SOL    HW129861   3.928   3.371   4.486
 9654SOL    HW229862   3.907   3.341   4.645
 9655SOL     OW29863   5.030   0.062   0.824
 9655SOL    HW129864   4.986   7.018   0.766
 9655SOL    HW229865   5.115   0.093   0.780
 9656SOL     OW29866   5.826   4.533   6.148
 9656SOL    HW129867   5.829   4.516   6.247
 9656SOL    HW229868   5.731   4.531   6.117
 9657SOL     OW29869   4.957   5.165   3.150
 9657SOL    HW129870   4.985   5.171   3.246
 9657SOL    HW229871   4.924   5.073   3.131
 9658SOL     OW29872   5.299   0.772   2.678
 9658SOL    HW129873   5.335   0.821   2.598
 9658SOL    HW229874   5.356   0.791   2.757
 9659SOL     OW29875   3.282   2.613   0.432
 9659SOL    HW129876   3.234   2.542   0.380
 9659SOL    HW229877   3.262   2.602   0.530
 9660SOL     OW29878   2.794   7.008   1.410
 9660SOL    HW129879   2.696   6.992   1.397
 9660SOL    HW229880   2.845   6.928   1.376
 9661SOL     OW29881   3.986   3.516   2.255
 9661SOL    HW129882   3.983   3.420   2.227
 9661SOL    HW229883   3.989   3.521   2.355
 9662SOL     OW29884   4.172   0.809   5.232
 9662SOL    HW129885   4.191   0.827   5.328
 9662SOL    HW229886   4.075   0.821   5.213
 9663SOL     OW29887   1.396   5.850   2.664
 9663SOL    HW129888   1.348   5.916   2.606
 9663SOL    HW229889   1.380   5.873   2.760
 9664SOL     OW29890   2.317   4.638   3.587
 9664SOL    HW129891   2.221   4.623   3.609
 9664SOL    HW229892   2.326   4.655   3.488
 9665SOL     OW29893   6.057   3.958   6.330
 9665SOL    HW129894   6.062   3.874   6.276
 9665SOL    HW229895   5.963   3.972   6.362
 9666SOL     OW29896   5.244   3.897   0.616
 9666SOL    HW129897   5.205   3.862   0.530
 9666SOL    HW229898   5.214   3.991   0.630
 9667SOL     OW29899   5.785   6.380   6.606
 9667SOL    HW129900   5.708   6.370   6.542
 9667SOL    HW229901   5.819   6.290   6.632
 9668SOL     OW29902   2.465   0.025   0.199
 9668SOL    HW129903   2.500   6.966   0.243
 9668SOL    HW229904   2.456   0.009   0.101
 9669SOL     OW29905   3.744   0.279   0.444
 9669SOL    HW129906   3.707   0.240   0.529
 9669SOL    HW229907   3.729   0.215   0.369
 9670SOL     OW29908   0.968   7.007   1.996
 9670SOL    HW129909   0.903   0.057   1.983
 9670SOL    HW229910   1.007   6.980   1.908
 9671SOL     OW29911   0.888   6.451   6.250
 9671SOL    HW129912   0.911   6.537   6.296
 9671SOL    HW229913   0.819   6.469   6.179
 9672SOL     OW29914   1.055   4.373   4.435
 9672SOL    HW129915   0.977   4.436   4.440
 9672SOL    HW229916   1.139   4.422   4.456
 9673SOL     OW29917   2.136   3.225   5.871
 9673SOL    HW129918   2.229   3.232   5.835
 9673SOL    HW229919   2.108   3.313   5.908
 9674SOL     OW29920   1.687   0.085   3.646
 9674SOL    HW129921   1.669   0.090   3.548
 9674SOL    HW229922   1.646   0.002   3.683
 9675SOL     OW29923   6.046   3.962   5.990
 9675SOL    HW129924   6.059   4.042   6.049
 9675SOL    HW229925   6.061   3.879   6.043
 9676SOL     OW29926   1.027   3.127   6.173
 9676SOL    HW129927   0.930   3.109   6.156
 9676SOL    HW229928   1.037   3.219   6.211
 9677SOL     OW29929   0.411   4.747   2.610
 9677SOL    HW129930   0.363   4.749   2.698
 9677SOL    HW229931   0.466   4.663   2.604
 9678SOL     OW29932   4.501   2.815   5.958
 9678SOL    HW129933   4.502   2.874   6.039
 9678SOL    HW229934   4.406   2.797   5.932
 9679SOL     OW29935   1.089   1.005   4.199
 9679SOL    HW129936   1.031   1.056   4.135
 9679SOL    HW229937   1.127   1.069   4.266
 9680SOL     OW29938   4.813   0.170   1.835
 9680SOL    HW129939   4.748   0.245   1.846
 9680SOL    HW229940   4.866   0.160   1.919
 9681SOL     OW29941   0.458   3.444   1.671
 9681SOL    HW129942   0.434   3.495   1.754
 9681SOL    HW229943   0.553   3.411   1.679
 9682SOL     OW29944   3.838   6.308   5.255
 9682SOL    HW129945   3.832   6.263   5.345
 9682SOL    HW229946   3.819   6.241   5.184
 9683SOL     OW29947   3.221   5.918   3.674
 9683SOL    HW129948   3.193   5.871   3.758
 9683SOL    HW229949   3.273   5.856   3.616
 9684SOL     OW29950   0.922   2.869   6.375
 9684SOL    HW129951   1.006   2.862   6.322
 9684SOL    HW229952   0.913   2.961   6.412
 9685SOL     OW29953   3.587   4.379   1.721
 9685SOL    HW129954   3.575   4.470   1.760
 9685SOL    HW229955   3.500   4.348   1.682
 9686SOL     OW29956   0.668   1.903   5.981
 9686SOL    HW129957   0.675   1.953   5.895
 9686SOL    HW229958   0.577   1.861   5.989
 9687SOL     OW29959   5.308   0.953   3.745
 9687SOL    HW129960   5.276   1.034   3.793
 9687SOL    HW229961   5.319   0.877   3.810
 9688SOL     OW29962   0.403   5.036   2.459
 9688SOL    HW129963   0.333   5.007   2.525
 9688SOL    HW229964   0.444   5.122   2.490
 9689SOL     OW29965   1.996   5.702   1.560
 9689SOL    HW129966   2.072   5.750   1.604
 9689SOL    HW229967   2.023   5.608   1.540
 9690SOL     OW29968   6.156   4.574   5.089
 9690SOL    HW129969   6.090   4.648   5.090
 9690SOL    HW229970   6.179   4.548   5.183
 9691SOL     OW29971   3.716   3.251   2.035
 9691SOL    HW129972   3.754   3.340   2.063
 9691SOL    HW229973   3.618   3.250   2.052
 9692SOL     OW29974   5.381   5.011   0.713
 9692SOL    HW129975   5.448   5.072   0.670
 9692SOL    HW229976   5.427   4.932   0.752
 9693SOL     OW29977   4.428   3.250   6.563
 9693SOL    HW129978   4.509   3.308   6.573
 9693SOL    HW229979   4.381   3.243   6.650
 9694SOL     OW29980   2.675   6.626   0.950
 9694SOL    HW129981   2.705   6.601   0.858
 9694SOL    HW229982   2.575   6.625   0.954
 9695SOL     OW29983   1.967   2.698   3.713
 9695SOL    HW129984   1.884   2.753   3.724
 9695SOL    HW229985   2.040   2.738   3.769
 9696SOL     OW29986   4.915   3.590   3.392
 9696SOL    HW129987   4.893   3.683   3.365
 9696SOL    HW229988   4.881   3.572   3.484
 9697SOL     OW29989   6.706   6.992   1.999
 9697SOL    HW129990   6.621   6.956   2.037
 9697SOL    HW229991   6.704   6.986   1.900
 9698SOL     OW29992   6.771   3.269   1.870
 9698SOL    HW129993   6.809   3.191   1.920
 9698SOL    HW229994   6.787   3.353   1.923
 9699SOL     OW29995   1.696   6.882   2.057
 9699SOL    HW129996   1.687   6.783   2.054
 9699SOL    HW229997   1.792   6.907   2.064
 9700SOL     OW29998   6.496   0.445   5.604
 9700SOL    HW129999   6.461   0.473   5.514
 9700SOL    HW230000   6.440   0.371   5.640
 9701SOL     OW30001   5.331   3.640   6.805
 9701SOL    HW130002   5.268   3.626   6.728
 9701SOL    HW230003   5.425   3.630   6.773
 9702SOL     OW30004   2.958   3.951   1.771
 9702SOL    HW130005   3.054   3.924   1.761
 9702SOL    HW230006   2.901   3.869   1.774
 9703SOL     OW30007   6.265   5.475   2.992
 9703SOL    HW130008   6.241   5.531   2.913
 9703SOL    HW230009   6.229   5.518   3.075
 9704SOL     OW30010   0.642   4.387   2.337
 9704SOL    HW130011   0.587   4.309   2.306
 9704SOL    HW230012   0.704   4.415   2.263
 9705SOL     OW30013   6.975   3.571   5.919
 9705SOL    HW130014   0.051   3.573   5.919
 9705SOL    HW230015   6.941   3.592   5.828
 9706SOL     OW30016   1.176   6.264   1.734
 9706SOL    HW130017   1.115   6.343   1.728
 9706SOL    HW230018   1.124   6.186   1.768
 9707SOL     OW30019   1.314   5.238   2.253
 9707SOL    HW130020   1.360   5.165   2.303
 9707SOL    HW230021   1.364   5.324   2.266
 9708SOL     OW30022   2.437   1.280   2.050
 9708SOL    HW130023   2.475   1.217   2.118
 9708SOL    HW230024   2.506   1.347   2.023
 9709SOL     OW30025   4.469   1.640   2.201
 9709SOL    HW130026   4.499   1.664   2.109
 9709SOL    HW230027   4.545   1.602   2.253
 9710SOL     OW30028   4.698   4.498   4.386
 9710SOL    HW130029   4.604   4.465   4.393
 9710SOL    HW230030   4.701   4.578   4.328
 9711SOL     OW30031   3.089   0.601   7.022
 9711SOL    HW130032   3.055   0.520   6.974
 9711SOL    HW230033   3.022   0.675   7.012
 9712SOL     OW30034   4.843   6.661   5.387
 9712SOL    HW130035   4.805   6.681   5.477
 9712SOL    HW230036   4.776   6.682   5.316
 9713SOL     OW30037   0.959   0.682   2.876
 9713SOL    HW130038   0.949   0.782   2.873
 9713SOL    HW230039   0.936   0.644   2.786
 9714SOL     OW30040   2.345   2.743   4.234
 9714SOL    HW130041   2.326   2.834   4.269
 9714SOL    HW230042   2.440   2.718   4.257
 9715SOL     OW30043   0.218   1.937   6.303
 9715SOL    HW130044   0.124   1.965   6.321
 9715SOL    HW230045   0.230   1.841   6.327
 9716SOL     OW30046   1.876   6.661   0.799
 9716SOL    HW130047   1.831   6.746   0.829
 9716SOL    HW230048   1.879   6.658   0.699
 9717SOL     OW30049   4.282   2.180   6.147
 9717SOL    HW130050   4.328   2.218   6.228
 9717SOL    HW230051   4.227   2.101   6.174
 9718SOL     OW30052   3.199   1.901   6.399
 9718SOL    HW130053   3.185   1.873   6.493
 9718SOL    HW230054   3.219   1.999   6.396
 9719SOL     OW30055   3.955   6.911   5.221
 9719SOL    HW130056   3.917   6.831   5.266
 9719SOL    HW230057   3.919   6.918   5.128
 9720SOL     OW30058   1.893   2.895   2.107
 9720SOL    HW130059   1.903   2.832   2.184
 9720SOL    HW230060   1.849   2.848   2.031
 9721SOL     OW30061   0.715   2.440   1.438
 9721SOL    HW130062   0.694   2.348   1.472
 9721SOL    HW230063   0.776   2.433   1.359
 9722SOL     OW30064   3.387   2.781   5.565
 9722SOL    HW130065   3.384   2.750   5.470
 9722SOL    HW230066   3.471   2.749   5.608
 9723SOL     OW30067   5.851   0.140   5.186
 9723SOL    HW130068   5.936   0.189   5.165
 9723SOL    HW230069   5.780   0.205   5.212
 9724SOL     OW30070   2.240   5.348   1.634
 9724SOL    HW130071   2.147   5.317   1.653
 9724SOL    HW230072   2.278   5.295   1.558
 9725SOL     OW30073   5.551   5.428   3.939
 9725SOL    HW130074   5.588   5.500   3.880
 9725SOL    HW230075   5.490   5.469   4.007
 9726SOL     OW30076   6.974   0.270   3.386
 9726SOL    HW130077   0.042   0.231   3.388
 9726SOL    HW230078   6.969   0.343   3.317
 9727SOL     OW30079   6.817   2.742   1.664
 9727SOL    HW130080   6.806   2.841   1.651
 9727SOL    HW230081   6.728   2.697   1.656
 9728SOL     OW30082   6.187   1.752   4.736
 9728SOL    HW130083   6.181   1.823   4.665
 9728SOL    HW230084   6.120   1.680   4.717
 9729SOL     OW30085   0.024   3.761   2.639
 9729SOL    HW130086   0.041   3.853   2.673
 9729SOL    HW230087   6.963   3.760   2.586
 9730SOL     OW30088   0.631   5.726   3.559
 9730SOL    HW130089   0.718   5.775   3.561
 9730SOL    HW230090   0.644   5.637   3.515
 9731SOL     OW30091   6.815   1.707   1.487
 9731SOL    HW130092   6.870   1.733   1.408
 9731SOL    HW230093   6.858   1.629   1.533
 9732SOL     OW30094   0.330   2.847   3.414
 9732SOL    HW130095   0.266   2.797   3.355
 9732SOL    HW230096   0.363   2.786   3.486
 9733SOL     OW30097   5.801   5.536   0.697
 9733SOL    HW130098   5.730   5.605   0.685
 9733SOL    HW230099   5.786   5.489   0.784
 9734SOL     OW30100   3.858   3.716   0.005
 9734SOL    HW130101   3.919   3.691   6.954
 9734SOL    HW230102   3.809   3.634   0.036
 9735SOL     OW30103   0.802   1.678   0.489
 9735SOL    HW130104   0.893   1.696   0.526
 9735SOL    HW230105   0.776   1.750   0.425
 9736SOL     OW30106   5.084   1.947   5.468
 9736SOL    HW130107   5.017   2.003   5.518
 9736SOL    HW230108   5.167   1.939   5.522
 9737SOL     OW30109   5.354   3.481   4.883
 9737SOL    HW130110   5.413   3.448   4.809
 9737SOL    HW230111   5.296   3.555   4.850
 9738SOL     OW30112   2.621   6.021   1.438
 9738SOL    HW130113   2.576   6.091   1.382
 9738SOL    HW230114   2.696   5.980   1.385
 9739SOL     OW30115   5.611   6.721   0.235
 9739SOL    HW130116   5.669   6.801   0.251
 9739SOL    HW230117   5.667   6.647   0.196
 9740SOL     OW30118   6.833   1.122   0.954
 9740SOL    HW130119   6.830   1.023   0.965
 9740SOL    HW230120   6.927   1.149   0.930
 9741SOL     OW30121   2.263   2.933   3.291
 9741SOL    HW130122   2.299   2.892   3.375
 9741SOL    HW230123   2.292   3.028   3.284
 9742SOL     OW30124   4.296   0.761   6.790
 9742SOL    HW130125   4.270   0.699   6.717
 9742SOL    HW230126   4.220   0.771   6.855
 9743SOL     OW30127   6.863   3.770   4.613
 9743SOL    HW130128   6.870   3.700   4.685
 9743SOL    HW230129   6.890   3.730   4.525
 9744SOL     OW30130   1.598   2.484   2.232
 9744SOL    HW130131   1.658   2.447   2.161
 9744SOL    HW230132   1.625   2.448   2.321
 9745SOL     OW30133   1.336   6.322   6.094
 9745SOL    HW130134   1.247   6.294   6.130
 9745SOL    HW230135   1.381   6.243   6.052
 9746SOL     OW30136   3.544   6.381   6.262
 9746SOL    HW130137   3.509   6.309   6.201
 9746SOL    HW230138   3.473   6.409   6.326
 9747SOL     OW30139   4.213   1.614   3.307
 9747SOL    HW130140   4.117   1.641   3.294
 9747SOL    HW230141   4.244   1.647   3.397
 9748SOL     OW30142   0.304   2.089   3.070
 9748SOL    HW130143   0.356   2.087   3.155
 9748SOL    HW230144   0.358   2.134   2.999
 9749SOL     OW30145   6.755   0.395   1.286
 9749SOL    HW130146   6.712   0.328   1.348
 9749SOL    HW230147   6.694   0.413   1.209
 9750SOL     OW30148   6.001   1.856   4.981
 9750SOL    HW130149   5.945   1.899   5.052
 9750SOL    HW230150   5.980   1.758   4.978
 9751SOL     OW30151   2.772   6.031   0.861
 9751SOL    HW130152   2.854   6.076   0.825
 9751SOL    HW230153   2.798   5.973   0.938
 9752SOL     OW30154   3.715   3.894   1.098
 9752SOL    HW130155   3.659   3.811   1.091
 9752SOL    HW230156   3.799   3.873   1.148
 9753SOL     OW30157   6.278   6.361   3.150
 9753SOL    HW130158   6.310   6.286   3.207
 9753SOL    HW230159   6.341   6.437   3.156
 9754SOL     OW30160   3.252   0.679   1.732
 9754SOL    HW130161   3.222   0.590   1.766
 9754SOL    HW230162   3.289   0.732   1.808
 9755SOL     OW30163   2.784   3.929   1.214
 9755SOL    HW130164   2.760   4.018   1.255
 9755SOL    HW230165   2.876   3.934   1.176
 9756SOL     OW30166   5.171   7.024   6.695
 9756SOL    HW130167   5.225   0.081   6.715
 9756SOL    HW230168   5.219   6.943   6.730
 9757SOL     OW30169   5.049   4.027   4.110
 9757SOL    HW130170   4.969   3.973   4.140
 9757SOL    HW230171   5.070   4.096   4.179
 9758SOL     OW30172   3.743   1.016   2.043
 9758SOL    HW130173   3.818   1.005   1.978
 9758SOL    HW230174   3.749   0.946   2.114
 9759SOL     OW30175   6.989   2.315   1.065
 9759SOL    HW130176   7.009   2.240   1.129
 9759SOL    HW230177   6.893   2.341   1.073
 9760SOL     OW30178   4.935   0.481   6.519
 9760SOL    HW130179   4.993   0.489   6.438
 9760SOL    HW230180   4.907   0.572   6.549
 9761SOL     OW30181   0.923   1.758   1.884
 9761SOL    HW130182   0.901   1.756   1.981
 9761SOL    HW230183   1.011   1.713   1.869
 9762SOL     OW30184   3.992   0.724   6.084
 9762SOL    HW130185   3.904   0.681   6.103
 9762SOL    HW230186   4.015   0.788   6.157
 9763SOL     OW30187   5.927   1.876   1.006
 9763SOL    HW130188   5.915   1.973   0.985
 9763SOL    HW230189   5.841   1.827   0.989
 9764SOL     OW30190   0.350   2.400   3.334
 9764SOL    HW130191   0.283   2.338   3.375
 9764SOL    HW230192   0.306   2.488   3.314
 9765SOL     OW30193   6.474   1.976   1.257
 9765SOL    HW130194   6.390   2.030   1.251
 9765SOL    HW230195   6.551   2.036   1.278
 9766SOL     OW30196   0.183   2.473   2.925
 9766SOL    HW130197   0.134   2.489   2.840
 9766SOL    HW230198   0.272   2.519   2.922
 9767SOL     OW30199   3.874   1.683   4.851
 9767SOL    HW130200   3.891   1.717   4.943
 9767SOL    HW230201   3.777   1.694   4.829
 9768SOL     OW30202   5.113   1.744   6.505
 9768SOL    HW130203   5.120   1.648   6.479
 9768SOL    HW230204   5.125   1.801   6.423
 9769SOL     OW30205   4.047   1.118   5.373
 9769SOL    HW130206   4.071   1.208   5.408
 9769SOL    HW230207   4.096   1.101   5.288
 9770SOL     OW30208   1.843   3.116   5.377
 9770SOL    HW130209   1.774   3.177   5.337
 9770SOL    HW230210   1.927   3.121   5.322
 9771SOL     OW30211   3.379   0.840   1.893
 9771SOL    HW130212   3.404   0.928   1.852
 9771SOL    HW230213   3.418   0.833   1.985
 9772SOL     OW30214   0.037   0.618   1.986
 9772SOL    HW130215   0.064   0.649   2.077
 9772SOL    HW230216   0.048   0.518   1.980
 9773SOL     OW30217   5.272   6.130   1.774
 9773SOL    HW130218   5.315   6.044   1.804
 9773SOL    HW230219   5.266   6.131   1.674
 9774SOL     OW30220   1.635   5.907   4.768
 9774SOL    HW130221   1.678   5.845   4.833
 9774SOL    HW230222   1.588   5.980   4.818
 9775SOL     OW30223   1.363   1.153   3.216
 9775SOL    HW130224   1.311   1.100   3.283
 9775SOL    HW230225   1.303   1.221   3.174
 9776SOL     OW30226   1.694   5.850   1.581
 9776SOL    HW130227   1.701   5.752   1.563
 9776SOL    HW230228   1.600   5.872   1.609
 9777SOL     OW30229   4.477   1.565   4.973
 9777SOL    HW130230   4.416   1.616   5.034
 9777SOL    HW230231   4.511   1.625   4.902
 9778SOL     OW30232   1.302   3.683   2.888
 9778SOL    HW130233   1.351   3.662   2.973
 9778SOL    HW230234   1.204   3.678   2.905
 9779SOL     OW30235   2.589   0.979   3.098
 9779SOL    HW130236   2.502   1.016   3.063
 9779SOL    HW230237   2.598   1.000   3.195
 9780SOL     OW30238   0.985   1.756   0.697
 9780SOL    HW130239   1.080   1.744   0.724
 9780SOL    HW230240   0.964   1.853   0.690
 9781SOL     OW30241   1.169   1.401   2.303
 9781SOL    HW130242   1.152   1.431   2.397
 9781SOL    HW230243   1.259   1.357   2.298
 9782SOL     OW30244   0.083   2.477   0.407
 9782SOL    HW130245   0.090   2.576   0.405
 9782SOL    HW230246   0.166   2.438   0.446
 9783SOL     OW30247   4.994   1.845   2.307
 9783SOL    HW130248   4.967   1.772   2.245
 9783SOL    HW230249   5.091   1.835   2.330
 9784SOL     OW30250   1.984   1.405   0.697
 9784SOL    HW130251   2.021   1.425   0.606
 9784SOL    HW230252   1.925   1.480   0.726
 9785SOL     OW30253   1.419   3.505   4.665
 9785SOL    HW130254   1.346   3.495   4.597
 9785SOL    HW230255   1.428   3.601   4.691
 9786SOL     OW30256   2.935   4.487   6.640
 9786SOL    HW130257   2.878   4.419   6.686
 9786SOL    HW230258   2.880   4.537   6.573
 9787SOL     OW30259   2.372   3.286   0.580
 9787SOL    HW130260   2.418   3.375   0.580
 9787SOL    HW230261   2.439   3.214   0.597
 9788SOL     OW30262   3.044   6.733   2.442
 9788SOL    HW130263   3.051   6.640   2.479
 9788SOL    HW230264   2.992   6.790   2.505
 9789SOL     OW30265   4.406   1.942   0.710
 9789SOL    HW130266   4.375   1.859   0.662
 9789SOL    HW230267   4.328   2.001   0.728
 9790SOL     OW30268   4.564   5.704   5.065
 9790SOL    HW130269   4.647   5.706   5.121
 9790SOL    HW230270   4.504   5.780   5.091
 9791SOL     OW30271   0.381   1.114   1.513
 9791SOL    HW130272   0.375   1.214   1.508
 9791SOL    HW230273   0.468   1.083   1.476
 9792SOL     OW30274   3.154   3.809   0.797
 9792SOL    HW130275   3.061   3.829   0.828
 9792SOL    HW230276   3.199   3.894   0.768
 9793SOL     OW30277   6.047   1.287   1.877
 9793SOL    HW130278   6.064   1.237   1.962
 9793SOL    HW230279   6.013   1.378   1.899
 9794SOL     OW30280   4.169   5.680   4.501
 9794SOL    HW130281   4.083   5.675   4.551
 9794SOL    HW230282   4.244   5.693   4.566
 9795SOL     OW30283   1.940   4.497   3.226
 9795SOL    HW130284   1.948   4.596   3.236
 9795SOL    HW230285   2.015   4.452   3.275
 9796SOL     OW30286   3.649   3.604   4.706
 9796SOL    HW130287   3.676   3.699   4.689
 9796SOL    HW230288   3.599   3.569   4.627
 9797SOL     OW30289   3.600   5.555   6.724
 9797SOL    HW130290   3.675   5.558   6.659
 9797SOL    HW230291   3.632   5.517   6.811
 9798SOL     OW30292   0.080   4.014   6.385
 9798SOL    HW130293   0.090   4.092   6.324
 9798SOL    HW230294   7.008   4.005   6.412
 9799SOL     OW30295   4.089   6.322   6.881
 9799SOL    HW130296   4.052   6.405   6.840
 9799SOL    HW230297   4.018   6.251   6.883
 9800SOL     OW30298   6.652   4.538   5.124
 9800SOL    HW130299   6.664   4.617   5.063
 9800SOL    HW230300   6.625   4.458   5.070
 9801SOL     OW30301   4.260   0.370   0.509
 9801SOL    HW130302   4.168   0.347   0.540
 9801SOL    HW230303   4.326   0.310   0.553
 9802SOL     OW30304   3.786   3.245   0.586
 9802SOL    HW130305   3.692   3.224   0.612
 9802SOL    HW230306   3.788   3.330   0.533
 9803SOL     OW30307   2.860   3.531   0.029
 9803SOL    HW130308   2.776   3.500   0.075
 9803SOL    HW230309   2.920   3.453   0.013
 9804SOL     OW30310   0.942   4.298   3.001
 9804SOL    HW130311   1.006   4.223   3.009
 9804SOL    HW230312   0.977   4.365   2.934
 9805SOL     OW30313   0.196   5.561   4.679
 9805SOL    HW130314   0.139   5.564   4.761
 9805SOL    HW230315   0.214   5.465   4.655
 9806SOL     OW30316   3.540   1.148   6.662
 9806SOL    HW130317   3.552   1.247   6.671
 9806SOL    HW230318   3.571   1.119   6.571
 9807SOL     OW30319   3.361   3.065   3.971
 9807SOL    HW130320   3.282   3.104   4.018
 9807SOL    HW230321   3.382   3.121   3.890
 9808SOL     OW30322   3.088   6.021   2.364
 9808SOL    HW130323   3.134   6.076   2.434
 9808SOL    HW230324   3.155   5.989   2.297
 9809SOL     OW30325   6.273   2.802   1.350
 9809SOL    HW130326   6.291   2.881   1.292
 9809SOL    HW230327   6.184   2.762   1.326
 9810SOL     OW30328   3.586   2.962   1.132
 9810SOL    HW130329   3.683   2.943   1.117
 9810SOL    HW230330   3.532   2.884   1.101
 9811SOL     OW30331   5.237   3.742   3.717
 9811SOL    HW130332   5.272   3.654   3.747
 9811SOL    HW230333   5.216   3.799   3.797
 9812SOL     OW30334   3.471   5.404   6.522
 9812SOL    HW130335   3.483   5.318   6.571
 9812SOL    HW230336   3.496   5.480   6.582
 9813SOL     OW30337   4.353   1.398   2.121
 9813SOL    HW130338   4.277   1.418   2.060
 9813SOL    HW230339   4.393   1.484   2.153
 9814SOL     OW30340   6.821   1.966   6.060
 9814SOL    HW130341   6.736   1.917   6.081
 9814SOL    HW230342   6.870   1.917   5.987
 9815SOL     OW30343   5.443   2.574   4.378
 9815SOL    HW130344   5.515   2.617   4.433
 9815SOL    HW230345   5.357   2.574   4.429
 9816SOL     OW30346   3.323   0.675   0.327
 9816SOL    HW130347   3.288   0.652   0.417
 9816SOL    HW230348   3.366   0.595   0.286
 9817SOL     OW30349   6.658   7.022   1.345
 9817SOL    HW130350   6.752   0.015   1.374
 9817SOL    HW230351   6.633   6.927   1.366
 9818SOL     OW30352   3.638   2.320   5.292
 9818SOL    HW130353   3.551   2.305   5.244
 9818SOL    HW230354   3.623   2.385   5.366
 9819SOL     OW30355   2.483   0.686   1.562
 9819SOL    HW130356   2.458   0.624   1.488
 9819SOL    HW230357   2.503   0.634   1.645
 9820SOL     OW30358   3.615   2.698   6.834
 9820SOL    HW130359   3.570   2.645   6.906
 9820SOL    HW230360   3.693   2.646   6.798
 9821SOL     OW30361   0.093   5.573   0.080
 9821SOL    HW130362   0.169   5.621   0.036
 9821SOL    HW230363   0.009   5.627   0.070
 9822SOL     OW30364   0.094   0.724   2.312
 9822SOL    HW130365   0.001   0.699   2.342
 9822SOL    HW230366   0.158   0.654   2.342
 9823SOL     OW30367   3.683   6.782   1.578
 9823SOL    HW130368   3.637   6.730   1.651
 9823SOL    HW230369   3.733   6.719   1.519
 9824SOL     OW30370   2.120   3.957   5.630
 9824SOL    HW130371   2.060   3.903   5.689
 9824SOL    HW230372   2.097   3.938   5.534
 9825SOL     OW30373   3.837   5.561   5.067
 9825SOL    HW130374   3.878   5.590   5.153
 9825SOL    HW230375   3.828   5.639   5.006
 9826SOL     OW30376   5.872   6.502   5.612
 9826SOL    HW130377   5.780   6.537   5.630
 9826SOL    HW230378   5.883   6.411   5.652
 9827SOL     OW30379   0.909   5.147   4.766
 9827SOL    HW130380   0.990   5.184   4.811
 9827SOL    HW230381   0.928   5.054   4.733
 9828SOL     OW30382   2.815   1.671   6.802
 9828SOL    HW130383   2.902   1.704   6.838
 9828SOL    HW230384   2.778   1.738   6.738
 9829SOL     OW30385   2.566   4.120   1.637
 9829SOL    HW130386   2.539   4.195   1.576
 9829SOL    HW230387   2.531   4.138   1.729
 9830SOL     OW30388   6.226   1.492   1.067
 9830SOL    HW130389   6.144   1.550   1.072
 9830SOL    HW230390   6.271   1.491   1.156
 9831SOL     OW30391   6.192   6.318   1.188
 9831SOL    HW130392   6.224   6.226   1.166
 9831SOL    HW230393   6.093   6.323   1.176
 9832SOL     OW30394   3.454   4.162   0.710
 9832SOL    HW130395   3.526   4.116   0.761
 9832SOL    HW230396   3.464   4.143   0.612
 9833SOL     OW30397   4.426   4.358   6.461
 9833SOL    HW130398   4.456   4.442   6.505
 9833SOL    HW230399   4.422   4.372   6.362
 9834SOL     OW30400   2.162   2.370   4.220
 9834SOL    HW130401   2.226   2.416   4.282
 9834SOL    HW230402   2.180   2.399   4.126
 9835SOL     OW30403   5.670   1.627   4.914
 9835SOL    HW130404   5.767   1.633   4.938
 9835SOL    HW230405   5.621   1.578   4.986
 9836SOL     OW30406   5.382   5.390   1.296
 9836SOL    HW130407   5.461   5.430   1.250
 9836SOL    HW230408   5.414   5.321   1.361
 9837SOL     OW30409   2.281   6.194   5.760
 9837SOL    HW130410   2.228   6.267   5.718
 9837SOL    HW230411   2.328   6.230   5.841
 9838SOL     OW30412   6.684   5.842   4.810
 9838SOL    HW130413   6.660   5.756   4.765
 9838SOL    HW230414   6.734   5.823   4.895
 9839SOL     OW30415   5.602   3.385   2.513
 9839SOL    HW130416   5.589   3.484   2.512
 9839SOL    HW230417   5.635   3.356   2.603
 9840SOL     OW30418   5.854   0.518   0.380
 9840SOL    HW130419   5.856   0.609   0.423
 9840SOL    HW230420   5.946   0.493   0.352
 9841SOL     OW30421   2.164   2.921   4.590
 9841SOL    HW130422   2.107   3.003   4.586
 9841SOL    HW230423   2.222   2.924   4.671
 9842SOL     OW30424   3.381   3.742   4.057
 9842SOL    HW130425   3.461   3.797   4.031
 9842SOL    HW230426   3.352   3.687   3.979
 9843SOL     OW30427   5.910   4.759   3.229
 9843SOL    HW130428   6.006   4.771   3.203
 9843SOL    HW230429   5.901   4.759   3.328
 9844SOL     OW30430   5.086   0.142   2.049
 9844SOL    HW130431   5.136   0.210   2.104
 9844SOL    HW230432   5.140   0.118   1.969
 9845SOL     OW30433   1.669   1.679   3.670
 9845SOL    HW130434   1.577   1.695   3.634
 9845SOL    HW230435   1.670   1.592   3.720
 9846SOL     OW30436   2.977   3.806   3.879
 9846SOL    HW130437   2.925   3.720   3.881
 9846SOL    HW230438   2.980   3.844   3.972
 9847SOL     OW30439   2.325   4.300   5.118
 9847SOL    HW130440   2.308   4.321   5.022
 9847SOL    HW230441   2.376   4.214   5.125
 9848SOL     OW30442   6.021   3.715   0.247
 9848SOL    HW130443   5.926   3.743   0.257
 9848SOL    HW230444   6.028   3.641   0.180
 9849SOL     OW30445   6.695   6.183   5.532
 9849SOL    HW130446   6.767   6.133   5.578
 9849SOL    HW230447   6.708   6.176   5.433
 9850SOL     OW30448   4.870   0.218   2.945
 9850SOL    HW130449   4.773   0.239   2.954
 9850SOL    HW230450   4.923   0.303   2.950
 9851SOL     OW30451   5.190   2.559   5.420
 9851SOL    HW130452   5.143   2.634   5.468
 9851SOL    HW230453   5.122   2.495   5.385
 9852SOL     OW30454   5.863   1.557   4.673
 9852SOL    HW130455   5.791   1.488   4.671
 9852SOL    HW230456   5.841   1.627   4.740
 9853SOL     OW30457   0.702   4.620   1.366
 9853SOL    HW130458   0.681   4.657   1.457
 9853SOL    HW230459   0.758   4.539   1.376
 9854SOL     OW30460   3.721   6.772   3.778
 9854SOL    HW130461   3.686   6.718   3.701
 9854SOL    HW230462   3.701   6.725   3.864
 9855SOL     OW30463   1.694   4.294   0.812
 9855SOL    HW130464   1.647   4.291   0.724
 9855SOL    HW230465   1.695   4.388   0.845
 9856SOL     OW30466   3.688   3.093   1.589
 9856SOL    HW130467   3.680   3.118   1.685
 9856SOL    HW230468   3.673   3.174   1.532
 9857SOL     OW30469   6.325   4.712   2.964
 9857SOL    HW130470   6.304   4.724   2.867
 9857SOL    HW230471   6.374   4.793   2.998
 9858SOL     OW30472   3.662   1.581   1.630
 9858SOL    HW130473   3.626   1.556   1.540
 9858SOL    HW230474   3.603   1.649   1.672
 9859SOL     OW30475   0.111   0.113   1.587
 9859SOL    HW130476   0.206   0.137   1.566
 9859SOL    HW230477   0.051   0.190   1.564
 9860SOL     OW30478   0.701   1.129   2.686
 9860SOL    HW130479   0.618   1.127   2.631
 9860SOL    HW230480   0.777   1.092   2.632
 9861SOL     OW30481   3.160   6.275   4.261
 9861SOL    HW130482   3.153   6.181   4.292
 9861SOL    HW230483   3.203   6.331   4.331
 9862SOL     OW30484   0.431   2.067   0.982
 9862SOL    HW130485   0.459   1.995   0.919
 9862SOL    HW230486   0.398   2.146   0.931
 9863SOL     OW30487   3.651   0.073   0.186
 9863SOL    HW130488   3.671   0.062   0.089
 9863SOL    HW230489   3.558   0.106   0.198
 9864SOL     OW30490   4.424   6.021   3.305
 9864SOL    HW130491   4.494   6.006   3.374
 9864SOL    HW230492   4.457   6.085   3.236
 9865SOL     OW30493   1.895   3.029   3.756
 9865SOL    HW130494   1.815   3.014   3.698
 9865SOL    HW230495   1.882   2.983   3.844
 9866SOL     OW30496   3.249   5.062   3.652
 9866SOL    HW130497   3.239   5.008   3.735
 9866SOL    HW230498   3.336   5.040   3.608
 9867SOL     OW30499   4.075   6.713   6.414
 9867SOL    HW130500   4.059   6.782   6.485
 9867SOL    HW230501   4.071   6.757   6.324
 9868SOL     OW30502   1.263   5.183   5.746
 9868SOL    HW130503   1.246   5.102   5.803
 9868SOL    HW230504   1.348   5.170   5.695
 9869SOL     OW30505   1.342   4.212   3.250
 9869SOL    HW130506   1.286   4.129   3.254
 9869SOL    HW230507   1.305   4.280   3.313
 9870SOL     OW30508   4.266   4.953   1.920
 9870SOL    HW130509   4.178   4.957   1.969
 9870SOL    HW230510   4.316   4.872   1.949
 9871SOL     OW30511   1.703   1.926   5.771
 9871SOL    HW130512   1.737   1.883   5.687
 9871SOL    HW230513   1.697   2.025   5.757
 9872SOL     OW30514   1.082   4.032   3.620
 9872SOL    HW130515   1.091   3.946   3.672
 9872SOL    HW230516   1.171   4.077   3.615
 9873SOL     OW30517   1.480   1.703   0.453
 9873SOL    HW130518   1.573   1.687   0.421
 9873SOL    HW230519   1.444   1.620   0.495
 9874SOL     OW30520   0.866   3.986   4.891
 9874SOL    HW130521   0.896   3.925   4.965
 9874SOL    HW230522   0.847   4.077   4.929
 9875SOL     OW30523   0.921   1.171   3.087
 9875SOL    HW130524   0.963   1.212   3.168
 9875SOL    HW230525   0.831   1.212   3.071
 9876SOL     OW30526   0.218   5.223   2.272
 9876SOL    HW130527   0.153   5.225   2.349
 9876SOL    HW230528   0.167   5.231   2.186
 9877SOL     OW30529   3.851   0.414   1.450
 9877SOL    HW130530   3.798   0.330   1.448
 9877SOL    HW230531   3.791   0.492   1.437
 9878SOL     OW30532   0.080   0.514   4.867
 9878SOL    HW130533   0.051   0.490   4.774
 9878SOL    HW230534   0.166   0.469   4.888
 9879SOL     OW30535   5.472   5.680   5.038
 9879SOL    HW130536   5.374   5.668   5.021
 9879SOL    HW230537   5.524   5.652   4.957
 9880SOL     OW30538   1.880   1.815   3.811
 9880SOL    HW130539   1.796   1.774   3.774
 9880SOL    HW230540   1.927   1.748   3.868
 9881SOL     OW30541   0.205   1.508   6.207
 9881SOL    HW130542   0.200   1.416   6.245
 9881SOL    HW230543   0.281   1.514   6.143
 9882SOL     OW30544   2.376   2.114   3.146
 9882SOL    HW130545   2.450   2.047   3.144
 9882SOL    HW230546   2.370   2.153   3.238
 9883SOL     OW30547   2.812   1.157   2.204
 9883SOL    HW130548   2.796   1.101   2.286
 9883SOL    HW230549   2.796   1.253   2.226
 9884SOL     OW30550   3.419   0.643   3.971
 9884SOL    HW130551   3.484   0.718   3.985
 9884SOL    HW230552   3.344   0.651   4.036
 9885SOL     OW30553   6.733   4.109   4.237
 9885SOL    HW130554   6.668   4.054   4.185
 9885SOL    HW230555   6.762   4.187   4.181
 9886SOL     OW30556   0.732   3.364   1.756
 9886SOL    HW130557   0.749   3.462   1.761
 9886SOL    HW230558   0.741   3.323   1.847
 9887SOL     OW30559   4.448   6.505   5.998
 9887SOL    HW130560   4.359   6.491   6.043
 9887SOL    HW230561   4.472   6.602   6.003
 9888SOL     OW30562   6.532   5.140   6.854
 9888SOL    HW130563   6.519   5.119   6.951
 9888SOL    HW230564   6.470   5.213   6.827
 9889SOL     OW30565   0.348   5.459   0.622
 9889SOL    HW130566   0.325   5.446   0.525
 9889SOL    HW230567   0.281   5.413   0.679
 9890SOL     OW30568   0.857   3.096   0.666
 9890SOL    HW130569   0.883   3.099   0.569
 9890SOL    HW230570   0.861   3.002   0.699
 9891SOL     OW30571   5.000   1.396   1.979
 9891SOL    HW130572   4.976   1.300   1.966
 9891SOL    HW230573   4.917   1.450   1.989
 9892SOL     OW30574   1.018   6.573   0.044
 9892SOL    HW130575   0.932   6.564   7.019
 9892SOL    HW230576   1.089   6.520   7.021
 9893SOL     OW30577   2.355   1.508   0.144
 9893SOL    HW130578   2.412   1.553   0.075
 9893SOL    HW230579   2.282   1.457   0.099
 9894SOL     OW30580   1.848   0.906   1.742
 9894SOL    HW130581   1.859   0.852   1.826
 9894SOL    HW230582   1.933   0.953   1.721
 9895SOL     OW30583   4.488   2.840   5.444
 9895SOL    HW130584   4.390   2.830   5.428
 9895SOL    HW230585   4.521   2.923   5.400
 9896SOL     OW30586   6.718   6.202   6.097
 9896SOL    HW130587   6.716   6.280   6.035
 9896SOL    HW230588   6.791   6.140   6.070
 9897SOL     OW30589   5.317   5.071   4.767
 9897SOL    HW130590   5.391   5.034   4.822
 9897SOL    HW230591   5.341   5.067   4.670
 9898SOL     OW30592   2.721   6.564   5.528
 9898SOL    HW130593   2.741   6.466   5.535
 9898SOL    HW230594   2.679   6.595   5.614
 9899SOL     OW30595   0.222   4.879   0.041
 9899SOL    HW130596   0.249   4.793   0.084
 9899SOL    HW230597   0.215   4.951   0.110
 9900SOL     OW30598   2.288   4.244   3.782
 9900SOL    HW130599   2.204   4.191   3.766
 9900SOL    HW230600   2.359   4.183   3.818
 9901SOL     OW30601   1.853   3.363   5.803
 9901SOL    HW130602   1.849   3.288   5.737
 9901SOL    HW230603   1.813   3.333   5.890
 9902SOL     OW30604   2.626   4.469   0.745
 9902SOL    HW130605   2.550   4.405   0.759
 9902SOL    HW230606   2.662   4.458   0.652
 9903SOL     OW30607   5.672   1.035   4.469
 9903SOL    HW130608   5.578   1.033   4.438
 9903SOL    HW230609   5.720   0.953   4.437
 9904SOL     OW30610   6.308   2.261   0.615
 9904SOL    HW130611   6.405   2.256   0.592
 9904SOL    HW230612   6.291   2.211   0.701
 9905SOL     OW30613   5.286   0.083   0.408
 9905SOL    HW130614   5.371   0.120   0.444
 9905SOL    HW230615   5.269   0.120   0.316
 9906SOL     OW30616   3.330   3.260   4.918
 9906SOL    HW130617   3.395   3.252   4.993
 9906SOL    HW230618   3.251   3.202   4.935
 9907SOL     OW30619   1.225   6.728   1.567
 9907SOL    HW130620   1.182   6.654   1.516
 9907SOL    HW230621   1.283   6.690   1.639
 9908SOL     OW30622   4.914   3.731   2.141
 9908SOL    HW130623   4.857   3.809   2.115
 9908SOL    HW230624   4.947   3.685   2.059
 9909SOL     OW30625   1.997   0.528   4.957
 9909SOL    HW130626   1.955   0.481   5.035
 9909SOL    HW230627   2.065   0.468   4.915
 9910SOL     OW30628   6.994   5.200   3.611
 9910SOL    HW130629   6.943   5.123   3.572
 9910SOL    HW230630   6.979   5.281   3.554
 9911SOL     OW30631   3.005   5.834   2.552
 9911SOL    HW130632   3.025   5.912   2.492
 9911SOL    HW230633   3.083   5.771   2.551
 9912SOL     OW30634   4.912   0.750   6.616
 9912SOL    HW130635   4.993   0.789   6.574
 9912SOL    HW230636   4.924   0.747   6.715
 9913SOL     OW30637   4.911   3.554   0.356
 9913SOL    HW130638   4.832   3.613   0.338
 9913SOL    HW230639   4.970   3.551   0.275
 9914SOL     OW30640   0.182   4.392   4.721
 9914SOL    HW130641   0.093   4.375   4.765
 9914SOL    HW230642   0.254   4.348   4.775
 9915SOL     OW30643   5.280   1.228   3.507
 9915SOL    HW130644   5.300   1.136   3.539
 9915SOL    HW230645   5.197   1.227   3.452
 9916SOL     OW30646   1.438   3.116   2.043
 9916SOL    HW130647   1.387   3.057   2.107
 9916SOL    HW230648   1.428   3.081   1.950
 9917SOL     OW30649   5.907   4.561   4.726
 9917SOL    HW130650   5.809   4.541   4.713
 9917SOL    HW230651   5.947   4.492   4.787
 9918SOL     OW30652   4.758   2.902   2.393
 9918SOL    HW130653   4.816   2.956   2.331
 9918SOL    HW230654   4.781   2.925   2.488
 9919SOL     OW30655   5.896   6.060   0.741
 9919SOL    HW130656   5.927   5.977   0.787
 9919SOL    HW230657   5.943   6.070   0.654
 9920SOL     OW30658   4.729   2.210   2.535
 9920SOL    HW130659   4.779   2.222   2.449
 9920SOL    HW230660   4.722   2.298   2.581
 9921SOL     OW30661   3.837   5.055   6.208
 9921SOL    HW130662   3.889   5.069   6.292
 9921SOL    HW230663   3.756   5.114   6.208
 9922SOL     OW30664   0.402   5.962   1.194
 9922SOL    HW130665   0.470   5.907   1.144
 9922SOL    HW230666   0.319   5.969   1.140
 9923SOL     OW30667   5.822   4.269   1.017
 9923SOL    HW130668   5.861   4.359   1.033
 9923SOL    HW230669   5.737   4.278   0.964
 9924SOL     OW30670   0.891   3.587   4.823
 9924SOL    HW130671   0.982   3.627   4.826
 9924SOL    HW230672   0.894   3.492   4.854
 9925SOL     OW30673   5.575   1.850   3.622
 9925SOL    HW130674   5.503   1.916   3.644
 9925SOL    HW230675   5.549   1.760   3.659
 9926SOL     OW30676   2.923   5.147   0.772
 9926SOL    HW130677   2.970   5.064   0.743
 9926SOL    HW230678   2.831   5.148   0.733
 9927SOL     OW30679   4.791   0.067   4.113
 9927SOL    HW130680   4.770   0.053   4.210
 9927SOL    HW230681   4.708   0.094   4.064
 9928SOL     OW30682   4.743   4.678   2.046
 9928SOL    HW130683   4.812   4.747   2.069
 9928SOL    HW230684   4.742   4.664   1.947
 9929SOL     OW30685   1.047   4.433   2.775
 9929SOL    HW130686   1.136   4.477   2.785
 9929SOL    HW230687   1.026   4.422   2.678
 9930SOL     OW30688   5.613   0.802   3.573
 9930SOL    HW130689   5.680   0.754   3.516
 9930SOL    HW230690   5.521   0.773   3.547
 9931SOL     OW30691   0.572   5.103   5.949
 9931SOL    HW130692   0.534   5.075   5.861
 9931SOL    HW230693   0.638   5.034   5.981
 9932SOL     OW30694   0.810   6.263   5.290
 9932SOL    HW130695   0.718   6.280   5.258
 9932SOL    HW230696   0.849   6.347   5.328
 9933SOL     OW30697   0.221   6.671   2.218
 9933SOL    HW130698   0.207   6.666   2.316
 9933SOL    HW230699   0.228   6.579   2.180
 9934SOL     OW30700   6.900   2.086   5.243
 9934SOL    HW130701   6.871   2.171   5.286
 9934SOL    HW230702   6.871   2.086   5.147
 9935SOL     OW30703   2.531   0.563   6.193
 9935SOL    HW130704   2.517   0.557   6.095
 9935SOL    HW230705   2.516   0.473   6.234
 9936SOL     OW30706   1.123   4.050   4.105
 9936SOL    HW130707   1.153   4.121   4.169
 9936SOL    HW230708   1.058   3.990   4.151
 9937SOL     OW30709   6.721   2.676   6.302
 9937SOL    HW130710   6.789   2.613   6.339
 9937SOL    HW230711   6.649   2.691   6.369
 9938SOL     OW30712   0.114   6.176   2.631
 9938SOL    HW130713   0.082   6.265   2.661
 9938SOL    HW230714   0.149   6.183   2.537
 9939SOL     OW30715   3.429   3.499   3.054
 9939SOL    HW130716   3.349   3.468   3.105
 9939SOL    HW230717   3.410   3.588   3.013
 9940SOL     OW30718   0.334   0.867   1.012
 9940SOL    HW130719   0.241   0.840   0.987
 9940SOL    HW230720   0.400   0.816   0.956
 9941SOL     OW30721   3.184   5.560   4.533
 9941SOL    HW130722   3.226   5.649   4.551
 9941SOL    HW230723   3.176   5.547   4.434
 9942SOL     OW30724   2.413   5.489   4.106
 9942SOL    HW130725   2.399   5.391   4.119
 9942SOL    HW230726   2.332   5.529   4.063
 9943SOL     OW30727   0.341   0.235   5.015
 9943SOL    HW130728   0.366   0.302   4.944
 9943SOL    HW230729   0.295   0.283   5.090
 9944SOL     OW30730   1.768   4.612   6.455
 9944SOL    HW130731   1.687   4.578   6.503
 9944SOL    HW230732   1.850   4.578   6.501
 9945SOL     OW30733   0.229   5.621   6.805
 9945SOL    HW130734   0.278   5.561   6.867
 9945SOL    HW230735   0.192   5.568   6.729
 9946SOL     OW30736   6.114   1.450   4.700
 9946SOL    HW130737   6.115   1.350   4.695
 9946SOL    HW230738   6.025   1.484   4.669
 9947SOL     OW30739   6.173   4.726   3.201
 9947SOL    HW130740   6.189   4.640   3.248
 9947SOL    HW230741   6.221   4.726   3.113
 9948SOL     OW30742   5.780   3.695   4.245
 9948SOL    HW130743   5.804   3.792   4.235
 9948SOL    HW230744   5.684   3.682   4.224
 9949SOL     OW30745   5.913   5.245   1.819
 9949SOL    HW130746   5.997   5.261   1.870
 9949SOL    HW230747   5.839   5.300   1.859
 9950SOL     OW30748   3.140   6.290   6.504
 9950SOL    HW130749   3.180   6.234   6.431
 9950SOL    HW230750   3.041   6.280   6.502
 9951SOL     OW30751   6.481   2.692   2.792
 9951SOL    HW130752   6.449   2.598   2.800
 9951SOL    HW230753   6.575   2.693   2.757
 9952SOL     OW30754   6.879   4.333   5.903
 9952SOL    HW130755   6.832   4.420   5.911
 9952SOL    HW230756   6.977   4.346   5.918
 9953SOL     OW30757   5.678   2.819   3.672
 9953SOL    HW130758   5.664   2.720   3.661
 9953SOL    HW230759   5.688   2.861   3.581
 9954SOL     OW30760   3.903   0.911   4.913
 9954SOL    HW130761   3.942   0.890   5.003
 9954SOL    HW230762   3.934   1.001   4.883
 9955SOL     OW30763   0.712   4.727   4.197
 9955SOL    HW130764   0.788   4.661   4.199
 9955SOL    HW230765   0.632   4.688   4.242
 9956SOL     OW30766   1.205   6.072   0.427
 9956SOL    HW130767   1.134   6.010   0.392
 9956SOL    HW230768   1.162   6.145   0.479
 9957SOL     OW30769   5.368   5.441   2.341
 9957SOL    HW130770   5.348   5.353   2.298
 9957SOL    HW230771   5.340   5.438   2.437
 9958SOL     OW30772   3.070   4.606   1.137
 9958SOL    HW130773   3.043   4.630   1.044
 9958SOL    HW230774   3.004   4.541   1.176
 9959SOL     OW30775   3.445   4.048   1.427
 9959SOL    HW130776   3.452   4.006   1.337
 9959SOL    HW230777   3.349   4.065   1.449
 9960SOL     OW30778   0.624   0.894   2.262
 9960SOL    HW130779   0.581   0.803   2.259
 9960SOL    HW230780   0.697   0.894   2.330
 9961SOL     OW30781   2.163   3.745   4.972
 9961SOL    HW130782   2.259   3.757   4.947
 9961SOL    HW230783   2.132   3.826   5.023
 9962SOL     OW30784   5.087   6.684   4.567
 9962SOL    HW130785   5.092   6.666   4.469
 9962SOL    HW230786   5.087   6.783   4.583
 9963SOL     OW30787   3.344   1.249   0.712
 9963SOL    HW130788   3.399   1.175   0.674
 9963SOL    HW230789   3.268   1.210   0.765
 9964SOL     OW30790   5.482   6.368   4.853
 9964SOL    HW130791   5.386   6.396   4.846
 9964SOL    HW230792   5.515   6.383   4.946
 9965SOL     OW30793   5.402   6.475   0.361
 9965SOL    HW130794   5.363   6.554   0.314
 9965SOL    HW230795   5.450   6.417   0.295
 9966SOL     OW30796   6.205   0.972   3.086
 9966SOL    HW130797   6.209   1.014   2.995
 9966SOL    HW230798   6.298   0.958   3.120
 9967SOL     OW30799   1.008   5.131   0.406
 9967SOL    HW130800   1.017   5.230   0.395
 9967SOL    HW230801   0.930   5.111   0.466
 9968SOL     OW30802   3.569   3.731   2.854
 9968SOL    HW130803   3.472   3.736   2.878
 9968SOL    HW230804   3.579   3.681   2.768
 9969SOL     OW30805   1.297   3.226   1.285
 9969SOL    HW130806   1.246   3.141   1.296
 9969SOL    HW230807   1.315   3.241   1.187
 9970SOL     OW30808   6.176   4.842   1.890
 9970SOL    HW130809   6.076   4.842   1.893
 9970SOL    HW230810   6.207   4.775   1.823
 9971SOL     OW30811   2.787   6.812   6.613
 9971SOL    HW130812   2.736   6.803   6.699
 9971SOL    HW230813   2.885   6.807   6.632
 9972SOL     OW30814   6.645   5.294   1.231
 9972SOL    HW130815   6.654   5.196   1.246
 9972SOL    HW230816   6.553   5.315   1.197
 9973SOL     OW30817   5.265   6.697   3.676
 9973SOL    HW130818   5.170   6.726   3.688
 9973SOL    HW230819   5.267   6.598   3.660
 9974SOL     OW30820   2.164   0.302   4.136
 9974SOL    HW130821   2.188   0.307   4.038
 9974SOL    HW230822   2.070   0.271   4.146
 9975SOL     OW30823   0.197   4.346   1.236
 9975SOL    HW130824   0.281   4.313   1.280
 9975SOL    HW230825   0.189   4.306   1.145
 9976SOL     OW30826   2.933   6.637   4.394
 9976SOL    HW130827   2.946   6.591   4.306
 9976SOL    HW230828   2.853   6.597   4.441
 9977SOL     OW30829   6.283   4.444   3.714
 9977SOL    HW130830   6.246   4.431   3.806
 9977SOL    HW230831   6.369   4.396   3.706
 9978SOL     OW30832   6.720   2.540   4.503
 9978SOL    HW130833   6.703   2.458   4.448
 9978SOL    HW230834   6.752   2.614   4.444
 9979SOL     OW30835   0.795   4.123   5.207
 9979SOL    HW130836   0.809   4.118   5.306
 9979SOL    HW230837   0.766   4.033   5.174
 9980SOL     OW30838   2.608   6.348   5.318
 9980SOL    HW130839   2.664   6.363   5.399
 9980SOL    HW230840   2.601   6.250   5.300
 9981SOL     OW30841   4.139   2.290   3.610
 9981SOL    HW130842   4.134   2.270   3.708
 9981SOL    HW230843   4.089   2.221   3.559
 9982SOL     OW30844   6.623   6.704   2.984
 9982SOL    HW130845   6.618   6.751   3.072
 9982SOL    HW230846   6.557   6.744   2.920
 9983SOL     OW30847   6.472   0.879   1.006
 9983SOL    HW130848   6.503   0.953   1.065
 9983SOL    HW230849   6.466   0.912   0.912
 9984SOL     OW30850   3.365   0.811   6.439
 9984SOL    HW130851   3.424   0.789   6.517
 9984SOL    HW230852   3.278   0.847   6.472
 9985SOL     OW30853   2.430   1.644   1.511
 9985SOL    HW130854   2.425   1.558   1.562
 9985SOL    HW230855   2.433   1.624   1.413
 9986SOL     OW30856   4.806   4.075   4.459
 9986SOL    HW130857   4.721   4.065   4.511
 9986SOL    HW230858   4.834   3.987   4.423
 9987SOL     OW30859   0.122   4.099   5.173
 9987SOL    HW130860   0.124   4.090   5.273
 9987SOL    HW230861   0.029   4.082   5.141
 9988SOL     OW30862   6.603   0.652   4.301
 9988SOL    HW130863   6.590   0.627   4.397
 9988SOL    HW230864   6.542   0.727   4.277
 9989SOL     OW30865   1.714   2.626   4.632
 9989SOL    HW130866   1.814   2.628   4.633
 9989SOL    HW230867   1.680   2.705   4.582
 9990SOL     OW30868   1.447   4.991   1.818
 9990SOL    HW130869   1.498   5.067   1.778
 9990SOL    HW230870   1.435   4.920   1.749
 9991SOL     OW30871   3.673   1.756   3.533
 9991SOL    HW130872   3.721   1.819   3.593
 9991SOL    HW230873   3.590   1.723   3.579
 9992SOL     OW30874   6.062   5.465   6.629
 9992SOL    HW130875   6.020   5.447   6.540
 9992SOL    HW230876   6.016   5.543   6.672
 9993SOL     OW30877   1.271   0.357   1.975
 9993SOL    HW130878   1.192   0.366   2.035
 9993SOL    HW230879   1.349   0.405   2.014
 9994SOL     OW30880   6.479   4.666   3.238
 9994SOL    HW130881   6.474   4.750   3.293
 9994SOL    HW230882   6.408   4.603   3.268
 9995SOL     OW30883   5.546   1.640   4.677
 9995SOL    HW130884   5.519   1.553   4.636
 9995SOL    HW230885   5.589   1.622   4.766
 9996SOL     OW30886   3.101   3.042   0.177
 9996SOL    HW130887   3.100   2.948   0.211
 9996SOL    HW230888   3.188   3.061   0.132
 9997SOL     OW30889   2.107   0.666   4.264
 9997SOL    HW130890   2.112   0.726   4.344
 9997SOL    HW230891   2.164   0.586   4.279
 9998SOL     OW30892   5.835   6.307   4.890
 9998SOL    HW130893   5.924   6.349   4.910
 9998SOL    HW230894   5.769   6.379   4.869
 9999SOL     OW30895   0.022   0.984   4.975
 9999SOL    HW130896   0.109   1.027   4.951
 9999SOL    HW230897   0.035   0.885   4.979
10000SOL     OW30898   0.114   4.722   0.656
10000SOL    HW130899   0.200   4.671   0.659
10000SOL    HW230900   0.038   4.659   0.675
10001SOL     OW30901   4.190   0.632   3.541
10001SOL    HW130902   4.207   0.549   3.593
10001SOL    HW230903   4.231   0.623   3.450
10002SOL     OW30904   1.489   1.893   1.568
10002SOL    HW130905   1.465   1.858   1.478
10002SOL    HW230906   1.407   1.902   1.624
10003SOL     OW30907   4.967   3.877   2.654
10003SOL    HW130908   4.940   3.831   2.739
10003SOL    HW230909   4.933   3.824   2.576
10004SOL     OW30910   6.606   3.403   3.924
10004SOL    HW130911   6.559   3.482   3.965
10004SOL    HW230912   6.697   3.394   3.964
10005SOL     OW30913   4.428   0.490   3.935
10005SOL    HW130914   4.354   0.459   3.875
10005SOL    HW230915   4.421   0.589   3.947
10006SOL     OW30916   4.678   2.323   4.031
10006SOL    HW130917   4.650   2.390   3.962
10006SOL    HW230918   4.610   2.249   4.034
10007SOL     OW30919   5.533   4.927   4.148
10007SOL    HW130920   5.521   4.849   4.087
10007SOL    HW230921   5.592   4.901   4.225
10008SOL     OW30922   3.303   0.129   4.193
10008SOL    HW130923   3.247   0.046   4.197
10008SOL    HW230924   3.292   0.172   4.104
10009SOL     OW30925   2.551   4.214   1.193
10009SOL    HW130926   2.510   4.302   1.218
10009SOL    HW230927   2.601   4.224   1.107
10010SOL     OW30928   6.228   0.964   6.448
10010SOL    HW130929   6.234   0.889   6.514
10010SOL    HW230930   6.139   0.963   6.404
10011SOL     OW30931   0.046   6.670   3.620
10011SOL    HW130932   0.043   6.669   3.520
10011SOL    HW230933   0.080   6.582   3.653
10012SOL     OW30934   5.169   0.278   4.662
10012SOL    HW130935   5.079   0.310   4.632
10012SOL    HW230936   5.216   0.234   4.586
10013SOL     OW30937   1.116   0.390   1.745
10013SOL    HW130938   1.158   0.331   1.676
10013SOL    HW230939   1.159   0.374   1.834
10014SOL     OW30940   1.632   4.669   5.980
10014SOL    HW130941   1.728   4.694   5.978
10014SOL    HW230942   1.608   4.634   6.071
10015SOL     OW30943   2.322   5.988   6.115
10015SOL    HW130944   2.290   5.928   6.189
10015SOL    HW230945   2.296   5.948   6.027
10016SOL     OW30946   2.134   1.372   4.959
10016SOL    HW130947   2.195   1.433   4.909
10016SOL    HW230948   2.067   1.333   4.896
10017SOL     OW30949   0.119   1.997   3.538
10017SOL    HW130950   0.149   2.037   3.452
10017SOL    HW230951   0.019   1.996   3.540
10018SOL     OW30952   5.250   6.654   6.477
10018SOL    HW130953   5.251   6.687   6.572
10018SOL    HW230954   5.177   6.700   6.427
10019SOL     OW30955   0.892   0.928   2.929
10019SOL    HW130956   0.906   1.016   2.975
10019SOL    HW230957   0.798   0.922   2.896
10020SOL     OW30958   0.376   3.599   0.333
10020SOL    HW130959   0.389   3.681   0.389
10020SOL    HW230960   0.314   3.537   0.380
10021SOL     OW30961   4.793   2.904   1.368
10021SOL    HW130962   4.750   2.840   1.305
10021SOL    HW230963   4.727   2.975   1.393
10022SOL     OW30964   1.809   0.718   6.194
10022SOL    HW130965   1.791   0.809   6.232
10022SOL    HW230966   1.902   0.716   6.157
10023SOL     OW30967   0.602   3.648   0.958
10023SOL    HW130968   0.698   3.675   0.964
10023SOL    HW230969   0.568   3.627   1.050
10024SOL     OW30970   0.754   3.556   2.966
10024SOL    HW130971   0.696   3.475   2.958
10024SOL    HW230972   0.700   3.632   3.002
10025SOL     OW30973   0.500   1.553   0.730
10025SOL    HW130974   0.554   1.519   0.653
10025SOL    HW230975   0.561   1.593   0.799
10026SOL     OW30976   6.416   0.789   4.449
10026SOL    HW130977   6.441   0.879   4.413
10026SOL    HW230978   6.377   0.800   4.540
10027SOL     OW30979   5.927   2.785   5.796
10027SOL    HW130980   5.946   2.762   5.892
10027SOL    HW230981   5.850   2.848   5.792
10028SOL     OW30982   1.937   1.473   1.692
10028SOL    HW130983   1.934   1.560   1.642
10028SOL    HW230984   2.025   1.429   1.677
10029SOL     OW30985   3.710   1.443   4.150
10029SOL    HW130986   3.762   1.357   4.156
10029SOL    HW230987   3.766   1.518   4.184
10030SOL     OW30988   1.245   0.992   2.687
10030SOL    HW130989   1.198   0.905   2.700
10030SOL    HW230990   1.293   1.017   2.771
10031SOL     OW30991   0.010   4.723   3.132
10031SOL    HW130992   0.020   4.799   3.067
10031SOL    HW230993   6.938   4.709   3.151
10032SOL     OW30994   3.629   2.005   5.285
10032SOL    HW130995   3.534   1.980   5.271
10032SOL    HW230996   3.635   2.100   5.317
10033SOL     OW30997   5.714   3.169   3.869
10033SOL    HW130998   5.758   3.156   3.780
10033SOL    HW230999   5.785   3.186   3.938
10034SOL     OW31000   3.906   6.253   5.781
10034SOL    HW131001   3.955   6.335   5.810
10034SOL    HW231002   3.869   6.206   5.861
10035SOL     OW31003   0.629   6.592   3.835
10035SOL    HW131004   0.698   6.577   3.765
10035SOL    HW231005   0.543   6.548   3.807
10036SOL     OW31006   6.222   0.594   0.453
10036SOL    HW131007   6.321   0.603   0.457
10036SOL    HW231008   6.189   0.635   0.367
10037SOL     OW31009   6.680   6.682   1.178
10037SOL    HW131010   6.629   6.702   1.262
10037SOL    HW231011   6.751   6.751   1.166
10038SOL     OW31012   6.302   0.319   1.076
10038SOL    HW131013   6.280   0.388   1.145
10038SOL    HW231014   6.225   0.310   1.012
10039SOL     OW31015   4.276   1.042   2.676
10039SOL    HW131016   4.301   0.947   2.661
10039SOL    HW231017   4.238   1.053   2.768
10040SOL     OW31018   0.989   2.338   0.579
10040SOL    HW131019   1.007   2.433   0.553
10040SOL    HW231020   1.039   2.316   0.662
10041SOL     OW31021   1.290   6.807   0.119
10041SOL    HW131022   1.354   6.806   0.196
10041SOL    HW231023   1.197   6.794   0.153
10042SOL     OW31024   6.311   1.774   3.719
10042SOL    HW131025   6.245   1.838   3.679
10042SOL    HW231026   6.284   1.751   3.812
10043SOL     OW31027   1.652   2.663   5.945
10043SOL    HW131028   1.616   2.756   5.952
10043SOL    HW231029   1.578   2.598   5.958
10044SOL     OW31030   4.815   1.083   6.954
10044SOL    HW131031   4.901   1.038   6.930
10044SOL    HW231032   4.827   1.182   6.951
10045SOL     OW31033   2.139   0.956   1.395
10045SOL    HW131034   2.134   1.043   1.445
10045SOL    HW231035   2.187   0.889   1.451
10046SOL     OW31036   0.409   5.561   0.208
10046SOL    HW131037   0.500   5.553   0.249
10046SOL    HW231038   0.413   5.536   0.112
10047SOL     OW31039   1.661   3.523   0.995
10047SOL    HW131040   1.627   3.429   0.993
10047SOL    HW231041   1.680   3.553   0.901
10048SOL     OW31042   5.774   3.591   1.713
10048SOL    HW131043   5.788   3.690   1.705
10048SOL    HW231044   5.677   3.573   1.729
10049SOL     OW31045   6.545   1.874   5.029
10049SOL    HW131046   6.529   1.969   5.055
10049SOL    HW231047   6.458   1.828   5.015
10050SOL     OW31048   6.939   2.531   6.381
10050SOL    HW131049   0.005   2.575   6.382
10050SOL    HW231050   6.933   2.467   6.458
10051SOL     OW31051   1.855   0.665   3.475
10051SOL    HW131052   1.800   0.640   3.555
10051SOL    HW231053   1.838   0.600   3.401
10052SOL     OW31054   0.959   0.387   3.672
10052SOL    HW131055   0.917   0.393   3.581
10052SOL    HW231056   0.924   0.460   3.730
10053SOL     OW31057   6.346   5.585   2.617
10053SOL    HW131058   6.322   5.553   2.708
10053SOL    HW231059   6.424   5.648   2.624
10054SOL     OW31060   5.743   4.107   3.801
10054SOL    HW131061   5.803   4.076   3.727
10054SOL    HW231062   5.648   4.102   3.771
10055SOL     OW31063   1.814   1.796   0.187
10055SOL    HW131064   1.810   1.806   0.088
10055SOL    HW231065   1.908   1.775   0.215
10056SOL     OW31066   5.291   2.081   4.316
10056SOL    HW131067   5.351   2.020   4.265
10056SOL    HW231068   5.296   2.173   4.279
10057SOL     OW31069   5.658   4.227   4.689
10057SOL    HW131070   5.721   4.265   4.622
10057SOL    HW231071   5.613   4.302   4.739
10058SOL     OW31072   6.209   4.064   3.638
10058SOL    HW131073   6.241   3.969   3.636
10058SOL    HW231074   6.206   4.095   3.733
10059SOL     OW31075   5.595   5.748   5.781
10059SOL    HW131076   5.675   5.800   5.752
10059SOL    HW231077   5.569   5.776   5.873
10060SOL     OW31078   2.718   1.903   2.076
10060SOL    HW131079   2.770   1.833   2.124
10060SOL    HW231080   2.621   1.895   2.099
10061SOL     OW31081   3.663   6.958   3.443
10061SOL    HW131082   3.718   6.876   3.426
10061SOL    HW231083   3.721   0.006   3.480
10062SOL     OW31084   6.460   6.871   4.668
10062SOL    HW131085   6.516   6.874   4.585
10062SOL    HW231086   6.374   6.823   4.648
10063SOL     OW31087   3.661   2.134   4.010
10063SOL    HW131088   3.739   2.190   3.981
10063SOL    HW231089   3.675   2.107   4.106
10064SOL     OW31090   2.940   6.771   2.151
10064SOL    HW131091   2.940   6.680   2.109
10064SOL    HW231092   3.000   6.770   2.232
10065SOL     OW31093   6.449   1.971   1.678
10065SOL    HW131094   6.475   1.918   1.598
10065SOL    HW231095   6.531   1.999   1.728
10066SOL     OW31096   6.330   4.162   3.413
10066SOL    HW131097   6.292   4.137   3.502
10066SOL    HW231098   6.414   4.215   3.426
10067SOL     OW31099   5.328   3.323   5.102
10067SOL    HW131100   5.334   3.382   5.022
10067SOL    HW231101   5.371   3.235   5.083
10068SOL     OW31102   1.841   3.545   3.053
10068SOL    HW131103   1.747   3.574   3.074
10068SOL    HW231104   1.904   3.590   3.116
10069SOL     OW31105   3.058   5.025   2.018
10069SOL    HW131106   3.057   4.925   2.019
10069SOL    HW231107   3.072   5.057   1.924
10070SOL     OW31108   5.290   6.839   0.418
10070SOL    HW131109   5.380   6.806   0.445
10070SOL    HW231110   5.287   6.939   0.424
10071SOL     OW31111   4.888   0.593   5.575
10071SOL    HW131112   4.899   0.647   5.659
10071SOL    HW231113   4.968   0.607   5.516
10072SOL     OW31114   5.588   3.256   1.977
10072SOL    HW131115   5.496   3.217   1.975
10072SOL    HW231116   5.623   3.255   2.070
10073SOL     OW31117   5.526   5.867   5.213
10073SOL    HW131118   5.616   5.886   5.174
10073SOL    HW231119   5.477   5.803   5.154
10074SOL     OW31120   1.675   4.609   1.245
10074SOL    HW131121   1.576   4.599   1.235
10074SOL    HW231122   1.694   4.679   1.313
10075SOL     OW31123   1.027   3.286   2.121
10075SOL    HW131124   1.007   3.221   2.194
10075SOL    HW231125   1.126   3.302   2.117
10076SOL     OW31126   5.876   4.688   3.491
10076SOL    HW131127   5.783   4.652   3.499
10076SOL    HW231128   5.925   4.673   3.577
10077SOL     OW31129   4.145   3.679   6.558
10077SOL    HW131130   4.196   3.605   6.602
10077SOL    HW231131   4.186   3.699   6.469
10078SOL     OW31132   6.031   5.736   4.197
10078SOL    HW131133   6.066   5.750   4.105
10078SOL    HW231134   6.082   5.662   4.242
10079SOL     OW31135   5.781   5.470   2.948
10079SOL    HW131136   5.733   5.546   2.903
10079SOL    HW231137   5.762   5.472   3.046
10080SOL     OW31138   5.331   2.472   5.135
10080SOL    HW131139   5.425   2.478   5.168
10080SOL    HW231140   5.293   2.564   5.125
10081SOL     OW31141   1.417   4.891   0.710
10081SOL    HW131142   1.474   4.871   0.630
10081SOL    HW231143   1.467   4.952   0.772
10082SOL     OW31144   0.671   4.760   1.588
10082SOL    HW131145   0.719   4.755   1.675
10082SOL    HW231146   0.587   4.707   1.593
10083SOL     OW31147   3.175   6.172   2.606
10083SOL    HW131148   3.231   6.140   2.682
10083SOL    HW231149   3.081   6.144   2.619
10084SOL     OW31150   1.646   2.699   5.156
10084SOL    HW131151   1.587   2.650   5.092
10084SOL    HW231152   1.741   2.681   5.134
10085SOL     OW31153   4.022   6.956   1.339
10085SOL    HW131154   3.993   6.900   1.416
10085SOL    HW231155   4.020   0.028   1.366
10086SOL     OW31156   3.019   0.955   3.145
10086SOL    HW131157   2.982   1.033   3.195
10086SOL    HW231158   2.952   0.921   3.080
10087SOL     OW31159   1.822   5.316   6.289
10087SOL    HW131160   1.901   5.258   6.309
10087SOL    HW231161   1.765   5.272   6.220
10088SOL     OW31162   5.953   2.014   0.719
10088SOL    HW131163   5.853   2.006   0.717
10088SOL    HW231164   5.986   2.045   0.630
10089SOL     OW31165   3.883   6.724   2.013
10089SOL    HW131166   3.866   6.720   2.112
10089SOL    HW231167   3.961   6.783   1.996
10090SOL     OW31168   3.071   5.697   1.973
10090SOL    HW131169   3.111   5.612   1.937
10090SOL    HW231170   2.998   5.675   2.037
10091SOL     OW31171   5.383   5.972   2.640
10091SOL    HW131172   5.390   5.917   2.724
10091SOL    HW231173   5.404   5.914   2.561
10092SOL     OW31174   0.063   1.512   2.554
10092SOL    HW131175   6.989   1.510   2.573
10092SOL    HW231176   0.079   1.501   2.456
10093SOL     OW31177   4.355   4.580   6.169
10093SOL    HW131178   4.282   4.646   6.185
10093SOL    HW231179   4.443   4.627   6.164
10094SOL     OW31180   3.716   2.460   0.775
10094SOL    HW131181   3.740   2.375   0.823
10094SOL    HW231182   3.753   2.538   0.825
10095SOL     OW31183   4.480   2.563   5.134
10095SOL    HW131184   4.382   2.581   5.145
10095SOL    HW231185   4.520   2.545   5.224
10096SOL     OW31186   6.991   5.038   1.902
10096SOL    HW131187   6.962   5.064   1.995
10096SOL    HW231188   6.919   5.062   1.837
10097SOL     OW31189   1.357   1.168   1.146
10097SOL    HW131190   1.298   1.120   1.081
10097SOL    HW231191   1.337   1.136   1.238
10098SOL     OW31192   4.372   5.314   0.317
10098SOL    HW131193   4.302   5.243   0.318
10098SOL    HW231194   4.459   5.274   0.287
10099SOL     OW31195   6.740   6.565   3.281
10099SOL    HW131196   6.675   6.523   3.345
10099SOL    HW231197   6.752   6.505   3.202
10100SOL     OW31198   5.081   5.461   4.291
10100SOL    HW131199   5.082   5.442   4.192
10100SOL    HW231200   5.016   5.399   4.336
10101SOL     OW31201   0.122   2.395   6.699
10101SOL    HW131202   0.103   2.326   6.630
10101SOL    HW231203   0.158   2.351   6.781
10102SOL     OW31204   0.080   4.935   2.990
10102SOL    HW131205   0.147   4.963   3.059
10102SOL    HW231206   0.064   5.010   2.926
10103SOL     OW31207   0.272   7.022   0.086
10103SOL    HW131208   0.248   0.088   0.049
10103SOL    HW231209   0.370   7.005   0.073
10104SOL     OW31210   2.354   1.491   4.823
10104SOL    HW131211   2.437   1.543   4.844
10104SOL    HW231212   2.304   1.537   4.750
10105SOL     OW31213   3.375   1.657   4.286
10105SOL    HW131214   3.336   1.748   4.295
10105SOL    HW231215   3.342   1.600   4.362
10106SOL     OW31216   6.214   3.986   1.106
10106SOL    HW131217   6.280   3.911   1.095
10106SOL    HW231218   6.262   4.073   1.104
10107SOL     OW31219   5.081   6.018   5.716
10107SOL    HW131220   5.093   5.919   5.706
10107SOL    HW231221   5.154   6.055   5.774
10108SOL     OW31222   2.742   1.942   5.012
10108SOL    HW131223   2.765   1.872   4.944
10108SOL    HW231224   2.661   1.913   5.064
10109SOL     OW31225   0.910   3.001   1.212
10109SOL    HW131226   0.866   2.972   1.127
10109SOL    HW231227   0.841   3.010   1.284
10110SOL     OW31228   6.059   6.252   1.905
10110SOL    HW131229   5.989   6.209   1.847
10110SOL    HW231230   6.036   6.238   2.001
10111SOL     OW31231   6.936   2.816   1.884
10111SOL    HW131232   6.849   2.781   1.848
10111SOL    HW231233   6.997   2.837   1.807
10112SOL     OW31234   0.089   2.841   4.026
10112SOL    HW131235   0.004   2.790   4.040
10112SOL    HW231236   0.100   2.861   3.928
10113SOL     OW31237   6.943   6.572   6.407
10113SOL    HW131238   6.943   6.480   6.447
10113SOL    HW231239   6.967   6.567   6.310
10114SOL     OW31240   5.378   4.324   1.549
10114SOL    HW131241   5.285   4.308   1.517
10114SOL    HW231242   5.413   4.240   1.592
10115SOL     OW31243   3.796   1.773   6.647
10115SOL    HW131244   3.740   1.759   6.729
10115SOL    HW231245   3.892   1.754   6.668
10116SOL     OW31246   0.605   6.691   6.737
10116SOL    HW131247   0.593   6.730   6.646
10116SOL    HW231248   0.639   6.761   6.800
10117SOL     OW31249   0.400   4.124   1.323
10117SOL    HW131250   0.463   4.051   1.295
10117SOL    HW231251   0.451   4.193   1.375
10118SOL     OW31252   4.067   5.128   3.499
10118SOL    HW131253   3.972   5.136   3.468
10118SOL    HW231254   4.069   5.083   3.588
10119SOL     OW31255   5.561   6.127   6.719
10119SOL    HW131256   5.585   6.108   6.814
10119SOL    HW231257   5.491   6.199   6.716
10120SOL     OW31258   2.331   2.704   2.918
10120SOL    HW131259   2.324   2.685   3.016
10120SOL    HW231260   2.377   2.627   2.873
10121SOL     OW31261   6.619   5.731   1.383
10121SOL    HW131262   6.599   5.761   1.476
10121SOL    HW231263   6.651   5.809   1.329
10122SOL     OW31264   2.030   0.175   3.275
10122SOL    HW131265   2.054   0.078   3.279
10122SOL    HW231266   1.971   0.198   3.353
10123SOL     OW31267   6.216   6.587   6.726
10123SOL    HW131268   6.141   6.589   6.660
10123SOL    HW231269   6.296   6.632   6.686
10124SOL     OW31270   0.665   4.576   3.154
10124SOL    HW131271   0.607   4.562   3.074
10124SOL    HW231272   0.747   4.519   3.146
10125SOL     OW31273   1.857   1.891   4.681
10125SOL    HW131274   1.924   1.950   4.726
10125SOL    HW231275   1.884   1.875   4.586
10126SOL     OW31276   6.660   6.167   4.451
10126SOL    HW131277   6.705   6.254   4.473
10126SOL    HW231278   6.727   6.103   4.413
10127SOL     OW31279   2.237   1.021   4.800
10127SOL    HW131280   2.151   1.045   4.754
10127SOL    HW231281   2.292   1.103   4.814
10128SOL     OW31282   3.251   0.982   0.578
10128SOL    HW131283   3.199   1.018   0.656
10128SOL    HW231284   3.328   1.044   0.558
10129SOL     OW31285   6.585   2.048   5.620
10129SOL    HW131286   6.584   2.015   5.526
10129SOL    HW231287   6.508   2.009   5.671
10130SOL     OW31288   1.368   2.825   3.171
10130SOL    HW131289   1.388   2.745   3.115
10130SOL    HW231290   1.317   2.891   3.115
10131SOL     OW31291   2.204   0.968   5.082
10131SOL    HW131292   2.203   0.971   4.982
10131SOL    HW231293   2.114   0.940   5.115
10132SOL     OW31294   5.907   0.712   2.106
10132SOL    HW131295   5.915   0.812   2.101
10132SOL    HW231296   5.973   0.677   2.172
10133SOL     OW31297   4.771   5.198   1.085
10133SOL    HW131298   4.856   5.220   1.132
10133SOL    HW231299   4.695   5.199   1.149
10134SOL     OW31300   6.280   0.418   3.295
10134SOL    HW131301   6.358   0.467   3.256
10134SOL    HW231302   6.314   0.349   3.360
10135SOL     OW31303   5.874   6.705   3.357
10135SOL    HW131304   5.777   6.711   3.381
10135SOL    HW231305   5.928   6.755   3.425
10136SOL     OW31306   4.825   0.916   2.921
10136SOL    HW131307   4.812   1.008   2.884
10136SOL    HW231308   4.916   0.908   2.962
10137SOL     OW31309   6.608   6.241   2.915
10137SOL    HW131310   6.563   6.220   2.828
10137SOL    HW231311   6.611   6.159   2.972
10138SOL     OW31312   0.254   1.962   2.633
10138SOL    HW131313   0.260   2.007   2.543
10138SOL    HW231314   0.303   1.875   2.630
10139SOL     OW31315   3.900   2.612   0.910
10139SOL    HW131316   3.986   2.587   0.866
10139SOL    HW231317   3.866   2.698   0.870
10140SOL     OW31318   5.869   6.685   3.925
10140SOL    HW131319   5.772   6.702   3.907
10140SOL    HW231320   5.890   6.710   4.020
10141SOL     OW31321   0.757   1.892   4.328
10141SOL    HW131322   0.820   1.967   4.307
10141SOL    HW231323   0.670   1.908   4.281
10142SOL     OW31324   4.617   6.444   1.659
10142SOL    HW131325   4.560   6.519   1.625
10142SOL    HW231326   4.560   6.364   1.676
10143SOL     OW31327   6.815   3.493   0.052
10143SOL    HW131328   6.777   3.583   0.029
10143SOL    HW231329   6.869   3.459   6.999
10144SOL     OW31330   4.299   0.830   1.729
10144SOL    HW131331   4.391   0.868   1.742
10144SOL    HW231332   4.298   0.770   1.649
10145SOL     OW31333   6.308   0.102   5.054
10145SOL    HW131334   6.392   0.078   5.007
10145SOL    HW231335   6.330   0.161   5.132
10146SOL     OW31336   1.536   1.203   5.280
10146SOL    HW131337   1.505   1.188   5.374
10146SOL    HW231338   1.515   1.123   5.224
10147SOL     OW31339   3.106   4.880   0.664
10147SOL    HW131340   3.182   4.830   0.621
10147SOL    HW231341   3.057   4.931   0.594
10148SOL     OW31342   6.977   5.729   6.361
10148SOL    HW131343   0.043   5.757   6.392
10148SOL    HW231344   6.918   5.712   6.441
10149SOL     OW31345   2.860   3.552   3.964
10149SOL    HW131346   2.773   3.557   4.013
10149SOL    HW231347   2.936   3.563   4.028
10150SOL     OW31348   6.126   4.495   0.393
10150SOL    HW131349   6.081   4.407   0.413
10150SOL    HW231350   6.224   4.479   0.378
10151SOL     OW31351   0.236   0.575   0.376
10151SOL    HW131352   0.144   0.610   0.360
10151SOL    HW231353   0.269   0.604   0.466
10152SOL     OW31354   3.473   6.325   3.772
10152SOL    HW131355   3.409   6.380   3.719
10152SOL    HW231356   3.436   6.309   3.863
10153SOL     OW31357   4.859   4.015   0.926
10153SOL    HW131358   4.783   4.067   0.965
10153SOL    HW231359   4.867   4.036   0.828
10154SOL     OW31360   4.909   5.058   6.076
10154SOL    HW131361   4.890   4.984   6.141
10154SOL    HW231362   5.006   5.082   6.080
10155SOL     OW31363   4.810   2.543   4.759
10155SOL    HW131364   4.809   2.467   4.823
10155SOL    HW231365   4.900   2.586   4.760
10156SOL     OW31366   3.414   1.768   0.081
10156SOL    HW131367   3.365   1.742   0.165
10156SOL    HW231368   3.395   1.864   0.061
10157SOL     OW31369   0.501   5.265   1.808
10157SOL    HW131370   0.594   5.278   1.842
10157SOL    HW231371   0.439   5.252   1.886
10158SOL     OW31372   6.606   4.884   6.365
10158SOL    HW131373   6.643   4.829   6.440
10158SOL    HW231374   6.569   4.969   6.401
10159SOL     OW31375   4.070   3.012   1.872
10159SOL    HW131376   4.012   3.090   1.849
10159SOL    HW231377   4.131   2.992   1.796
10160SOL     OW31378   6.914   4.158   2.560
10160SOL    HW131379   6.994   4.218   2.554
10160SOL    HW231380   6.874   4.147   2.469
10161SOL     OW31381   6.692   2.880   0.178
10161SOL    HW131382   6.722   2.947   0.246
10161SOL    HW231383   6.592   2.876   0.177
10162SOL     OW31384   2.345   2.580   1.852
10162SOL    HW131385   2.259   2.533   1.835
10162SOL    HW231386   2.327   2.674   1.881
10163SOL     OW31387   3.222   5.469   4.798
10163SOL    HW131388   3.318   5.492   4.816
10163SOL    HW231389   3.198   5.497   4.705
10164SOL     OW31390   0.484   0.956   3.675
10164SOL    HW131391   0.537   0.957   3.590
10164SOL    HW231392   0.485   0.863   3.713
10165SOL     OW31393   1.818   3.664   3.894
10165SOL    HW131394   1.908   3.671   3.936
10165SOL    HW231395   1.824   3.682   3.796
10166SOL     OW31396   3.042   6.298   3.196
10166SOL    HW131397   2.982   6.378   3.199
10166SOL    HW231398   3.110   6.310   3.123
10167SOL     OW31399   4.034   1.766   6.859
10167SOL    HW131400   3.951   1.794   6.908
10167SOL    HW231401   4.101   1.731   6.925
10168SOL     OW31402   0.796   1.090   6.635
10168SOL    HW131403   0.823   1.009   6.583
10168SOL    HW231404   0.788   1.066   6.732
10169SOL     OW31405   4.444   5.224   2.996
10169SOL    HW131406   4.368   5.164   3.021
10169SOL    HW231407   4.492   5.186   2.917
10170SOL     OW31408   5.034   6.153   6.956
10170SOL    HW131409   5.009   6.182   0.024
10170SOL    HW231410   5.020   6.229   6.893
10171SOL     OW31411   1.495   4.147   2.989
10171SOL    HW131412   1.431   4.078   2.956
10171SOL    HW231413   1.462   4.185   3.076
10172SOL     OW31414   0.569   1.453   3.152
10172SOL    HW131415   0.598   1.364   3.187
10172SOL    HW231416   0.648   1.501   3.114
10173SOL     OW31417   4.607   2.696   4.666
10173SOL    HW131418   4.533   2.634   4.640
10173SOL    HW231419   4.686   2.642   4.695
10174SOL     OW31420   4.808   4.620   1.081
10174SOL    HW131421   4.715   4.655   1.088
10174SOL    HW231422   4.851   4.623   1.171
10175SOL     OW31423   6.411   6.900   3.421
10175SOL    HW131424   6.495   6.948   3.446
10175SOL    HW231425   6.335   6.936   3.476
10176SOL     OW31426   6.566   1.386   5.309
10176SOL    HW131427   6.617   1.434   5.380
10176SOL    HW231428   6.488   1.441   5.279
10177SOL     OW31429   3.148   1.207   4.609
10177SOL    HW131430   3.147   1.196   4.510
10177SOL    HW231431   3.122   1.301   4.632
10178SOL     OW31432   6.790   1.641   2.379
10178SOL    HW131433   6.774   1.731   2.420
10178SOL    HW231434   6.780   1.570   2.449
10179SOL     OW31435   0.297   6.182   0.908
10179SOL    HW131436   0.380   6.126   0.905
10179SOL    HW231437   0.283   6.214   1.002
10180SOL     OW31438   1.846   0.198   6.275
10180SOL    HW131439   1.852   0.242   6.185
10180SOL    HW231440   1.894   0.110   6.272
10181SOL     OW31441   6.938   4.182   2.070
10181SOL    HW131442   7.020   4.127   2.053
10181SOL    HW231443   6.857   4.129   2.044
10182SOL     OW31444   2.890   6.763   6.362
10182SOL    HW131445   2.967   6.701   6.374
10182SOL    HW231446   2.836   6.766   6.446
10183SOL     OW31447   3.699   5.845   6.064
10183SOL    HW131448   3.757   5.851   6.145
10183SOL    HW231449   3.653   5.757   6.061
10184SOL     OW31450   4.733   2.735   3.970
10184SOL    HW131451   4.734   2.774   4.062
10184SOL    HW231452   4.807   2.669   3.960
10185SOL     OW31453   3.105   4.752   1.986
10185SOL    HW131454   3.017   4.707   2.002
10185SOL    HW231455   3.179   4.685   1.993
10186SOL     OW31456   3.179   2.831   2.060
10186SOL    HW131457   3.138   2.748   2.099
10186SOL    HW231458   3.130   2.855   1.976
10187SOL     OW31459   1.530   3.570   5.542
10187SOL    HW131460   1.502   3.569   5.446
10187SOL    HW231461   1.621   3.529   5.550
10188SOL     OW31462   2.492   0.182   6.671
10188SOL    HW131463   2.482   0.150   6.766
10188SOL    HW231464   2.526   0.106   6.615
10189SOL     OW31465   2.107   1.737   5.310
10189SOL    HW131466   2.120   1.820   5.363
10189SOL    HW231467   2.190   1.717   5.259
10190SOL     OW31468   2.910   3.918   0.866
10190SOL    HW131469   2.816   3.949   0.853
10190SOL    HW231470   2.924   3.890   0.961
10191SOL     OW31471   5.855   0.423   7.018
10191SOL    HW131472   5.789   0.491   0.026
10191SOL    HW231473   5.945   0.444   0.030
10192SOL     OW31474   2.888   0.490   4.439
10192SOL    HW131475   2.888   0.502   4.339
10192SOL    HW231476   2.816   0.547   4.478
10193SOL     OW31477   3.826   2.973   3.960
10193SOL    HW131478   3.835   2.918   3.877
10193SOL    HW231479   3.799   2.914   4.036
10194SOL     OW31480   3.092   5.677   3.494
10194SOL    HW131481   3.048   5.760   3.459
10194SOL    HW231482   3.190   5.692   3.502
10195SOL     OW31483   5.262   0.297   2.205
10195SOL    HW131484   5.287   0.372   2.267
10195SOL    HW231485   5.344   0.257   2.165
10196SOL     OW31486   4.386   4.922   3.830
10196SOL    HW131487   4.452   4.906   3.757
10196SOL    HW231488   4.314   4.852   3.826
10197SOL     OW31489   5.029   1.948   3.094
10197SOL    HW131490   5.072   2.034   3.120
10197SOL    HW231491   5.095   1.874   3.102
10198SOL     OW31492   3.822   1.434   1.992
10198SOL    HW131493   3.885   1.494   1.942
10198SOL    HW231494   3.836   1.445   2.090
10199SOL     OW31495   1.258   1.938   0.021
10199SOL    HW131496   1.186   1.884   0.063
10199SOL    HW231497   1.334   1.879   7.020
10200SOL     OW31498   5.465   6.753   3.876
10200SOL    HW131499   5.392   6.729   3.811
10200SOL    HW231500   5.431   6.820   3.941
10201SOL     OW31501   0.741   5.309   3.244
10201SOL    HW131502   0.729   5.211   3.230
10201SOL    HW231503   0.836   5.329   3.265
10202SOL     OW31504   1.371   2.445   3.370
10202SOL    HW131505   1.434   2.392   3.312
10202SOL    HW231506   1.408   2.536   3.384
10203SOL     OW31507   6.470   2.538   1.084
10203SOL    HW131508   6.410   2.478   1.031
10203SOL    HW231509   6.484   2.624   1.035
10204SOL     OW31510   1.435   6.373   4.355
10204SOL    HW131511   1.442   6.320   4.271
10204SOL    HW231512   1.404   6.466   4.334
10205SOL     OW31513   3.538   6.691   0.896
10205SOL    HW131514   3.577   6.626   0.831
10205SOL    HW231515   3.554   6.658   0.989
10206SOL     OW31516   5.958   6.091   0.024
10206SOL    HW131517   6.057   6.094   0.029
10206SOL    HW231518   5.926   5.998   0.044
10207SOL     OW31519   3.569   1.340   2.290
10207SOL    HW131520   3.545   1.267   2.226
10207SOL    HW231521   3.499   1.346   2.361
10208SOL     OW31522   0.407   2.367   6.481
10208SOL    HW131523   0.496   2.411   6.495
10208SOL    HW231524   0.335   2.436   6.486
10209SOL     OW31525   3.450   6.428   0.047
10209SOL    HW131526   3.495   6.338   0.053
10209SOL    HW231527   3.433   6.449   6.975
10210SOL     OW31528   4.727   6.470   6.912
10210SOL    HW131529   4.808   6.426   6.872
10210SOL    HW231530   4.653   6.404   6.919
10211SOL     OW31531   3.567   5.296   5.005
10211SOL    HW131532   3.532   5.383   5.039
10211SOL    HW231533   3.569   5.229   5.080
10212SOL     OW31534   6.141   5.968   5.721
10212SOL    HW131535   6.197   5.974   5.803
10212SOL    HW231536   6.062   5.910   5.739
10213SOL     OW31537   3.988   0.384   4.531
10213SOL    HW131538   4.009   0.343   4.620
10213SOL    HW231539   4.045   0.465   4.518
10214SOL     OW31540   6.992   0.627   0.411
10214SOL    HW131541   6.995   0.602   0.314
10214SOL    HW231542   6.957   0.720   0.421
10215SOL     OW31543   4.708   2.618   0.226
10215SOL    HW131544   4.688   2.709   0.262
10215SOL    HW231545   4.738   2.558   0.300
10216SOL     OW31546   4.991   0.533   2.443
10216SOL    HW131547   5.012   0.442   2.406
10216SOL    HW231548   5.030   0.602   2.382
10217SOL     OW31549   3.013   2.002   5.941
10217SOL    HW131550   3.055   2.078   5.892
10217SOL    HW231551   3.018   2.018   6.039
10218SOL     OW31552   3.865   0.810   6.702
10218SOL    HW131553   3.874   0.879   6.630
10218SOL    HW231554   3.798   0.841   6.770
10219SOL     OW31555   0.184   4.961   0.741
10219SOL    HW131556   0.202   4.960   0.839
10219SOL    HW231557   0.147   4.872   0.713
10220SOL     OW31558   4.136   2.575   6.475
10220SOL    HW131559   4.060   2.596   6.413
10220SOL    HW231560   4.213   2.636   6.456
10221SOL     OW31561   2.435   0.672   4.274
10221SOL    HW131562   2.416   0.736   4.199
10221SOL    HW231563   2.370   0.596   4.271
10222SOL     OW31564   2.397   4.511   5.283
10222SOL    HW131565   2.491   4.528   5.254
10222SOL    HW231566   2.362   4.429   5.236
10223SOL     OW31567   1.513   4.953   6.033
10223SOL    HW131568   1.522   4.903   5.947
10223SOL    HW231569   1.481   5.046   6.015
10224SOL     OW31570   3.475   5.570   5.644
10224SOL    HW131571   3.427   5.624   5.713
10224SOL    HW231572   3.411   5.545   5.571
10225SOL     OW31573   5.317   6.865   4.787
10225SOL    HW131574   5.355   6.804   4.857
10225SOL    HW231575   5.289   6.811   4.707
10226SOL     OW31576   6.717   2.463   6.750
10226SOL    HW131577   6.795   2.525   6.750
10226SOL    HW231578   6.673   2.465   6.840
10227SOL     OW31579   4.704   4.463   5.447
10227SOL    HW131580   4.608   4.489   5.445
10227SOL    HW231581   4.758   4.527   5.393
10228SOL     OW31582   1.035   2.699   1.511
10228SOL    HW131583   1.126   2.659   1.518
10228SOL    HW231584   1.040   2.797   1.533
10229SOL     OW31585   2.911   0.924   2.090
10229SOL    HW131586   2.993   0.888   2.135
10229SOL    HW231587   2.864   0.987   2.152
10230SOL     OW31588   5.371   6.844   3.206
10230SOL    HW131589   5.462   6.821   3.239
10230SOL    HW231590   5.316   6.880   3.282
10231SOL     OW31591   4.816   6.037   4.799
10231SOL    HW131592   4.828   6.027   4.700
10231SOL    HW231593   4.720   6.051   4.820
10232SOL     OW31594   4.043   2.055   3.055
10232SOL    HW131595   4.059   2.064   3.154
10232SOL    HW231596   3.945   2.069   3.036
10233SOL     OW31597   4.441   6.402   5.368
10233SOL    HW131598   4.418   6.313   5.408
10233SOL    HW231599   4.530   6.432   5.402
10234SOL     OW31600   4.130   4.283   0.992
10234SOL    HW131601   4.168   4.220   1.058
10234SOL    HW231602   4.136   4.244   0.900
10235SOL     OW31603   4.904   0.187   0.164
10235SOL    HW131604   4.828   0.203   0.227
10235SOL    HW231605   4.988   0.225   0.204
10236SOL     OW31606   1.279   4.826   1.177
10236SOL    HW131607   1.312   4.873   1.259
10236SOL    HW231608   1.300   4.882   1.096
10237SOL     OW31609   5.732   2.664   3.065
10237SOL    HW131610   5.723   2.650   2.966
10237SOL    HW231611   5.725   2.576   3.112
10238SOL     OW31612   5.243   5.244   6.342
10238SOL    HW131613   5.174   5.316   6.336
10238SOL    HW231614   5.261   5.207   6.251
10239SOL     OW31615   5.499   3.663   4.348
10239SOL    HW131616   5.511   3.673   4.447
10239SOL    HW231617   5.515   3.567   4.323
10240SOL     OW31618   4.840   3.780   2.874
10240SOL    HW131619   4.903   3.781   2.951
10240SOL    HW231620   4.764   3.842   2.892
10241SOL     OW31621   1.345   2.304   2.667
10241SOL    HW131622   1.321   2.335   2.575
10241SOL    HW231623   1.363   2.384   2.724
10242SOL     OW31624   1.199   5.453   6.782
10242SOL    HW131625   1.252   5.370   6.765
10242SOL    HW231626   1.102   5.432   6.780
10243SOL     OW31627   0.346   5.621   3.771
10243SOL    HW131628   0.324   5.574   3.857
10243SOL    HW231629   0.345   5.555   3.696
10244SOL     OW31630   2.503   5.893   6.983
10244SOL    HW131631   2.423   5.836   7.002
10244SOL    HW231632   2.573   5.877   0.028
10245SOL     OW31633   3.584   3.217   0.950
10245SOL    HW131634   3.682   3.236   0.944
10245SOL    HW231635   3.567   3.153   1.024
10246SOL     OW31636   3.527   4.211   5.091
10246SOL    HW131637   3.506   4.245   5.183
10246SOL    HW231638   3.624   4.189   5.085
10247SOL     OW31639   1.345   5.660   6.607
10247SOL    HW131640   1.326   5.582   6.666
10247SOL    HW231641   1.271   5.727   6.615
10248SOL     OW31642   6.004   0.656   4.011
10248SOL    HW131643   5.984   0.587   4.082
10248SOL    HW231644   5.930   0.723   4.008
10249SOL     OW31645   4.648   0.752   6.097
10249SOL    HW131646   4.583   0.793   6.161
10249SOL    HW231647   4.630   0.783   6.005
10250SOL     OW31648   4.361   5.879   0.917
10250SOL    HW131649   4.443   5.931   0.939
10250SOL    HW231650   4.344   5.884   0.818
10251SOL     OW31651   3.747   4.428   1.276
10251SOL    HW131652   3.764   4.405   1.372
10251SOL    HW231653   3.781   4.520   1.257
10252SOL     OW31654   0.217   3.831   0.747
10252SOL    HW131655   0.156   3.876   0.812
10252SOL    HW231656   0.210   3.732   0.757
10253SOL     OW31657   4.580   4.330   6.984
10253SOL    HW131658   4.494   4.291   7.017
10253SOL    HW231659   4.574   4.430   6.985
10254SOL     OW31660   3.077   2.184   5.614
10254SOL    HW131661   3.111   2.197   5.521
10254SOL    HW231662   3.068   2.087   5.633
10255SOL     OW31663   3.439   5.052   4.336
10255SOL    HW131664   3.347   5.012   4.340
10255SOL    HW231665   3.444   5.118   4.261
10256SOL     OW31666   5.451   5.889   0.102
10256SOL    HW131667   5.403   5.966   0.059
10256SOL    HW231668   5.411   5.803   0.070
10257SOL     OW31669   1.788   4.424   5.337
10257SOL    HW131670   1.862   4.448   5.275
10257SOL    HW231671   1.813   4.343   5.390
10258SOL     OW31672   4.981   1.522   2.448
10258SOL    HW131673   4.968   1.505   2.350
10258SOL    HW231674   4.919   1.595   2.478
10259SOL     OW31675   6.381   3.626   4.611
10259SOL    HW131676   6.334   3.585   4.690
10259SOL    HW231677   6.462   3.572   4.589
10260SOL     OW31678   0.351   5.438   2.412
10260SOL    HW131679   0.312   5.366   2.356
10260SOL    HW231680   0.293   5.519   2.408
10261SOL     OW31681   2.161   0.292   2.096
10261SOL    HW131682   2.067   0.324   2.111
10261SOL    HW231683   2.187   0.230   2.169
10262SOL     OW31684   6.930   6.410   3.764
10262SOL    HW131685   6.907   6.502   3.795
10262SOL    HW231686   6.896   6.395   3.672
10263SOL     OW31687   6.278   3.202   4.999
10263SOL    HW131688   6.344   3.133   5.029
10263SOL    HW231689   6.301   3.232   4.907
10264SOL     OW31690   0.425   0.724   0.504
10264SOL    HW131691   0.520   0.696   0.519
10264SOL    HW231692   0.421   0.789   0.428
10265SOL     OW31693   5.052   2.353   4.275
10265SOL    HW131694   5.134   2.355   4.332
10265SOL    HW231695   4.971   2.356   4.333
10266SOL     OW31696   3.504   3.612   0.181
10266SOL    HW131697   3.428   3.565   0.226
10266SOL    HW231698   3.493   3.606   0.082
10267SOL     OW31699   0.009   0.634   6.464
10267SOL    HW131700   6.986   0.717   6.493
10267SOL    HW231701   7.001   0.606   6.374
10268SOL     OW31702   6.821   4.307   0.210
10268SOL    HW131703   6.871   4.383   0.170
10268SOL    HW231704   6.882   4.255   0.270
10269SOL     OW31705   4.380   1.430   5.713
10269SOL    HW131706   4.336   1.463   5.796
10269SOL    HW231707   4.395   1.507   5.651
10270SOL     OW31708   3.970   6.389   2.780
10270SOL    HW131709   3.876   6.422   2.783
10270SOL    HW231710   3.988   6.332   2.859
10271SOL     OW31711   2.046   4.737   1.275
10271SOL    HW131712   2.071   4.641   1.285
10271SOL    HW231713   2.016   4.773   1.364
10272SOL     OW31714   2.099   3.255   4.007
10272SOL    HW131715   2.150   3.170   3.994
10272SOL    HW231716   2.053   3.280   3.922
10273SOL     OW31717   4.478   6.617   3.975
10273SOL    HW131718   4.386   6.577   3.968
10273SOL    HW231719   4.546   6.544   3.969
10274SOL     OW31720   2.288   4.423   6.415
10274SOL    HW131721   2.223   4.493   6.386
10274SOL    HW231722   2.276   4.405   6.512
10275SOL     OW31723   0.831   5.727   1.878
10275SOL    HW131724   0.736   5.695   1.876
10275SOL    HW231725   0.844   5.796   1.806
10276SOL     OW31726   1.564   0.183   0.390
10276SOL    HW131727   1.643   0.220   0.439
10276SOL    HW231728   1.559   0.224   0.299
10277SOL     OW31729   6.684   5.698   2.089
10277SOL    HW131730   6.584   5.707   2.088
10277SOL    HW231731   6.709   5.603   2.069
10278SOL     OW31732   6.310   0.955   5.663
10278SOL    HW131733   6.310   1.031   5.598
10278SOL    HW231734   6.297   0.869   5.614
10279SOL     OW31735   3.775   5.942   4.073
10279SOL    HW131736   3.808   6.035   4.090
10279SOL    HW231737   3.850   5.878   4.087
10280SOL     OW31738   2.759   2.713   0.393
10280SOL    HW131739   2.825   2.754   0.330
10280SOL    HW231740   2.732   2.623   0.359
10281SOL     OW31741   4.335   1.136   4.305
10281SOL    HW131742   4.275   1.116   4.382
10281SOL    HW231743   4.334   1.234   4.286
10282SOL     OW31744   1.607   3.430   4.183
10282SOL    HW131745   1.672   3.366   4.142
10282SOL    HW231746   1.654   3.517   4.202
10283SOL     OW31747   1.532   5.234   6.380
10283SOL    HW131748   1.583   5.296   6.439
10283SOL    HW231749   1.443   5.275   6.358
10284SOL     OW31750   5.020   2.966   7.010
10284SOL    HW131751   5.119   2.969   6.992
10284SOL    HW231752   4.989   2.871   7.010
10285SOL     OW31753   4.944   1.500   1.353
10285SOL    HW131754   4.892   1.580   1.384
10285SOL    HW231755   5.003   1.467   1.427
10286SOL     OW31756   3.579   0.427   4.073
10286SOL    HW131757   3.520   0.507   4.066
10286SOL    HW231758   3.575   0.376   3.987
10287SOL     OW31759   2.129   4.015   2.579
10287SOL    HW131760   2.192   4.071   2.633
10287SOL    HW231761   2.049   4.071   2.553
10288SOL     OW31762   4.347   6.311   4.385
10288SOL    HW131763   4.376   6.240   4.449
10288SOL    HW231764   4.388   6.293   4.295
10289SOL     OW31765   2.541   1.383   1.644
10289SOL    HW131766   2.525   1.320   1.568
10289SOL    HW231767   2.639   1.398   1.654
10290SOL     OW31768   3.090   3.166   3.438
10290SOL    HW131769   3.040   3.156   3.524
10290SOL    HW231770   3.165   3.100   3.434
10291SOL     OW31771   3.870   0.419   4.114
10291SOL    HW131772   3.775   0.449   4.121
10291SOL    HW231773   3.881   0.331   4.161
10292SOL     OW31774   6.353   2.879   4.299
10292SOL    HW131775   6.413   2.807   4.333
10292SOL    HW231776   6.260   2.865   4.333
10293SOL     OW31777   1.287   4.537   2.751
10293SOL    HW131778   1.356   4.466   2.766
10293SOL    HW231779   1.331   4.626   2.747
10294SOL     OW31780   5.651   0.868   3.148
10294SOL    HW131781   5.727   0.817   3.188
10294SOL    HW231782   5.686   0.937   3.086
10295SOL     OW31783   1.808   3.979   3.235
10295SOL    HW131784   1.737   4.018   3.293
10295SOL    HW231785   1.895   4.026   3.253
10296SOL     OW31786   6.138   3.318   1.573
10296SOL    HW131787   6.137   3.414   1.599
10296SOL    HW231788   6.162   3.309   1.477
10297SOL     OW31789   3.716   4.928   4.968
10297SOL    HW131790   3.799   4.958   4.920
10297SOL    HW231791   3.636   4.968   4.924
10298SOL     OW31792   5.907   3.403   3.433
10298SOL    HW131793   5.908   3.308   3.402
10298SOL    HW231794   5.893   3.463   3.354
10299SOL     OW31795   4.227   4.766   2.331
10299SOL    HW131796   4.316   4.813   2.328
10299SOL    HW231797   4.164   4.810   2.266
10300SOL     OW31798   0.423   5.887   2.355
10300SOL    HW131799   0.348   5.834   2.317
10300SOL    HW231800   0.421   5.980   2.317
10301SOL     OW31801   4.588   0.474   1.604
10301SOL    HW131802   4.513   0.419   1.642
10301SOL    HW231803   4.650   0.414   1.552
10302SOL     OW31804   0.536   3.903   3.234
10302SOL    HW131805   0.471   3.960   3.184
10302SOL    HW231806   0.490   3.857   3.309
10303SOL     OW31807   4.584   3.598   0.725
10303SOL    HW131808   4.525   3.523   0.695
10303SOL    HW231809   4.680   3.569   0.721
10304SOL     OW31810   5.648   5.651   3.814
10304SOL    HW131811   5.650   5.736   3.868
10304SOL    HW231812   5.728   5.649   3.753
10305SOL     OW31813   2.610   5.318   1.466
10305SOL    HW131814   2.574   5.266   1.389
10305SOL    HW231815   2.682   5.380   1.433
10306SOL     OW31816   5.027   3.801   6.879
10306SOL    HW131817   5.093   3.810   6.954
10306SOL    HW231818   4.934   3.805   6.916
10307SOL     OW31819   2.744   1.936   6.002
10307SOL    HW131820   2.824   1.992   6.021
10307SOL    HW231821   2.752   1.848   6.049
10308SOL     OW31822   2.809   5.041   4.263
10308SOL    HW131823   2.861   4.980   4.323
10308SOL    HW231824   2.818   5.010   4.168
10309SOL     OW31825   0.457   6.395   3.541
10309SOL    HW131826   0.444   6.300   3.571
10309SOL    HW231827   0.464   6.396   3.441
10310SOL     OW31828   3.647   4.103   4.392
10310SOL    HW131829   3.561   4.123   4.438
10310SOL    HW231830   3.704   4.046   4.451
10311SOL     OW31831   1.175   6.885   0.765
10311SOL    HW131832   1.175   6.861   0.668
10311SOL    HW231833   1.099   6.839   0.811
10312SOL     OW31834   2.853   4.623   0.430
10312SOL    HW131835   2.811   4.695   0.484
10312SOL    HW231836   2.809   4.536   0.451
10313SOL     OW31837   6.574   6.122   4.018
10313SOL    HW131838   6.522   6.163   3.943
10313SOL    HW231839   6.569   6.180   4.099
10314SOL     OW31840   0.007   5.369   5.337
10314SOL    HW131841   6.975   5.357   5.419
10314SOL    HW231842   0.101   5.342   5.357
10315SOL     OW31843   4.146   6.253   5.504
10315SOL    HW131844   4.182   6.341   5.536
10315SOL    HW231845   4.215   6.208   5.447
10316SOL     OW31846   0.423   3.070   4.090
10316SOL    HW131847   0.460   3.058   4.182
10316SOL    HW231848   0.326   3.095   4.096
10317SOL     OW31849   5.974   4.414   6.390
10317SOL    HW131850   6.056   4.381   6.344
10317SOL    HW231851   6.000   4.468   6.470
10318SOL     OW31852   5.004   4.864   2.797
10318SOL    HW131853   5.057   4.785   2.767
10318SOL    HW231854   4.942   4.837   2.870
10319SOL     OW31855   4.726   6.474   3.532
10319SOL    HW131856   4.761   6.513   3.446
10319SOL    HW231857   4.704   6.377   3.517
10320SOL     OW31858   3.835   6.548   1.829
10320SOL    HW131859   3.741   6.575   1.809
10320SOL    HW231860   3.873   6.608   1.900
10321SOL     OW31861   4.526   6.074   4.825
10321SOL    HW131862   4.513   6.107   4.918
10321SOL    HW231863   4.564   5.981   4.827
10322SOL     OW31864   6.910   1.612   6.631
10322SOL    HW131865   6.873   1.633   6.721
10322SOL    HW231866   6.838   1.573   6.573
10323SOL     OW31867   0.859   2.312   5.043
10323SOL    HW131868   0.810   2.226   5.024
10323SOL    HW231869   0.925   2.297   5.116
10324SOL     OW31870   3.036   3.622   4.653
10324SOL    HW131871   3.068   3.704   4.701
10324SOL    HW231872   3.022   3.549   4.720
10325SOL     OW31873   0.641   3.158   3.641
10325SOL    HW131874   0.566   3.110   3.687
10325SOL    HW231875   0.648   3.251   3.677
10326SOL     OW31876   5.539   1.623   1.146
10326SOL    HW131877   5.444   1.605   1.171
10326SOL    HW231878   5.577   1.691   1.209
10327SOL     OW31879   5.884   1.585   3.880
10327SOL    HW131880   5.858   1.682   3.880
10327SOL    HW231881   5.979   1.577   3.850
10328SOL     OW31882   0.007   3.881   2.339
10328SOL    HW131883   6.959   3.867   2.406
10328SOL    HW231884   0.009   3.803   2.275
10329SOL     OW31885   3.062   5.670   3.037
10329SOL    HW131886   3.133   5.643   2.972
10329SOL    HW231887   3.029   5.590   3.086
10330SOL     OW31888   3.261   3.716   1.055
10330SOL    HW131889   3.225   3.738   0.965
10330SOL    HW231890   3.353   3.678   1.046
10331SOL     OW31891   5.350   1.905   4.752
10331SOL    HW131892   5.336   1.955   4.666
10331SOL    HW231893   5.413   1.956   4.810
10332SOL     OW31894   1.699   2.687   6.991
10332SOL    HW131895   1.769   2.647   0.026
10332SOL    HW231896   1.740   2.715   6.905
10333SOL     OW31897   0.073   4.528   5.290
10333SOL    HW131898   0.035   4.448   5.335
10333SOL    HW231899   0.127   4.580   5.356
10334SOL     OW31900   1.134   4.806   5.549
10334SOL    HW131901   1.149   4.739   5.621
10334SOL    HW231902   1.087   4.762   5.472
10335SOL     OW31903   3.082   5.143   3.177
10335SOL    HW131904   3.145   5.074   3.142
10335SOL    HW231905   3.088   5.146   3.277
10336SOL     OW31906   4.133   6.754   3.065
10336SOL    HW131907   4.159   6.657   3.066
10336SOL    HW231908   4.085   6.775   2.980
10337SOL     OW31909   1.388   3.691   6.666
10337SOL    HW131910   1.394   3.774   6.611
10337SOL    HW231911   1.476   3.672   6.708
10338SOL     OW31912   2.422   4.321   2.747
10338SOL    HW131913   2.458   4.229   2.766
10338SOL    HW231914   2.357   4.346   2.818
10339SOL     OW31915   3.376   6.087   6.846
10339SOL    HW131916   3.317   6.022   6.894
10339SOL    HW231917   3.471   6.075   6.876
10340SOL     OW31918   1.649   6.426   0.893
10340SOL    HW131919   1.745   6.410   0.872
10340SOL    HW231920   1.601   6.339   0.898
10341SOL     OW31921   0.047   3.638   2.189
10341SOL    HW131922   6.989   3.582   2.179
10341SOL    HW231923   0.124   3.580   2.214
10342SOL     OW31924   2.923   5.379   3.967
10342SOL    HW131925   2.955   5.285   3.956
10342SOL    HW231926   2.922   5.402   4.064
10343SOL     OW31927   2.552   2.248   4.981
10343SOL    HW131928   2.570   2.167   4.924
10343SOL    HW231929   2.637   2.278   5.023
10344SOL     OW31930   4.810   3.901   1.298
10344SOL    HW131931   4.811   3.802   1.284
10344SOL    HW231932   4.861   3.946   1.225
10345SOL     OW31933   3.322   1.631   6.509
10345SOL    HW131934   3.229   1.668   6.505
10345SOL    HW231935   3.331   1.554   6.447
10346SOL     OW31936   6.418   6.001   0.296
10346SOL    HW131937   6.432   6.069   0.224
10346SOL    HW231938   6.505   5.981   0.340
10347SOL     OW31939   4.088   0.011   2.255
10347SOL    HW131940   4.020   7.023   2.183
10347SOL    HW231941   4.123   0.105   2.252
10348SOL     OW31942   6.857   3.744   5.329
10348SOL    HW131943   6.828   3.839   5.331
10348SOL    HW231944   6.874   3.712   5.423
10349SOL     OW31945   6.097   2.071   0.263
10349SOL    HW131946   6.083   1.988   0.317
10349SOL    HW231947   6.180   2.061   0.208
10350SOL     OW31948   1.978   5.029   4.378
10350SOL    HW131949   2.045   5.079   4.323
10350SOL    HW231950   1.931   4.963   4.319
10351SOL     OW31951   3.537   5.557   5.092
10351SOL    HW131952   3.631   5.526   5.075
10351SOL    HW231953   3.538   5.627   5.164
10352SOL     OW31954   0.375   1.139   1.835
10352SOL    HW131955   0.383   1.123   1.736
10352SOL    HW231956   0.401   1.234   1.855
10353SOL     OW31957   5.760   3.099   3.591
10353SOL    HW131958   5.704   3.028   3.548
10353SOL    HW231959   5.820   3.141   3.522
10354SOL     OW31960   6.977   2.457   1.886
10354SOL    HW131961   7.010   2.493   1.798
10354SOL    HW231962   7.012   2.513   1.960
10355SOL     OW31963   0.049   2.230   0.690
10355SOL    HW131964   6.990   2.183   0.660
10355SOL    HW231965   0.037   2.328   0.678
10356SOL     OW31966   6.063   2.388   6.885
10356SOL    HW131967   6.011   2.311   6.922
10356SOL    HW231968   6.030   2.473   6.928
10357SOL     OW31969   0.469   6.967   6.589
10357SOL    HW131970   0.383   6.951   6.540
10357SOL    HW231971   0.542   6.983   6.522
10358SOL     OW31972   0.661   3.200   4.040
10358SOL    HW131973   0.607   3.285   4.037
10358SOL    HW231974   0.603   3.123   4.013
10359SOL     OW31975   1.108   2.581   2.771
10359SOL    HW131976   1.070   2.517   2.837
10359SOL    HW231977   1.207   2.569   2.767
10360SOL     OW31978   5.983   4.529   1.127
10360SOL    HW131979   5.908   4.590   1.153
10360SOL    HW231980   6.033   4.568   1.050
10361SOL     OW31981   5.896   2.056   3.218
10361SOL    HW131982   5.950   2.127   3.173
10361SOL    HW231983   5.952   1.974   3.228
10362SOL     OW31984   0.130   6.507   1.556
10362SOL    HW131985   0.083   6.498   1.643
10362SOL    HW231986   0.229   6.510   1.571
10363SOL     OW31987   5.968   4.903   6.173
10363SOL    HW131988   5.876   4.865   6.159
10363SOL    HW231989   6.019   4.844   6.236
10364SOL     OW31990   5.989   5.325   1.322
10364SOL    HW131991   5.892   5.313   1.340
10364SOL    HW231992   6.040   5.315   1.408
10365SOL     OW31993   6.225   6.090   0.022
10365SOL    HW131994   6.263   6.150   6.977
10365SOL    HW231995   6.235   5.995   7.019
10366SOL     OW31996   2.859   0.057   3.243
10366SOL    HW131997   2.862   0.138   3.185
10366SOL    HW231998   2.804   7.011   3.199
10367SOL     OW31999   4.916   6.254   2.060
10367SOL    HW132000   4.913   6.173   2.000
10367SOL    HW232001   4.829   6.303   2.054
10368SOL     OW32002   1.570   5.457   1.704
10368SOL    HW132003   1.601   5.438   1.797
10368SOL    HW232004   1.642   5.505   1.654
10369SOL     OW32005   2.443   0.954   5.639
10369SOL    HW132006   2.374   0.964   5.709
10369SOL    HW232007   2.416   1.006   5.557
10370SOL     OW32008   1.996   2.260   6.542
10370SOL    HW132009   1.921   2.212   6.497
10370SOL    HW232010   2.018   2.343   6.490
10371SOL     OW32011   3.739   5.448   3.146
10371SOL    HW132012   3.796   5.473   3.224
10371SOL    HW232013   3.772   5.496   3.064
10372SOL     OW32014   1.035   6.019   1.584
10372SOL    HW132015   1.032   5.927   1.546
10372SOL    HW232016   1.083   6.017   1.672
10373SOL     OW32017   6.365   0.289   6.119
10373SOL    HW132018   6.353   0.354   6.044
10373SOL    HW232019   6.298   0.216   6.112
10374SOL     OW32020   2.775   5.143   2.961
10374SOL    HW132021   2.725   5.069   2.917
10374SOL    HW232022   2.834   5.188   2.895
10375SOL     OW32023   2.502   5.720   6.766
10375SOL    HW132024   2.502   5.785   6.690
10375SOL    HW232025   2.494   5.769   6.852
10376SOL     OW32026   1.729   4.601   3.914
10376SOL    HW132027   1.686   4.644   3.993
10376SOL    HW232028   1.714   4.657   3.832
10377SOL     OW32029   3.010   0.648   3.931
10377SOL    HW132030   3.012   0.556   3.893
10377SOL    HW232031   3.058   0.710   3.869
10378SOL     OW32032   0.366   6.800   5.636
10378SOL    HW132033   0.449   6.770   5.683
10378SOL    HW232034   0.330   6.726   5.579
10379SOL     OW32035   0.940   5.697   3.371
10379SOL    HW132036   0.913   5.776   3.425
10379SOL    HW232037   0.947   5.617   3.429
10380SOL     OW32038   3.091   1.482   4.119
10380SOL    HW132039   3.058   1.566   4.163
10380SOL    HW232040   3.181   1.498   4.079
10381SOL     OW32041   2.458   0.289   2.834
10381SOL    HW132042   2.411   0.297   2.922
10381SOL    HW232043   2.526   0.216   2.839
10382SOL     OW32044   4.163   5.767   2.278
10382SOL    HW132045   4.143   5.676   2.314
10382SOL    HW232046   4.222   5.816   2.342
10383SOL     OW32047   0.513   6.881   0.066
10383SOL    HW132048   0.588   6.815   0.060
10383SOL    HW232049   0.517   6.928   0.154
10384SOL     OW32050   5.027   5.154   1.401
10384SOL    HW132051   4.964   5.086   1.365
10384SOL    HW232052   5.039   5.227   1.334
10385SOL     OW32053   3.885   4.662   6.818
10385SOL    HW132054   3.906   4.677   6.721
10385SOL    HW232055   3.835   4.741   6.853
10386SOL     OW32056   0.085   0.308   2.031
10386SOL    HW132057   0.029   0.242   1.981
10386SOL    HW232058   0.176   0.314   1.989
10387SOL     OW32059   5.780   1.807   1.830
10387SOL    HW132060   5.707   1.788   1.896
10387SOL    HW232061   5.845   1.872   1.871
10388SOL     OW32062   0.949   0.255   4.679
10388SOL    HW132063   1.042   0.267   4.713
10388SOL    HW232064   0.884   0.261   4.755
10389SOL     OW32065   0.419   3.458   0.808
10389SOL    HW132066   0.470   3.531   0.855
10389SOL    HW232067   0.339   3.498   0.764
10390SOL     OW32068   2.172   2.199   2.178
10390SOL    HW132069   2.227   2.280   2.154
10390SOL    HW232070   2.136   2.158   2.094
10391SOL     OW32071   6.444   6.839   2.827
10391SOL    HW132072   6.389   6.850   2.744
10391SOL    HW232073   6.412   6.902   2.897
10392SOL     OW32074   6.407   3.888   4.239
10392SOL    HW132075   6.498   3.878   4.280
10392SOL    HW232076   6.400   3.979   4.197
10393SOL     OW32077   1.856   2.686   1.894
10393SOL    HW132078   1.783   2.622   1.871
10393SOL    HW232079   1.922   2.689   1.819
10394SOL     OW32080   2.877   6.269   3.792
10394SOL    HW132081   2.839   6.315   3.872
10394SOL    HW232082   2.835   6.178   3.783
10395SOL     OW32083   0.655   1.083   1.504
10395SOL    HW132084   0.657   1.133   1.590
10395SOL    HW232085   0.719   1.125   1.439
10396SOL     OW32086   3.391   2.192   5.198
10396SOL    HW132087   3.305   2.238   5.219
10396SOL    HW232088   3.380   2.138   5.115
10397SOL     OW32089   5.235   1.651   3.774
10397SOL    HW132090   5.301   1.583   3.744
10397SOL    HW232091   5.145   1.630   3.736
10398SOL     OW32092   5.101   2.896   2.701
10398SOL    HW132093   5.158   2.842   2.638
10398SOL    HW232094   5.011   2.909   2.661
10399SOL     OW32095   0.771   3.789   2.292
10399SOL    HW132096   0.793   3.696   2.322
10399SOL    HW232097   0.682   3.788   2.246
10400SOL     OW32098   1.898   6.410   0.450
10400SOL    HW132099   1.876   6.495   0.499
10400SOL    HW232100   1.969   6.427   0.382
10401SOL     OW32101   6.537   1.063   5.714
10401SOL    HW132102   6.470   0.990   5.701
10401SOL    HW232103   6.494   1.139   5.762
10402SOL     OW32104   6.810   4.571   5.326
10402SOL    HW132105   6.755   4.561   5.243
10402SOL    HW232106   6.842   4.482   5.357
10403SOL     OW32107   3.142   0.016   0.783
10403SOL    HW132108   3.171   6.996   0.868
10403SOL    HW232109   3.077   0.089   0.804
10404SOL     OW32110   0.239   5.698   5.975
10404SOL    HW132111   0.225   5.615   5.922
10404SOL    HW232112   0.191   5.691   6.063
10405SOL     OW32113   0.285   1.427   0.294
10405SOL    HW132114   0.192   1.463   0.283
10405SOL    HW232115   0.295   1.343   0.241
10406SOL     OW32116   1.788   5.307   0.761
10406SOL    HW132117   1.701   5.352   0.782
10406SOL    HW232118   1.860   5.345   0.819
10407SOL     OW32119   2.213   6.062   0.104
10407SOL    HW132120   2.220   5.967   0.074
10407SOL    HW232121   2.299   6.091   0.146
10408SOL     OW32122   4.821   0.575   0.657
10408SOL    HW132123   4.764   0.636   0.712
10408SOL    HW232124   4.779   0.484   0.655
10409SOL     OW32125   6.301   4.476   0.717
10409SOL    HW132126   6.298   4.442   0.623
10409SOL    HW232127   6.390   4.453   0.757
10410SOL     OW32128   4.636   6.990   0.844
10410SOL    HW132129   4.659   6.895   0.866
10410SOL    HW232130   4.684   0.027   0.908
10411SOL     OW32131   1.730   5.227   4.160
10411SOL    HW132132   1.752   5.247   4.255
10411SOL    HW232133   1.771   5.297   4.101
10412SOL     OW32134   5.635   0.054   1.507
10412SOL    HW132135   5.647   6.992   1.458
10412SOL    HW232136   5.719   0.078   1.554
10413SOL     OW32137   5.883   3.068   2.709
10413SOL    HW132138   5.941   2.990   2.685
10413SOL    HW232139   5.895   3.141   2.642
10414SOL     OW32140   5.854   3.451   4.131
10414SOL    HW132141   5.932   3.411   4.181
10414SOL    HW232142   5.831   3.540   4.170
10415SOL     OW32143   0.906   0.848   6.954
10415SOL    HW132144   0.854   0.925   6.991
10415SOL    HW232145   0.858   0.763   6.974
10416SOL     OW32146   5.418   2.862   3.810
10416SOL    HW132147   5.361   2.784   3.836
10416SOL    HW232148   5.512   2.830   3.797
10417SOL     OW32149   1.570   4.023   2.747
10417SOL    HW132150   1.632   3.945   2.756
10417SOL    HW232151   1.582   4.085   2.825
10418SOL     OW32152   1.651   5.658   6.736
10418SOL    HW132153   1.562   5.703   6.733
10418SOL    HW232154   1.670   5.627   6.830
10419SOL     OW32155   1.507   0.795   6.854
10419SOL    HW132156   1.510   0.873   6.917
10419SOL    HW232157   1.482   0.827   6.763
10420SOL     OW32158   0.460   2.751   2.808
10420SOL    HW132159   0.547   2.763   2.761
10420SOL    HW232160   0.395   2.706   2.746
10421SOL     OW32161   0.860   1.960   3.049
10421SOL    HW132162   0.827   2.054   3.048
10421SOL    HW232163   0.791   1.901   3.091
10422SOL     OW32164   5.409   2.842   0.036
10422SOL    HW132165   5.502   2.848   0.071
10422SOL    HW232166   5.371   2.751   0.058
10423SOL     OW32167   4.958   5.392   3.018
10423SOL    HW132168   5.033   5.455   3.036
10423SOL    HW232169   4.972   5.308   3.070
10424SOL     OW32170   4.758   1.509   6.542
10424SOL    HW132171   4.694   1.551   6.478
10424SOL    HW232172   4.711   1.493   6.629
10425SOL     OW32173   1.635   6.600   2.096
10425SOL    HW132174   1.629   6.639   2.188
10425SOL    HW232175   1.636   6.501   2.102
10426SOL     OW32176   6.362   4.231   6.495
10426SOL    HW132177   6.278   4.198   6.539
10426SOL    HW232178   6.413   4.153   6.459
10427SOL     OW32179   5.471   0.749   1.214
10427SOL    HW132180   5.565   0.741   1.246
10427SOL    HW232181   5.411   0.770   1.291
10428SOL     OW32182   4.958   1.549   3.505
10428SOL    HW132183   4.884   1.613   3.486
10428SOL    HW232184   5.042   1.583   3.463
10429SOL     OW32185   5.476   5.406   2.757
10429SOL    HW132186   5.561   5.438   2.714
10429SOL    HW232187   5.498   5.350   2.837
10430SOL     OW32188   4.197   6.285   2.648
10430SOL    HW132189   4.117   6.319   2.698
10430SOL    HW232190   4.264   6.359   2.637
10431SOL     OW32191   2.499   1.275   5.274
10431SOL    HW132192   2.539   1.356   5.316
10431SOL    HW232193   2.403   1.293   5.252
10432SOL     OW32194   4.041   0.521   4.910
10432SOL    HW132195   4.012   0.540   5.003
10432SOL    HW232196   4.012   0.595   4.849
10433SOL     OW32197   2.808   6.478   1.135
10433SOL    HW132198   2.756   6.520   1.061
10433SOL    HW232199   2.746   6.455   1.211
10434SOL     OW32200   3.090   2.133   5.293
10434SOL    HW132201   3.034   2.066   5.245
10434SOL    HW232202   3.114   2.207   5.231
10435SOL     OW32203   5.626   5.457   6.349
10435SOL    HW132204   5.700   5.426   6.288
10435SOL    HW232205   5.598   5.382   6.409
10436SOL     OW32206   0.462   1.142   2.542
10436SOL    HW132207   0.412   1.058   2.519
10436SOL    HW232208   0.397   1.218   2.548
10437SOL     OW32209   0.519   3.755   5.990
10437SOL    HW132210   0.546   3.662   5.966
10437SOL    HW232211   0.425   3.754   6.025
10438SOL     OW32212   3.330   6.783   5.608
10438SOL    HW132213   3.337   6.705   5.671
10438SOL    HW232214   3.345   6.868   5.658
10439SOL     OW32215   3.435   0.683   5.466
10439SOL    HW132216   3.370   0.729   5.405
10439SOL    HW232217   3.425   0.720   5.558
10440SOL     OW32218   0.911   5.577   1.011
10440SOL    HW132219   0.984   5.629   0.966
10440SOL    HW232220   0.942   5.548   1.101
10441SOL     OW32221   4.011   0.280   0.532
10441SOL    HW132222   3.996   0.204   0.595
10441SOL    HW232223   3.924   0.310   0.494
10442SOL     OW32224   4.497   5.769   5.572
10442SOL    HW132225   4.420   5.780   5.509
10442SOL    HW232226   4.583   5.790   5.524
10443SOL     OW32227   6.022   2.759   4.623
10443SOL    HW132228   6.062   2.782   4.711
10443SOL    HW232229   5.970   2.674   4.631
10444SOL     OW32230   4.001   5.238   4.672
10444SOL    HW132231   3.913   5.203   4.703
10444SOL    HW232232   4.074   5.191   4.721
10445SOL     OW32233   6.375   6.198   2.133
10445SOL    HW132234   6.373   6.244   2.044
10445SOL    HW232235   6.292   6.218   2.184
10446SOL     OW32236   1.166   6.570   6.460
10446SOL    HW132237   1.101   6.562   6.384
10446SOL    HW232238   1.253   6.605   6.425
10447SOL     OW32239   5.824   1.904   0.331
10447SOL    HW132240   5.783   1.886   0.420
10447SOL    HW232241   5.887   1.830   0.307
10448SOL     OW32242   3.472   3.777   2.451
10448SOL    HW132243   3.550   3.762   2.390
10448SOL    HW232244   3.416   3.852   2.415
10449SOL     OW32245   1.712   5.372   4.720
10449SOL    HW132246   1.710   5.408   4.813
10449SOL    HW232247   1.807   5.355   4.693
10450SOL     OW32248   6.986   3.642   0.958
10450SOL    HW132249   0.014   3.556   0.960
10450SOL    HW232250   6.965   3.667   0.864
10451SOL     OW32251   2.492   4.618   2.134
10451SOL    HW132252   2.510   4.695   2.196
10451SOL    HW232253   2.578   4.589   2.093
10452SOL     OW32254   1.984   3.318   6.251
10452SOL    HW132255   1.906   3.340   6.193
10452SOL    HW232256   1.975   3.225   6.287
10453SOL     OW32257   5.235   0.628   1.694
10453SOL    HW132258   5.163   0.632   1.624
10453SOL    HW232259   5.306   0.564   1.665
10454SOL     OW32260   5.292   4.617   2.505
10454SOL    HW132261   5.355   4.547   2.540
10454SOL    HW232262   5.221   4.573   2.450
10455SOL     OW32263   0.353   4.520   3.168
10455SOL    HW132264   0.435   4.543   3.220
10455SOL    HW232265   0.272   4.551   3.218
10456SOL     OW32266   3.957   6.052   1.371
10456SOL    HW132267   3.888   5.979   1.369
10456SOL    HW232268   3.932   6.123   1.306
10457SOL     OW32269   3.441   2.883   4.141
10457SOL    HW132270   3.414   2.962   4.086
10457SOL    HW232271   3.402   2.892   4.233
10458SOL     OW32272   0.047   5.859   1.848
10458SOL    HW132273   6.994   5.839   1.907
10458SOL    HW232274   0.123   5.797   1.869
10459SOL     OW32275   6.948   4.745   1.665
10459SOL    HW132276   7.014   4.670   1.668
10459SOL    HW232277   6.856   4.709   1.649
10460SOL     OW32278   1.222   3.976   1.677
10460SOL    HW132279   1.259   4.051   1.733
10460SOL    HW232280   1.133   4.003   1.639
10461SOL     OW32281   3.456   0.158   6.628
10461SOL    HW132282   3.368   0.197   6.656
10461SOL    HW232283   3.506   0.224   6.572
10462SOL     OW32284   5.538   6.219   0.991
10462SOL    HW132285   5.443   6.192   1.006
10462SOL    HW232286   5.542   6.314   0.960
10463SOL     OW32287   3.818   3.322   1.180
10463SOL    HW132288   3.846   3.265   1.257
10463SOL    HW232289   3.887   3.391   1.162
10464SOL     OW32290   5.755   6.303   1.979
10464SOL    HW132291   5.697   6.375   2.016
10464SOL    HW232292   5.751   6.305   1.879
10465SOL     OW32293   0.331   5.091   4.579
10465SOL    HW132294   0.410   5.065   4.522
10465SOL    HW232295   0.256   5.028   4.559
10466SOL     OW32296   4.763   6.226   5.254
10466SOL    HW132297   4.811   6.274   5.327
10466SOL    HW232298   4.768   6.278   5.170
10467SOL     OW32299   4.339   1.412   4.291
10467SOL    HW132300   4.260   1.428   4.350
10467SOL    HW232301   4.323   1.457   4.203
10468SOL     OW32302   2.900   5.041   3.630
10468SOL    HW132303   2.828   5.066   3.565
10468SOL    HW232304   2.989   5.063   3.592
10469SOL     OW32305   0.962   4.535   6.133
10469SOL    HW132306   1.000   4.569   6.219
10469SOL    HW232307   0.866   4.510   6.147
10470SOL     OW32308   2.187   2.254   4.716
10470SOL    HW132309   2.109   2.278   4.658
10470SOL    HW232310   2.230   2.337   4.750
10471SOL     OW32311   4.771   3.845   6.921
10471SOL    HW132312   4.728   3.827   7.009
10471SOL    HW232313   4.703   3.878   6.856
10472SOL     OW32314   3.820   1.232   3.730
10472SOL    HW132315   3.823   1.148   3.675
10472SOL    HW232316   3.872   1.304   3.684
10473SOL     OW32317   4.978   5.321   6.872
10473SOL    HW132318   5.011   5.341   6.964
10473SOL    HW232319   4.878   5.331   6.870
10474SOL     OW32320   5.342   0.759   3.968
10474SOL    HW132321   5.436   0.778   3.997
10474SOL    HW232322   5.287   0.735   4.048
10475SOL     OW32323   4.289   6.921   1.457
10475SOL    HW132324   4.230   7.000   1.475
10475SOL    HW232325   4.243   6.838   1.491
10476SOL     OW32326   0.490   4.787   6.479
10476SOL    HW132327   0.534   4.867   6.440
10476SOL    HW232328   0.437   4.814   6.560
10477SOL     OW32329   4.583   4.325   5.183
10477SOL    HW132330   4.573   4.315   5.282
10477SOL    HW232331   4.496   4.355   5.144
10478SOL     OW32332   0.662   6.500   3.084
10478SOL    HW132333   0.620   6.409   3.075
10478SOL    HW232334   0.620   6.562   3.018
10479SOL     OW32335   0.934   4.225   2.262
10479SOL    HW132336   0.859   4.223   2.196
10479SOL    HW232337   0.899   4.199   2.352
10480SOL     OW32338   5.009   1.271   0.643
10480SOL    HW132339   5.077   1.198   0.646
10480SOL    HW232340   5.010   1.314   0.552
10481SOL     OW32341   2.602   1.716   4.560
10481SOL    HW132342   2.521   1.763   4.595
10481SOL    HW232343   2.620   1.745   4.466
10482SOL     OW32344   1.184   6.442   6.906
10482SOL    HW132345   1.182   6.516   6.839
10482SOL    HW232346   1.278   6.425   6.934
10483SOL     OW32347   0.405   5.716   0.612
10483SOL    HW132348   0.380   5.744   0.520
10483SOL    HW232349   0.403   5.616   0.618
10484SOL     OW32350   6.856   1.695   1.771
10484SOL    HW132351   6.822   1.610   1.810
10484SOL    HW232352   6.813   1.711   1.683
10485SOL     OW32353   3.931   3.869   4.243
10485SOL    HW132354   4.003   3.801   4.234
10485SOL    HW232355   3.854   3.845   4.184
10486SOL     OW32356   6.070   5.523   5.996
10486SOL    HW132357   6.044   5.579   5.916
10486SOL    HW232358   5.999   5.530   6.066
10487SOL     OW32359   5.502   3.989   2.615
10487SOL    HW132360   5.504   3.947   2.706
10487SOL    HW232361   5.444   3.935   2.555
10488SOL     OW32362   0.835   2.414   5.926
10488SOL    HW132363   0.747   2.366   5.929
10488SOL    HW232364   0.819   2.513   5.922
10489SOL     OW32365   5.855   5.209   2.940
10489SOL    HW132366   5.810   5.150   3.007
10489SOL    HW232367   5.803   5.294   2.931
10490SOL     OW32368   5.125   6.402   6.229
10490SOL    HW132369   5.200   6.357   6.181
10490SOL    HW232370   5.070   6.334   6.278
10491SOL     OW32371   2.164   1.956   5.494
10491SOL    HW132372   2.235   1.898   5.534
10491SOL    HW232373   2.107   1.994   5.567
10492SOL     OW32374   2.784   6.252   0.053
10492SOL    HW132375   2.797   6.227   0.149
10492SOL    HW232376   2.795   6.172   7.020
10493SOL     OW32377   3.808   5.811   0.790
10493SOL    HW132378   3.836   5.905   0.772
10493SOL    HW232379   3.757   5.775   0.712
10494SOL     OW32380   0.167   5.766   4.145
10494SOL    HW132381   0.071   5.775   4.119
10494SOL    HW232382   0.209   5.690   4.095
10495SOL     OW32383   6.000   6.352   0.095
10495SOL    HW132384   5.947   6.268   0.088
10495SOL    HW232385   6.035   6.378   0.005
10496SOL     OW32386   1.027   4.338   5.707
10496SOL    HW132387   1.097   4.285   5.658
10496SOL    HW232388   0.957   4.368   5.642
10497SOL     OW32389   3.605   6.204   0.522
10497SOL    HW132390   3.684   6.224   0.465
10497SOL    HW232391   3.636   6.169   0.611
10498SOL     OW32392   3.299   3.552   0.338
10498SOL    HW132393   3.203   3.559   0.312
10498SOL    HW232394   3.306   3.537   0.437
10499SOL     OW32395   4.349   4.655   3.260
10499SOL    HW132396   4.353   4.575   3.320
10499SOL    HW232397   4.259   4.698   3.269
10500SOL     OW32398   1.822   3.099   5.043
10500SOL    HW132399   1.907   3.053   5.020
10500SOL    HW232400   1.745   3.047   5.007
10501SOL     OW32401   3.606   4.896   3.268
10501SOL    HW132402   3.564   4.942   3.189
10501SOL    HW232403   3.613   4.798   3.249
10502SOL     OW32404   3.204   3.943   2.663
10502SOL    HW132405   3.240   3.850   2.670
10502SOL    HW232406   3.256   3.994   2.594
10503SOL     OW32407   6.867   0.750   0.680
10503SOL    HW132408   6.933   0.763   0.606
10503SOL    HW232409   6.838   0.840   0.715
10504SOL     OW32410   1.423   2.708   5.597
10504SOL    HW132411   1.442   2.626   5.651
10504SOL    HW232412   1.422   2.788   5.656
10505SOL     OW32413   5.965   6.502   0.815
10505SOL    HW132414   5.961   6.408   0.849
10505SOL    HW232415   5.879   6.548   0.834
10506SOL     OW32416   1.717   4.901   5.072
10506SOL    HW132417   1.638   4.867   5.020
10506SOL    HW232418   1.755   4.827   5.127
10507SOL     OW32419   1.516   6.457   5.878
10507SOL    HW132420   1.585   6.504   5.933
10507SOL    HW232421   1.427   6.502   5.891
10508SOL     OW32422   1.758   6.388   1.186
10508SOL    HW132423   1.734   6.367   1.091
10508SOL    HW232424   1.821   6.319   1.220
10509SOL     OW32425   4.979   3.428   2.192
10509SOL    HW132426   4.908   3.391   2.252
10509SOL    HW232427   4.943   3.510   2.146
10510SOL     OW32428   6.030   5.927   2.197
10510SOL    HW132429   6.102   5.916   2.128
10510SOL    HW232430   6.072   5.931   2.288
10511SOL     OW32431   3.905   1.697   0.827
10511SOL    HW132432   3.858   1.610   0.816
10511SOL    HW232433   3.851   1.769   0.783
10512SOL     OW32434   3.923   0.812   5.171
10512SOL    HW132435   3.900   0.720   5.142
10512SOL    HW232436   3.860   0.843   5.242
10513SOL     OW32437   3.848   3.819   0.306
10513SOL    HW132438   3.897   3.875   0.373
10513SOL    HW232439   3.907   3.802   0.227
10514SOL     OW32440   1.457   5.469   2.056
10514SOL    HW132441   1.544   5.465   2.007
10514SOL    HW232442   1.474   5.460   2.154
10515SOL     OW32443   1.857   3.923   4.648
10515SOL    HW132444   1.949   3.903   4.616
10515SOL    HW232445   1.841   3.879   4.736
10516SOL     OW32446   5.271   1.828   1.859
10516SOL    HW132447   5.245   1.736   1.888
10516SOL    HW232448   5.203   1.894   1.894
10517SOL     OW32449   0.385   1.759   2.201
10517SOL    HW132450   0.290   1.738   2.181
10517SOL    HW232451   0.402   1.856   2.181
10518SOL     OW32452   0.895   5.629   2.672
10518SOL    HW132453   0.798   5.607   2.687
10518SOL    HW232454   0.952   5.579   2.736
10519SOL     OW32455   2.270   6.583   0.743
10519SOL    HW132456   2.312   6.493   0.730
10519SOL    HW232457   2.296   6.619   0.833
10520SOL     OW32458   3.001   2.609   5.829
10520SOL    HW132459   3.059   2.650   5.758
10520SOL    HW232460   2.911   2.588   5.790
10521SOL     OW32461   6.359   2.202   2.679
10521SOL    HW132462   6.265   2.181   2.650
10521SOL    HW232463   6.419   2.127   2.654
10522SOL     OW32464   4.899   1.604   2.911
10522SOL    HW132465   4.813   1.580   2.956
10522SOL    HW232466   4.900   1.702   2.891
10523SOL     OW32467   0.489   3.890   1.854
10523SOL    HW132468   0.579   3.925   1.880
10523SOL    HW232469   0.431   3.882   1.936
10524SOL     OW32470   5.709   6.721   4.593
10524SOL    HW132471   5.719   6.650   4.524
10524SOL    HW232472   5.786   6.784   4.589
10525SOL     OW32473   4.682   1.877   3.290
10525SOL    HW132474   4.738   1.939   3.235
10525SOL    HW232475   4.609   1.839   3.233
10526SOL     OW32476   1.395   6.040   5.925
10526SOL    HW132477   1.356   6.025   5.834
10526SOL    HW232478   1.363   5.969   5.987
10527SOL     OW32479   0.218   6.133   6.106
10527SOL    HW132480   0.309   6.173   6.119
10527SOL    HW232481   0.167   6.186   6.039
10528SOL     OW32482   2.183   6.277   5.315
10528SOL    HW132483   2.236   6.340   5.373
10528SOL    HW232484   2.233   6.260   5.230
10529SOL     OW32485   6.871   5.285   0.292
10529SOL    HW132486   6.823   5.324   0.213
10529SOL    HW232487   6.946   5.227   0.259
10530SOL     OW32488   6.284   0.513   1.276
10530SOL    HW132489   6.259   0.583   1.209
10530SOL    HW232490   6.378   0.530   1.308
10531SOL     OW32491   3.380   1.381   6.396
10531SOL    HW132492   3.301   1.320   6.397
10531SOL    HW232493   3.416   1.388   6.303
10532SOL     OW32494   4.911   5.820   6.014
10532SOL    HW132495   4.835   5.882   6.032
10532SOL    HW232496   4.895   5.770   5.930
10533SOL     OW32497   4.192   6.856   3.302
10533SOL    HW132498   4.158   6.810   3.219
10533SOL    HW232499   4.221   6.949   3.279
10534SOL     OW32500   0.710   6.279   4.029
10534SOL    HW132501   0.629   6.267   4.086
10534SOL    HW232502   0.753   6.367   4.050
10535SOL     OW32503   4.182   1.554   2.377
10535SOL    HW132504   4.160   1.605   2.293
10535SOL    HW232505   4.274   1.516   2.369
10536SOL     OW32506   5.999   3.947   4.407
10536SOL    HW132507   6.012   4.022   4.342
10536SOL    HW232508   6.083   3.894   4.414
10537SOL     OW32509   2.855   1.172   2.786
10537SOL    HW132510   2.950   1.200   2.779
10537SOL    HW232511   2.797   1.233   2.731
10538SOL     OW32512   6.087   2.911   3.912
10538SOL    HW132513   6.121   2.828   3.869
10538SOL    HW232514   5.995   2.895   3.947
10539SOL     OW32515   6.517   6.868   2.361
10539SOL    HW132516   6.481   6.815   2.438
10539SOL    HW232517   6.591   6.927   2.393
10540SOL     OW32518   1.559   3.442   6.152
10540SOL    HW132519   1.553   3.506   6.075
10540SOL    HW232520   1.524   3.486   6.235
10541SOL     OW32521   3.259   2.136   5.864
10541SOL    HW132522   3.214   2.215   5.822
10541SOL    HW232523   3.343   2.115   5.813
10542SOL     OW32524   4.157   6.643   2.051
10542SOL    HW132525   4.106   6.560   2.074
10542SOL    HW232526   4.182   6.690   2.136
10543SOL     OW32527   1.606   2.600   4.346
10543SOL    HW132528   1.579   2.695   4.327
10543SOL    HW232529   1.527   2.549   4.380
10544SOL     OW32530   2.918   2.073   2.136
10544SOL    HW132531   2.892   2.163   2.101
10544SOL    HW232532   2.843   2.009   2.120
10545SOL     OW32533   1.452   3.070   1.749
10545SOL    HW132534   1.396   2.996   1.710
10545SOL    HW232535   1.514   3.106   1.680
10546SOL     OW32536   2.001   6.817   5.092
10546SOL    HW132537   2.027   6.793   4.999
10546SOL    HW232538   2.082   6.848   5.143
10547SOL     OW32539   3.353   6.045   5.875
10547SOL    HW132540   3.393   6.047   5.784
10547SOL    HW232541   3.256   6.072   5.870
10548SOL     OW32542   1.007   5.400   3.301
10548SOL    HW132543   1.056   5.462   3.239
10548SOL    HW232544   1.013   5.433   3.395
10549SOL     OW32545   6.815   1.479   2.606
10549SOL    HW132546   6.763   1.414   2.662
10549SOL    HW232547   6.791   1.572   2.633
10550SOL     OW32548   6.527   5.465   3.020
10550SOL    HW132549   6.575   5.377   3.023
10550SOL    HW232550   6.429   5.449   3.012
10551SOL     OW32551   4.378   0.276   4.692
10551SOL    HW132552   4.364   0.350   4.757
10551SOL    HW232553   4.297   0.216   4.692
10552SOL     OW32554   2.619   6.935   3.202
10552SOL    HW132555   2.528   6.915   3.164
10552SOL    HW232556   2.610   6.956   3.299
10553SOL     OW32557   5.526   5.853   1.203
10553SOL    HW132558   5.532   5.776   1.139
10553SOL    HW232559   5.430   5.876   1.219
10554SOL     OW32560   6.382   5.595   1.377
10554SOL    HW132561   6.471   5.639   1.375
10554SOL    HW232562   6.392   5.497   1.356
10555SOL     OW32563   3.453   3.214   2.118
10555SOL    HW132564   3.409   3.281   2.058
10555SOL    HW232565   3.437   3.122   2.081
10556SOL     OW32566   2.581   2.543   1.725
10556SOL    HW132567   2.488   2.557   1.760
10556SOL    HW232568   2.615   2.629   1.688
10557SOL     OW32569   0.591   4.092   2.850
10557SOL    HW132570   0.644   4.040   2.783
10557SOL    HW232571   0.512   4.133   2.805
10558SOL     OW32572   4.670   4.971   4.618
10558SOL    HW132573   4.731   4.892   4.631
10558SOL    HW232574   4.596   4.947   4.555
10559SOL     OW32575   3.787   5.848   1.267
10559SOL    HW132576   3.747   5.795   1.192
10559SOL    HW232577   3.755   5.811   1.354
10560SOL     OW32578   5.369   7.009   3.982
10560SOL    HW132579   5.283   0.007   4.028
10560SOL    HW232580   5.365   0.014   3.887
10561SOL     OW32581   1.155   5.176   5.372
10561SOL    HW132582   1.121   5.164   5.466
10561SOL    HW232583   1.199   5.092   5.341
10562SOL     OW32584   3.658   6.908   2.439
10562SOL    HW132585   3.655   7.005   2.412
10562SOL    HW232586   3.696   6.854   2.365
10563SOL     OW32587   2.117   5.821   1.891
10563SOL    HW132588   2.204   5.853   1.853
10563SOL    HW232589   2.115   5.840   1.989
10564SOL     OW32590   5.422   4.876   3.324
10564SOL    HW132591   5.411   4.790   3.373
10564SOL    HW232592   5.504   4.923   3.358
10565SOL     OW32593   0.210   1.474   4.761
10565SOL    HW132594   0.294   1.431   4.727
10565SOL    HW232595   0.187   1.552   4.702
10566SOL     OW32596   4.181   1.950   0.315
10566SOL    HW132597   4.257   1.959   0.379
10566SOL    HW232598   4.100   1.997   0.351
10567SOL     OW32599   3.086   1.783   6.625
10567SOL    HW132600   3.090   1.746   6.718
10567SOL    HW232601   3.007   1.844   6.616
10568SOL     OW32602   5.795   2.029   5.974
10568SOL    HW132603   5.819   2.069   6.063
10568SOL    HW232604   5.729   1.956   5.988
10569SOL     OW32605   5.077   0.417   0.716
10569SOL    HW132606   5.112   0.433   0.808
10569SOL    HW232607   4.998   0.476   0.700
10570SOL     OW32608   1.074   4.072   3.093
10570SOL    HW132609   1.103   4.044   3.184
10570SOL    HW232610   1.149   4.058   3.028
10571SOL     OW32611   0.396   3.764   5.420
10571SOL    HW132612   0.380   3.855   5.381
10571SOL    HW232613   0.487   3.733   5.392
10572SOL     OW32614   6.893   4.495   0.419
10572SOL    HW132615   6.811   4.550   0.402
10572SOL    HW232616   6.917   4.499   0.516
10573SOL     OW32617   6.167   2.694   3.739
10573SOL    HW132618   6.182   2.774   3.680
10573SOL    HW232619   6.251   2.639   3.742
10574SOL     OW32620   5.427   2.864   2.639
10574SOL    HW132621   5.434   2.962   2.658
10574SOL    HW232622   5.409   2.814   2.724
10575SOL     OW32623   4.807   0.675   2.572
10575SOL    HW132624   4.878   0.623   2.526
10575SOL    HW232625   4.817   0.665   2.671
10576SOL     OW32626   1.749   3.328   4.940
10576SOL    HW132627   1.798   3.251   4.981
10576SOL    HW232628   1.759   3.409   4.998
10577SOL     OW32629   3.841   4.419   6.975
10577SOL    HW132630   3.833   4.496   6.912
10577SOL    HW232631   3.937   4.393   6.985
10578SOL     OW32632   1.529   3.915   2.312
10578SOL    HW132633   1.450   3.855   2.330
10578SOL    HW232634   1.599   3.898   2.381
10579SOL     OW32635   0.059   3.629   6.841
10579SOL    HW132636   0.121   3.558   6.809
10579SOL    HW232637   6.991   3.591   6.850
10580SOL     OW32638   5.333   6.713   6.737
10580SOL    HW132639   5.311   6.735   6.832
10580SOL    HW232640   5.429   6.688   6.730
10581SOL     OW32641   4.589   1.175   2.472
10581SOL    HW132642   4.619   1.086   2.508
10581SOL    HW232643   4.525   1.217   2.537
10582SOL     OW32644   0.072   3.431   0.161
10582SOL    HW132645   0.110   3.378   0.085
10582SOL    HW232646   6.996   3.429   0.156
10583SOL     OW32647   4.392   2.081   5.422
10583SOL    HW132648   4.484   2.042   5.420
10583SOL    HW232649   4.355   2.074   5.515
10584SOL     OW32650   5.926   0.646   3.709
10584SOL    HW132651   5.903   0.725   3.652
10584SOL    HW232652   5.968   0.678   3.795
10585SOL     OW32653   1.299   1.360   5.094
10585SOL    HW132654   1.387   1.388   5.133
10585SOL    HW232655   1.254   1.440   5.054
10586SOL     OW32656   4.835   3.496   5.953
10586SOL    HW132657   4.745   3.508   5.911
10586SOL    HW232658   4.900   3.462   5.885
10587SOL     OW32659   2.178   5.408   4.967
10587SOL    HW132660   2.193   5.309   4.974
10587SOL    HW232661   2.107   5.435   5.032
10588SOL     OW32662   1.097   3.898   4.636
10588SOL    HW132663   1.040   3.851   4.569
10588SOL    HW232664   1.040   3.956   4.694
10589SOL     OW32665   5.345   0.079   3.724
10589SOL    HW132666   5.353   0.176   3.703
10589SOL    HW232667   5.352   0.026   3.639
10590SOL     OW32668   0.037   6.174   2.100
10590SOL    HW132669   6.979   6.185   2.045
10590SOL    HW232670   0.026   6.096   2.161
10591SOL     OW32671   6.405   4.237   2.490
10591SOL    HW132672   6.411   4.257   2.587
10591SOL    HW232673   6.497   4.231   2.451
10592SOL     OW32674   6.636   3.528   4.529
10592SOL    HW132675   6.628   3.454   4.462
10592SOL    HW232676   6.631   3.491   4.621
10593SOL     OW32677   3.595   5.546   3.420
10593SOL    HW132678   3.523   5.479   3.440
10593SOL    HW232679   3.672   5.500   3.377
10594SOL     OW32680   3.845   5.925   3.631
10594SOL    HW132681   3.798   5.869   3.699
10594SOL    HW232682   3.918   5.873   3.589
10595SOL     OW32683   5.439   5.993   0.649
10595SOL    HW132684   5.346   5.964   0.670
10595SOL    HW232685   5.487   6.015   0.733
10596SOL     OW32686   5.845   4.029   0.187
10596SOL    HW132687   5.834   4.096   0.261
10596SOL    HW232688   5.906   4.067   0.117
10597SOL     OW32689   0.965   6.465   5.379
10597SOL    HW132690   0.968   6.563   5.399
10597SOL    HW232691   1.033   6.443   5.309
10598SOL     OW32692   3.547   1.445   0.765
10598SOL    HW132693   3.516   1.488   0.850
10598SOL    HW232694   3.485   1.370   0.741
10599SOL     OW32695   0.833   2.216   0.808
10599SOL    HW132696   0.803   2.283   0.877
10599SOL    HW232697   0.838   2.261   0.719
10600SOL     OW32698   4.802   1.430   1.640
10600SOL    HW132699   4.783   1.463   1.548
10600SOL    HW232700   4.794   1.331   1.643
10601SOL     OW32701   2.124   1.727   4.847
10601SOL    HW132702   2.047   1.715   4.909
10601SOL    HW232703   2.147   1.824   4.841
10602SOL     OW32704   6.582   6.756   1.425
10602SOL    HW132705   6.487   6.786   1.430
10602SOL    HW232706   6.615   6.733   1.517
10603SOL     OW32707   5.803   0.819   2.815
10603SOL    HW132708   5.877   0.800   2.750
10603SOL    HW232709   5.829   0.896   2.873
10604SOL     OW32710   5.163   2.266   5.230
10604SOL    HW132711   5.091   2.295   5.293
10604SOL    HW232712   5.219   2.344   5.205
10605SOL     OW32713   4.359   2.303   1.112
10605SOL    HW132714   4.380   2.365   1.037
10605SOL    HW232715   4.390   2.343   1.198
10606SOL     OW32716   5.846   1.594   0.752
10606SOL    HW132717   5.792   1.607   0.668
10606SOL    HW232718   5.825   1.505   0.792
10607SOL     OW32719   2.727   4.975   1.040
10607SOL    HW132720   2.636   5.004   1.008
10607SOL    HW232721   2.741   5.009   1.133
10608SOL     OW32722   5.229   4.287   2.695
10608SOL    HW132723   5.316   4.330   2.672
10608SOL    HW232724   5.234   4.190   2.673
10609SOL     OW32725   5.956   6.875   6.505
10609SOL    HW132726   5.968   6.972   6.485
10609SOL    HW232727   5.900   6.864   6.588
10610SOL     OW32728   0.525   1.956   2.860
10610SOL    HW132729   0.586   1.957   2.939
10610SOL    HW232730   0.461   1.880   2.868
10611SOL     OW32731   4.261   5.387   5.354
10611SOL    HW132732   4.199   5.333   5.411
10611SOL    HW232733   4.338   5.418   5.409
10612SOL     OW32734   5.281   2.677   3.423
10612SOL    HW132735   5.209   2.722   3.369
10612SOL    HW232736   5.367   2.679   3.373
10613SOL     OW32737   5.153   5.248   5.228
10613SOL    HW132738   5.116   5.241   5.136
10613SOL    HW232739   5.239   5.299   5.227
10614SOL     OW32740   3.834   2.028   6.920
10614SOL    HW132741   3.927   2.058   6.940
10614SOL    HW232742   3.774   2.107   6.911
10615SOL     OW32743   2.731   2.207   5.404
10615SOL    HW132744   2.802   2.268   5.368
10615SOL    HW232745   2.734   2.209   5.504
10616SOL     OW32746   1.470   5.362   6.978
10616SOL    HW132747   1.423   5.358   0.042
10616SOL    HW232748   1.408   5.330   6.906
10617SOL     OW32749   2.129   2.605   0.404
10617SOL    HW132750   2.046   2.556   0.434
10617SOL    HW232751   2.210   2.557   0.436
10618SOL     OW32752   0.429   4.720   4.049
10618SOL    HW132753   0.449   4.701   4.145
10618SOL    HW232754   0.436   4.818   4.032
10619SOL     OW32755   1.276   2.753   1.219
10619SOL    HW132756   1.310   2.672   1.171
10619SOL    HW232757   1.321   2.760   1.308
10620SOL     OW32758   3.851   0.992   5.835
10620SOL    HW132759   3.901   0.996   5.922
10620SOL    HW232760   3.800   1.077   5.822
10621SOL     OW32761   0.852   4.552   4.469
10621SOL    HW132762   0.841   4.645   4.504
10621SOL    HW232763   0.762   4.510   4.456
10622SOL     OW32764   4.141   1.681   5.820
10622SOL    HW132765   4.167   1.618   5.893
10622SOL    HW232766   4.165   1.774   5.846
10623SOL     OW32767   5.602   4.478   5.230
10623SOL    HW132768   5.669   4.538   5.274
10623SOL    HW232769   5.642   4.437   5.148
10624SOL     OW32770   6.999   1.813   5.936
10624SOL    HW132771   0.058   1.857   5.971
10624SOL    HW232772   7.002   1.812   5.836
10625SOL     OW32773   5.675   5.550   6.776
10625SOL    HW132774   5.685   5.547   6.875
10625SOL    HW232775   5.634   5.637   6.749
10626SOL     OW32776   5.492   3.631   2.502
10626SOL    HW132777   5.433   3.578   2.563
10626SOL    HW232778   5.437   3.700   2.455
10627SOL     OW32779   5.786   4.736   5.442
10627SOL    HW132780   5.870   4.752   5.389
10627SOL    HW232781   5.799   4.657   5.502
10628SOL     OW32782   3.237   5.963   1.617
10628SOL    HW132783   3.294   5.901   1.563
10628SOL    HW232784   3.205   6.037   1.558
10629SOL     OW32785   4.574   5.737   4.170
10629SOL    HW132786   4.478   5.727   4.145
10629SOL    HW232787   4.620   5.649   4.162
10630SOL     OW32788   3.892   0.852   1.211
10630SOL    HW132789   3.826   0.926   1.222
10630SOL    HW232790   3.905   0.832   1.114
10631SOL     OW32791   4.104   6.087   1.819
10631SOL    HW132792   4.072   6.170   1.865
10631SOL    HW232793   4.086   6.008   1.877
10632SOL     OW32794   5.559   0.315   4.463
10632SOL    HW132795   5.585   0.346   4.555
10632SOL    HW232796   5.625   0.246   4.433
10633SOL     OW32797   2.131   2.806   0.184
10633SOL    HW132798   2.112   2.730   0.246
10633SOL    HW232799   2.224   2.796   0.146
10634SOL     OW32800   0.982   4.575   0.079
10634SOL    HW132801   1.045   4.541   0.149
10634SOL    HW232802   0.996   4.673   0.066
10635SOL     OW32803   3.086   4.633   6.832
10635SOL    HW132804   3.026   4.708   6.858
10635SOL    HW232805   3.052   4.591   6.748
10636SOL     OW32806   6.551   3.155   0.695
10636SOL    HW132807   6.487   3.209   0.750
10636SOL    HW232808   6.643   3.164   0.733
10637SOL     OW32809   1.966   0.299   5.574
10637SOL    HW132810   1.909   0.223   5.605
10637SOL    HW232811   1.908   0.378   5.553
10638SOL     OW32812   5.800   4.959   6.755
10638SOL    HW132813   5.742   4.976   6.835
10638SOL    HW232814   5.854   5.041   6.736
10639SOL     OW32815   6.649   5.049   0.086
10639SOL    HW132816   6.680   5.052   0.181
10639SOL    HW232817   6.719   5.005   0.029
10640SOL     OW32818   3.597   6.105   4.444
10640SOL    HW132819   3.668   6.037   4.429
10640SOL    HW232820   3.589   6.164   4.364
10641SOL     OW32821   0.863   1.414   3.744
10641SOL    HW132822   0.949   1.369   3.767
10641SOL    HW232823   0.787   1.368   3.792
10642SOL     OW32824   0.336   2.043   6.535
10642SOL    HW132825   0.433   2.023   6.548
10642SOL    HW232826   0.307   2.011   6.445
10643SOL     OW32827   2.808   5.168   5.013
10643SOL    HW132828   2.882   5.207   4.958
10643SOL    HW232829   2.740   5.238   5.032
10644SOL     OW32830   0.594   3.481   3.782
10644SOL    HW132831   0.514   3.474   3.723
10644SOL    HW232832   0.656   3.552   3.746
10645SOL     OW32833   1.929   3.300   3.737
10645SOL    HW132834   1.837   3.327   3.767
10645SOL    HW232835   1.938   3.200   3.742
10646SOL     OW32836   5.107   1.031   2.942
10646SOL    HW132837   5.033   1.094   2.966
10646SOL    HW232838   5.186   1.048   3.001
10647SOL     OW32839   3.902   5.708   4.581
10647SOL    HW132840   3.831   5.702   4.652
10647SOL    HW232841   3.900   5.625   4.525
10648SOL     OW32842   4.590   3.818   5.531
10648SOL    HW132843   4.581   3.904   5.580
10648SOL    HW232844   4.686   3.791   5.530
10649SOL     OW32845   6.272   3.573   3.898
10649SOL    HW132846   6.284   3.582   3.997
10649SOL    HW232847   6.254   3.663   3.859
10650SOL     OW32848   1.041   0.352   2.772
10650SOL    HW132849   1.031   0.390   2.864
10650SOL    HW232850   1.138   0.337   2.752
10651SOL     OW32851   1.941   5.923   5.501
10651SOL    HW132852   2.019   5.861   5.497
10651SOL    HW232853   1.860   5.872   5.533
10652SOL     OW32854   2.841   0.699   6.961
10652SOL    HW132855   2.806   0.765   6.894
10652SOL    HW232856   2.768   0.635   6.985
10653SOL     OW32857   5.466   6.295   4.194
10653SOL    HW132858   5.540   6.287   4.127
10653SOL    HW232859   5.427   6.387   4.190
10654SOL     OW32860   6.867   1.557   4.455
10654SOL    HW132861   6.799   1.554   4.381
10654SOL    HW232862   6.841   1.492   4.527
10655SOL     OW32863   6.667   5.590   0.615
10655SOL    HW132864   6.711   5.676   0.587
10655SOL    HW232865   6.638   5.597   0.710
10656SOL     OW32866   6.393   0.753   6.255
10656SOL    HW132867   6.403   0.843   6.213
10656SOL    HW232868   6.352   0.689   6.190
10657SOL     OW32869   4.327   6.708   5.623
10657SOL    HW132870   4.300   6.749   5.535
10657SOL    HW232871   4.303   6.770   5.697
10658SOL     OW32872   1.279   1.327   6.227
10658SOL    HW132873   1.191   1.340   6.272
10658SOL    HW232874   1.289   1.394   6.154
10659SOL     OW32875   0.725   5.516   6.896
10659SOL    HW132876   0.645   5.517   6.836
10659SOL    HW232877   0.746   5.609   6.925
10660SOL     OW32878   6.267   2.687   6.576
10660SOL    HW132879   6.201   2.737   6.632
10660SOL    HW232880   6.244   2.590   6.575
10661SOL     OW32881   3.321   5.695   5.335
10661SOL    HW132882   3.324   5.711   5.236
10661SOL    HW232883   3.369   5.769   5.383
10662SOL     OW32884   3.191   1.499   0.694
10662SOL    HW132885   3.193   1.488   0.794
10662SOL    HW232886   3.231   1.418   0.651
10663SOL     OW32887   6.646   3.051   4.087
10663SOL    HW132888   6.707   3.055   4.008
10663SOL    HW232889   6.561   3.005   4.062
10664SOL     OW32890   0.971   6.569   4.969
10664SOL    HW132891   0.962   6.668   4.977
10664SOL    HW232892   1.034   6.535   5.039
10665SOL     OW32893   3.436   3.508   0.828
10665SOL    HW132894   3.381   3.538   0.750
10665SOL    HW232895   3.487   3.425   0.803
10666SOL     OW32896   4.654   3.784   0.944
10666SOL    HW132897   4.697   3.726   1.012
10666SOL    HW232898   4.631   3.730   0.863
10667SOL     OW32899   5.705   2.499   4.118
10667SOL    HW132900   5.801   2.526   4.115
10667SOL    HW232901   5.648   2.581   4.115
10668SOL     OW32902   3.484   3.603   6.091
10668SOL    HW132903   3.452   3.623   6.183
10668SOL    HW232904   3.471   3.505   6.072
10669SOL     OW32905   6.466   2.810   1.724
10669SOL    HW132906   6.370   2.826   1.747
10669SOL    HW232907   6.524   2.839   1.800
10670SOL     OW32908   4.509   4.668   4.173
10670SOL    HW132909   4.559   4.738   4.122
10670SOL    HW232910   4.434   4.634   4.117
10671SOL     OW32911   1.877   3.192   4.740
10671SOL    HW132912   1.961   3.246   4.743
10671SOL    HW232913   1.809   3.232   4.802
10672SOL     OW32914   6.151   4.646   1.439
10672SOL    HW132915   6.054   4.629   1.458
10672SOL    HW232916   6.158   4.709   1.362
10673SOL     OW32917   3.203   1.452   1.390
10673SOL    HW132918   3.138   1.478   1.462
10673SOL    HW232919   3.201   1.353   1.378
10674SOL     OW32920   3.659   3.295   4.455
10674SOL    HW132921   3.666   3.394   4.440
10674SOL    HW232922   3.669   3.248   4.367
10675SOL     OW32923   3.467   6.049   5.623
10675SOL    HW132924   3.548   5.990   5.628
10675SOL    HW232925   3.494   6.139   5.589
10676SOL     OW32926   1.200   1.339   4.408
10676SOL    HW132927   1.277   1.375   4.460
10676SOL    HW232928   1.115   1.356   4.457
10677SOL     OW32929   0.266   1.901   0.045
10677SOL    HW132930   0.204   1.886   6.993
10677SOL    HW232931   0.296   1.813   0.082
10678SOL     OW32932   3.873   5.233   2.412
10678SOL    HW132933   3.806   5.181   2.465
10678SOL    HW232934   3.965   5.201   2.434
10679SOL     OW32935   5.403   4.113   0.077
10679SOL    HW132936   5.380   4.203   0.039
10679SOL    HW232937   5.454   4.061   0.008
10680SOL     OW32938   4.724   1.082   5.475
10680SOL    HW132939   4.658   1.143   5.431
10680SOL    HW232940   4.721   0.993   5.432
10681SOL     OW32941   2.602   3.190   5.358
10681SOL    HW132942   2.661   3.249   5.303
10681SOL    HW232943   2.573   3.112   5.302
10682SOL     OW32944   5.234   3.458   6.015
10682SOL    HW132945   5.221   3.359   6.006
10682SOL    HW232946   5.265   3.496   5.928
10683SOL     OW32947   2.155   0.610   3.359
10683SOL    HW132948   2.108   0.698   3.350
10683SOL    HW232949   2.159   0.584   3.455
10684SOL     OW32950   5.084   4.335   1.291
10684SOL    HW132951   5.106   4.308   1.385
10684SOL    HW232952   4.985   4.335   1.279
10685SOL     OW32953   0.828   0.191   2.761
10685SOL    HW132954   0.854   0.114   2.820
10685SOL    HW232955   0.905   0.254   2.752
10686SOL     OW32956   2.653   1.299   6.542
10686SOL    HW132957   2.668   1.356   6.461
10686SOL    HW232958   2.741   1.278   6.584
10687SOL     OW32959   0.624   2.913   3.189
10687SOL    HW132960   0.604   2.992   3.246
10687SOL    HW232961   0.667   2.942   3.104
10688SOL     OW32962   5.269   1.200   3.905
10688SOL    HW132963   5.289   1.153   3.992
10688SOL    HW232964   5.339   1.270   3.889
10689SOL     OW32965   1.368   1.380   2.867
10689SOL    HW132966   1.276   1.406   2.897
10689SOL    HW232967   1.430   1.457   2.881
10690SOL     OW32968   0.515   6.728   4.581
10690SOL    HW132969   0.439   6.786   4.554
10690SOL    HW232970   0.520   6.724   4.681
10691SOL     OW32971   3.254   6.489   1.030
10691SOL    HW132972   3.265   6.516   0.934
10691SOL    HW232973   3.339   6.507   1.080
10692SOL     OW32974   2.570   2.100   4.127
10692SOL    HW132975   2.645   2.166   4.124
10692SOL    HW232976   2.524   2.097   4.038
10693SOL     OW32977   1.153   4.992   6.752
10693SOL    HW132978   1.219   4.932   6.797
10693SOL    HW232979   1.183   5.011   6.659
10694SOL     OW32980   5.120   0.823   5.247
10694SOL    HW132981   5.094   0.916   5.222
10694SOL    HW232982   5.177   0.825   5.328
10695SOL     OW32983   4.907   4.632   1.341
10695SOL    HW132984   5.005   4.653   1.349
10695SOL    HW232985   4.857   4.682   1.412
10696SOL     OW32986   6.445   4.407   4.358
10696SOL    HW132987   6.494   4.408   4.445
10696SOL    HW232988   6.369   4.473   4.363
10697SOL     OW32989   2.570   5.120   4.361
10697SOL    HW132990   2.659   5.083   4.335
10697SOL    HW232991   2.533   5.066   4.436
10698SOL     OW32992   3.734   4.257   0.167
10698SOL    HW132993   3.753   4.326   0.098
10698SOL    HW232994   3.639   4.227   0.159
10699SOL     OW32995   3.926   3.716   1.215
10699SOL    HW132996   3.961   3.659   1.141
10699SOL    HW232997   3.914   3.660   1.298
10700SOL     OW32998   4.758   0.411   1.364
10700SOL    HW132999   4.841   0.391   1.417
10700SOL    HW233000   4.711   0.325   1.344
10701SOL     OW33001   3.256   6.140   6.327
10701SOL    HW133002   3.316   6.129   6.407
10701SOL    HW233003   3.255   6.055   6.275
10702SOL     OW33004   5.814   2.425   2.246
10702SOL    HW133005   5.800   2.352   2.313
10702SOL    HW233006   5.736   2.430   2.184
10703SOL     OW33007   0.668   1.938   5.486
10703SOL    HW133008   0.576   1.904   5.464
10703SOL    HW233009   0.697   2.004   5.417
10704SOL     OW33010   5.382   6.938   2.108
10704SOL    HW133011   5.347   6.948   2.201
10704SOL    HW233012   5.305   6.928   2.045
10705SOL     OW33013   4.954   3.560   0.794
10705SOL    HW133014   5.027   3.499   0.825
10705SOL    HW233015   4.944   3.635   0.860
10706SOL     OW33016   3.113   0.659   1.450
10706SOL    HW133017   3.124   0.757   1.467
10706SOL    HW233018   3.077   0.645   1.357
10707SOL     OW33019   4.469   6.990   3.047
10707SOL    HW133020   4.518   6.997   2.960
10707SOL    HW233021   4.461   6.894   3.073
10708SOL     OW33022   4.536   0.780   1.192
10708SOL    HW133023   4.500   0.830   1.271
10708SOL    HW233024   4.618   0.730   1.218
10709SOL     OW33025   5.998   4.854   2.622
10709SOL    HW133026   5.966   4.761   2.641
10709SOL    HW233027   6.082   4.850   2.569
10710SOL     OW33028   4.550   1.522   3.292
10710SOL    HW133029   4.632   1.465   3.285
10710SOL    HW233030   4.549   1.569   3.380
10711SOL     OW33031   2.698   6.795   2.586
10711SOL    HW133032   2.730   6.822   2.495
10711SOL    HW233033   2.733   6.860   2.654
10712SOL     OW33034   5.332   0.538   3.472
10712SOL    HW133035   5.337   0.628   3.430
10712SOL    HW233036   5.424   0.502   3.486
10713SOL     OW33037   1.176   3.734   1.767
10713SOL    HW133038   1.191   3.827   1.735
10713SOL    HW233039   1.170   3.673   1.688
10714SOL     OW33040   3.100   4.126   5.286
10714SOL    HW133041   3.005   4.114   5.259
10714SOL    HW233042   3.156   4.148   5.206
10715SOL     OW33043   5.959   1.002   2.110
10715SOL    HW133044   6.044   1.025   2.064
10715SOL    HW233045   5.892   1.076   2.096
10716SOL     OW33046   5.197   0.936   3.261
10716SOL    HW133047   5.123   0.876   3.231
10716SOL    HW233048   5.160   1.027   3.280
10717SOL     OW33049   3.090   2.547   6.811
10717SOL    HW133050   3.165   2.599   6.770
10717SOL    HW233051   3.099   2.549   6.910
10718SOL     OW33052   1.831   4.885   6.358
10718SOL    HW133053   1.757   4.936   6.400
10718SOL    HW233054   1.807   4.788   6.352
10719SOL     OW33055   0.466   5.654   4.595
10719SOL    HW133056   0.428   5.582   4.651
10719SOL    HW233057   0.405   5.673   4.518
10720SOL     OW33058   6.894   5.376   3.061
10720SOL    HW133059   6.946   5.459   3.082
10720SOL    HW233060   6.893   5.360   2.962
10721SOL     OW33061   5.161   2.528   6.175
10721SOL    HW133062   5.109   2.583   6.110
10721SOL    HW233063   5.108   2.518   6.259
10722SOL     OW33064   0.331   3.256   5.238
10722SOL    HW133065   0.427   3.247   5.263
10722SOL    HW233066   0.282   3.171   5.258
10723SOL     OW33067   5.594   6.796   0.744
10723SOL    HW133068   5.637   6.875   0.699
10723SOL    HW233069   5.610   6.714   0.690
10724SOL     OW33070   0.394   6.058   6.681
10724SOL    HW133071   0.332   5.985   6.710
10724SOL    HW233072   0.343   6.145   6.676
10725SOL     OW33073   1.854   6.410   6.090
10725SOL    HW133074   1.838   6.314   6.067
10725SOL    HW233075   1.935   6.443   6.042
10726SOL     OW33076   4.033   0.833   3.937
10726SOL    HW133077   4.110   0.889   3.969
10726SOL    HW233078   3.967   0.822   4.012
10727SOL     OW33079   1.803   6.509   6.339
10727SOL    HW133080   1.843   6.502   6.247
10727SOL    HW233081   1.747   6.428   6.357
10728SOL     OW33082   5.091   5.704   1.013
10728SOL    HW133083   5.054   5.707   1.106
10728SOL    HW233084   5.164   5.772   1.004
10729SOL     OW33085   6.147   2.099   0.887
10729SOL    HW133086   6.192   2.027   0.941
10729SOL    HW233087   6.071   2.059   0.836
10730SOL     OW33088   4.598   0.452   2.766
10730SOL    HW133089   4.611   0.406   2.678
10730SOL    HW233090   4.673   0.516   2.782
10731SOL     OW33091   4.503   0.278   1.196
10731SOL    HW133092   4.462   0.366   1.172
10731SOL    HW233093   4.471   0.250   1.287
10732SOL     OW33094   0.739   3.565   5.878
10732SOL    HW133095   0.690   3.481   5.858
10732SOL    HW233096   0.833   3.558   5.843
10733SOL     OW33097   5.720   1.560   0.513
10733SOL    HW133098   5.661   1.566   0.431
10733SOL    HW233099   5.714   1.468   0.551
10734SOL     OW33100   6.614   2.929   1.946
10734SOL    HW133101   6.583   2.916   2.040
10734SOL    HW233102   6.702   2.977   1.946
10735SOL     OW33103   0.278   5.306   2.763
10735SOL    HW133104   0.350   5.290   2.830
10735SOL    HW233105   0.313   5.287   2.671
10736SOL     OW33106   2.016   0.982   4.182
10736SOL    HW133107   1.947   1.033   4.232
10736SOL    HW233108   2.044   0.902   4.235
10737SOL     OW33109   6.871   2.061   0.640
10737SOL    HW133110   6.828   2.049   0.729
10737SOL    HW233111   6.871   1.974   0.591
10738SOL     OW33112   4.014   0.135   3.852
10738SOL    HW133113   3.960   0.060   3.890
10738SOL    HW233114   4.087   0.099   3.795
10739SOL     OW33115   2.614   1.997   1.797
10739SOL    HW133116   2.637   1.945   1.880
10739SOL    HW233117   2.610   1.935   1.719
10740SOL     OW33118   4.309   5.828   3.101
10740SOL    HW133119   4.332   5.901   3.165
10740SOL    HW233120   4.390   5.774   3.080
10741SOL     OW33121   2.841   0.670   2.896
10741SOL    HW133122   2.940   0.659   2.892
10741SOL    HW233123   2.818   0.767   2.905
10742SOL     OW33124   6.842   5.369   1.001
10742SOL    HW133125   6.832   5.312   1.082
10742SOL    HW233126   6.848   5.311   0.919
10743SOL     OW33127   2.575   1.972   5.419
10743SOL    HW133128   2.583   1.948   5.515
10743SOL    HW233129   2.638   2.047   5.398
10744SOL     OW33130   5.660   2.090   0.451
10744SOL    HW133131   5.728   2.094   0.377
10744SOL    HW233132   5.677   2.164   0.516
10745SOL     OW33133   0.168   5.889   6.456
10745SOL    HW133134   0.254   5.884   6.406
10745SOL    HW233135   0.184   5.871   6.553
10746SOL     OW33136   1.642   4.297   5.954
10746SOL    HW133137   1.717   4.328   5.896
10746SOL    HW233138   1.557   4.295   5.901
10747SOL     OW33139   3.484   2.071   4.371
10747SOL    HW133140   3.455   1.982   4.406
10747SOL    HW233141   3.507   2.131   4.447
10748SOL     OW33142   5.291   1.334   2.304
10748SOL    HW133143   5.239   1.252   2.329
10748SOL    HW233144   5.279   1.404   2.374
10749SOL     OW33145   2.534   0.042   6.939
10749SOL    HW133146   2.620   0.077   6.976
10749SOL    HW233147   2.551   6.988   6.880
10750SOL     OW33148   3.954   6.359   6.134
10750SOL    HW133149   4.019   6.433   6.141
10750SOL    HW233150   3.984   6.282   6.190
10751SOL     OW33151   2.374   5.375   3.746
10751SOL    HW133152   2.297   5.438   3.748
10751SOL    HW233153   2.357   5.303   3.679
10752SOL     OW33154   4.821   4.840   3.853
10752SOL    HW133155   4.916   4.840   3.883
10752SOL    HW233156   4.785   4.747   3.857
10753SOL     OW33157   6.352   3.785   4.856
10753SOL    HW133158   6.384   3.695   4.885
10753SOL    HW233159   6.381   3.802   4.762
10754SOL     OW33160   1.352   0.053   2.124
10754SOL    HW133161   1.388   6.985   2.111
10754SOL    HW233162   1.279   0.069   2.057
10755SOL     OW33163   6.112   5.347   1.563
10755SOL    HW133164   6.058   5.316   1.641
10755SOL    HW233165   6.207   5.359   1.591
10756SOL     OW33166   0.494   6.995   4.966
10756SOL    HW133167   0.395   6.982   4.973
10756SOL    HW233168   0.530   0.001   5.054
10757SOL     OW33169   2.914   2.996   1.033
10757SOL    HW133170   2.962   2.934   0.971
10757SOL    HW233171   2.833   3.033   0.988
10758SOL     OW33172   0.419   4.999   3.738
10758SOL    HW133173   0.478   5.017   3.817
10758SOL    HW233174   0.374   4.910   3.750
10759SOL     OW33175   7.018   1.370   6.574
10759SOL    HW133176   6.974   1.460   6.573
10759SOL    HW233177   6.990   1.320   6.655
10760SOL     OW33178   5.918   1.587   5.023
10760SOL    HW133179   5.990   1.524   4.993
10760SOL    HW233180   5.905   1.578   5.121
10761SOL     OW33181   2.612   5.352   5.113
10761SOL    HW133182   2.640   5.351   5.209
10761SOL    HW233183   2.549   5.428   5.098
10762SOL     OW33184   3.067   1.524   5.244
10762SOL    HW133185   3.101   1.545   5.152
10762SOL    HW233186   2.986   1.580   5.263
10763SOL     OW33187   4.420   6.285   4.137
10763SOL    HW133188   4.499   6.326   4.091
10763SOL    HW233189   4.376   6.220   4.074
10764SOL     OW33190   4.612   0.092   5.093
10764SOL    HW133191   4.640   0.142   5.010
10764SOL    HW233192   4.554   0.015   5.067
10765SOL     OW33193   6.370   3.767   0.135
10765SOL    HW133194   6.409   3.842   0.082
10765SOL    HW233195   6.330   3.803   0.220
10766SOL     OW33196   3.394   3.630   1.598
10766SOL    HW133197   3.467   3.638   1.531
10766SOL    HW233198   3.342   3.546   1.581
10767SOL     OW33199   4.822   1.644   2.201
10767SOL    HW133200   4.767   1.634   2.284
10767SOL    HW233201   4.768   1.689   2.130
10768SOL     OW33202   6.300   4.700   6.521
10768SOL    HW133203   6.220   4.639   6.519
10768SOL    HW233204   6.381   4.649   6.493
10769SOL     OW33205   1.779   3.556   5.074
10769SOL    HW133206   1.808   3.568   5.169
10769SOL    HW233207   1.685   3.587   5.063
10770SOL     OW33208   4.189   6.160   3.928
10770SOL    HW133209   4.219   6.092   3.995
10770SOL    HW233210   4.091   6.148   3.911
10771SOL     OW33211   2.038   0.900   3.893
10771SOL    HW133212   1.992   0.964   3.831
10771SOL    HW233213   2.003   0.914   3.986
10772SOL     OW33214   5.503   5.601   3.346
10772SOL    HW133215   5.415   5.559   3.321
10772SOL    HW233216   5.488   5.697   3.372
10773SOL     OW33217   5.895   4.617   2.710
10773SOL    HW133218   5.812   4.626   2.764
10773SOL    HW233219   5.935   4.526   2.725
10774SOL     OW33220   0.046   6.705   2.823
10774SOL    HW133221   0.085   6.767   2.891
10774SOL    HW233222   0.116   6.682   2.756
10775SOL     OW33223   6.950   3.344   1.464
10775SOL    HW133224   6.908   3.418   1.411
10775SOL    HW233225   0.020   3.332   1.435
10776SOL     OW33226   1.467   0.521   6.073
10776SOL    HW133227   1.512   0.468   6.145
10776SOL    HW233228   1.504   0.495   5.984
10777SOL     OW33229   2.617   5.837   1.135
10777SOL    HW133230   2.706   5.852   1.092
10777SOL    HW233231   2.625   5.766   1.205
10778SOL     OW33232   5.629   5.561   2.313
10778SOL    HW133233   5.659   5.615   2.392
10778SOL    HW233234   5.538   5.524   2.332
10779SOL     OW33235   4.799   2.993   3.874
10779SOL    HW133236   4.802   3.048   3.958
10779SOL    HW233237   4.780   2.898   3.897
10780SOL     OW33238   6.521   0.637   2.269
10780SOL    HW133239   6.451   0.660   2.200
10780SOL    HW233240   6.479   0.584   2.342
10781SOL     OW33241   3.614   0.274   4.304
10781SOL    HW133242   3.524   0.259   4.344
10781SOL    HW233243   3.603   0.317   4.214
10782SOL     OW33244   6.116   5.098   3.860
10782SOL    HW133245   6.139   5.049   3.775
10782SOL    HW233246   6.092   5.192   3.838
10783SOL     OW33247   6.827   2.151   3.206
10783SOL    HW133248   6.832   2.195   3.296
10783SOL    HW233249   6.735   2.114   3.192
10784SOL     OW33250   2.615   1.608   5.285
10784SOL    HW133251   2.583   1.694   5.244
10784SOL    HW233252   2.706   1.622   5.325
10785SOL     OW33253   1.095   3.466   6.099
10785SOL    HW133254   1.178   3.522   6.098
10785SOL    HW233255   1.090   3.416   6.185
10786SOL     OW33256   0.225   4.553   4.030
10786SOL    HW133257   0.303   4.614   4.017
10786SOL    HW233258   0.173   4.547   3.945
10787SOL     OW33259   2.389   2.270   6.780
10787SOL    HW133260   2.333   2.351   6.795
10787SOL    HW233261   2.463   2.267   6.848
10788SOL     OW33262   5.648   3.727   6.007
10788SOL    HW133263   5.673   3.745   5.911
10788SOL    HW233264   5.644   3.628   6.022
10789SOL     OW33265   5.502   1.715   0.643
10789SOL    HW133266   5.541   1.670   0.563
10789SOL    HW233267   5.484   1.646   0.714
10790SOL     OW33268   6.223   6.325   2.673
10790SOL    HW133269   6.208   6.397   2.741
10790SOL    HW233270   6.312   6.282   2.689
10791SOL     OW33271   0.759   6.223   2.355
10791SOL    HW133272   0.775   6.131   2.320
10791SOL    HW233273   0.840   6.279   2.340
10792SOL     OW33274   3.917   4.181   5.701
10792SOL    HW133275   3.819   4.180   5.684
10792SOL    HW233276   3.942   4.102   5.757
10793SOL     OW33277   6.392   4.035   3.902
10793SOL    HW133278   6.386   4.100   3.978
10793SOL    HW233279   6.479   3.987   3.907
10794SOL     OW33280   3.212   4.121   4.700
10794SOL    HW133281   3.303   4.112   4.741
10794SOL    HW233282   3.219   4.178   4.618
10795SOL     OW33283   6.830   5.297   2.776
10795SOL    HW133284   6.764   5.235   2.734
10795SOL    HW233285   6.794   5.390   2.776
10796SOL     OW33286   0.895   6.168   5.546
10796SOL    HW133287   0.971   6.231   5.561
10796SOL    HW233288   0.871   6.168   5.449
10797SOL     OW33289   3.438   2.701   0.224
10797SOL    HW133290   3.528   2.733   0.254
10797SOL    HW233291   3.390   2.660   0.302
10798SOL     OW33292   6.279   1.345   0.817
10798SOL    HW133293   6.284   1.401   0.900
10798SOL    HW233294   6.197   1.369   0.765
10799SOL     OW33295   4.742   1.680   1.105
10799SOL    HW133296   4.751   1.744   1.029
10799SOL    HW233297   4.832   1.645   1.131
10800SOL     OW33298   6.580   6.751   1.731
10800SOL    HW133299   6.481   6.760   1.719
10800SOL    HW233300   6.623   6.841   1.720
10801SOL     OW33301   2.017   0.799   1.161
10801SOL    HW133302   2.059   0.721   1.115
10801SOL    HW233303   2.057   0.809   1.252
10802SOL     OW33304   5.890   1.451   3.429
10802SOL    HW133305   5.872   1.388   3.353
10802SOL    HW233306   5.949   1.525   3.398
10803SOL     OW33307   2.116   5.262   6.283
10803SOL    HW133308   2.216   5.268   6.283
10803SOL    HW233309   2.087   5.182   6.334
10804SOL     OW33310   0.010   3.324   4.340
10804SOL    HW133311   0.077   3.398   4.330
10804SOL    HW233312   0.046   3.241   4.298
10805SOL     OW33313   6.517   0.858   6.620
10805SOL    HW133314   6.431   0.808   6.631
10805SOL    HW233315   6.567   0.823   6.540
10806SOL     OW33316   1.644   5.121   0.016
10806SOL    HW133317   1.589   5.197   0.049
10806SOL    HW233318   1.725   5.110   0.075
10807SOL     OW33319   3.144   5.812   4.883
10807SOL    HW133320   3.235   5.804   4.922
10807SOL    HW233321   3.094   5.726   4.895
10808SOL     OW33322   1.183   2.861   6.266
10808SOL    HW133323   1.203   2.797   6.192
10808SOL    HW233324   1.212   2.953   6.238
10809SOL     OW33325   1.118   0.058   4.587
10809SOL    HW133326   1.043   0.083   4.526
10809SOL    HW233327   1.204   0.056   4.536
10810SOL     OW33328   6.242   0.670   4.244
10810SOL    HW133329   6.298   0.701   4.320
10810SOL    HW233330   6.185   0.745   4.211
10811SOL     OW33331   4.888   5.480   5.032
10811SOL    HW133332   4.932   5.570   5.045
10811SOL    HW233333   4.838   5.480   4.945
10812SOL     OW33334   0.316   2.863   0.347
10812SOL    HW133335   0.346   2.824   0.435
10812SOL    HW233336   0.356   2.954   0.336
10813SOL     OW33337   0.981   3.465   6.533
10813SOL    HW133338   0.906   3.440   6.594
10813SOL    HW233339   0.971   3.561   6.507
10814SOL     OW33340   3.674   1.804   1.168
10814SOL    HW133341   3.625   1.820   1.254
10814SOL    HW233342   3.747   1.737   1.183
10815SOL     OW33343   5.237   1.105   4.828
10815SOL    HW133344   5.142   1.087   4.804
10815SOL    HW233345   5.263   1.196   4.797
10816SOL     OW33346   3.109   3.119   4.993
10816SOL    HW133347   3.051   3.045   4.957
10816SOL    HW233348   3.054   3.178   5.052
10817SOL     OW33349   1.409   6.187   3.902
10817SOL    HW133350   1.395   6.105   3.957
10817SOL    HW233351   1.339   6.191   3.830
10818SOL     OW33352   4.158   3.966   6.865
10818SOL    HW133353   4.132   4.032   6.795
10818SOL    HW233354   4.258   3.965   6.874
10819SOL     OW33355   5.881   6.270   5.774
10819SOL    HW133356   5.856   6.187   5.724
10819SOL    HW233357   5.818   6.281   5.851
10820SOL     OW33358   2.687   4.760   6.190
10820SOL    HW133359   2.711   4.722   6.101
10820SOL    HW233360   2.594   4.731   6.214
10821SOL     OW33361   4.415   5.837   3.603
10821SOL    HW133362   4.491   5.891   3.637
10821SOL    HW233363   4.344   5.898   3.566
10822SOL     OW33364   5.783   1.215   2.101
10822SOL    HW133365   5.815   1.309   2.087
10822SOL    HW233366   5.683   1.216   2.109
10823SOL     OW33367   5.323   6.337   1.330
10823SOL    HW133368   5.384   6.262   1.306
10823SOL    HW233369   5.358   6.423   1.292
10824SOL     OW33370   1.386   3.188   3.458
10824SOL    HW133371   1.290   3.183   3.487
10824SOL    HW233372   1.409   3.282   3.432
10825SOL     OW33373   0.532   2.357   0.768
10825SOL    HW133374   0.568   2.285   0.710
10825SOL    HW233375   0.441   2.331   0.800
10826SOL     OW33376   6.671   3.051   2.684
10826SOL    HW133377   6.581   3.091   2.696
10826SOL    HW233378   6.711   3.031   2.774
10827SOL     OW33379   0.312   3.261   4.680
10827SOL    HW133380   0.374   3.234   4.605
10827SOL    HW233381   0.269   3.348   4.658
10828SOL     OW33382   6.519   4.264   5.065
10828SOL    HW133383   6.540   4.167   5.059
10828SOL    HW233384   6.439   4.277   5.124
10829SOL     OW33385   3.634   2.771   5.644
10829SOL    HW133386   3.707   2.735   5.702
10829SOL    HW233387   3.659   2.863   5.613
10830SOL     OW33388   5.148   2.189   3.178
10830SOL    HW133389   5.181   2.258   3.242
10830SOL    HW233390   5.125   2.232   3.091
10831SOL     OW33391   3.892   6.940   3.930
10831SOL    HW133392   3.836   6.890   3.864
10831SOL    HW233393   3.833   6.977   4.002
10832SOL     OW33394   6.797   2.479   0.056
10832SOL    HW133395   6.815   2.541   7.004
10832SOL    HW233396   6.711   2.431   0.040
10833SOL     OW33397   0.417   0.963   6.563
10833SOL    HW133398   0.492   0.990   6.623
10833SOL    HW233399   0.438   0.991   6.470
10834SOL     OW33400   6.309   6.135   1.612
10834SOL    HW133401   6.339   6.140   1.517
10834SOL    HW233402   6.389   6.122   1.671
10835SOL     OW33403   0.082   2.786   5.324
10835SOL    HW133404   7.007   2.775   5.332
10835SOL    HW233405   0.121   2.703   5.283
10836SOL     OW33406   0.032   1.282   3.419
10836SOL    HW133407   6.965   1.246   3.405
10836SOL    HW233408   0.060   1.335   3.339
10837SOL     OW33409   0.154   3.169   4.141
10837SOL    HW133410   0.129   3.229   4.065
10837SOL    HW233411   0.101   3.084   4.135
10838SOL     OW33412   0.664   5.827   2.469
10838SOL    HW133413   0.577   5.833   2.420
10838SOL    HW233414   0.738   5.862   2.411
10839SOL     OW33415   4.552   2.799   0.586
10839SOL    HW133416   4.583   2.890   0.615
10839SOL    HW233417   4.457   2.786   0.615
10840SOL     OW33418   2.346   0.298   1.923
10840SOL    HW133419   2.260   0.295   1.974
10840SOL    HW233420   2.408   0.228   1.958
10841SOL     OW33421   2.186   5.137   5.057
10841SOL    HW133422   2.122   5.066   5.028
10841SOL    HW233423   2.264   5.094   5.102
10842SOL     OW33424   6.253   4.351   2.025
10842SOL    HW133425   6.228   4.331   2.119
10842SOL    HW233426   6.169   4.362   1.970
10843SOL     OW33427   2.884   1.746   1.445
10843SOL    HW133428   2.846   1.833   1.475
10843SOL    HW233429   2.855   1.727   1.351
10844SOL     OW33430   1.788   5.854   5.207
10844SOL    HW133431   1.756   5.788   5.275
10844SOL    HW233432   1.806   5.807   5.120
10845SOL     OW33433   4.302   0.475   4.865
10845SOL    HW133434   4.368   0.497   4.936
10845SOL    HW233435   4.218   0.528   4.880
10846SOL     OW33436   5.989   0.064   6.070
10846SOL    HW133437   6.040   7.003   6.064
10846SOL    HW233438   5.894   0.044   6.093
10847SOL     OW33439   2.969   0.367   6.876
10847SOL    HW133440   2.894   0.367   6.942
10847SOL    HW233441   2.973   0.277   6.831
10848SOL     OW33442   1.528   3.750   1.823
10848SOL    HW133443   1.502   3.686   1.896
10848SOL    HW233444   1.628   3.759   1.821
10849SOL     OW33445   2.113   6.653   2.897
10849SOL    HW133446   2.035   6.695   2.942
10849SOL    HW233447   2.085   6.565   2.858
10850SOL     OW33448   4.703   4.769   0.670
10850SOL    HW133449   4.605   4.750   0.680
10850SOL    HW233450   4.733   4.741   0.579
10851SOL     OW33451   1.377   4.233   0.733
10851SOL    HW133452   1.384   4.295   0.812
10851SOL    HW233453   1.453   4.249   0.671
10852SOL     OW33454   2.305   1.927   2.371
10852SOL    HW133455   2.226   1.868   2.357
10852SOL    HW233456   2.380   1.874   2.410
10853SOL     OW33457   3.654   1.134   6.111
10853SOL    HW133458   3.655   1.216   6.053
10853SOL    HW233459   3.559   1.113   6.137
10854SOL     OW33460   3.053   6.135   5.874
10854SOL    HW133461   2.992   6.208   5.843
10854SOL    HW233462   2.999   6.060   5.913
10855SOL     OW33463   4.293   0.987   6.983
10855SOL    HW133464   4.373   1.048   6.978
10855SOL    HW233465   4.210   1.042   6.988
10856SOL     OW33466   0.659   1.453   0.545
10856SOL    HW133467   0.700   1.542   0.525
10856SOL    HW233468   0.612   1.418   0.464
10857SOL     OW33469   0.083   2.916   2.099
10857SOL    HW133470   0.033   2.876   2.022
10857SOL    HW233471   0.038   3.001   2.127
10858SOL     OW33472   2.314   6.319   2.411
10858SOL    HW133473   2.389   6.253   2.422
10858SOL    HW233474   2.338   6.385   2.341
10859SOL     OW33475   1.085   5.152   3.389
10859SOL    HW133476   1.057   5.237   3.344
10859SOL    HW233477   1.006   5.092   3.399
10860SOL     OW33478   0.079   3.719   3.236
10860SOL    HW133479   0.129   3.632   3.240
10860SOL    HW233480   7.008   3.705   3.259
10861SOL     OW33481   4.113   2.859   5.748
10861SOL    HW133482   4.069   2.859   5.658
10861SOL    HW233483   4.131   2.953   5.776
10862SOL     OW33484   0.647   0.819   5.350
10862SOL    HW133485   0.716   0.749   5.330
10862SOL    HW233486   0.571   0.810   5.286
10863SOL     OW33487   2.153   6.440   4.297
10863SOL    HW133488   2.214   6.389   4.237
10863SOL    HW233489   2.198   6.524   4.328
10864SOL     OW33490   3.606   6.459   3.068
10864SOL    HW133491   3.528   6.491   3.122
10864SOL    HW233492   3.576   6.438   2.976
10865SOL     OW33493   6.771   1.408   6.239
10865SOL    HW133494   6.727   1.333   6.190
10865SOL    HW233495   6.859   1.430   6.196
10866SOL     OW33496   5.664   4.984   6.520
10866SOL    HW133497   5.706   4.994   6.610
10866SOL    HW233498   5.727   5.019   6.450
10867SOL     OW33499   2.895   1.068   6.525
10867SOL    HW133500   2.827   1.047   6.455
10867SOL    HW233501   2.848   1.082   6.613
10868SOL     OW33502   2.227   2.360   3.071
10868SOL    HW133503   2.294   2.286   3.061
10868SOL    HW233504   2.262   2.428   3.135
10869NA      NA33505   6.306   2.327   5.832
10870NA      NA33506   4.204   4.785   5.135
10871NA      NA33507   2.136   3.588   1.825
10872NA      NA33508   4.821   3.720   5.284
10873NA      NA33509   4.125   2.379   5.316
10874NA      NA33510   3.758   4.772   1.734
10875NA      NA33511   6.731   5.999   4.643
10876NA      NA33512   3.699   3.423   5.138
10877NA      NA33513   4.660   6.504   6.268
10878NA      NA33514   2.554   0.710   5.264
10879NA      NA33515   0.556   4.851   2.444
10880NA      NA33516   2.320   0.485   2.454
10881NA      NA33517   3.501   4.424   1.235
10882NA      NA33518   3.622   3.371   3.073
   7.02433   7.02433   7.02433
