Generated by trjconv : CNT in water t= 300.00000
33518
    1C        C    1   2.841   2.767   4.744
    1C        C    2   2.893   2.716   4.865
    1C        C    3   2.838   2.769   4.982
    1C        C    4   2.849   2.776   4.256
    1C        C    5   2.896   2.722   4.378
    1C        C    6   2.843   2.768   4.501
    1C        C    7   3.007   2.635   4.620
    1C        C    8   2.892   2.716   4.622
    1C        C    9   3.072   2.599   4.741
    1C        C   10   3.009   2.635   4.862
    1C        C   11   3.178   2.489   4.974
    1C        C   12   3.057   2.559   4.970
    1C        C   13   2.852   2.776   3.767
    1C        C   14   2.901   2.723   3.889
    1C        C   15   2.848   2.773   4.010
    1C        C   16   3.014   2.645   4.136
    1C        C   17   2.903   2.732   4.133
    1C        C   18   3.079   2.608   4.256
    1C        C   19   3.014   2.645   4.376
    1C        C   20   3.205   2.557   4.500
    1C        C   21   3.072   2.604   4.498
    1C        C   22   3.276   2.539   4.621
    1C        C   23   3.204   2.548   4.742
    1C        C   24   3.406   2.474   4.859
    1C        C   25   3.265   2.496   4.860
    1C        C   26   3.487   2.477   4.974
    1C        C   27   2.847   2.768   3.280
    1C        C   28   2.907   2.727   3.401
    1C        C   29   2.855   2.777   3.522
    1C        C   30   3.015   2.640   3.647
    1C        C   31   2.903   2.727   3.645
    1C        C   32   3.077   2.607   3.769
    1C        C   33   3.016   2.641   3.892
    1C        C   34   3.205   2.548   4.014
    1C        C   35   3.076   2.607   4.015
    1C        C   36   3.274   2.527   4.135
    1C        C   37   3.211   2.555   4.258
    1C        C   38   3.414   2.506   4.379
    1C        C   39   3.275   2.527   4.381
    1C        C   40   3.486   2.497   4.500
    1C        C   41   3.412   2.503   4.621
    1C        C   42   3.626   2.487   4.742
    1C        C   43   3.484   2.481   4.740
    1C        C   44   3.702   2.490   4.861
    1C        C   45   3.626   2.475   4.978
    1C        C   46   2.834   2.749   2.790
    1C        C   47   2.893   2.711   2.912
    1C        C   48   2.843   2.761   3.034
    1C        C   49   3.018   2.644   3.158
    1C        C   50   2.900   2.722   3.157
    1C        C   51   3.078   2.605   3.280
    1C        C   52   3.019   2.640   3.404
    1C        C   53   3.209   2.548   3.526
    1C        C   54   3.079   2.604   3.526
    1C        C   55   3.276   2.525   3.649
    1C        C   56   3.207   2.551   3.769
    1C        C   57   3.412   2.503   3.891
    1C        C   58   3.273   2.526   3.892
    1C        C   59   3.484   2.494   4.012
    1C        C   60   3.413   2.499   4.134
    1C        C   61   3.624   2.498   4.255
    1C        C   62   3.483   2.494   4.257
    1C        C   63   3.696   2.505   4.377
    1C        C   64   3.628   2.497   4.500
    1C        C   65   3.836   2.536   4.619
    1C        C   66   3.699   2.502   4.622
    1C        C   67   3.905   2.557   4.740
    1C        C   68   3.840   2.521   4.860
    1C        C   69   4.048   2.581   4.975
    1C        C   70   3.917   2.531   4.977
    1C        C   71   2.822   2.733   2.306
    1C        C   72   2.882   2.691   2.426
    1C        C   73   2.827   2.742   2.546
    1C        C   74   3.006   2.626   2.668
    1C        C   75   2.885   2.699   2.668
    1C        C   76   3.071   2.596   2.790
    1C        C   77   3.011   2.633   2.913
    1C        C   78   3.204   2.547   3.033
    1C        C   79   3.076   2.607   3.035
    1C        C   80   3.273   2.527   3.155
    1C        C   81   3.207   2.548   3.278
    1C        C   82   3.412   2.502   3.399
    1C        C   83   3.273   2.529   3.402
    1C        C   84   3.483   2.493   3.521
    1C        C   85   3.416   2.505   3.645
    1C        C   86   3.625   2.499   3.768
    1C        C   87   3.484   2.500   3.769
    1C        C   88   3.697   2.504   3.889
    1C        C   89   3.625   2.495   4.010
    1C        C   90   3.831   2.541   4.135
    1C        C   91   3.695   2.506   4.133
    1C        C   92   3.901   2.566   4.255
    1C        C   93   3.833   2.541   4.377
    1C        C   94   4.026   2.633   4.497
    1C        C   95   3.901   2.568   4.497
    1C        C   96   4.090   2.667   4.618
    1C        C   97   4.029   2.626   4.739
    1C        C   98   4.188   2.764   4.861
    1C        C   99   4.094   2.656   4.862
    1C        C  100   4.213   2.841   4.975
    1C        C  101   2.816   2.722   2.065
    1C        C  102   2.986   2.590   2.187
    1C        C  103   2.871   2.676   2.185
    1C        C  104   3.061   2.570   2.306
    1C        C  105   3.001   2.615   2.426
    1C        C  106   3.199   2.536   2.547
    1C        C  107   3.068   2.589   2.547
    1C        C  108   3.271   2.524   2.668
    1C        C  109   3.203   2.546   2.790
    1C        C  110   3.409   2.489   2.911
    1C        C  111   3.273   2.527   2.911
    1C        C  112   3.481   2.486   3.033
    1C        C  113   3.412   2.501   3.155
    1C        C  114   3.624   2.495   3.280
    1C        C  115   3.483   2.494   3.277
    1C        C  116   3.694   2.502   3.402
    1C        C  117   3.624   2.493   3.524
    1C        C  118   3.832   2.540   3.644
    1C        C  119   3.696   2.503   3.646
    1C        C  120   3.895   2.570   3.767
    1C        C  121   3.833   2.543   3.891
    1C        C  122   4.024   2.633   4.010
    1C        C  123   3.898   2.569   4.014
    1C        C  124   4.085   2.670   4.132
    1C        C  125   4.026   2.631   4.255
    1C        C  126   4.195   2.764   4.376
    1C        C  127   4.085   2.674   4.376
    1C        C  128   4.244   2.814   4.498
    1C        C  129   4.197   2.759   4.620
    1C        C  130   4.326   2.932   4.738
    1C        C  131   4.240   2.819   4.740
    1C        C  132   4.356   3.001   4.857
    1C        C  133   4.286   2.960   4.971
    1C        C  134   3.170   2.467   2.075
    1C        C  135   3.035   2.505   2.083
    1C        C  136   3.255   2.477   2.186
    1C        C  137   3.192   2.515   2.307
    1C        C  138   3.404   2.481   2.422
    1C        C  139   3.264   2.498   2.427
    1C        C  140   3.475   2.480   2.544
    1C        C  141   3.409   2.493   2.668
    1C        C  142   3.622   2.494   2.787
    1C        C  143   3.481   2.486   2.789
    1C        C  144   3.689   2.501   2.911
    1C        C  145   3.622   2.486   3.035
    1C        C  146   3.830   2.534   3.154
    1C        C  147   3.693   2.500   3.156
    1C        C  148   3.898   2.561   3.275
    1C        C  149   3.831   2.536   3.397
    1C        C  150   4.025   2.619   3.519
    1C        C  151   3.899   2.555   3.520
    1C        C  152   4.083   2.660   3.641
    1C        C  153   4.021   2.633   3.765
    1C        C  154   4.192   2.760   3.885
    1C        C  155   4.081   2.673   3.887
    1C        C  156   4.241   2.810   4.008
    1C        C  157   4.195   2.759   4.131
    1C        C  158   4.338   2.916   4.249
    1C        C  159   4.249   2.807   4.253
    1C        C  160   4.373   2.981   4.370
    1C        C  161   4.329   2.927   4.493
    1C        C  162   4.430   3.114   4.612
    1C        C  163   4.367   2.988   4.614
    1C        C  164   4.462   3.184   4.730
    1C        C  165   4.429   3.122   4.852
    1C        C  166   4.513   3.317   4.972
    1C        C  167   4.482   3.182   4.967
    1C        C  168   3.473   2.441   2.068
    1C        C  169   3.394   2.454   2.183
    1C        C  170   3.615   2.463   2.301
    1C        C  171   3.473   2.467   2.300
    1C        C  172   3.686   2.485   2.421
    1C        C  173   3.617   2.483   2.544
    1C        C  174   3.827   2.531   2.664
    1C        C  175   3.690   2.495   2.664
    1C        C  176   3.889   2.563   2.787
    1C        C  177   3.826   2.535   2.910
    1C        C  178   4.020   2.622   3.028
    1C        C  179   3.896   2.554   3.031
    1C        C  180   4.085   2.658   3.148
    1C        C  181   4.026   2.620   3.271
    1C        C  182   4.193   2.745   3.395
    1C        C  183   4.083   2.656   3.395
    1C        C  184   4.244   2.794   3.517
    1C        C  185   4.195   2.746   3.640
    1C        C  186   4.332   2.912   3.759
    1C        C  187   4.243   2.802   3.760
    1C        C  188   4.370   2.973   3.881
    1C        C  189   4.329   2.920   4.005
    1C        C  190   4.440   3.102   4.125
    1C        C  191   4.369   2.980   4.127
    1C        C  192   4.463   3.172   4.246
    1C        C  193   4.438   3.106   4.369
    1C        C  194   4.499   3.313   4.487
    1C        C  195   4.460   3.177   4.489
    1C        C  196   4.516   3.385   4.607
    1C        C  197   4.501   3.321   4.731
    1C        C  198   4.553   3.530   4.842
    1C        C  199   4.527   3.390   4.853
    1C        C  200   4.576   3.613   4.956
    1C        C  201   3.611   2.416   2.065
    1C        C  202   3.823   2.505   2.179
    1C        C  203   3.687   2.459   2.178
    1C        C  204   3.893   2.538   2.298
    1C        C  205   3.824   2.516   2.420
    1C        C  206   4.019   2.609   2.540
    1C        C  207   3.892   2.547   2.539
    1C        C  208   4.079   2.652   2.660
    1C        C  209   4.016   2.625   2.784
    1C        C  210   4.191   2.746   2.903
    1C        C  211   4.079   2.659   2.905
    1C        C  212   4.247   2.792   3.024
    1C        C  213   4.197   2.744   3.147
    1C        C  214   4.329   2.905   3.268
    1C        C  215   4.244   2.792   3.271
    1C        C  216   4.366   2.963   3.391
    1C        C  217   4.331   2.906   3.516
    1C        C  218   4.437   3.094   3.635
    1C        C  219   4.370   2.969   3.636
    1C        C  220   4.459   3.164   3.756
    1C        C  221   4.432   3.100   3.879
    1C        C  222   4.489   3.302   3.999
    1C        C  223   4.466   3.163   4.001
    1C        C  224   4.503   3.376   4.119
    1C        C  225   4.500   3.308   4.243
    1C        C  226   4.522   3.521   4.362
    1C        C  227   4.514   3.380   4.363
    1C        C  228   4.520   3.597   4.481
    1C        C  229   4.531   3.526   4.603
    1C        C  230   4.498   3.738   4.726
    1C        C  231   4.541   3.603   4.720
    1C        C  232   4.493   3.817   4.843
    1C        C  233   4.537   3.748   4.957
    1C        C  234   4.014   2.607   2.057
    1C        C  235   3.895   2.536   2.063
    1C        C  236   4.078   2.648   2.175
    1C        C  237   4.016   2.609   2.296
    1C        C  238   4.192   2.731   2.416
    1C        C  239   4.077   2.648   2.417
    1C        C  240   4.242   2.786   2.536
    1C        C  241   4.189   2.741   2.659
    1C        C  242   4.331   2.902   2.780
    1C        C  243   4.243   2.792   2.780
    1C        C  244   4.375   2.957   2.903
    1C        C  245   4.337   2.901   3.027
    1C        C  246   4.433   3.092   3.146
    1C        C  247   4.372   2.964   3.148
    1C        C  248   4.454   3.158   3.269
    1C        C  249   4.427   3.091   3.391
    1C        C  250   4.489   3.296   3.510
    1C        C  251   4.454   3.159   3.511
    1C        C  252   4.496   3.370   3.630
    1C        C  253   4.491   3.302   3.754
    1C        C  254   4.516   3.511   3.875
    1C        C  255   4.508   3.370   3.877
    1C        C  256   4.515   3.586   3.995
    1C        C  257   4.516   3.517   4.119
    1C        C  258   4.491   3.729   4.240
    1C        C  259   4.518   3.590   4.239
    1C        C  260   4.473   3.802   4.360
    1C        C  261   4.492   3.736   4.483
    1C        C  262   4.424   3.938   4.601
    1C        C  263   4.468   3.804   4.605
    1C        C  264   4.398   4.010   4.720
    1C        C  265   4.437   3.947   4.840
    1C        C  266   4.326   4.135   4.956
    1C        C  267   4.392   4.012   4.955
    1C        C  268   4.256   2.773   2.059
    1C        C  269   4.194   2.728   2.176
    1C        C  270   4.344   2.883   2.293
    1C        C  271   4.255   2.772   2.296
    1C        C  272   4.377   2.947   2.414
    1C        C  273   4.337   2.890   2.537
    1C        C  274   4.443   3.078   2.657
    1C        C  275   4.376   2.954   2.657
    1C        C  276   4.467   3.147   2.778
    1C        C  277   4.435   3.085   2.901
    1C        C  278   4.498   3.289   3.020
    1C        C  279   4.462   3.153   3.022
    1C        C  280   4.502   3.362   3.141
    1C        C  281   4.487   3.295   3.265
    1C        C  282   4.512   3.506   3.385
    1C        C  283   4.501   3.365   3.387
    1C        C  284   4.514   3.578   3.507
    1C        C  285   4.511   3.510   3.631
    1C        C  286   4.486   3.721   3.750
    1C        C  287   4.507   3.581   3.753
    1C        C  288   4.471   3.791   3.873
    1C        C  289   4.489   3.724   3.996
    1C        C  290   4.423   3.928   4.114
    1C        C  291   4.469   3.794   4.117
    1C        C  292   4.392   3.994   4.235
    1C        C  293   4.423   3.934   4.359
    1C        C  294   4.321   4.124   4.477
    1C        C  295   4.392   4.002   4.479
    1C        C  296   4.273   4.182   4.597
    1C        C  297   4.318   4.128   4.719
    1C        C  298   4.197   4.311   4.837
    1C        C  299   4.287   4.199   4.838
    1C        C  300   4.166   4.397   4.947
    1C        C  301   4.350   2.875   2.057
    1C        C  302   4.468   3.064   2.176
    1C        C  303   4.393   2.942   2.173
    1C        C  304   4.478   3.140   2.295
    1C        C  305   4.442   3.073   2.414
    1C        C  306   4.505   3.279   2.534
    1C        C  307   4.472   3.142   2.534
    1C        C  308   4.509   3.352   2.655
    1C        C  309   4.499   3.285   2.779
    1C        C  310   4.521   3.500   2.896
    1C        C  311   4.514   3.359   2.898
    1C        C  312   4.514   3.573   3.017
    1C        C  313   4.512   3.503   3.140
    1C        C  314   4.483   3.713   3.259
    1C        C  315   4.504   3.574   3.262
    1C        C  316   4.464   3.782   3.381
    1C        C  317   4.482   3.715   3.505
    1C        C  318   4.423   3.920   3.623
    1C        C  319   4.467   3.786   3.626
    1C        C  320   4.391   3.983   3.746
    1C        C  321   4.422   3.923   3.870
    1C        C  322   4.318   4.110   3.988
    1C        C  323   4.392   3.990   3.991
    1C        C  324   4.275   4.170   4.108
    1C        C  325   4.315   4.112   4.230
    1C        C  326   4.181   4.277   4.349
    1C        C  327   4.276   4.172   4.352
    1C        C  328   4.130   4.331   4.468
    1C        C  329   4.184   4.292   4.592
    1C        C  330   4.020   4.428   4.712
    1C        C  331   4.137   4.347   4.714
    1C        C  332   3.965   4.489   4.826
    1C        C  333   4.051   4.477   4.936
    1C        C  334   4.554   3.265   2.059
    1C        C  335   4.527   3.127   2.062
    1C        C  336   4.536   3.347   2.171
    1C        C  337   4.510   3.279   2.292
    1C        C  338   4.524   3.492   2.409
    1C        C  339   4.512   3.351   2.413
    1C        C  340   4.523   3.565   2.530
    1C        C  341   4.522   3.493   2.652
    1C        C  342   4.493   3.707   2.772
    1C        C  343   4.517   3.567   2.772
    1C        C  344   4.477   3.780   2.891
    1C        C  345   4.490   3.712   3.015
    1C        C  346   4.421   3.913   3.135
    1C        C  347   4.474   3.782   3.136
    1C        C  348   4.387   3.975   3.257
    1C        C  349   4.421   3.917   3.381
    1C        C  350   4.319   4.104   3.500
    1C        C  351   4.398   3.986   3.501
    1C        C  352   4.274   4.161   3.620
    1C        C  353   4.320   4.105   3.741
    1C        C  354   4.179   4.264   3.865
    1C        C  355   4.278   4.164   3.863
    1C        C  356   4.123   4.316   3.984
    1C        C  357   4.178   4.273   4.107
    1C        C  358   4.008   4.402   4.229
    1C        C  359   4.127   4.325   4.228
    1C        C  360   3.952   4.451   4.349
    1C        C  361   4.017   4.417   4.470
    1C        C  362   3.826   4.517   4.590
    1C        C  363   3.953   4.455   4.590
    1C        C  364   3.758   4.546   4.711
    1C        C  365   3.835   4.543   4.829
    1C        C  366   3.623   4.597   4.948
    1C        C  367   3.761   4.577   4.944
    1C        C  368   4.516   3.564   2.052
    1C        C  369   4.526   3.487   2.169
    1C        C  370   4.502   3.704   2.287
    1C        C  371   4.519   3.564   2.288
    1C        C  372   4.487   3.775   2.408
    1C        C  373   4.498   3.704   2.530
    1C        C  374   4.427   3.907   2.647
    1C        C  375   4.478   3.776   2.650
    1C        C  376   4.397   3.974   2.768
    1C        C  377   4.426   3.912   2.891
    1C        C  378   4.315   4.095   3.012
    1C        C  379   4.391   3.977   3.012
    1C        C  380   4.272   4.153   3.133
    1C        C  381   4.311   4.094   3.255
    1C        C  382   4.175   4.257   3.375
    1C        C  383   4.272   4.154   3.377
    1C        C  384   4.121   4.306   3.495
    1C        C  385   4.173   4.261   3.618
    1C        C  386   4.005   4.384   3.741
    1C        C  387   4.123   4.306   3.742
    1C        C  388   3.941   4.422   3.861
    1C        C  389   4.005   4.394   3.984
    1C        C  390   3.815   4.488   4.105
    1C        C  391   3.943   4.429   4.107
    1C        C  392   3.750   4.515   4.227
    1C        C  393   3.822   4.506   4.349
    1C        C  394   3.614   4.546   4.473
    1C        C  395   3.754   4.532   4.470
    1C        C  396   3.542   4.556   4.594
    1C        C  397   3.618   4.557   4.713
    1C        C  398   3.407   4.550   4.840
    1C        C  399   3.546   4.574   4.834
    1C        C  400   3.341   4.504   4.955
    1C        C  401   4.505   3.703   2.051
    1C        C  402   4.453   3.914   2.167
    1C        C  403   4.494   3.779   2.168
    1C        C  404   4.411   3.976   2.287
    1C        C  405   4.439   3.908   2.408
    1C        C  406   4.324   4.094   2.525
    1C        C  407   4.401   3.975   2.526
    1C        C  408   4.275   4.149   2.645
    1C        C  409   4.322   4.094   2.767
    1C        C  410   4.175   4.250   2.886
    1C        C  411   4.273   4.149   2.887
    1C        C  412   4.119   4.295   3.008
    1C        C  413   4.169   4.251   3.132
    1C        C  414   3.995   4.372   3.249
    1C        C  415   4.119   4.302   3.253
    1C        C  416   3.937   4.406   3.373
    1C        C  417   4.001   4.381   3.496
    1C        C  418   3.810   4.468   3.616
    1C        C  419   3.940   4.415   3.620
    1C        C  420   3.743   4.496   3.738
    1C        C  421   3.813   4.481   3.860
    1C        C  422   3.606   4.527   3.987
    1C        C  423   3.746   4.504   3.983
    1C        C  424   3.538   4.537   4.110
    1C        C  425   3.610   4.532   4.231
    1C        C  426   3.398   4.545   4.355
    1C        C  427   3.539   4.547   4.353
    1C        C  428   3.328   4.547   4.478
    1C        C  429   3.400   4.555   4.599
    1C        C  430   3.191   4.520   4.724
    1C        C  431   3.330   4.548   4.721
    1C        C  432   3.121   4.493   4.845
    1C        C  433   3.203   4.493   4.958
    1C        C  434   4.384   4.120   2.051
    1C        C  435   4.448   3.996   2.053
    1C        C  436   4.301   4.157   2.161
    1C        C  437   4.331   4.093   2.284
    1C        C  438   4.175   4.245   2.398
    1C        C  439   4.277   4.147   2.403
    1C        C  440   4.122   4.294   2.520
    1C        C  441   4.172   4.246   2.643
    1C        C  442   4.000   4.370   2.764
    1C        C  443   4.120   4.296   2.764
    1C        C  444   3.936   4.405   2.885
    1C        C  445   4.000   4.371   3.006
    1C        C  446   3.805   4.464   3.127
    1C        C  447   3.935   4.407   3.126
    1C        C  448   3.741   4.484   3.251
    1C        C  449   3.808   4.464   3.374
    1C        C  450   3.603   4.521   3.494
    1C        C  451   3.741   4.492   3.495
    1C        C  452   3.538   4.536   3.619
    1C        C  453   3.605   4.523   3.742
    1C        C  454   3.394   4.537   3.865
    1C        C  455   3.535   4.535   3.865
    1C        C  456   3.325   4.534   3.988
    1C        C  457   3.397   4.542   4.110
    1C        C  458   3.191   4.505   4.237
    1C        C  459   3.328   4.538   4.233
    1C        C  460   3.122   4.485   4.359
    1C        C  461   3.192   4.510   4.479
    1C        C  462   2.996   4.434   4.600
    1C        C  463   3.123   4.496   4.602
    1C        C  464   2.931   4.396   4.719
    1C        C  465   2.989   4.437   4.843
    1C        C  466   2.795   4.341   4.954
    1C        C  467   2.905   4.428   4.958
    1C        C  468   4.124   4.291   2.043
    1C        C  469   4.183   4.239   2.159
    1C        C  470   4.000   4.366   2.276
    1C        C  471   4.120   4.289   2.276
    1C        C  472   3.934   4.394   2.398
    1C        C  473   4.001   4.367   2.519
    1C        C  474   3.807   4.456   2.643
    1C        C  475   3.937   4.401   2.641
    1C        C  476   3.737   4.481   2.763
    1C        C  477   3.809   4.465   2.884
    1C        C  478   3.601   4.517   3.007
    1C        C  479   3.739   4.489   3.005
    1C        C  480   3.532   4.530   3.129
    1C        C  481   3.604   4.517   3.250
    1C        C  482   3.391   4.527   3.375
    1C        C  483   3.533   4.528   3.372
    1C        C  484   3.324   4.528   3.499
    1C        C  485   3.396   4.538   3.620
    1C        C  486   3.187   4.500   3.742
    1C        C  487   3.325   4.531   3.742
    1C        C  488   3.124   4.478   3.866
    1C        C  489   3.187   4.504   3.989
    1C        C  490   3.002   4.412   4.113
    1C        C  491   3.125   4.482   4.114
    1C        C  492   2.937   4.383   4.235
    1C        C  493   2.995   4.424   4.357
    1C        C  494   2.831   4.294   4.483
    1C        C  495   2.937   4.386   4.481
    1C        C  496   2.775   4.246   4.604
    1C        C  497   2.821   4.306   4.723
    1C        C  498   2.659   4.164   4.842
    1C        C  499   2.753   4.270   4.841
    1C        C  500   2.589   4.114   4.952
    1C        C  501   4.001   4.356   2.038
    1C        C  502   3.808   4.456   2.154
    1C        C  503   3.937   4.399   2.154
    1C        C  504   3.739   4.481   2.275
    1C        C  505   3.806   4.452   2.396
    1C        C  506   3.603   4.506   2.518
    1C        C  507   3.741   4.475   2.520
    1C        C  508   3.531   4.515   2.640
    1C        C  509   3.600   4.512   2.763
    1C        C  510   3.389   4.531   2.882
    1C        C  511   3.530   4.526   2.885
    1C        C  512   3.319   4.523   3.005
    1C        C  513   3.391   4.529   3.127
    1C        C  514   3.186   4.493   3.254
    1C        C  515   3.324   4.523   3.251
    1C        C  516   3.118   4.471   3.376
    1C        C  517   3.186   4.497   3.497
    1C        C  518   2.997   4.409   3.624
    1C        C  519   3.118   4.481   3.620
    1C        C  520   2.938   4.371   3.747
    1C        C  521   2.999   4.411   3.868
    1C        C  522   2.835   4.280   3.993
    1C        C  523   2.945   4.368   3.991
    1C        C  524   2.786   4.232   4.117
    1C        C  525   2.831   4.290   4.238
    1C        C  526   2.692   4.133   4.361
    1C        C  527   2.780   4.244   4.361
    1C        C  528   2.651   4.074   4.482
    1C        C  529   2.685   4.138   4.604
    1C        C  530   2.584   3.954   4.728
    1C        C  531   2.636   4.087   4.726
    1C        C  532   2.533   3.898   4.848
    1C        C  533   2.519   3.993   4.955
    1C        C  534   3.615   4.554   2.038
    1C        C  535   3.746   4.506   2.039
    1C        C  536   3.532   4.537   2.153
    1C        C  537   3.599   4.507   2.275
    1C        C  538   3.389   4.520   2.395
    1C        C  539   3.530   4.516   2.398
    1C        C  540   3.320   4.512   2.518
    1C        C  541   3.389   4.517   2.641
    1C        C  542   3.180   4.488   2.763
    1C        C  543   3.316   4.524   2.761
    1C        C  544   3.118   4.459   2.887
    1C        C  545   3.183   4.484   3.010
    1C        C  546   2.996   4.395   3.135
    1C        C  547   3.117   4.467   3.133
    1C        C  548   2.935   4.361   3.258
    1C        C  549   2.992   4.407   3.379
    1C        C  550   2.832   4.273   3.502
    1C        C  551   2.938   4.366   3.503
    1C        C  552   2.785   4.224   3.626
    1C        C  553   2.829   4.281   3.748
    1C        C  554   2.701   4.115   3.871
    1C        C  555   2.787   4.227   3.871
    1C        C  556   2.660   4.061   3.995
    1C        C  557   2.696   4.123   4.116
    1C        C  558   2.604   3.937   4.242
    1C        C  559   2.660   4.066   4.240
    1C        C  560   2.574   3.875   4.366
    1C        C  561   2.592   3.946   4.487
    1C        C  562   2.525   3.745   4.613
    1C        C  563   2.563   3.881   4.609
    1C        C  564   2.513   3.677   4.736
    1C        C  565   2.522   3.756   4.854
    1C        C  566   2.537   3.543   4.975
    1C        C  567   2.532   3.682   4.973
    1C        C  568   3.323   4.477   2.038
    1C        C  569   3.391   4.518   2.153
    1C        C  570   3.178   4.483   2.279
    1C        C  571   3.316   4.514   2.274
    1C        C  572   3.114   4.455   2.402
    1C        C  573   3.181   4.485   2.523
    1C        C  574   2.984   4.400   2.643
    1C        C  575   3.109   4.466   2.643
    1C        C  576   2.929   4.362   2.768
    1C        C  577   2.992   4.395   2.890
    1C        C  578   2.828   4.265   3.012
    1C        C  579   2.935   4.357   3.013
    1C        C  580   2.777   4.218   3.135
    1C        C  581   2.827   4.270   3.257
    1C        C  582   2.695   4.109   3.384
    1C        C  583   2.779   4.222   3.381
    1C        C  584   2.658   4.052   3.508
    1C        C  585   2.698   4.113   3.629
    1C        C  586   2.600   3.925   3.750
    1C        C  587   2.664   4.050   3.751
    1C        C  588   2.572   3.866   3.876
    1C        C  589   2.602   3.932   3.998
    1C        C  590   2.530   3.736   4.124
    1C        C  591   2.569   3.871   4.121
    1C        C  592   2.522   3.668   4.248
    1C        C  593   2.537   3.739   4.370
    1C        C  594   2.503   3.531   4.496
    1C        C  595   2.515   3.672   4.492
    1C        C  596   2.513   3.462   4.619
    1C        C  597   2.514   3.535   4.739
    1C        C  598   2.529   3.323   4.856
    1C        C  599   2.520   3.463   4.861
    1C        C  600   2.540   3.248   4.974
    1C        C  601   3.191   4.436   2.041
    1C        C  602   2.981   4.392   2.157
    1C        C  603   3.115   4.440   2.159
    1C        C  604   2.919   4.361   2.281
    1C        C  605   2.986   4.397   2.400
    1C        C  606   2.821   4.264   2.525
    1C        C  607   2.923   4.362   2.521
    1C        C  608   2.774   4.215   2.649
    1C        C  609   2.822   4.271   2.769
    1C        C  610   2.688   4.104   2.891
    1C        C  611   2.773   4.218   2.891
    1C        C  612   2.658   4.045   3.015
    1C        C  613   2.692   4.105   3.138
    1C        C  614   2.591   3.922   3.261
    1C        C  615   2.655   4.048   3.262
    1C        C  616   2.568   3.858   3.385
    1C        C  617   2.593   3.927   3.506
    1C        C  618   2.526   3.726   3.635
    1C        C  619   2.570   3.860   3.628
    1C        C  620   2.510   3.659   3.759
    1C        C  621   2.532   3.731   3.878
    1C        C  622   2.510   3.524   4.007
    1C        C  623   2.522   3.664   4.003
    1C        C  624   2.505   3.455   4.130
    1C        C  625   2.508   3.528   4.251
    1C        C  626   2.537   3.320   4.375
    1C        C  627   2.510   3.459   4.374
    1C        C  628   2.552   3.250   4.496
    1C        C  629   2.532   3.322   4.616
    1C        C  630   2.596   3.117   4.739
    1C        C  631   2.545   3.249   4.737
    1C        C  632   2.616   3.046   4.861
    1C        C  633   2.562   3.110   4.977
    1C        C  634   2.786   4.297   2.049
    1C        C  635   2.892   4.388   2.044
    1C        C  636   2.749   4.228   2.165
    1C        C  637   2.807   4.272   2.285
    1C        C  638   2.677   4.102   2.406
    1C        C  639   2.763   4.215   2.406
    1C        C  640   2.640   4.044   2.529
    1C        C  641   2.685   4.105   2.649
    1C        C  642   2.588   3.915   2.773
    1C        C  643   2.649   4.042   2.770
    1C        C  644   2.566   3.851   2.897
    1C        C  645   2.597   3.917   3.018
    1C        C  646   2.533   3.716   3.148
    1C        C  647   2.570   3.852   3.140
    1C        C  648   2.512   3.649   3.271
    1C        C  649   2.531   3.722   3.391
    1C        C  650   2.504   3.514   3.518
    1C        C  651   2.516   3.654   3.514
    1C        C  652   2.507   3.445   3.641
    1C        C  653   2.504   3.518   3.763
    1C        C  654   2.533   3.311   3.885
    1C        C  655   2.509   3.450   3.886
    1C        C  656   2.552   3.247   4.010
    1C        C  657   2.528   3.315   4.132
    1C        C  658   2.603   3.118   4.253
    1C        C  659   2.549   3.248   4.254
    1C        C  660   2.630   3.052   4.375
    1C        C  661   2.599   3.117   4.497
    1C        C  662   2.702   2.931   4.620
    1C        C  663   2.626   3.050   4.618
    1C        C  664   2.746   2.873   4.741
    1C        C  665   2.695   2.926   4.863
    1C        C  666   2.739   2.866   4.981
    1C        C  667   2.677   4.023   2.049
    1C        C  668   2.682   4.103   2.164
    1C        C  669   2.587   3.910   2.286
    1C        C  670   2.643   4.040   2.284
    1C        C  671   2.559   3.846   2.409
    1C        C  672   2.583   3.915   2.530
    1C        C  673   2.521   3.712   2.656
    1C        C  674   2.559   3.848   2.652
    1C        C  675   2.503   3.646   2.780
    1C        C  676   2.529   3.715   2.901
    1C        C  677   2.499   3.508   3.026
    1C        C  678   2.517   3.648   3.025
    1C        C  679   2.504   3.440   3.149
    1C        C  680   2.496   3.509   3.272
    1C        C  681   2.517   3.301   3.397
    1C        C  682   2.500   3.442   3.396
    1C        C  683   2.532   3.233   3.520
    1C        C  684   2.522   3.305   3.641
    1C        C  685   2.577   3.101   3.766
    1C        C  686   2.544   3.239   3.764
    1C        C  687   2.622   3.046   3.888
    1C        C  688   2.599   3.114   4.009
    1C        C  689   2.709   2.932   4.134
    1C        C  690   2.634   3.052   4.132
    1C        C  691   2.753   2.879   4.257
    1C        C  692   2.707   2.934   4.379
    1C        C  693   2.748   2.873   4.500
    1C        C  694   2.632   3.891   2.052
    1C        C  695   2.528   3.701   2.170
    1C        C  696   2.582   3.831   2.169
    1C        C  697   2.512   3.635   2.293
    1C        C  698   2.523   3.710   2.412
    1C        C  699   2.491   3.501   2.537
    1C        C  700   2.505   3.642   2.535
    1C        C  701   2.500   3.433   2.660
    1C        C  702   2.497   3.505   2.782
    1C        C  703   2.520   3.295   2.908
    1C        C  704   2.501   3.435   2.905
    1C        C  705   2.542   3.228   3.030
    1C        C  706   2.529   3.301   3.151
    1C        C  707   2.591   3.102   3.275
    1C        C  708   2.542   3.234   3.275
    1C        C  709   2.624   3.043   3.400
    1C        C  710   2.592   3.105   3.522
    1C        C  711   2.705   2.931   3.646
    1C        C  712   2.613   3.038   3.645
    1C        C  713   2.753   2.878   3.768
    1C        C  714   2.709   2.935   3.889
    1C        C  715   2.751   2.876   4.011
    1C        C  716   2.449   3.494   2.059
    1C        C  717   2.491   3.628   2.056
    1C        C  718   2.465   3.418   2.179
    1C        C  719   2.484   3.495   2.297
    1C        C  720   2.516   3.285   2.421
    1C        C  721   2.492   3.424   2.418
    1C        C  722   2.529   3.217   2.544
    1C        C  723   2.517   3.293   2.663
    1C        C  724   2.588   3.095   2.789
    1C        C  725   2.535   3.226   2.785
    1C        C  726   2.617   3.029   2.911
    1C        C  727   2.581   3.092   3.032
    1C        C  728   2.702   2.919   3.157
    1C        C  729   2.620   3.034   3.155
    1C        C  730   2.748   2.869   3.281
    1C        C  731   2.708   2.929   3.402
    1C        C  732   2.758   2.880   3.525
    1C        C  733   2.479   3.189   2.073
    1C        C  734   2.487   3.277   2.183
    1C        C  735   2.583   3.080   2.301
    1C        C  736   2.523   3.209   2.302
    1C        C  737   2.610   3.019   2.425
    1C        C  738   2.580   3.085   2.546
    1C        C  739   2.696   2.909   2.668
    1C        C  740   2.620   3.028   2.669
    1C        C  741   2.741   2.855   2.790
    1C        C  742   2.698   2.913   2.911
    1C        C  743   2.745   2.863   3.034
    1C        C  744   2.539   3.064   2.068
    1C        C  745   2.680   2.892   2.181
    1C        C  746   2.602   3.009   2.180
    1C        C  747   2.726   2.838   2.303
    1C        C  748   2.684   2.898   2.424
    1C        C  749   2.733   2.847   2.546
    1C        C  750   2.728   2.830   2.064
    1C        C  751   3.648   2.296   1.986
    1C        O  752   3.651   2.180   2.036
    1C        O  753   3.725   2.313   1.871
    1C        C  754   4.610   3.043   1.973
    1C        O  755   4.585   3.010   1.854
    1C        O  756   4.747   3.029   2.000
    1C        C  757   4.458   4.223   1.975
    1C        O  758   4.535   4.302   2.036
    1C        O  759   4.457   4.220   1.835
    1C        C  760   3.590   4.668   1.946
    1C        O  761   3.643   4.781   1.964
    1C        O  762   3.537   4.647   1.819
    1C        C  763   2.862   4.498   1.950
    1C        O  764   2.910   4.492   1.834
    1C        O  765   2.787   4.612   1.981
    1C        C  766   2.326   3.469   1.980
    1C        O  767   2.342   3.460   1.855
    1C        O  768   2.211   3.544   2.007
    1C        C  769   4.700   3.588   5.032
    1C        O  770   4.698   3.555   5.154
    1C        O  771   4.831   3.594   4.981
    1C        C  772   4.265   4.451   5.043
    1C        O  773   4.284   4.413   5.161
    1C        O  774   4.366   4.534   4.991
    1C        C  775   4.145   2.532   5.075
    1C        O  776   4.257   2.480   5.049
    1C        O  777   4.132   2.558   5.212
    1C        C  778   2.886   4.539   5.054
    1C        O  779   2.865   4.656   5.011
    1C        O  780   2.915   4.531   5.191
    1C        C  781   2.462   3.040   5.060
    1C        O  782   2.362   2.983   5.008
    1C        O  783   2.472   3.048   5.198
    1C        C  784   2.406   3.996   5.051
    1C        O  785   2.284   4.005   5.023
    1C        O  786   2.411   3.950   5.184
    1C        C  787   2.943   2.426   1.997
    1C        O  788   2.954   2.432   1.872
    1C        O  789   2.830   2.355   2.035
    1C        C  790   3.169   2.372   5.063
    1C        O  791   3.088   2.278   5.041
    1C        O  792   3.199   2.374   5.200
    1C        H  793   4.265   3.033   5.046
    1C        H  794   4.171   2.811   5.069
    1C        H  795   4.529   3.120   5.041
    1C        H  796   4.497   3.364   5.067
    1C        H  797   4.533   3.798   5.051
    1C        H  798   4.376   3.953   5.042
    1C        H  799   4.305   4.178   5.052
    1C        H  800   4.035   4.552   5.012
    1C        H  801   3.815   4.642   5.009
    1C        H  802   3.582   4.612   5.046
    1C        H  803   3.398   4.462   5.036
    1C        H  804   3.148   4.490   5.050
    1C        H  805   3.861   2.545   5.067
    1C        H  806   3.675   2.447   5.069
    1C        H  807   3.014   2.583   5.065
    1C        H  808   3.443   2.510   5.066
    1C        H  809   2.847   2.716   5.075
    1C        H  810   2.708   2.902   5.077
    1C        H  811   2.513   3.293   5.068
    1C        H  812   2.595   3.507   5.057
    1C        H  813   2.505   3.728   5.066
    1C        H  814   2.532   4.189   5.003
    1C        H  815   2.719   4.354   5.029
    1C        H  816   2.708   2.882   1.973
    1C        H  817   2.831   2.669   1.974
    1C        H  818   3.210   2.416   1.991
    1C        H  819   3.423   2.428   1.974
    1C        H  820   3.875   2.480   1.974
    1C        H  821   4.051   2.631   1.960
    1C        H  822   4.265   2.700   1.981
    1C        H  823   4.365   2.927   1.964
    1C        H  824   4.621   3.302   1.985
    1C        H  825   4.520   3.510   1.960
    1C        H  826   4.518   3.754   1.958
    1C        H  827   3.792   4.500   1.942
    1C        H  828   3.942   4.338   1.950
    1C        H  829   4.187   4.315   1.959
    1C        H  830   4.477   3.957   1.958
    1C        H  831   2.649   3.832   1.964
    1C        H  832   2.684   4.066   1.951
    1C        H  833   2.724   4.287   1.962
    1C        H  834   3.369   4.486   1.942
    1C        H  835   3.145   4.435   1.945
    1C        H  836   2.578   3.045   1.969
    1C        H  837   2.389   3.205   2.019
    1C        H  838   2.475   3.678   1.963
    2V3OU   H29  839   2.809   3.550   3.229
    2V3OU   C27  840   2.787   3.500   3.326
    2V3OU   H27  841   2.733   3.571   3.394
    2V3OU   H28  842   2.738   3.402   3.303
    2V3OU   O11  843   2.911   3.473   3.392
    2V3OU   C15  844   2.927   3.388   3.501
    2V3OU   C13  845   3.052   3.371   3.562
    2V3OU   C14  846   3.074   3.268   3.654
    2V3OU   C16  847   2.974   3.184   3.702
    2V3OU    H6  848   2.989   3.097   3.768
    2V3OU   C12  849   3.211   3.226   3.690
    2V3OU    O2  850   3.236   3.123   3.755
    2V3OU   C10  851   3.323   3.304   3.636
    2V3OU    C8  852   3.457   3.269   3.652
    2V3OU   O10  853   3.489   3.154   3.718
    2V3OU   H26  854   3.404   3.114   3.744
    2V3OU    C6  855   3.565   3.347   3.602
    2V3OU    C5  856   3.538   3.465   3.534
    2V3OU    C4  857   3.703   3.291   3.597
    2V3OU    H4  858   3.727   3.223   3.684
    2V3OU    H5  859   3.710   3.227   3.504
    2V3OU    C2  860   3.813   3.398   3.591
    2V3OU    O6  861   3.799   3.474   3.711
    2V3OU   H21  862   3.767   3.563   3.689
    2V3OU    C3  863   3.775   3.492   3.477
    2V3OU    H2  864   3.854   3.571   3.466
    2V3OU    H3  865   3.777   3.436   3.380
    2V3OU   C25  866   3.950   3.330   3.584
    2V3OU    O7  867   3.996   3.296   3.475
    2V3OU   C26  868   4.028   3.291   3.708
    2V3OU   H22  869   4.063   3.383   3.761
    2V3OU   H23  870   4.114   3.226   3.681
    2V3OU    O8  871   3.955   3.206   3.795
    2V3OU   H24  872   3.917   3.257   3.868
    2V3OU    C1  873   3.643   3.564   3.495
    2V3OU    H1  874   3.620   3.614   3.396
    2V3OU    O3  875   3.652   3.652   3.607
    2V3OU   C19  876   3.614   3.786   3.579
    2V3OU    H9  877   3.517   3.792   3.522
    2V3OU    O4  878   3.712   3.842   3.495
    2V3OU   C20  879   3.840   3.871   3.550
    2V3OU   H10  880   3.887   3.769   3.561
    2V3OU   C24  881   3.606   3.850   3.718
    2V3OU   H16  882   3.542   3.785   3.783
    2V3OU   H17  883   3.558   3.951   3.715
    2V3OU   C23  884   3.744   3.869   3.780
    2V3OU   H15  885   3.791   3.767   3.802
    2V3OU    N1  886   3.739   3.950   3.900
    2V3OU   H19  887   3.803   3.926   3.973
    2V3OU   H20  888   3.644   3.932   3.929
    2V3OU   C21  889   3.842   3.944   3.685
    2V3OU   H11  890   3.943   3.921   3.730
    2V3OU    O5  891   3.825   4.085   3.688
    2V3OU   H18  892   3.771   4.107   3.766
    2V3OU   C22  893   3.913   3.946   3.440
    2V3OU   H12  894   3.858   4.041   3.417
    2V3OU   H13  895   3.905   3.888   3.344
    2V3OU   H14  896   4.019   3.966   3.469
    2V3OU   C11  897   3.157   3.470   3.536
    2V3OU    O1  898   3.132   3.585   3.494
    2V3OU    C9  899   3.295   3.424   3.565
    2V3OU    C7  900   3.401   3.501   3.518
    2V3OU    O9  901   3.388   3.609   3.432
    2V3OU   H25  902   3.291   3.620   3.433
    2V3OU   C17  903   2.824   3.306   3.552
    2V3OU    H7  904   2.727   3.353   3.536
    2V3OU   C18  905   2.849   3.208   3.647
    2V3OU    H8  906   2.781   3.169   3.724
    3SOL     OW  907   2.916   5.299   6.025
    3SOL    HW1  908   2.950   5.382   6.070
    3SOL    HW2  909   2.821   5.314   5.996
    4SOL     OW  910   6.744   0.292   1.100
    4SOL    HW1  911   6.821   0.283   1.037
    4SOL    HW2  912   6.659   0.268   1.054
    5SOL     OW  913   4.478   2.397   2.151
    5SOL    HW1  914   4.541   2.472   2.175
    5SOL    HW2  915   4.401   2.398   2.214
    6SOL     OW  916   4.245   1.971   1.951
    6SOL    HW1  917   4.154   1.935   1.972
    6SOL    HW2  918   4.236   2.061   1.908
    7SOL     OW  919   0.857   4.287   3.677
    7SOL    HW1  920   0.901   4.209   3.721
    7SOL    HW2  921   0.867   4.368   3.735
    8SOL     OW  922   2.646   2.051   5.354
    8SOL    HW1  923   2.648   2.148   5.374
    8SOL    HW2  924   2.565   2.029   5.300
    9SOL     OW  925   5.495   1.661   5.736
    9SOL    HW1  926   5.511   1.722   5.814
    9SOL    HW2  927   5.420   1.697   5.681
   10SOL     OW  928   3.127   5.096   5.294
   10SOL    HW1  929   3.043   5.114   5.244
   10SOL    HW2  930   3.140   4.998   5.304
   11SOL     OW  931   2.253   1.695   5.827
   11SOL    HW1  932   2.274   1.711   5.924
   11SOL    HW2  933   2.257   1.782   5.778
   12SOL     OW  934   2.887   4.893   3.422
   12SOL    HW1  935   2.836   4.811   3.450
   12SOL    HW2  936   2.962   4.909   3.486
   13SOL     OW  937   3.085   6.549   4.361
   13SOL    HW1  938   3.178   6.524   4.332
   13SOL    HW2  939   3.072   6.647   4.347
   14SOL     OW  940   3.863   5.094   6.056
   14SOL    HW1  941   3.937   5.155   6.087
   14SOL    HW2  942   3.889   4.999   6.072
   15SOL     OW  943   0.867   6.595   1.129
   15SOL    HW1  944   0.830   6.682   1.163
   15SOL    HW2  945   0.818   6.567   1.047
   16SOL     OW  946   5.148   3.036   6.375
   16SOL    HW1  947   5.175   2.995   6.287
   16SOL    HW2  948   5.076   2.980   6.417
   17SOL     OW  949   5.833   6.839   6.853
   17SOL    HW1  950   5.830   6.747   6.814
   17SOL    HW2  951   5.928   6.870   6.857
   18SOL     OW  952   3.295   0.819   5.524
   18SOL    HW1  953   3.371   0.879   5.499
   18SOL    HW2  954   3.243   0.796   5.442
   19SOL     OW  955   0.077   1.970   2.546
   19SOL    HW1  956   0.127   1.953   2.461
   19SOL    HW2  957   6.997   1.954   2.531
   20SOL     OW  958   5.065   1.701   5.742
   20SOL    HW1  959   4.997   1.708   5.670
   20SOL    HW2  960   5.156   1.715   5.704
   21SOL     OW  961   2.703   0.918   2.038
   21SOL    HW1  962   2.624   0.908   1.977
   21SOL    HW2  963   2.730   0.829   2.073
   22SOL     OW  964   0.811   6.053   0.329
   22SOL    HW1  965   0.714   6.046   0.310
   22SOL    HW2  966   0.857   5.969   0.300
   23SOL     OW  967   4.206   5.307   2.041
   23SOL    HW1  968   4.234   5.221   1.997
   23SOL    HW2  969   4.239   5.308   2.135
   24SOL     OW  970   3.400   0.519   2.678
   24SOL    HW1  971   3.318   0.549   2.630
   24SOL    HW2  972   3.446   0.598   2.720
   25SOL     OW  973   2.662   0.042   3.561
   25SOL    HW1  974   2.703   0.021   3.473
   25SOL    HW2  975   2.563   0.052   3.550
   26SOL     OW  976   6.083   1.805   0.261
   26SOL    HW1  977   6.051   1.765   0.347
   26SOL    HW2  978   6.165   1.860   0.279
   27SOL     OW  979   1.731   1.207   2.344
   27SOL    HW1  980   1.736   1.306   2.333
   27SOL    HW2  981   1.709   1.185   2.439
   28SOL     OW  982   1.328   0.240   5.413
   28SOL    HW1  983   1.376   0.280   5.335
   28SOL    HW2  984   1.356   0.144   5.424
   29SOL     OW  985   6.571   1.844   1.619
   29SOL    HW1  986   6.556   1.938   1.589
   29SOL    HW2  987   6.550   1.781   1.544
   30SOL     OW  988   4.324   0.822   3.751
   30SOL    HW1  989   4.323   0.767   3.834
   30SOL    HW2  990   4.406   0.880   3.750
   31SOL     OW  991   0.258   2.201   6.644
   31SOL    HW1  992   0.182   2.137   6.645
   31SOL    HW2  993   0.330   2.167   6.705
   32SOL     OW  994   0.506   1.976   2.271
   32SOL    HW1  995   0.583   2.039   2.275
   32SOL    HW2  996   0.532   1.888   2.311
   33SOL     OW  997   0.860   4.458   5.179
   33SOL    HW1  998   0.880   4.524   5.251
   33SOL    HW2  999   0.899   4.369   5.203
   34SOL     OW 1000   2.818   6.638   4.889
   34SOL    HW1 1001   2.755   6.715   4.900
   34SOL    HW2 1002   2.855   6.612   4.978
   35SOL     OW 1003   4.748   2.012   5.541
   35SOL    HW1 1004   4.663   1.966   5.516
   35SOL    HW2 1005   4.731   2.074   5.618
   36SOL     OW 1006   4.246   2.116   4.340
   36SOL    HW1 1007   4.326   2.057   4.329
   36SOL    HW2 1008   4.275   2.211   4.349
   37SOL     OW 1009   1.849   1.451   5.686
   37SOL    HW1 1010   1.943   1.480   5.672
   37SOL    HW2 1011   1.846   1.381   5.758
   38SOL     OW 1012   1.545   4.735   2.210
   38SOL    HW1 1013   1.645   4.726   2.210
   38SOL    HW2 1014   1.520   4.832   2.204
   39SOL     OW 1015   6.198   4.693   6.293
   39SOL    HW1 1016   6.161   4.709   6.201
   39SOL    HW2 1017   6.225   4.597   6.301
   40SOL     OW 1018   3.990   2.344   0.626
   40SOL    HW1 1019   3.894   2.357   0.603
   40SOL    HW2 1020   4.031   2.432   0.647
   41SOL     OW 1021   6.607   3.452   3.587
   41SOL    HW1 1022   6.559   3.487   3.506
   41SOL    HW2 1023   6.703   3.437   3.564
   42SOL     OW 1024   3.154   5.788   4.569
   42SOL    HW1 1025   3.095   5.869   4.577
   42SOL    HW2 1026   3.245   5.810   4.604
   43SOL     OW 1027   4.367   0.640   4.885
   43SOL    HW1 1028   4.405   0.558   4.840
   43SOL    HW2 1029   4.388   0.636   4.983
   44SOL     OW 1030   5.650   2.349   5.244
   44SOL    HW1 1031   5.705   2.405   5.305
   44SOL    HW2 1032   5.593   2.408   5.187
   45SOL     OW 1033   4.455   5.127   1.360
   45SOL    HW1 1034   4.464   5.034   1.327
   45SOL    HW2 1035   4.374   5.169   1.319
   46SOL     OW 1036   0.546   2.370   3.753
   46SOL    HW1 1037   0.461   2.404   3.795
   46SOL    HW2 1038   0.526   2.338   3.660
   47SOL     OW 1039   4.282   4.203   0.667
   47SOL    HW1 1040   4.336   4.272   0.714
   47SOL    HW2 1041   4.315   4.112   0.691
   48SOL     OW 1042   6.414   2.894   6.972
   48SOL    HW1 1043   6.358   2.903   0.037
   48SOL    HW2 1044   6.433   2.797   6.955
   49SOL     OW 1045   6.275   3.086   2.053
   49SOL    HW1 1046   6.353   3.148   2.049
   49SOL    HW2 1047   6.290   3.010   1.990
   50SOL     OW 1048   6.163   1.058   5.510
   50SOL    HW1 1049   6.214   1.128   5.559
   50SOL    HW2 1050   6.148   1.088   5.415
   51SOL     OW 1051   2.307   6.576   2.984
   51SOL    HW1 1052   2.318   6.657   3.042
   51SOL    HW2 1053   2.386   6.516   2.994
   52SOL     OW 1054   5.698   3.176   1.673
   52SOL    HW1 1055   5.640   3.189   1.754
   52SOL    HW2 1056   5.662   3.232   1.598
   53SOL     OW 1057   4.739   1.484   3.854
   53SOL    HW1 1058   4.826   1.438   3.873
   53SOL    HW2 1059   4.732   1.505   3.757
   54SOL     OW 1060   5.904   6.167   1.299
   54SOL    HW1 1061   5.816   6.186   1.343
   54SOL    HW2 1062   5.960   6.111   1.360
   55SOL     OW 1063   2.356   2.731   5.001
   55SOL    HW1 1064   2.354   2.828   5.026
   55SOL    HW2 1065   2.265   2.691   5.016
   56SOL     OW 1066   0.609   0.824   1.202
   56SOL    HW1 1067   0.599   0.923   1.212
   56SOL    HW2 1068   0.553   0.793   1.125
   57SOL     OW 1069   4.517   1.432   1.638
   57SOL    HW1 1070   4.560   1.419   1.548
   57SOL    HW2 1071   4.534   1.525   1.670
   58SOL     OW 1072   1.091   6.646   5.736
   58SOL    HW1 1073   1.077   6.686   5.646
   58SOL    HW2 1074   1.132   6.713   5.798
   59SOL     OW 1075   7.000   3.711   6.273
   59SOL    HW1 1076   6.945   3.631   6.252
   59SOL    HW2 1077   0.072   3.682   6.308
   60SOL     OW 1078   5.376   2.754   4.330
   60SOL    HW1 1079   5.370   2.848   4.363
   60SOL    HW2 1080   5.329   2.746   4.242
   61SOL     OW 1081   6.950   1.452   4.504
   61SOL    HW1 1082   6.896   1.435   4.587
   61SOL    HW2 1083   0.019   1.495   4.529
   62SOL     OW 1084   2.046   1.260   1.764
   62SOL    HW1 1085   2.053   1.327   1.838
   62SOL    HW2 1086   2.138   1.231   1.737
   63SOL     OW 1087   3.816   0.202   4.559
   63SOL    HW1 1088   3.749   0.131   4.580
   63SOL    HW2 1089   3.780   0.291   4.588
   64SOL     OW 1090   6.960   2.697   6.340
   64SOL    HW1 1091   6.932   2.721   6.247
   64SOL    HW2 1092   0.039   2.673   6.341
   65SOL     OW 1093   0.416   4.983   6.038
   65SOL    HW1 1094   0.447   4.940   6.122
   65SOL    HW2 1095   0.329   5.030   6.054
   66SOL     OW 1096   3.096   0.654   3.244
   66SOL    HW1 1097   3.131   0.563   3.225
   66SOL    HW2 1098   2.996   0.654   3.238
   67SOL     OW 1099   0.212   2.902   6.199
   67SOL    HW1 1100   0.261   2.973   6.148
   67SOL    HW2 1101   0.114   2.920   6.198
   68SOL     OW 1102   0.221   1.689   0.040
   68SOL    HW1 1103   0.130   1.684   0.083
   68SOL    HW2 1104   0.265   1.775   0.066
   69SOL     OW 1105   1.554   2.666   5.616
   69SOL    HW1 1106   1.643   2.694   5.579
   69SOL    HW2 1107   1.493   2.745   5.618
   70SOL     OW 1108   5.226   4.977   4.271
   70SOL    HW1 1109   5.155   4.922   4.314
   70SOL    HW2 1110   5.303   4.919   4.246
   71SOL     OW 1111   4.625   2.034   3.463
   71SOL    HW1 1112   4.685   1.977   3.518
   71SOL    HW2 1113   4.575   2.098   3.522
   72SOL     OW 1114   0.997   1.410   3.233
   72SOL    HW1 1115   1.038   1.347   3.298
   72SOL    HW2 1116   0.950   1.483   3.283
   73SOL     OW 1117   3.287   0.281   0.854
   73SOL    HW1 1118   3.272   0.186   0.882
   73SOL    HW2 1119   3.210   0.311   0.797
   74SOL     OW 1120   3.769   1.393   0.091
   74SOL    HW1 1121   3.755   1.370   0.187
   74SOL    HW2 1122   3.688   1.366   0.038
   75SOL     OW 1123   4.594   0.939   1.574
   75SOL    HW1 1124   4.529   0.938   1.649
   75SOL    HW2 1125   4.648   1.023   1.576
   76SOL     OW 1126   3.161   3.238   0.124
   76SOL    HW1 1127   3.148   3.143   0.098
   76SOL    HW2 1128   3.172   3.294   0.042
   77SOL     OW 1129   0.923   0.470   3.422
   77SOL    HW1 1130   0.893   0.378   3.446
   77SOL    HW2 1131   0.966   0.467   3.331
   78SOL     OW 1132   4.834   1.515   1.023
   78SOL    HW1 1133   4.800   1.602   1.060
   78SOL    HW2 1134   4.901   1.533   0.951
   79SOL     OW 1135   2.941   6.084   2.042
   79SOL    HW1 1136   2.936   6.003   1.983
   79SOL    HW2 1137   2.938   6.166   1.985
   80SOL     OW 1138   4.204   1.960   3.911
   80SOL    HW1 1139   4.161   2.026   3.973
   80SOL    HW2 1140   4.134   1.921   3.851
   81SOL     OW 1141   1.677   6.879   1.868
   81SOL    HW1 1142   1.598   6.839   1.914
   81SOL    HW2 1143   1.747   6.809   1.856
   82SOL     OW 1144   5.998   5.846   1.192
   82SOL    HW1 1145   5.963   5.893   1.111
   82SOL    HW2 1146   6.094   5.871   1.207
   83SOL     OW 1147   0.402   0.773   6.963
   83SOL    HW1 1148   0.486   0.729   6.931
   83SOL    HW2 1149   0.425   0.861   7.006
   84SOL     OW 1150   6.098   3.463   2.949
   84SOL    HW1 1151   6.167   3.405   2.906
   84SOL    HW2 1152   6.133   3.556   2.956
   85SOL     OW 1153   1.538   1.495   3.087
   85SOL    HW1 1154   1.448   1.468   3.052
   85SOL    HW2 1155   1.570   1.426   3.153
   86SOL     OW 1156   6.973   1.411   0.014
   86SOL    HW1 1157   6.997   1.377   6.941
   86SOL    HW2 1158   6.875   1.396   0.031
   87SOL     OW 1159   4.385   4.295   1.053
   87SOL    HW1 1160   4.312   4.227   1.057
   87SOL    HW2 1161   4.429   4.301   1.143
   88SOL     OW 1162   3.240   2.434   6.209
   88SOL    HW1 1163   3.220   2.460   6.114
   88SOL    HW2 1164   3.336   2.407   6.216
   89SOL     OW 1165   3.339   2.758   6.941
   89SOL    HW1 1166   3.283   2.772   0.005
   89SOL    HW2 1167   3.282   2.768   6.859
   90SOL     OW 1168   3.530   5.266   2.723
   90SOL    HW1 1169   3.569   5.236   2.810
   90SOL    HW2 1170   3.602   5.269   2.653
   91SOL     OW 1171   6.338   3.851   5.937
   91SOL    HW1 1172   6.418   3.864   5.879
   91SOL    HW2 1173   6.361   3.880   6.030
   92SOL     OW 1174   4.543   4.822   0.940
   92SOL    HW1 1175   4.468   4.885   0.919
   92SOL    HW2 1176   4.540   4.745   0.877
   93SOL     OW 1177   3.206   2.978   6.825
   93SOL    HW1 1178   3.164   3.067   6.804
   93SOL    HW2 1179   3.181   2.912   6.753
   94SOL     OW 1180   2.991   5.681   6.451
   94SOL    HW1 1181   2.916   5.724   6.400
   94SOL    HW2 1182   3.078   5.706   6.409
   95SOL     OW 1183   1.988   1.373   2.868
   95SOL    HW1 1184   1.915   1.436   2.895
   95SOL    HW2 1185   2.077   1.416   2.887
   96SOL     OW 1186   4.562   5.230   5.376
   96SOL    HW1 1187   4.562   5.308   5.313
   96SOL    HW2 1188   4.653   5.187   5.376
   97SOL     OW 1189   2.080   3.346   5.799
   97SOL    HW1 1190   2.125   3.415   5.855
   97SOL    HW2 1191   2.048   3.271   5.857
   98SOL     OW 1192   1.194   2.164   0.258
   98SOL    HW1 1193   1.167   2.101   0.186
   98SOL    HW2 1194   1.140   2.248   0.251
   99SOL     OW 1195   4.098   3.665   1.950
   99SOL    HW1 1196   4.192   3.631   1.949
   99SOL    HW2 1197   4.097   3.762   1.975
  100SOL     OW 1198   0.025   0.058   3.970
  100SOL    HW1 1199   6.997   0.122   4.033
  100SOL    HW2 1200   0.069   0.110   3.897
  101SOL     OW 1201   0.378   4.849   1.975
  101SOL    HW1 1202   0.442   4.838   2.051
  101SOL    HW2 1203   0.299   4.901   2.005
  102SOL     OW 1204   3.408   5.577   2.297
  102SOL    HW1 1205   3.329   5.525   2.328
  102SOL    HW2 1206   3.382   5.633   2.217
  103SOL     OW 1207   2.054   2.587   2.424
  103SOL    HW1 1208   2.097   2.514   2.371
  103SOL    HW2 1209   2.073   2.675   2.381
  104SOL     OW 1210   1.513   5.859   2.910
  104SOL    HW1 1211   1.581   5.786   2.905
  104SOL    HW2 1212   1.431   5.825   2.957
  105SOL     OW 1213   6.065   1.051   6.322
  105SOL    HW1 1214   6.025   0.959   6.326
  105SOL    HW2 1215   6.055   1.087   6.229
  106SOL     OW 1216   3.821   5.945   3.767
  106SOL    HW1 1217   3.870   5.893   3.837
  106SOL    HW2 1218   3.735   5.898   3.746
  107SOL     OW 1219   0.399   0.676   0.396
  107SOL    HW1 1220   0.340   0.678   0.316
  107SOL    HW2 1221   0.414   0.770   0.429
  108SOL     OW 1222   3.895   6.545   6.549
  108SOL    HW1 1223   3.855   6.635   6.528
  108SOL    HW2 1224   3.845   6.503   6.625
  109SOL     OW 1225   2.735   1.092   2.238
  109SOL    HW1 1226   2.733   1.028   2.161
  109SOL    HW2 1227   2.751   1.185   2.203
  110SOL     OW 1228   3.197   5.356   4.450
  110SOL    HW1 1229   3.144   5.307   4.381
  110SOL    HW2 1230   3.143   5.363   4.534
  111SOL     OW 1231   1.927   1.169   4.018
  111SOL    HW1 1232   1.836   1.127   4.025
  111SOL    HW2 1233   1.927   1.233   3.941
  112SOL     OW 1234   4.237   6.010   0.098
  112SOL    HW1 1235   4.309   6.076   0.120
  112SOL    HW2 1236   4.150   6.059   0.089
  113SOL     OW 1237   0.960   5.997   3.239
  113SOL    HW1 1238   0.979   5.917   3.296
  113SOL    HW2 1239   0.886   5.976   3.175
  114SOL     OW 1240   1.555   5.906   1.578
  114SOL    HW1 1241   1.604   5.992   1.594
  114SOL    HW2 1242   1.487   5.919   1.506
  115SOL     OW 1243   5.424   6.771   2.855
  115SOL    HW1 1244   5.384   6.684   2.827
  115SOL    HW2 1245   5.487   6.803   2.784
  116SOL     OW 1246   0.522   5.672   1.284
  116SOL    HW1 1247   0.565   5.761   1.270
  116SOL    HW2 1248   0.438   5.683   1.337
  117SOL     OW 1249   0.494   0.687   0.697
  117SOL    HW1 1250   0.413   0.661   0.643
  117SOL    HW2 1251   0.538   0.605   0.732
  118SOL     OW 1252   1.272   1.957   2.486
  118SOL    HW1 1253   1.228   1.992   2.403
  118SOL    HW2 1254   1.260   1.858   2.491
  119SOL     OW 1255   0.214   0.426   0.081
  119SOL    HW1 1256   0.133   0.427   0.022
  119SOL    HW2 1257   0.218   0.340   0.131
  120SOL     OW 1258   5.308   0.702   4.347
  120SOL    HW1 1259   5.394   0.742   4.378
  120SOL    HW2 1260   5.233   0.735   4.405
  121SOL     OW 1261   1.481   3.897   0.290
  121SOL    HW1 1262   1.492   3.957   0.211
  121SOL    HW2 1263   1.550   3.919   0.358
  122SOL     OW 1264   1.480   3.156   0.597
  122SOL    HW1 1265   1.411   3.208   0.547
  122SOL    HW2 1266   1.571   3.185   0.567
  123SOL     OW 1267   1.113   1.312   1.729
  123SOL    HW1 1268   1.202   1.287   1.691
  123SOL    HW2 1269   1.059   1.360   1.660
  124SOL     OW 1270   3.248   2.515   1.084
  124SOL    HW1 1271   3.216   2.513   0.989
  124SOL    HW2 1272   3.332   2.569   1.089
  125SOL     OW 1273   4.091   3.269   0.746
  125SOL    HW1 1274   4.022   3.303   0.682
  125SOL    HW2 1275   4.181   3.278   0.705
  126SOL     OW 1276   3.419   2.859   2.544
  126SOL    HW1 1277   3.378   2.851   2.635
  126SOL    HW2 1278   3.516   2.838   2.549
  127SOL     OW 1279   7.007   5.236   6.458
  127SOL    HW1 1280   0.075   5.274   6.425
  127SOL    HW2 1281   6.946   5.217   6.381
  128SOL     OW 1282   4.807   3.103   1.473
  128SOL    HW1 1283   4.778   3.190   1.434
  128SOL    HW2 1284   4.906   3.105   1.489
  129SOL     OW 1285   2.911   3.113   0.284
  129SOL    HW1 1286   2.890   3.017   0.300
  129SOL    HW2 1287   3.000   3.121   0.239
  130SOL     OW 1288   6.988   0.198   4.314
  130SOL    HW1 1289   6.980   0.293   4.287
  130SOL    HW2 1290   0.058   0.161   4.282
  131SOL     OW 1291   5.308   0.545   3.755
  131SOL    HW1 1292   5.366   0.608   3.806
  131SOL    HW2 1293   5.354   0.517   3.671
  132SOL     OW 1294   2.980   2.441   1.471
  132SOL    HW1 1295   2.916   2.462   1.545
  132SOL    HW2 1296   3.049   2.377   1.503
  133SOL     OW 1297   5.478   1.141   3.535
  133SOL    HW1 1298   5.386   1.105   3.526
  133SOL    HW2 1299   5.523   1.097   3.613
  134SOL     OW 1300   0.076   0.664   3.040
  134SOL    HW1 1301   0.005   0.735   3.042
  134SOL    HW2 1302   0.165   0.707   3.027
  135SOL     OW 1303   4.912   3.925   4.278
  135SOL    HW1 1304   4.963   3.841   4.264
  135SOL    HW2 1305   4.856   3.918   4.360
  136SOL     OW 1306   1.762   5.489   5.035
  136SOL    HW1 1307   1.827   5.521   5.104
  136SOL    HW2 1308   1.681   5.547   5.037
  137SOL     OW 1309   4.298   1.594   3.728
  137SOL    HW1 1310   4.310   1.693   3.724
  137SOL    HW2 1311   4.378   1.552   3.771
  138SOL     OW 1312   0.933   3.963   3.136
  138SOL    HW1 1313   0.950   4.055   3.102
  138SOL    HW2 1314   0.905   3.904   3.060
  139SOL     OW 1315   1.959   6.231   5.443
  139SOL    HW1 1316   1.900   6.182   5.379
  139SOL    HW2 1317   1.966   6.327   5.417
  140SOL     OW 1318   1.296   6.132   3.829
  140SOL    HW1 1319   1.305   6.091   3.919
  140SOL    HW2 1320   1.204   6.168   3.817
  141SOL     OW 1321   6.756   2.674   5.408
  141SOL    HW1 1322   6.664   2.668   5.447
  141SOL    HW2 1323   6.822   2.639   5.473
  142SOL     OW 1324   2.114   3.479   2.258
  142SOL    HW1 1325   2.154   3.499   2.168
  142SOL    HW2 1326   2.112   3.380   2.273
  143SOL     OW 1327   5.493   5.407   1.070
  143SOL    HW1 1328   5.436   5.371   1.144
  143SOL    HW2 1329   5.588   5.382   1.086
  144SOL     OW 1330   2.290   4.540   5.427
  144SOL    HW1 1331   2.258   4.517   5.519
  144SOL    HW2 1332   2.215   4.527   5.361
  145SOL     OW 1333   2.712   5.425   1.280
  145SOL    HW1 1334   2.674   5.370   1.206
  145SOL    HW2 1335   2.688   5.383   1.368
  146SOL     OW 1336   5.405   0.273   6.896
  146SOL    HW1 1337   5.416   0.253   6.799
  146SOL    HW2 1338   5.343   0.206   6.937
  147SOL     OW 1339   5.218   0.911   5.786
  147SOL    HW1 1340   5.181   0.819   5.777
  147SOL    HW2 1341   5.183   0.953   5.870
  148SOL     OW 1342   0.538   5.365   1.333
  148SOL    HW1 1343   0.574   5.345   1.424
  148SOL    HW2 1344   0.574   5.454   1.302
  149SOL     OW 1345   3.370   2.089   4.946
  149SOL    HW1 1346   3.446   2.080   4.880
  149SOL    HW2 1347   3.283   2.087   4.897
  150SOL     OW 1348   5.185   0.063   6.681
  150SOL    HW1 1349   5.160   0.160   6.685
  150SOL    HW2 1350   5.249   0.042   6.754
  151SOL     OW 1351   3.613   0.686   1.845
  151SOL    HW1 1352   3.591   0.703   1.942
  151SOL    HW2 1353   3.711   0.666   1.836
  152SOL     OW 1354   7.011   1.422   0.381
  152SOL    HW1 1355   6.947   1.363   0.331
  152SOL    HW2 1356   6.969   1.512   0.395
  153SOL     OW 1357   2.929   6.248   3.096
  153SOL    HW1 1358   2.957   6.230   3.190
  153SOL    HW2 1359   3.003   6.295   3.048
  154SOL     OW 1360   0.295   3.579   1.066
  154SOL    HW1 1361   0.261   3.530   1.147
  154SOL    HW2 1362   0.252   3.540   0.984
  155SOL     OW 1363   0.796   1.074   3.146
  155SOL    HW1 1364   0.878   1.109   3.100
  155SOL    HW2 1365   0.812   0.979   3.173
  156SOL     OW 1366   6.715   0.047   6.795
  156SOL    HW1 1367   6.713   0.143   6.821
  156SOL    HW2 1368   6.670   0.036   6.706
  157SOL     OW 1369   5.535   3.383   0.512
  157SOL    HW1 1370   5.629   3.347   0.513
  157SOL    HW2 1371   5.499   3.379   0.419
  158SOL     OW 1372   1.906   3.020   1.035
  158SOL    HW1 1373   1.822   3.002   1.087
  158SOL    HW2 1374   1.952   3.100   1.073
  159SOL     OW 1375   4.103   4.866   1.444
  159SOL    HW1 1376   4.133   4.901   1.533
  159SOL    HW2 1377   4.183   4.853   1.385
  160SOL     OW 1378   5.848   0.326   0.908
  160SOL    HW1 1379   5.758   0.293   0.879
  160SOL    HW2 1380   5.864   0.417   0.869
  161SOL     OW 1381   1.311   0.287   2.736
  161SOL    HW1 1382   1.309   0.224   2.658
  161SOL    HW2 1383   1.295   0.380   2.705
  162SOL     OW 1384   3.621   5.720   6.685
  162SOL    HW1 1385   3.699   5.782   6.693
  162SOL    HW2 1386   3.650   5.627   6.705
  163SOL     OW 1387   0.141   5.939   2.475
  163SOL    HW1 1388   0.089   5.984   2.402
  163SOL    HW2 1389   0.238   5.942   2.452
  164SOL     OW 1390   0.837   3.708   2.977
  164SOL    HW1 1391   0.790   3.710   2.889
  164SOL    HW2 1392   0.935   3.714   2.963
  165SOL     OW 1393   4.832   5.086   6.727
  165SOL    HW1 1394   4.828   5.181   6.758
  165SOL    HW2 1395   4.860   5.084   6.631
  166SOL     OW 1396   0.337   3.700   2.057
  166SOL    HW1 1397   0.347   3.602   2.075
  166SOL    HW2 1398   0.341   3.751   2.143
  167SOL     OW 1399   6.129   1.710   6.260
  167SOL    HW1 1400   6.181   1.724   6.345
  167SOL    HW2 1401   6.149   1.620   6.223
  168SOL     OW 1402   4.264   2.183   0.808
  168SOL    HW1 1403   4.285   2.111   0.874
  168SOL    HW2 1404   4.335   2.185   0.737
  169SOL     OW 1405   5.686   2.799   0.016
  169SOL    HW1 1406   5.676   2.812   6.935
  169SOL    HW2 1407   5.714   2.705   0.034
  170SOL     OW 1408   6.962   5.614   2.212
  170SOL    HW1 1409   6.985   5.704   2.177
  170SOL    HW2 1410   6.936   5.554   2.136
  171SOL     OW 1411   2.535   4.511   0.379
  171SOL    HW1 1412   2.616   4.466   0.342
  171SOL    HW2 1413   2.558   4.554   0.467
  172SOL     OW 1414   5.926   1.745   3.182
  172SOL    HW1 1415   6.021   1.776   3.187
  172SOL    HW2 1416   5.888   1.768   3.093
  173SOL     OW 1417   5.818   1.203   4.641
  173SOL    HW1 1418   5.811   1.300   4.662
  173SOL    HW2 1419   5.733   1.157   4.667
  174SOL     OW 1420   4.449   5.300   3.343
  174SOL    HW1 1421   4.421   5.380   3.396
  174SOL    HW2 1422   4.369   5.244   3.322
  175SOL     OW 1423   3.789   0.742   0.782
  175SOL    HW1 1424   3.800   0.722   0.685
  175SOL    HW2 1425   3.787   0.657   0.835
  176SOL     OW 1426   5.511   4.878   2.285
  176SOL    HW1 1427   5.565   4.899   2.366
  176SOL    HW2 1428   5.505   4.779   2.273
  177SOL     OW 1429   5.147   3.264   4.195
  177SOL    HW1 1430   5.144   3.342   4.258
  177SOL    HW2 1431   5.240   3.226   4.194
  178SOL     OW 1432   2.883   4.842   5.433
  178SOL    HW1 1433   2.871   4.853   5.531
  178SOL    HW2 1434   2.971   4.797   5.415
  179SOL     OW 1435   4.139   0.473   6.773
  179SOL    HW1 1436   4.108   0.545   6.834
  179SOL    HW2 1437   4.074   0.398   6.774
  180SOL     OW 1438   2.653   0.358   0.606
  180SOL    HW1 1439   2.574   0.301   0.583
  180SOL    HW2 1440   2.632   0.454   0.587
  181SOL     OW 1441   2.774   3.622   5.751
  181SOL    HW1 1442   2.745   3.643   5.844
  181SOL    HW2 1443   2.705   3.655   5.687
  182SOL     OW 1444   4.154   2.244   6.285
  182SOL    HW1 1445   4.186   2.245   6.190
  182SOL    HW2 1446   4.233   2.237   6.346
  183SOL     OW 1447   3.490   2.158   3.784
  183SOL    HW1 1448   3.464   2.066   3.810
  183SOL    HW2 1449   3.578   2.156   3.736
  184SOL     OW 1450   0.160   6.463   3.208
  184SOL    HW1 1451   0.135   6.413   3.126
  184SOL    HW2 1452   0.204   6.401   3.273
  185SOL     OW 1453   1.062   1.468   4.896
  185SOL    HW1 1454   1.089   1.418   4.978
  185SOL    HW2 1455   1.006   1.409   4.838
  186SOL     OW 1456   6.105   1.039   4.256
  186SOL    HW1 1457   6.064   0.982   4.328
  186SOL    HW2 1458   6.082   1.001   4.166
  187SOL     OW 1459   6.020   6.766   2.121
  187SOL    HW1 1460   5.969   6.802   2.042
  187SOL    HW2 1461   6.055   6.675   2.099
  188SOL     OW 1462   0.555   3.169   4.119
  188SOL    HW1 1463   0.585   3.138   4.209
  188SOL    HW2 1464   0.552   3.091   4.056
  189SOL     OW 1465   2.031   5.302   0.062
  189SOL    HW1 1466   2.004   5.343   0.150
  189SOL    HW2 1467   1.951   5.297   0.002
  190SOL     OW 1468   6.238   4.400   5.554
  190SOL    HW1 1469   6.255   4.309   5.591
  190SOL    HW2 1470   6.325   4.439   5.523
  191SOL     OW 1471   6.627   1.518   6.371
  191SOL    HW1 1472   6.534   1.487   6.395
  191SOL    HW2 1473   6.691   1.442   6.382
  192SOL     OW 1474   0.266   4.462   1.613
  192SOL    HW1 1475   0.345   4.523   1.623
  192SOL    HW2 1476   0.285   4.375   1.658
  193SOL     OW 1477   5.057   3.661   5.435
  193SOL    HW1 1478   5.148   3.664   5.475
  193SOL    HW2 1479   5.025   3.566   5.430
  194SOL     OW 1480   3.834   6.542   3.510
  194SOL    HW1 1481   3.747   6.552   3.558
  194SOL    HW2 1482   3.862   6.631   3.474
  195SOL     OW 1483   1.643   1.115   4.080
  195SOL    HW1 1484   1.637   1.097   3.982
  195SOL    HW2 1485   1.582   1.190   4.104
  196SOL     OW 1486   2.745   0.234   6.524
  196SOL    HW1 1487   2.741   0.190   6.614
  196SOL    HW2 1488   2.814   0.306   6.525
  197SOL     OW 1489   2.878   0.378   0.445
  197SOL    HW1 1490   2.892   0.477   0.455
  197SOL    HW2 1491   2.808   0.348   0.510
  198SOL     OW 1492   4.495   6.833   2.322
  198SOL    HW1 1493   4.403   6.862   2.350
  198SOL    HW2 1494   4.498   6.823   2.223
  199SOL     OW 1495   6.648   1.254   3.248
  199SOL    HW1 1496   6.738   1.283   3.216
  199SOL    HW2 1497   6.597   1.333   3.281
  200SOL     OW 1498   0.871   3.847   2.019
  200SOL    HW1 1499   0.899   3.885   2.107
  200SOL    HW2 1500   0.805   3.908   1.975
  201SOL     OW 1501   4.934   6.917   6.433
  201SOL    HW1 1502   5.020   6.865   6.436
  201SOL    HW2 1503   4.896   6.923   6.526
  202SOL     OW 1504   5.372   0.096   5.945
  202SOL    HW1 1505   5.416   0.006   5.948
  202SOL    HW2 1506   5.347   0.124   6.038
  203SOL     OW 1507   4.727   2.003   4.862
  203SOL    HW1 1508   4.636   2.017   4.901
  203SOL    HW2 1509   4.726   1.924   4.800
  204SOL     OW 1510   0.007   0.859   6.576
  204SOL    HW1 1511   0.057   0.935   6.535
  204SOL    HW2 1512   0.062   0.818   6.649
  205SOL     OW 1513   0.748   0.885   2.458
  205SOL    HW1 1514   0.771   0.963   2.399
  205SOL    HW2 1515   0.829   0.859   2.512
  206SOL     OW 1516   0.050   4.791   2.435
  206SOL    HW1 1517   7.010   4.815   2.513
  206SOL    HW2 1518   0.129   4.852   2.432
  207SOL     OW 1519   4.050   0.623   4.051
  207SOL    HW1 1520   4.014   0.535   4.018
  207SOL    HW2 1521   4.149   0.626   4.038
  208SOL     OW 1522   5.306   3.719   5.585
  208SOL    HW1 1523   5.296   3.658   5.665
  208SOL    HW2 1524   5.271   3.809   5.608
  209SOL     OW 1525   1.108   4.995   4.759
  209SOL    HW1 1526   1.069   4.997   4.851
  209SOL    HW2 1527   1.052   5.051   4.697
  210SOL     OW 1528   4.427   1.893   1.670
  210SOL    HW1 1529   4.351   1.843   1.711
  210SOL    HW2 1530   4.407   1.991   1.673
  211SOL     OW 1531   1.297   6.210   3.478
  211SOL    HW1 1532   1.351   6.186   3.559
  211SOL    HW2 1533   1.344   6.282   3.426
  212SOL     OW 1534   2.236   4.590   2.299
  212SOL    HW1 1535   2.224   4.685   2.271
  212SOL    HW2 1536   2.221   4.530   2.221
  213SOL     OW 1537   3.393   0.655   5.889
  213SOL    HW1 1538   3.319   0.702   5.937
  213SOL    HW2 1539   3.441   0.720   5.831
  214SOL     OW 1540   4.164   5.601   2.118
  214SOL    HW1 1541   4.184   5.598   2.216
  214SOL    HW2 1542   4.150   5.507   2.085
  215SOL     OW 1543   3.011   4.066   1.857
  215SOL    HW1 1544   3.021   4.030   1.949
  215SOL    HW2 1545   2.914   4.068   1.832
  216SOL     OW 1546   1.658   6.241   4.923
  216SOL    HW1 1547   1.668   6.168   4.855
  216SOL    HW2 1548   1.576   6.225   4.978
  217SOL     OW 1549   2.494   2.520   3.375
  217SOL    HW1 1550   2.566   2.481   3.318
  217SOL    HW2 1551   2.445   2.590   3.323
  218SOL     OW 1552   0.244   3.310   4.543
  218SOL    HW1 1553   0.250   3.252   4.462
  218SOL    HW2 1554   0.193   3.393   4.520
  219SOL     OW 1555   3.223   6.511   6.214
  219SOL    HW1 1556   3.297   6.444   6.217
  219SOL    HW2 1557   3.137   6.465   6.192
  220SOL     OW 1558   3.694   6.776   6.538
  220SOL    HW1 1559   3.615   6.718   6.518
  220SOL    HW2 1560   3.713   6.833   6.458
  221SOL     OW 1561   0.178   3.803   2.512
  221SOL    HW1 1562   0.125   3.884   2.537
  221SOL    HW2 1563   0.192   3.746   2.593
  222SOL     OW 1564   2.237   5.131   5.692
  222SOL    HW1 1565   2.177   5.136   5.612
  222SOL    HW2 1566   2.320   5.183   5.675
  223SOL     OW 1567   6.031   3.573   0.959
  223SOL    HW1 1568   6.018   3.547   1.055
  223SOL    HW2 1569   6.045   3.671   0.952
  224SOL     OW 1570   2.744   1.453   3.817
  224SOL    HW1 1571   2.724   1.358   3.796
  224SOL    HW2 1572   2.667   1.511   3.790
  225SOL     OW 1573   5.497   1.194   5.809
  225SOL    HW1 1574   5.531   1.100   5.806
  225SOL    HW2 1575   5.535   1.245   5.732
  226SOL     OW 1576   0.998   0.160   5.689
  226SOL    HW1 1577   0.939   0.088   5.725
  226SOL    HW2 1578   0.954   0.249   5.703
  227SOL     OW 1579   1.315   3.950   2.213
  227SOL    HW1 1580   1.382   3.904   2.156
  227SOL    HW2 1581   1.320   4.049   2.199
  228SOL     OW 1582   3.231   6.391   4.010
  228SOL    HW1 1583   3.266   6.302   4.040
  228SOL    HW2 1584   3.237   6.456   4.085
  229SOL     OW 1585   5.095   6.842   0.449
  229SOL    HW1 1586   5.050   6.780   0.513
  229SOL    HW2 1587   5.027   6.885   0.390
  230SOL     OW 1588   2.473   4.997   2.460
  230SOL    HW1 1589   2.528   5.077   2.439
  230SOL    HW2 1590   2.495   4.964   2.552
  231SOL     OW 1591   6.586   2.063   6.244
  231SOL    HW1 1592   6.591   1.964   6.234
  231SOL    HW2 1593   6.538   2.087   6.328
  232SOL     OW 1594   1.583   3.952   6.182
  232SOL    HW1 1595   1.507   3.949   6.118
  232SOL    HW2 1596   1.639   4.034   6.163
  233SOL     OW 1597   2.285   1.112   3.844
  233SOL    HW1 1598   2.311   1.200   3.884
  233SOL    HW2 1599   2.367   1.063   3.815
  234SOL     OW 1600   2.974   5.996   5.441
  234SOL    HW1 1601   3.030   6.078   5.431
  234SOL    HW2 1602   3.034   5.917   5.458
  235SOL     OW 1603   3.168   3.918   2.382
  235SOL    HW1 1604   3.099   3.898   2.451
  235SOL    HW2 1605   3.125   3.917   2.291
  236SOL     OW 1606   5.986   2.480   6.770
  236SOL    HW1 1607   5.933   2.505   6.689
  236SOL    HW2 1608   6.068   2.537   6.774
  237SOL     OW 1609   6.540   6.422   0.765
  237SOL    HW1 1610   6.534   6.519   0.787
  237SOL    HW2 1611   6.563   6.370   0.847
  238SOL     OW 1612   5.746   1.926   6.779
  238SOL    HW1 1613   5.675   1.905   6.711
  238SOL    HW2 1614   5.717   2.005   6.834
  239SOL     OW 1615   6.927   5.803   0.041
  239SOL    HW1 1616   6.927   5.757   6.970
  239SOL    HW2 1617   6.970   5.743   0.109
  240SOL     OW 1618   0.553   2.586   6.177
  240SOL    HW1 1619   0.456   2.600   6.157
  240SOL    HW2 1620   0.578   2.638   6.259
  241SOL     OW 1621   1.437   0.317   4.353
  241SOL    HW1 1622   1.441   0.267   4.266
  241SOL    HW2 1623   1.388   0.403   4.339
  242SOL     OW 1624   2.332   2.856   6.199
  242SOL    HW1 1625   2.404   2.839   6.266
  242SOL    HW2 1626   2.245   2.870   6.246
  243SOL     OW 1627   5.422   0.248   6.620
  243SOL    HW1 1628   5.372   0.327   6.584
  243SOL    HW2 1629   5.395   0.166   6.569
  244SOL     OW 1630   4.888   3.091   4.393
  244SOL    HW1 1631   4.970   3.034   4.399
  244SOL    HW2 1632   4.901   3.174   4.448
  245SOL     OW 1633   0.088   2.451   5.068
  245SOL    HW1 1634   0.185   2.473   5.084
  245SOL    HW2 1635   0.041   2.447   5.156
  246SOL     OW 1636   5.283   3.270   3.222
  246SOL    HW1 1637   5.234   3.213   3.288
  246SOL    HW2 1638   5.234   3.355   3.207
  247SOL     OW 1639   2.302   1.360   1.867
  247SOL    HW1 1640   2.281   1.415   1.948
  247SOL    HW2 1641   2.339   1.420   1.796
  248SOL     OW 1642   4.078   1.673   4.464
  248SOL    HW1 1643   4.161   1.727   4.476
  248SOL    HW2 1644   3.999   1.723   4.500
  249SOL     OW 1645   4.657   0.019   5.621
  249SOL    HW1 1646   4.651   7.009   5.717
  249SOL    HW2 1647   4.691   6.959   5.566
  250SOL     OW 1648   4.875   1.941   6.158
  250SOL    HW1 1649   4.871   1.959   6.256
  250SOL    HW2 1650   4.970   1.942   6.128
  251SOL     OW 1651   4.356   4.942   6.842
  251SOL    HW1 1652   4.345   5.001   6.761
  251SOL    HW2 1653   4.447   4.901   6.841
  252SOL     OW 1654   6.973   0.712   7.017
  252SOL    HW1 1655   0.000   0.643   6.959
  252SOL    HW2 1656   6.967   0.678   0.094
  253SOL     OW 1657   1.922   4.026   0.194
  253SOL    HW1 1658   1.859   3.954   0.223
  253SOL    HW2 1659   1.913   4.040   0.096
  254SOL     OW 1660   6.392   2.850   3.867
  254SOL    HW1 1661   6.479   2.897   3.853
  254SOL    HW2 1662   6.355   2.822   3.778
  255SOL     OW 1663   1.603   3.256   4.195
  255SOL    HW1 1664   1.562   3.168   4.171
  255SOL    HW2 1665   1.621   3.308   4.112
  256SOL     OW 1666   6.138   4.311   0.064
  256SOL    HW1 1667   6.157   4.307   0.162
  256SOL    HW2 1668   6.129   4.407   0.036
  257SOL     OW 1669   3.776   5.675   4.550
  257SOL    HW1 1670   3.752   5.740   4.478
  257SOL    HW2 1671   3.875   5.665   4.554
  258SOL     OW 1672   5.525   4.861   4.573
  258SOL    HW1 1673   5.603   4.808   4.539
  258SOL    HW2 1674   5.453   4.798   4.603
  259SOL     OW 1675   2.124   3.114   2.154
  259SOL    HW1 1676   2.153   3.027   2.115
  259SOL    HW2 1677   2.049   3.152   2.100
  260SOL     OW 1678   4.738   1.189   1.534
  260SOL    HW1 1679   4.676   1.206   1.610
  260SOL    HW2 1680   4.765   1.276   1.493
  261SOL     OW 1681   6.362   4.148   1.010
  261SOL    HW1 1682   6.404   4.099   1.086
  261SOL    HW2 1683   6.273   4.184   1.039
  262SOL     OW 1684   0.669   3.684   1.252
  262SOL    HW1 1685   0.676   3.784   1.251
  262SOL    HW2 1686   0.583   3.656   1.296
  263SOL     OW 1687   0.582   1.224   3.665
  263SOL    HW1 1688   0.570   1.131   3.701
  263SOL    HW2 1689   0.617   1.283   3.737
  264SOL     OW 1690   5.336   4.173   5.063
  264SOL    HW1 1691   5.356   4.174   4.965
  264SOL    HW2 1692   5.239   4.153   5.077
  265SOL     OW 1693   4.366   4.615   2.964
  265SOL    HW1 1694   4.385   4.566   3.049
  265SOL    HW2 1695   4.375   4.552   2.887
  266SOL     OW 1696   3.350   3.239   5.545
  266SOL    HW1 1697   3.310   3.301   5.477
  266SOL    HW2 1698   3.401   3.292   5.613
  267SOL     OW 1699   6.574   2.793   6.286
  267SOL    HW1 1700   6.500   2.835   6.233
  267SOL    HW2 1701   6.599   2.852   6.363
  268SOL     OW 1702   4.729   6.502   5.384
  268SOL    HW1 1703   4.634   6.526   5.403
  268SOL    HW2 1704   4.749   6.413   5.424
  269SOL     OW 1705   1.864   1.948   0.281
  269SOL    HW1 1706   1.827   1.861   0.250
  269SOL    HW2 1707   1.819   1.975   0.367
  270SOL     OW 1708   0.211   0.209   2.013
  270SOL    HW1 1709   0.138   0.256   1.964
  270SOL    HW2 1710   0.188   0.112   2.023
  271SOL     OW 1711   2.399   2.558   0.588
  271SOL    HW1 1712   2.494   2.589   0.588
  271SOL    HW2 1713   2.368   2.545   0.682
  272SOL     OW 1714   3.061   5.626   4.071
  272SOL    HW1 1715   3.069   5.653   4.167
  272SOL    HW2 1716   3.068   5.527   4.063
  273SOL     OW 1717   1.709   5.239   5.249
  273SOL    HW1 1718   1.710   5.294   5.166
  273SOL    HW2 1719   1.783   5.171   5.244
  274SOL     OW 1720   5.290   2.184   3.904
  274SOL    HW1 1721   5.276   2.089   3.932
  274SOL    HW2 1722   5.247   2.245   3.971
  275SOL     OW 1723   6.960   5.897   6.392
  275SOL    HW1 1724   6.973   5.810   6.344
  275SOL    HW2 1725   6.863   5.916   6.402
  276SOL     OW 1726   6.927   4.975   3.388
  276SOL    HW1 1727   7.004   5.019   3.434
  276SOL    HW2 1728   6.955   4.949   3.295
  277SOL     OW 1729   2.658   1.639   0.429
  277SOL    HW1 1730   2.571   1.682   0.452
  277SOL    HW2 1731   2.730   1.708   0.428
  278SOL     OW 1732   6.580   3.724   1.753
  278SOL    HW1 1733   6.630   3.764   1.829
  278SOL    HW2 1734   6.543   3.797   1.695
  279SOL     OW 1735   6.040   2.989   4.885
  279SOL    HW1 1736   6.132   3.013   4.854
  279SOL    HW2 1737   6.046   2.919   4.956
  280SOL     OW 1738   3.967   6.805   2.583
  280SOL    HW1 1739   4.020   6.890   2.574
  280SOL    HW2 1740   3.955   6.764   2.493
  281SOL     OW 1741   2.585   4.665   2.361
  281SOL    HW1 1742   2.578   4.729   2.438
  281SOL    HW2 1743   2.679   4.664   2.327
  282SOL     OW 1744   4.003   2.341   5.325
  282SOL    HW1 1745   4.048   2.415   5.275
  282SOL    HW2 1746   3.970   2.272   5.261
  283SOL     OW 1747   6.453   1.121   5.752
  283SOL    HW1 1748   6.459   1.134   5.653
  283SOL    HW2 1749   6.520   1.053   5.781
  284SOL     OW 1750   0.377   4.442   4.819
  284SOL    HW1 1751   0.337   4.392   4.743
  284SOL    HW2 1752   0.340   4.408   4.905
  285SOL     OW 1753   5.181   5.691   6.798
  285SOL    HW1 1754   5.191   5.591   6.800
  285SOL    HW2 1755   5.084   5.715   6.809
  286SOL     OW 1756   4.163   4.870   5.260
  286SOL    HW1 1757   4.114   4.957   5.267
  286SOL    HW2 1758   4.107   4.797   5.298
  287SOL     OW 1759   0.337   5.123   6.538
  287SOL    HW1 1760   0.301   5.133   6.631
  287SOL    HW2 1761   0.261   5.126   6.473
  288SOL     OW 1762   3.842   1.536   0.566
  288SOL    HW1 1763   3.857   1.623   0.517
  288SOL    HW2 1764   3.809   1.555   0.658
  289SOL     OW 1765   0.283   4.855   4.778
  289SOL    HW1 1766   0.253   4.879   4.686
  289SOL    HW2 1767   0.244   4.920   4.843
  290SOL     OW 1768   4.909   1.880   3.320
  290SOL    HW1 1769   4.964   1.947   3.269
  290SOL    HW2 1770   4.929   1.889   3.417
  291SOL     OW 1771   3.831   1.218   4.160
  291SOL    HW1 1772   3.845   1.144   4.095
  291SOL    HW2 1773   3.739   1.256   4.148
  292SOL     OW 1774   4.391   1.868   3.708
  292SOL    HW1 1775   4.352   1.945   3.657
  292SOL    HW2 1776   4.392   1.889   3.805
  293SOL     OW 1777   3.847   6.091   1.514
  293SOL    HW1 1778   3.918   6.154   1.548
  293SOL    HW2 1779   3.885   5.999   1.508
  294SOL     OW 1780   6.548   5.488   6.812
  294SOL    HW1 1781   6.616   5.521   6.878
  294SOL    HW2 1782   6.468   5.454   6.862
  295SOL     OW 1783   3.259   1.693   5.376
  295SOL    HW1 1784   3.270   1.757   5.300
  295SOL    HW2 1785   3.168   1.651   5.372
  296SOL     OW 1786   6.231   2.427   1.725
  296SOL    HW1 1787   6.302   2.492   1.753
  296SOL    HW2 1788   6.173   2.406   1.804
  297SOL     OW 1789   2.950   4.784   2.833
  297SOL    HW1 1790   2.911   4.827   2.914
  297SOL    HW2 1791   3.049   4.774   2.846
  298SOL     OW 1792   4.129   0.151   6.940
  298SOL    HW1 1793   4.084   0.203   6.867
  298SOL    HW2 1794   4.217   0.117   6.907
  299SOL     OW 1795   4.728   2.236   6.163
  299SOL    HW1 1796   4.742   2.142   6.193
  299SOL    HW2 1797   4.633   2.249   6.136
  300SOL     OW 1798   4.794   1.001   2.309
  300SOL    HW1 1799   4.760   1.071   2.372
  300SOL    HW2 1800   4.717   0.947   2.275
  301SOL     OW 1801   4.967   1.626   0.785
  301SOL    HW1 1802   5.026   1.706   0.777
  301SOL    HW2 1803   4.896   1.629   0.714
  302SOL     OW 1804   6.918   0.327   2.636
  302SOL    HW1 1805   7.012   0.299   2.655
  302SOL    HW2 1806   6.895   0.407   2.690
  303SOL     OW 1807   6.319   6.139   1.955
  303SOL    HW1 1808   6.240   6.081   1.972
  303SOL    HW2 1809   6.289   6.232   1.935
  304SOL     OW 1810   1.981   6.121   5.701
  304SOL    HW1 1811   2.072   6.154   5.723
  304SOL    HW2 1812   1.947   6.169   5.620
  305SOL     OW 1813   1.105   3.118   0.541
  305SOL    HW1 1814   1.165   3.197   0.525
  305SOL    HW2 1815   1.042   3.107   0.464
  306SOL     OW 1816   0.932   0.811   2.837
  306SOL    HW1 1817   1.015   0.844   2.792
  306SOL    HW2 1818   0.945   0.717   2.868
  307SOL     OW 1819   4.755   4.465   0.827
  307SOL    HW1 1820   4.750   4.497   0.922
  307SOL    HW2 1821   4.761   4.543   0.765
  308SOL     OW 1822   5.931   3.814   4.615
  308SOL    HW1 1823   5.944   3.765   4.529
  308SOL    HW2 1824   5.841   3.858   4.615
  309SOL     OW 1825   1.257   6.053   0.368
  309SOL    HW1 1826   1.307   5.990   0.309
  309SOL    HW2 1827   1.200   6.114   0.312
  310SOL     OW 1828   5.226   5.836   4.617
  310SOL    HW1 1829   5.155   5.864   4.552
  310SOL    HW2 1830   5.229   5.902   4.692
  311SOL     OW 1831   3.230   4.884   2.949
  311SOL    HW1 1832   3.186   4.961   2.903
  311SOL    HW2 1833   3.177   4.859   3.030
  312SOL     OW 1834   3.815   1.764   4.154
  312SOL    HW1 1835   3.914   1.774   4.166
  312SOL    HW2 1836   3.790   1.792   4.061
  313SOL     OW 1837   3.403   3.766   2.315
  313SOL    HW1 1838   3.415   3.760   2.216
  313SOL    HW2 1839   3.321   3.819   2.336
  314SOL     OW 1840   2.808   4.664   6.277
  314SOL    HW1 1841   2.860   4.610   6.211
  314SOL    HW2 1842   2.869   4.701   6.347
  315SOL     OW 1843   0.988   3.135   4.335
  315SOL    HW1 1844   1.015   3.053   4.283
  315SOL    HW2 1845   1.013   3.123   4.431
  316SOL     OW 1846   3.455   0.600   4.645
  316SOL    HW1 1847   3.357   0.609   4.662
  316SOL    HW2 1848   3.480   0.654   4.564
  317SOL     OW 1849   0.117   2.014   1.072
  317SOL    HW1 1850   0.017   2.022   1.065
  317SOL    HW2 1851   0.151   1.963   0.994
  318SOL     OW 1852   7.000   6.216   6.706
  318SOL    HW1 1853   6.977   6.295   6.762
  318SOL    HW2 1854   0.064   6.172   6.744
  319SOL     OW 1855   6.270   1.290   3.905
  319SOL    HW1 1856   6.262   1.204   3.955
  319SOL    HW2 1857   6.231   1.364   3.959
  320SOL     OW 1858   5.669   2.496   0.083
  320SOL    HW1 1859   5.647   2.426   0.015
  320SOL    HW2 1860   5.596   2.500   0.152
  321SOL     OW 1861   3.711   1.847   6.972
  321SOL    HW1 1862   3.674   1.814   6.886
  321SOL    HW2 1863   3.748   1.939   6.959
  322SOL     OW 1864   3.158   3.029   4.136
  322SOL    HW1 1865   3.223   3.070   4.199
  322SOL    HW2 1866   3.125   3.098   4.072
  323SOL     OW 1867   1.029   2.780   6.130
  323SOL    HW1 1868   1.095   2.843   6.091
  323SOL    HW2 1869   1.039   2.690   6.088
  324SOL     OW 1870   2.819   0.599   3.277
  324SOL    HW1 1871   2.810   0.499   3.282
  324SOL    HW2 1872   2.730   0.641   3.295
  325SOL     OW 1873   0.756   2.936   2.180
  325SOL    HW1 1874   0.707   3.007   2.230
  325SOL    HW2 1875   0.852   2.936   2.208
  326SOL     OW 1876   1.281   4.313   6.199
  326SOL    HW1 1877   1.315   4.346   6.111
  326SOL    HW2 1878   1.295   4.215   6.206
  327SOL     OW 1879   1.842   4.464   2.052
  327SOL    HW1 1880   1.897   4.546   2.067
  327SOL    HW2 1881   1.747   4.491   2.034
  328SOL     OW 1882   1.726   5.583   1.829
  328SOL    HW1 1883   1.734   5.644   1.909
  328SOL    HW2 1884   1.637   5.595   1.787
  329SOL     OW 1885   2.884   3.416   5.118
  329SOL    HW1 1886   2.949   3.492   5.123
  329SOL    HW2 1887   2.909   3.356   5.043
  330SOL     OW 1888   3.375   6.709   1.425
  330SOL    HW1 1889   3.410   6.622   1.391
  330SOL    HW2 1890   3.334   6.695   1.516
  331SOL     OW 1891   4.300   5.581   0.616
  331SOL    HW1 1892   4.384   5.533   0.642
  331SOL    HW2 1893   4.320   5.679   0.606
  332SOL     OW 1894   5.461   2.402   5.673
  332SOL    HW1 1895   5.445   2.312   5.715
  332SOL    HW2 1896   5.554   2.405   5.636
  333SOL     OW 1897   4.329   1.025   5.588
  333SOL    HW1 1898   4.419   1.069   5.589
  333SOL    HW2 1899   4.309   0.989   5.679
  334SOL     OW 1900   3.414   1.672   0.542
  334SOL    HW1 1901   3.457   1.624   0.465
  334SOL    HW2 1902   3.463   1.651   0.626
  335SOL     OW 1903   4.527   6.836   6.127
  335SOL    HW1 1904   4.479   6.901   6.186
  335SOL    HW2 1905   4.623   6.831   6.153
  336SOL     OW 1906   2.705   1.253   3.399
  336SOL    HW1 1907   2.692   1.340   3.352
  336SOL    HW2 1908   2.619   1.203   3.401
  337SOL     OW 1909   0.659   2.907   6.092
  337SOL    HW1 1910   0.645   2.843   6.167
  337SOL    HW2 1911   0.746   2.955   6.105
  338SOL     OW 1912   2.926   2.105   1.514
  338SOL    HW1 1913   2.848   2.042   1.508
  338SOL    HW2 1914   2.914   2.164   1.594
  339SOL     OW 1915   4.653   5.841   4.928
  339SOL    HW1 1916   4.594   5.915   4.959
  339SOL    HW2 1917   4.597   5.769   4.887
  340SOL     OW 1918   5.137   3.954   5.366
  340SOL    HW1 1919   5.137   3.866   5.318
  340SOL    HW2 1920   5.230   3.977   5.394
  341SOL     OW 1921   6.262   6.820   4.113
  341SOL    HW1 1922   6.174   6.843   4.155
  341SOL    HW2 1923   6.297   6.735   4.152
  342SOL     OW 1924   5.568   3.849   0.370
  342SOL    HW1 1925   5.572   3.883   0.276
  342SOL    HW2 1926   5.644   3.888   0.423
  343SOL     OW 1927   1.051   6.426   1.274
  343SOL    HW1 1928   0.981   6.476   1.224
  343SOL    HW2 1929   1.031   6.428   1.372
  344SOL     OW 1930   1.104   3.266   1.643
  344SOL    HW1 1931   1.147   3.326   1.577
  344SOL    HW2 1932   1.047   3.320   1.706
  345SOL     OW 1933   5.459   2.152   3.663
  345SOL    HW1 1934   5.398   2.146   3.742
  345SOL    HW2 1935   5.544   2.197   3.690
  346SOL     OW 1936   1.721   1.099   2.638
  346SOL    HW1 1937   1.785   1.034   2.599
  346SOL    HW2 1938   1.695   1.069   2.730
  347SOL     OW 1939   2.692   5.425   6.995
  347SOL    HW1 1940   2.641   5.344   6.967
  347SOL    HW2 1941   2.688   5.434   0.077
  348SOL     OW 1942   4.895   4.026   2.170
  348SOL    HW1 1943   4.835   4.102   2.192
  348SOL    HW2 1944   4.906   4.019   2.071
  349SOL     OW 1945   0.203   5.048   0.772
  349SOL    HW1 1946   0.294   5.022   0.803
  349SOL    HW2 1947   0.199   5.147   0.758
  350SOL     OW 1948   2.821   2.127   1.167
  350SOL    HW1 1949   2.859   2.197   1.107
  350SOL    HW2 1950   2.814   2.041   1.117
  351SOL     OW 1951   2.892   3.749   0.846
  351SOL    HW1 1952   2.916   3.717   0.754
  351SOL    HW2 1953   2.794   3.736   0.862
  352SOL     OW 1954   3.196   6.767   3.940
  352SOL    HW1 1955   3.273   6.787   4.000
  352SOL    HW2 1956   3.220   6.692   3.878
  353SOL     OW 1957   3.050   0.026   0.194
  353SOL    HW1 1958   3.105   0.007   0.113
  353SOL    HW2 1959   3.008   6.959   0.226
  354SOL     OW 1960   4.382   2.822   1.040
  354SOL    HW1 1961   4.432   2.786   0.961
  354SOL    HW2 1962   4.375   2.751   1.110
  355SOL     OW 1963   1.676   3.882   2.931
  355SOL    HW1 1964   1.646   3.977   2.938
  355SOL    HW2 1965   1.608   3.830   2.879
  356SOL     OW 1966   1.979   6.931   5.966
  356SOL    HW1 1967   1.937   6.905   5.878
  356SOL    HW2 1968   1.924   6.894   6.041
  357SOL     OW 1969   6.918   6.182   5.528
  357SOL    HW1 1970   6.988   6.239   5.485
  357SOL    HW2 1971   6.961   6.122   5.596
  358SOL     OW 1972   4.708   6.436   0.367
  358SOL    HW1 1973   4.664   6.490   0.295
  358SOL    HW2 1974   4.685   6.475   0.456
  359SOL     OW 1975   2.858   2.229   1.751
  359SOL    HW1 1976   2.834   2.154   1.813
  359SOL    HW2 1977   2.899   2.304   1.803
  360SOL     OW 1978   1.346   4.123   5.714
  360SOL    HW1 1979   1.272   4.154   5.654
  360SOL    HW2 1980   1.389   4.042   5.675
  361SOL     OW 1981   6.494   6.211   2.589
  361SOL    HW1 1982   6.592   6.233   2.586
  361SOL    HW2 1983   6.454   6.224   2.498
  362SOL     OW 1984   3.552   2.952   1.442
  362SOL    HW1 1985   3.528   2.874   1.384
  362SOL    HW2 1986   3.500   2.947   1.527
  363SOL     OW 1987   5.678   4.226   2.974
  363SOL    HW1 1988   5.643   4.138   3.006
  363SOL    HW2 1989   5.718   4.215   2.883
  364SOL     OW 1990   6.374   5.008   6.512
  364SOL    HW1 1991   6.413   4.981   6.423
  364SOL    HW2 1992   6.350   4.927   6.564
  365SOL     OW 1993   5.391   6.752   2.061
  365SOL    HW1 1994   5.385   6.817   2.136
  365SOL    HW2 1995   5.396   6.801   1.974
  366SOL     OW 1996   5.351   0.531   6.863
  366SOL    HW1 1997   5.365   0.432   6.876
  366SOL    HW2 1998   5.402   0.562   6.783
  367SOL     OW 1999   5.867   2.952   1.612
  367SOL    HW1 2000   5.825   3.043   1.619
  367SOL    HW2 2001   5.859   2.905   1.700
  368SOL     OW 2002   0.699   2.542   5.475
  368SOL    HW1 2003   0.767   2.480   5.515
  368SOL    HW2 2004   0.746   2.624   5.440
  369SOL     OW 2005   6.038   4.972   2.382
  369SOL    HW1 2006   6.028   5.071   2.397
  369SOL    HW2 2007   5.987   4.923   2.453
  370SOL     OW 2008   1.566   1.646   5.045
  370SOL    HW1 2009   1.531   1.732   5.082
  370SOL    HW2 2010   1.508   1.616   4.969
  371SOL     OW 2011   1.825   4.602   5.533
  371SOL    HW1 2012   1.820   4.508   5.500
  371SOL    HW2 2013   1.805   4.665   5.458
  372SOL     OW 2014   1.081   6.391   6.486
  372SOL    HW1 2015   1.126   6.332   6.420
  372SOL    HW2 2016   0.988   6.412   6.454
  373SOL     OW 2017   6.171   6.894   4.512
  373SOL    HW1 2018   6.240   6.924   4.446
  373SOL    HW2 2019   6.081   6.898   4.470
  374SOL     OW 2020   2.701   1.748   3.980
  374SOL    HW1 2021   2.609   1.783   3.965
  374SOL    HW2 2022   2.768   1.819   3.962
  375SOL     OW 2023   1.031   4.796   4.526
  375SOL    HW1 2024   1.037   4.882   4.577
  375SOL    HW2 2025   1.096   4.799   4.450
  376SOL     OW 2026   2.738   0.994   5.220
  376SOL    HW1 2027   2.694   1.079   5.248
  376SOL    HW2 2028   2.816   1.015   5.161
  377SOL     OW 2029   1.221   1.995   1.181
  377SOL    HW1 2030   1.263   2.010   1.271
  377SOL    HW2 2031   1.222   2.081   1.129
  378SOL     OW 2032   4.786   2.332   6.436
  378SOL    HW1 2033   4.776   2.311   6.338
  378SOL    HW2 2034   4.717   2.282   6.487
  379SOL     OW 2035   5.961   2.709   1.519
  379SOL    HW1 2036   5.963   2.659   1.605
  379SOL    HW2 2037   5.928   2.802   1.535
  380SOL     OW 2038   3.021   1.350   0.573
  380SOL    HW1 2039   2.924   1.350   0.596
  380SOL    HW2 2040   3.043   1.268   0.521
  381SOL     OW 2041   1.382   4.031   2.940
  381SOL    HW1 2042   1.321   3.972   2.993
  381SOL    HW2 2043   1.393   4.119   2.987
  382SOL     OW 2044   5.978   0.172   6.660
  382SOL    HW1 2045   5.988   0.098   6.593
  382SOL    HW2 2046   5.929   0.139   6.740
  383SOL     OW 2047   3.996   3.946   6.580
  383SOL    HW1 2048   4.066   3.965   6.648
  383SOL    HW2 2049   3.906   3.969   6.618
  384SOL     OW 2050   6.828   5.188   3.578
  384SOL    HW1 2051   6.856   5.126   3.504
  384SOL    HW2 2052   6.796   5.274   3.539
  385SOL     OW 2053   3.096   4.623   5.364
  385SOL    HW1 2054   3.021   4.581   5.313
  385SOL    HW2 2055   3.144   4.553   5.417
  386SOL     OW 2056   2.638   0.134   5.189
  386SOL    HW1 2057   2.682   0.196   5.253
  386SOL    HW2 2058   2.699   0.116   5.112
  387SOL     OW 2059   1.439   6.740   2.000
  387SOL    HW1 2060   1.420   6.763   1.905
  387SOL    HW2 2061   1.386   6.660   2.026
  388SOL     OW 2062   1.235   1.720   5.153
  388SOL    HW1 2063   1.256   1.740   5.249
  388SOL    HW2 2064   1.256   1.800   5.097
  389SOL     OW 2065   3.618   3.309   1.689
  389SOL    HW1 2066   3.565   3.337   1.609
  389SOL    HW2 2067   3.709   3.280   1.660
  390SOL     OW 2068   3.042   1.844   1.745
  390SOL    HW1 2069   3.077   1.757   1.778
  390SOL    HW2 2070   3.084   1.919   1.797
  391SOL     OW 2071   1.723   2.627   6.820
  391SOL    HW1 2072   1.740   2.635   6.918
  391SOL    HW2 2073   1.638   2.576   6.805
  392SOL     OW 2074   1.746   4.263   0.971
  392SOL    HW1 2075   1.693   4.180   0.990
  392SOL    HW2 2076   1.759   4.273   0.873
  393SOL     OW 2077   1.846   4.557   6.606
  393SOL    HW1 2078   1.829   4.593   6.698
  393SOL    HW2 2079   1.803   4.468   6.597
  394SOL     OW 2080   6.888   1.833   7.003
  394SOL    HW1 2081   6.926   1.762   0.046
  394SOL    HW2 2082   6.807   1.873   0.028
  395SOL     OW 2083   4.822   3.896   2.882
  395SOL    HW1 2084   4.910   3.920   2.923
  395SOL    HW2 2085   4.776   3.827   2.939
  396SOL     OW 2086   3.279   4.015   1.779
  396SOL    HW1 2087   3.298   4.052   1.688
  396SOL    HW2 2088   3.190   4.047   1.810
  397SOL     OW 2089   5.879   1.689   5.338
  397SOL    HW1 2090   5.916   1.726   5.423
  397SOL    HW2 2091   5.952   1.647   5.284
  398SOL     OW 2092   1.235   0.063   1.895
  398SOL    HW1 2093   1.293   0.088   1.818
  398SOL    HW2 2094   1.196   0.145   1.936
  399SOL     OW 2095   6.135   5.974   2.097
  399SOL    HW1 2096   6.169   6.000   2.187
  399SOL    HW2 2097   6.044   6.012   2.083
  400SOL     OW 2098   6.203   6.212   5.614
  400SOL    HW1 2099   6.185   6.286   5.550
  400SOL    HW2 2100   6.119   6.162   5.633
  401SOL     OW 2101   5.716   0.477   6.167
  401SOL    HW1 2102   5.755   0.483   6.259
  401SOL    HW2 2103   5.673   0.564   6.143
  402SOL     OW 2104   6.026   0.066   3.764
  402SOL    HW1 2105   5.977   6.996   3.769
  402SOL    HW2 2106   6.024   0.100   3.670
  403SOL     OW 2107   3.545   2.107   4.296
  403SOL    HW1 2108   3.557   2.119   4.394
  403SOL    HW2 2109   3.448   2.106   4.273
  404SOL     OW 2110   1.608   5.172   3.857
  404SOL    HW1 2111   1.579   5.265   3.834
  404SOL    HW2 2112   1.570   5.146   3.946
  405SOL     OW 2113   1.549   3.457   2.159
  405SOL    HW1 2114   1.457   3.447   2.197
  405SOL    HW2 2115   1.551   3.416   2.068
  406SOL     OW 2116   1.130   3.902   4.715
  406SOL    HW1 2117   1.144   3.851   4.630
  406SOL    HW2 2118   1.169   3.849   4.791
  407SOL     OW 2119   1.159   0.980   4.556
  407SOL    HW1 2120   1.189   0.886   4.576
  407SOL    HW2 2121   1.240   1.037   4.542
  408SOL     OW 2122   1.342   2.630   3.203
  408SOL    HW1 2123   1.401   2.710   3.186
  408SOL    HW2 2124   1.269   2.655   3.266
  409SOL     OW 2125   0.047   3.076   1.987
  409SOL    HW1 2126   6.972   3.040   2.002
  409SOL    HW2 2127   0.047   3.175   1.997
  410SOL     OW 2128   1.795   1.520   0.847
  410SOL    HW1 2129   1.823   1.440   0.793
  410SOL    HW2 2130   1.874   1.580   0.860
  411SOL     OW 2131   6.033   6.934   1.690
  411SOL    HW1 2132   6.053   0.002   1.641
  411SOL    HW2 2133   5.996   6.867   1.626
  412SOL     OW 2134   3.534   5.493   3.764
  412SOL    HW1 2135   3.559   5.579   3.720
  412SOL    HW2 2136   3.617   5.439   3.780
  413SOL     OW 2137   5.370   3.607   1.533
  413SOL    HW1 2138   5.416   3.632   1.618
  413SOL    HW2 2139   5.367   3.686   1.472
  414SOL     OW 2140   3.362   5.261   3.679
  414SOL    HW1 2141   3.397   5.187   3.737
  414SOL    HW2 2142   3.431   5.332   3.670
  415SOL     OW 2143   1.105   5.860   7.009
  415SOL    HW1 2144   1.132   5.945   6.962
  415SOL    HW2 2145   1.045   5.807   6.949
  416SOL     OW 2146   4.600   6.582   4.576
  416SOL    HW1 2147   4.541   6.655   4.540
  416SOL    HW2 2148   4.662   6.620   4.644
  417SOL     OW 2149   2.306   5.899   6.440
  417SOL    HW1 2150   2.225   5.872   6.492
  417SOL    HW2 2151   2.373   5.825   6.441
  418SOL     OW 2152   4.150   6.763   6.960
  418SOL    HW1 2153   4.138   6.827   0.020
  418SOL    HW2 2154   4.079   6.781   6.892
  419SOL     OW 2155   2.290   6.788   1.408
  419SOL    HW1 2156   2.305   6.778   1.507
  419SOL    HW2 2157   2.378   6.779   1.361
  420SOL     OW 2158   5.909   1.056   0.098
  420SOL    HW1 2159   5.897   1.074   0.196
  420SOL    HW2 2160   5.855   0.975   0.072
  421SOL     OW 2161   0.064   4.085   5.520
  421SOL    HW1 2162   7.000   4.062   5.467
  421SOL    HW2 2163   0.124   4.145   5.466
  422SOL     OW 2164   5.579   3.595   1.287
  422SOL    HW1 2165   5.490   3.627   1.319
  422SOL    HW2 2166   5.599   3.635   1.198
  423SOL     OW 2167   0.813   1.782   6.141
  423SOL    HW1 2168   0.757   1.791   6.059
  423SOL    HW2 2169   0.884   1.713   6.126
  424SOL     OW 2170   1.452   5.520   0.977
  424SOL    HW1 2171   1.453   5.452   0.904
  424SOL    HW2 2172   1.531   5.580   0.967
  425SOL     OW 2173   4.961   1.584   3.303
  425SOL    HW1 2174   4.926   1.673   3.275
  425SOL    HW2 2175   4.894   1.513   3.281
  426SOL     OW 2176   3.207   2.177   4.552
  426SOL    HW1 2177   3.192   2.165   4.650
  426SOL    HW2 2178   3.124   2.211   4.510
  427SOL     OW 2179   5.583   6.497   3.877
  427SOL    HW1 2180   5.550   6.563   3.809
  427SOL    HW2 2181   5.506   6.460   3.929
  428SOL     OW 2182   4.228   0.581   3.639
  428SOL    HW1 2183   4.250   0.676   3.663
  428SOL    HW2 2184   4.257   0.521   3.713
  429SOL     OW 2185   1.283   4.472   1.630
  429SOL    HW1 2186   1.190   4.435   1.629
  429SOL    HW2 2187   1.284   4.562   1.585
  430SOL     OW 2188   0.817   0.274   4.294
  430SOL    HW1 2189   0.793   0.232   4.206
  430SOL    HW2 2190   0.903   0.324   4.285
  431SOL     OW 2191   2.666   0.355   0.889
  431SOL    HW1 2192   2.659   0.367   0.790
  431SOL    HW2 2193   2.763   0.350   0.915
  432SOL     OW 2194   6.304   1.581   0.546
  432SOL    HW1 2195   6.334   1.662   0.597
  432SOL    HW2 2196   6.210   1.558   0.573
  433SOL     OW 2197   1.713   6.651   4.784
  433SOL    HW1 2198   1.640   6.629   4.849
  433SOL    HW2 2199   1.801   6.645   4.831
  434SOL     OW 2200   3.682   5.395   3.273
  434SOL    HW1 2201   3.636   5.466   3.219
  434SOL    HW2 2202   3.754   5.353   3.217
  435SOL     OW 2203   4.630   2.761   6.359
  435SOL    HW1 2204   4.651   2.718   6.271
  435SOL    HW2 2205   4.674   2.711   6.433
  436SOL     OW 2206   3.412   5.734   2.047
  436SOL    HW1 2207   3.457   5.767   1.964
  436SOL    HW2 2208   3.317   5.765   2.048
  437SOL     OW 2209   0.622   1.375   0.130
  437SOL    HW1 2210   0.695   1.330   0.181
  437SOL    HW2 2211   0.603   1.325   0.046
  438SOL     OW 2212   2.255   4.045   3.240
  438SOL    HW1 2213   2.333   3.988   3.266
  438SOL    HW2 2214   2.267   4.075   3.145
  439SOL     OW 2215   6.000   5.235   2.421
  439SOL    HW1 2216   6.013   5.334   2.434
  439SOL    HW2 2217   5.911   5.208   2.458
  440SOL     OW 2218   2.403   1.654   4.690
  440SOL    HW1 2219   2.391   1.661   4.789
  440SOL    HW2 2220   2.497   1.679   4.666
  441SOL     OW 2221   0.407   3.038   4.335
  441SOL    HW1 2222   0.313   3.072   4.344
  441SOL    HW2 2223   0.406   2.947   4.293
  442SOL     OW 2224   4.478   5.469   5.270
  442SOL    HW1 2225   4.557   5.529   5.277
  442SOL    HW2 2226   4.440   5.473   5.178
  443SOL     OW 2227   6.180   4.495   3.661
  443SOL    HW1 2228   6.090   4.492   3.705
  443SOL    HW2 2229   6.173   4.456   3.569
  444SOL     OW 2230   4.914   0.718   6.899
  444SOL    HW1 2231   5.002   0.737   6.943
  444SOL    HW2 2232   4.846   0.783   6.932
  445SOL     OW 2233   0.647   6.004   2.840
  445SOL    HW1 2234   0.618   5.945   2.764
  445SOL    HW2 2235   0.570   6.060   2.870
  446SOL     OW 2236   3.130   4.883   3.551
  446SOL    HW1 2237   3.214   4.841   3.584
  446SOL    HW2 2238   3.136   4.983   3.561
  447SOL     OW 2239   0.375   2.837   6.413
  447SOL    HW1 2240   0.325   2.889   6.344
  447SOL    HW2 2241   0.397   2.896   6.490
  448SOL     OW 2242   1.766   0.590   3.652
  448SOL    HW1 2243   1.673   0.612   3.679
  448SOL    HW2 2244   1.831   0.625   3.719
  449SOL     OW 2245   2.754   1.148   3.860
  449SOL    HW1 2246   2.809   1.200   3.795
  449SOL    HW2 2247   2.801   1.063   3.883
  450SOL     OW 2248   1.683   4.933   2.924
  450SOL    HW1 2249   1.594   4.923   2.970
  450SOL    HW2 2250   1.669   4.937   2.825
  451SOL     OW 2251   1.055   2.382   4.096
  451SOL    HW1 2252   1.003   2.393   4.011
  451SOL    HW2 2253   1.018   2.444   4.165
  452SOL     OW 2254   5.534   6.514   0.275
  452SOL    HW1 2255   5.494   6.570   0.348
  452SOL    HW2 2256   5.463   6.458   0.233
  453SOL     OW 2257   4.458   0.348   6.356
  453SOL    HW1 2258   4.379   0.391   6.399
  453SOL    HW2 2259   4.439   0.334   6.259
  454SOL     OW 2260   6.864   4.447   5.707
  454SOL    HW1 2261   6.805   4.375   5.672
  454SOL    HW2 2262   6.958   4.413   5.716
  455SOL     OW 2263   5.605   2.478   4.625
  455SOL    HW1 2264   5.582   2.575   4.635
  455SOL    HW2 2265   5.614   2.455   4.528
  456SOL     OW 2266   0.032   6.968   3.620
  456SOL    HW1 2267   6.968   6.982   3.676
  456SOL    HW2 2268   0.066   6.875   3.635
  457SOL     OW 2269   1.651   2.576   4.126
  457SOL    HW1 2270   1.680   2.480   4.121
  457SOL    HW2 2271   1.555   2.584   4.100
  458SOL     OW 2272   3.882   5.959   2.852
  458SOL    HW1 2273   3.959   6.021   2.833
  458SOL    HW2 2274   3.842   5.929   2.765
  459SOL     OW 2275   1.712   0.129   5.811
  459SOL    HW1 2276   1.799   0.156   5.852
  459SOL    HW2 2277   1.710   0.030   5.800
  460SOL     OW 2278   2.693   6.882   4.857
  460SOL    HW1 2279   2.613   6.909   4.804
  460SOL    HW2 2280   2.750   6.962   4.874
  461SOL     OW 2281   6.784   5.992   5.336
  461SOL    HW1 2282   6.873   6.040   5.337
  461SOL    HW2 2283   6.769   5.949   5.424
  462SOL     OW 2284   3.890   3.483   0.153
  462SOL    HW1 2285   3.867   3.397   0.107
  462SOL    HW2 2286   3.941   3.542   0.091
  463SOL     OW 2287   5.394   6.070   3.605
  463SOL    HW1 2288   5.490   6.050   3.584
  463SOL    HW2 2289   5.341   5.985   3.604
  464SOL     OW 2290   3.063   1.188   5.309
  464SOL    HW1 2291   3.155   1.213   5.338
  464SOL    HW2 2292   3.005   1.174   5.389
  465SOL     OW 2293   0.553   2.637   0.255
  465SOL    HW1 2294   0.458   2.605   0.248
  465SOL    HW2 2295   0.553   2.735   0.277
  466SOL     OW 2296   1.856   6.397   3.880
  466SOL    HW1 2297   1.847   6.306   3.920
  466SOL    HW2 2298   1.933   6.445   3.922
  467SOL     OW 2299   2.001   1.221   0.780
  467SOL    HW1 2300   2.001   1.271   0.693
  467SOL    HW2 2301   2.074   1.257   0.839
  468SOL     OW 2302   4.097   6.166   5.654
  468SOL    HW1 2303   4.044   6.082   5.664
  468SOL    HW2 2304   4.187   6.145   5.617
  469SOL     OW 2305   3.030   3.703   6.598
  469SOL    HW1 2306   2.968   3.671   6.526
  469SOL    HW2 2307   3.004   3.661   6.685
  470SOL     OW 2308   4.836   6.606   1.164
  470SOL    HW1 2309   4.921   6.581   1.210
  470SOL    HW2 2310   4.786   6.524   1.139
  471SOL     OW 2311   2.500   2.670   3.848
  471SOL    HW1 2312   2.549   2.611   3.785
  471SOL    HW2 2313   2.528   2.650   3.942
  472SOL     OW 2314   4.134   3.897   6.356
  472SOL    HW1 2315   4.086   3.929   6.438
  472SOL    HW2 2316   4.217   3.951   6.343
  473SOL     OW 2317   1.238   2.350   2.708
  473SOL    HW1 2318   1.314   2.293   2.677
  473SOL    HW2 2319   1.155   2.294   2.715
  474SOL     OW 2320   5.322   5.597   4.672
  474SOL    HW1 2321   5.296   5.688   4.639
  474SOL    HW2 2322   5.240   5.541   4.683
  475SOL     OW 2323   5.989   1.945   6.581
  475SOL    HW1 2324   5.952   1.970   6.671
  475SOL    HW2 2325   6.011   1.847   6.581
  476SOL     OW 2326   0.479   3.433   2.649
  476SOL    HW1 2327   0.556   3.426   2.586
  476SOL    HW2 2328   0.511   3.423   2.743
  477SOL     OW 2329   2.703   6.397   3.243
  477SOL    HW1 2330   2.782   6.346   3.208
  477SOL    HW2 2331   2.630   6.333   3.268
  478SOL     OW 2332   3.556   6.510   2.681
  478SOL    HW1 2333   3.529   6.429   2.629
  478SOL    HW2 2334   3.654   6.507   2.698
  479SOL     OW 2335   3.898   2.483   6.134
  479SOL    HW1 2336   3.845   2.431   6.201
  479SOL    HW2 2337   3.858   2.574   6.123
  480SOL     OW 2338   2.622   1.036   0.522
  480SOL    HW1 2339   2.546   1.084   0.478
  480SOL    HW2 2340   2.637   0.948   0.476
  481SOL     OW 2341   2.290   6.643   1.652
  481SOL    HW1 2342   2.374   6.612   1.697
  481SOL    HW2 2343   2.257   6.571   1.591
  482SOL     OW 2344   4.391   4.647   2.431
  482SOL    HW1 2345   4.309   4.698   2.403
  482SOL    HW2 2346   4.378   4.550   2.413
  483SOL     OW 2347   6.909   2.665   3.124
  483SOL    HW1 2348   6.983   2.600   3.144
  483SOL    HW2 2349   6.945   2.739   3.067
  484SOL     OW 2350   1.862   3.298   5.351
  484SOL    HW1 2351   1.911   3.331   5.270
  484SOL    HW2 2352   1.814   3.214   5.329
  485SOL     OW 2353   3.945   4.903   2.411
  485SOL    HW1 2354   3.855   4.908   2.368
  485SOL    HW2 2355   3.994   4.822   2.379
  486SOL     OW 2356   6.227   0.750   0.200
  486SOL    HW1 2357   6.148   0.765   0.259
  486SOL    HW2 2358   6.309   0.735   0.256
  487SOL     OW 2359   0.766   0.798   3.192
  487SOL    HW1 2360   0.851   0.749   3.175
  487SOL    HW2 2361   0.722   0.819   3.105
  488SOL     OW 2362   1.252   1.067   2.065
  488SOL    HW1 2363   1.213   1.033   2.150
  488SOL    HW2 2364   1.275   0.990   2.005
  489SOL     OW 2365   4.615   5.729   5.383
  489SOL    HW1 2366   4.602   5.765   5.475
  489SOL    HW2 2367   4.528   5.729   5.334
  490SOL     OW 2368   0.743   6.341   3.008
  490SOL    HW1 2369   0.838   6.329   3.034
  490SOL    HW2 2370   0.706   6.423   3.052
  491SOL     OW 2371   1.070   3.704   1.922
  491SOL    HW1 2372   1.002   3.765   1.962
  491SOL    HW2 2373   1.096   3.736   1.831
  492SOL     OW 2374   1.355   0.524   5.580
  492SOL    HW1 2375   1.388   0.578   5.503
  492SOL    HW2 2376   1.376   0.427   5.566
  493SOL     OW 2377   4.135   6.594   5.608
  493SOL    HW1 2378   4.198   6.607   5.684
  493SOL    HW2 2379   4.115   6.683   5.566
  494SOL     OW 2380   0.672   6.619   6.826
  494SOL    HW1 2381   0.601   6.674   6.870
  494SOL    HW2 2382   0.717   6.673   6.755
  495SOL     OW 2383   4.307   5.754   3.681
  495SOL    HW1 2384   4.257   5.733   3.597
  495SOL    HW2 2385   4.394   5.797   3.658
  496SOL     OW 2386   5.215   3.218   1.973
  496SOL    HW1 2387   5.120   3.197   1.995
  496SOL    HW2 2388   5.245   3.297   2.027
  497SOL     OW 2389   2.974   1.929   4.738
  497SOL    HW1 2390   2.933   1.966   4.654
  497SOL    HW2 2391   2.924   1.848   4.767
  498SOL     OW 2392   0.766   4.574   1.708
  498SOL    HW1 2393   0.735   4.585   1.803
  498SOL    HW2 2394   0.693   4.533   1.654
  499SOL     OW 2395   1.530   5.398   4.090
  499SOL    HW1 2396   1.558   5.493   4.082
  499SOL    HW2 2397   1.496   5.381   4.183
  500SOL     OW 2398   0.264   1.634   5.820
  500SOL    HW1 2399   0.350   1.640   5.872
  500SOL    HW2 2400   0.276   1.571   5.743
  501SOL     OW 2401   3.491   0.378   1.036
  501SOL    HW1 2402   3.423   0.351   0.968
  501SOL    HW2 2403   3.577   0.332   1.017
  502SOL     OW 2404   1.087   3.573   6.038
  502SOL    HW1 2405   1.078   3.512   6.117
  502SOL    HW2 2406   1.119   3.663   6.069
  503SOL     OW 2407   6.949   4.980   6.583
  503SOL    HW1 2408   6.942   5.073   6.547
  503SOL    HW2 2409   6.999   4.922   6.518
  504SOL     OW 2410   0.806   5.214   2.194
  504SOL    HW1 2411   0.859   5.204   2.278
  504SOL    HW2 2412   0.785   5.124   2.156
  505SOL     OW 2413   2.800   5.757   4.697
  505SOL    HW1 2414   2.830   5.792   4.608
  505SOL    HW2 2415   2.704   5.782   4.712
  506SOL     OW 2416   3.170   4.987   3.881
  506SOL    HW1 2417   3.107   4.925   3.926
  506SOL    HW2 2418   3.133   5.012   3.791
  507SOL     OW 2419   3.245   0.378   3.511
  507SOL    HW1 2420   3.308   0.304   3.489
  507SOL    HW2 2421   3.152   0.351   3.486
  508SOL     OW 2422   0.246   3.434   2.779
  508SOL    HW1 2423   0.319   3.431   2.711
  508SOL    HW2 2424   0.161   3.401   2.739
  509SOL     OW 2425   2.790   0.955   1.610
  509SOL    HW1 2426   2.732   0.965   1.528
  509SOL    HW2 2427   2.842   0.870   1.603
  510SOL     OW 2428   5.966   4.456   6.720
  510SOL    HW1 2429   5.979   4.362   6.752
  510SOL    HW2 2430   5.906   4.456   6.640
  511SOL     OW 2431   0.713   2.180   5.994
  511SOL    HW1 2432   0.808   2.148   5.982
  511SOL    HW2 2433   0.694   2.192   6.091
  512SOL     OW 2434   0.206   2.464   6.610
  512SOL    HW1 2435   0.107   2.476   6.601
  512SOL    HW2 2436   0.231   2.370   6.590
  513SOL     OW 2437   5.977   6.536   3.171
  513SOL    HW1 2438   5.964   6.493   3.260
  513SOL    HW2 2439   5.945   6.474   3.099
  514SOL     OW 2440   6.542   0.819   4.600
  514SOL    HW1 2441   6.638   0.822   4.627
  514SOL    HW2 2442   6.498   0.907   4.623
  515SOL     OW 2443   1.485   6.533   0.982
  515SOL    HW1 2444   1.482   6.482   0.896
  515SOL    HW2 2445   1.577   6.570   0.996
  516SOL     OW 2446   2.816   4.734   2.214
  516SOL    HW1 2447   2.808   4.658   2.151
  516SOL    HW2 2448   2.911   4.764   2.220
  517SOL     OW 2449   4.193   5.160   1.590
  517SOL    HW1 2450   4.143   5.175   1.505
  517SOL    HW2 2451   4.261   5.233   1.603
  518SOL     OW 2452   2.492   1.822   3.648
  518SOL    HW1 2453   2.551   1.900   3.669
  518SOL    HW2 2454   2.397   1.845   3.666
  519SOL     OW 2455   0.659   6.254   4.149
  519SOL    HW1 2456   0.682   6.180   4.086
  519SOL    HW2 2457   0.560   6.270   4.147
  520SOL     OW 2458   5.932   3.824   6.746
  520SOL    HW1 2459   6.021   3.870   6.751
  520SOL    HW2 2460   5.946   3.725   6.743
  521SOL     OW 2461   6.116   6.174   4.856
  521SOL    HW1 2462   6.165   6.198   4.772
  521SOL    HW2 2463   6.053   6.249   4.880
  522SOL     OW 2464   3.336   3.146   4.301
  522SOL    HW1 2465   3.294   3.234   4.326
  522SOL    HW2 2466   3.421   3.134   4.354
  523SOL     OW 2467   0.920   5.886   1.920
  523SOL    HW1 2468   0.931   5.838   1.833
  523SOL    HW2 2469   0.823   5.900   1.939
  524SOL     OW 2470   0.204   2.023   2.276
  524SOL    HW1 2471   0.292   2.036   2.322
  524SOL    HW2 2472   0.159   2.112   2.265
  525SOL     OW 2473   2.022   4.105   5.994
  525SOL    HW1 2474   2.039   4.045   6.073
  525SOL    HW2 2475   2.071   4.070   5.914
  526SOL     OW 2476   3.175   5.826   3.922
  526SOL    HW1 2477   3.132   5.758   3.980
  526SOL    HW2 2478   3.245   5.875   3.974
  527SOL     OW 2479   6.218   2.739   0.718
  527SOL    HW1 2480   6.181   2.812   0.775
  527SOL    HW2 2481   6.194   2.756   0.622
  528SOL     OW 2482   1.280   2.710   3.720
  528SOL    HW1 2483   1.299   2.768   3.641
  528SOL    HW2 2484   1.363   2.699   3.775
  529SOL     OW 2485   1.453   5.830   4.723
  529SOL    HW1 2486   1.459   5.896   4.649
  529SOL    HW2 2487   1.363   5.787   4.723
  530SOL     OW 2488   3.666   3.471   4.015
  530SOL    HW1 2489   3.674   3.387   3.961
  530SOL    HW2 2490   3.628   3.449   4.105
  531SOL     OW 2491   0.316   2.138   2.852
  531SOL    HW1 2492   0.374   2.080   2.794
  531SOL    HW2 2493   0.318   2.104   2.946
  532SOL     OW 2494   0.919   3.129   0.092
  532SOL    HW1 2495   0.866   3.213   0.087
  532SOL    HW2 2496   0.991   3.131   0.022
  533SOL     OW 2497   4.238   6.828   4.176
  533SOL    HW1 2498   4.293   6.758   4.130
  533SOL    HW2 2499   4.141   6.813   4.155
  534SOL     OW 2500   5.257   6.712   2.429
  534SOL    HW1 2501   5.222   6.619   2.417
  534SOL    HW2 2502   5.355   6.708   2.448
  535SOL     OW 2503   6.820   3.588   4.328
  535SOL    HW1 2504   6.740   3.621   4.377
  535SOL    HW2 2505   6.820   3.488   4.327
  536SOL     OW 2506   6.128   4.640   2.753
  536SOL    HW1 2507   6.226   4.643   2.770
  536SOL    HW2 2508   6.080   4.686   2.827
  537SOL     OW 2509   2.285   6.422   4.643
  537SOL    HW1 2510   2.255   6.430   4.548
  537SOL    HW2 2511   2.380   6.451   4.650
  538SOL     OW 2512   1.194   5.004   4.281
  538SOL    HW1 2513   1.282   5.014   4.327
  538SOL    HW2 2514   1.176   4.907   4.263
  539SOL     OW 2515   2.165   5.515   1.306
  539SOL    HW1 2516   2.204   5.606   1.322
  539SOL    HW2 2517   2.221   5.446   1.351
  540SOL     OW 2518   1.797   1.695   2.760
  540SOL    HW1 2519   1.856   1.705   2.680
  540SOL    HW2 2520   1.720   1.758   2.753
  541SOL     OW 2521   5.097   5.344   3.600
  541SOL    HW1 2522   5.077   5.274   3.668
  541SOL    HW2 2523   5.131   5.427   3.645
  542SOL     OW 2524   5.549   5.619   0.048
  542SOL    HW1 2525   5.459   5.582   0.025
  542SOL    HW2 2526   5.607   5.618   6.983
  543SOL     OW 2527   0.501   3.169   4.581
  543SOL    HW1 2528   0.422   3.214   4.621
  543SOL    HW2 2529   0.480   3.142   4.487
  544SOL     OW 2530   1.926   5.104   0.337
  544SOL    HW1 2531   1.955   5.080   0.245
  544SOL    HW2 2532   1.979   5.182   0.370
  545SOL     OW 2533   3.143   1.425   1.649
  545SOL    HW1 2534   3.168   1.496   1.715
  545SOL    HW2 2535   3.212   1.421   1.577
  546SOL     OW 2536   2.260   2.926   0.748
  546SOL    HW1 2537   2.186   2.924   0.680
  546SOL    HW2 2538   2.246   3.005   0.809
  547SOL     OW 2539   3.457   1.115   0.293
  547SOL    HW1 2540   3.434   1.208   0.263
  547SOL    HW2 2541   3.393   1.050   0.253
  548SOL     OW 2542   3.427   3.496   2.480
  548SOL    HW1 2543   3.353   3.498   2.413
  548SOL    HW2 2544   3.474   3.584   2.480
  549SOL     OW 2545   5.674   3.382   0.839
  549SOL    HW1 2546   5.615   3.319   0.788
  549SOL    HW2 2547   5.633   3.401   0.928
  550SOL     OW 2548   0.804   5.661   3.925
  550SOL    HW1 2549   0.729   5.727   3.922
  550SOL    HW2 2550   0.862   5.674   3.845
  551SOL     OW 2551   1.550   0.428   1.969
  551SOL    HW1 2552   1.461   0.455   1.933
  551SOL    HW2 2553   1.622   0.483   1.926
  552SOL     OW 2554   6.170   4.637   6.783
  552SOL    HW1 2555   6.111   4.559   6.763
  552SOL    HW2 2556   6.146   4.713   6.721
  553SOL     OW 2557   3.032   6.018   2.966
  553SOL    HW1 2558   3.008   6.108   3.003
  553SOL    HW2 2559   3.075   5.963   3.037
  554SOL     OW 2560   6.059   6.630   6.865
  554SOL    HW1 2561   6.083   6.698   6.795
  554SOL    HW2 2562   6.087   6.539   6.834
  555SOL     OW 2563   2.260   4.753   4.765
  555SOL    HW1 2564   2.241   4.654   4.766
  555SOL    HW2 2565   2.352   4.769   4.800
  556SOL     OW 2566   3.853   2.135   3.921
  556SOL    HW1 2567   3.766   2.101   3.957
  556SOL    HW2 2568   3.905   2.178   3.995
  557SOL     OW 2569   0.541   5.191   0.676
  557SOL    HW1 2570   0.629   5.230   0.702
  557SOL    HW2 2571   0.468   5.255   0.699
  558SOL     OW 2572   3.042   3.230   4.000
  558SOL    HW1 2573   3.010   3.256   4.092
  558SOL    HW2 2574   2.979   3.267   3.932
  559SOL     OW 2575   6.660   5.810   0.126
  559SOL    HW1 2576   6.597   5.826   0.050
  559SOL    HW2 2577   6.754   5.816   0.094
  560SOL     OW 2578   5.486   4.493   5.603
  560SOL    HW1 2579   5.559   4.557   5.626
  560SOL    HW2 2580   5.525   4.404   5.583
  561SOL     OW 2581   0.831   1.657   1.283
  561SOL    HW1 2582   0.752   1.605   1.314
  561SOL    HW2 2583   0.913   1.623   1.327
  562SOL     OW 2584   4.810   0.737   6.092
  562SOL    HW1 2585   4.874   0.721   6.167
  562SOL    HW2 2586   4.829   0.674   6.017
  563SOL     OW 2587   2.546   0.343   3.714
  563SOL    HW1 2588   2.609   0.345   3.636
  563SOL    HW2 2589   2.476   0.413   3.702
  564SOL     OW 2590   1.338   1.976   6.776
  564SOL    HW1 2591   1.304   2.048   6.838
  564SOL    HW2 2592   1.269   1.904   6.768
  565SOL     OW 2593   2.778   2.776   5.488
  565SOL    HW1 2594   2.864   2.805   5.447
  565SOL    HW2 2595   2.710   2.850   5.478
  566SOL     OW 2596   6.664   4.913   3.353
  566SOL    HW1 2597   6.759   4.928   3.379
  566SOL    HW2 2598   6.659   4.842   3.283
  567SOL     OW 2599   2.806   2.982   1.454
  567SOL    HW1 2600   2.842   3.069   1.488
  567SOL    HW2 2601   2.880   2.930   1.412
  568SOL     OW 2602   5.200   0.628   0.237
  568SOL    HW1 2603   5.186   0.530   0.224
  568SOL    HW2 2604   5.137   0.661   0.308
  569SOL     OW 2605   1.621   3.150   6.657
  569SOL    HW1 2606   1.596   3.055   6.672
  569SOL    HW2 2607   1.547   3.196   6.608
  570SOL     OW 2608   3.543   6.111   6.809
  570SOL    HW1 2609   3.471   6.075   6.868
  570SOL    HW2 2610   3.527   6.081   6.715
  571SOL     OW 2611   3.568   0.088   2.183
  571SOL    HW1 2612   3.572   0.180   2.143
  571SOL    HW2 2613   3.531   0.094   2.276
  572SOL     OW 2614   2.495   4.740   5.427
  572SOL    HW1 2615   2.417   4.680   5.411
  572SOL    HW2 2616   2.561   4.731   5.353
  573SOL     OW 2617   5.537   1.343   5.571
  573SOL    HW1 2618   5.492   1.282   5.506
  573SOL    HW2 2619   5.636   1.338   5.560
  574SOL     OW 2620   3.806   2.010   4.304
  574SOL    HW1 2621   3.803   1.921   4.259
  574SOL    HW2 2622   3.720   2.058   4.288
  575SOL     OW 2623   5.040   4.316   6.813
  575SOL    HW1 2624   5.014   4.219   6.813
  575SOL    HW2 2625   5.137   4.324   6.836
  576SOL     OW 2626   0.915   2.293   2.816
  576SOL    HW1 2627   0.822   2.290   2.852
  576SOL    HW2 2628   0.915   2.335   2.726
  577SOL     OW 2629   1.578   1.459   2.588
  577SOL    HW1 2630   1.673   1.430   2.590
  577SOL    HW2 2631   1.573   1.559   2.580
  578SOL     OW 2632   5.785   6.346   3.782
  578SOL    HW1 2633   5.707   6.395   3.820
  578SOL    HW2 2634   5.755   6.287   3.707
  579SOL     OW 2635   1.783   2.958   2.943
  579SOL    HW1 2636   1.694   2.966   2.897
  579SOL    HW2 2637   1.824   2.870   2.922
  580SOL     OW 2638   5.561   5.402   0.520
  580SOL    HW1 2639   5.645   5.349   0.521
  580SOL    HW2 2640   5.496   5.364   0.586
  581SOL     OW 2641   2.501   3.381   1.322
  581SOL    HW1 2642   2.546   3.465   1.352
  581SOL    HW2 2643   2.567   3.321   1.278
  582SOL     OW 2644   4.424   6.839   1.500
  582SOL    HW1 2645   4.392   6.827   1.594
  582SOL    HW2 2646   4.362   6.792   1.437
  583SOL     OW 2647   3.266   5.761   5.502
  583SOL    HW1 2648   3.214   5.748   5.418
  583SOL    HW2 2649   3.213   5.727   5.580
  584SOL     OW 2650   3.102   4.270   6.580
  584SOL    HW1 2651   3.137   4.230   6.664
  584SOL    HW2 2652   3.008   4.238   6.564
  585SOL     OW 2653   5.440   2.781   6.353
  585SOL    HW1 2654   5.379   2.709   6.319
  585SOL    HW2 2655   5.428   2.863   6.298
  586SOL     OW 2656   3.683   1.272   6.014
  586SOL    HW1 2657   3.700   1.358   6.062
  586SOL    HW2 2658   3.657   1.201   6.080
  587SOL     OW 2659   4.340   1.903   5.224
  587SOL    HW1 2660   4.401   1.981   5.220
  587SOL    HW2 2661   4.322   1.870   5.131
  588SOL     OW 2662   1.371   4.337   2.076
  588SOL    HW1 2663   1.392   4.400   2.000
  588SOL    HW2 2664   1.455   4.318   2.126
  589SOL     OW 2665   3.444   4.681   1.445
  589SOL    HW1 2666   3.378   4.756   1.447
  589SOL    HW2 2667   3.430   4.627   1.362
  590SOL     OW 2668   4.942   3.075   3.452
  590SOL    HW1 2669   4.932   3.115   3.543
  590SOL    HW2 2670   4.891   2.989   3.448
  591SOL     OW 2671   3.073   5.214   3.983
  591SOL    HW1 2672   3.117   5.132   3.946
  591SOL    HW2 2673   3.097   5.293   3.927
  592SOL     OW 2674   3.723   0.882   1.003
  592SOL    HW1 2675   3.795   0.869   1.071
  592SOL    HW2 2676   3.740   0.820   0.926
  593SOL     OW 2677   4.683   2.531   3.717
  593SOL    HW1 2678   4.726   2.620   3.732
  593SOL    HW2 2679   4.617   2.539   3.642
  594SOL     OW 2680   6.468   2.112   0.005
  594SOL    HW1 2681   6.461   2.180   0.078
  594SOL    HW2 2682   6.446   2.154   6.935
  595SOL     OW 2683   5.822   6.931   3.359
  595SOL    HW1 2684   5.786   6.900   3.446
  595SOL    HW2 2685   5.919   6.954   3.368
  596SOL     OW 2686   1.159   4.939   3.269
  596SOL    HW1 2687   1.113   4.943   3.358
  596SOL    HW2 2688   1.097   4.972   3.198
  597SOL     OW 2689   3.382   1.015   6.868
  597SOL    HW1 2690   3.467   1.028   6.817
  597SOL    HW2 2691   3.392   0.936   6.928
  598SOL     OW 2692   4.375   4.994   5.444
  598SOL    HW1 2693   4.454   5.025   5.391
  598SOL    HW2 2694   4.310   4.949   5.384
  599SOL     OW 2695   2.261   6.031   2.142
  599SOL    HW1 2696   2.275   5.932   2.138
  599SOL    HW2 2697   2.348   6.076   2.160
  600SOL     OW 2698   0.026   1.337   6.797
  600SOL    HW1 2699   0.087   1.259   6.780
  600SOL    HW2 2700   6.983   1.350   6.718
  601SOL     OW 2701   2.553   0.573   4.227
  601SOL    HW1 2702   2.481   0.640   4.210
  601SOL    HW2 2703   2.512   0.491   4.267
  602SOL     OW 2704   1.837   2.660   6.410
  602SOL    HW1 2705   1.881   2.655   6.500
  602SOL    HW2 2706   1.866   2.582   6.355
  603SOL     OW 2707   2.427   2.253   4.961
  603SOL    HW1 2708   2.471   2.337   4.928
  603SOL    HW2 2709   2.330   2.254   4.936
  604SOL     OW 2710   1.123   2.989   1.738
  604SOL    HW1 2711   1.112   2.918   1.668
  604SOL    HW2 2712   1.146   3.076   1.695
  605SOL     OW 2713   6.780   6.828   1.721
  605SOL    HW1 2714   6.728   6.812   1.805
  605SOL    HW2 2715   6.720   6.817   1.642
  606SOL     OW 2716   4.414   0.157   6.605
  606SOL    HW1 2717   4.389   0.250   6.578
  606SOL    HW2 2718   4.485   0.122   6.544
  607SOL     OW 2719   6.654   6.666   6.051
  607SOL    HW1 2720   6.716   6.588   6.057
  607SOL    HW2 2721   6.601   6.672   6.136
  608SOL     OW 2722   3.203   6.182   6.069
  608SOL    HW1 2723   3.216   6.086   6.046
  608SOL    HW2 2724   3.284   6.216   6.116
  609SOL     OW 2725   3.988   3.061   3.276
  609SOL    HW1 2726   4.072   3.011   3.298
  609SOL    HW2 2727   3.972   3.131   3.346
  610SOL     OW 2728   5.583   3.645   2.231
  610SOL    HW1 2729   5.491   3.655   2.192
  610SOL    HW2 2730   5.583   3.680   2.325
  611SOL     OW 2731   3.719   6.504   0.688
  611SOL    HW1 2732   3.757   6.557   0.613
  611SOL    HW2 2733   3.766   6.528   0.773
  612SOL     OW 2734   4.292   6.918   5.819
  612SOL    HW1 2735   4.301   6.973   5.736
  612SOL    HW2 2736   4.268   6.978   5.896
  613SOL     OW 2737   3.939   6.414   5.689
  613SOL    HW1 2738   3.997   6.495   5.676
  613SOL    HW2 2739   3.990   6.332   5.663
  614SOL     OW 2740   4.696   5.200   1.219
  614SOL    HW1 2741   4.619   5.207   1.283
  614SOL    HW2 2742   4.782   5.201   1.270
  615SOL     OW 2743   6.117   2.649   1.967
  615SOL    HW1 2744   6.061   2.649   1.884
  615SOL    HW2 2745   6.066   2.606   2.042
  616SOL     OW 2746   6.924   1.937   3.895
  616SOL    HW1 2747   6.832   1.958   3.863
  616SOL    HW2 2748   6.992   1.971   3.830
  617SOL     OW 2749   6.282   4.372   6.439
  617SOL    HW1 2750   6.305   4.376   6.536
  617SOL    HW2 2751   6.183   4.377   6.427
  618SOL     OW 2752   6.205   2.428   6.536
  618SOL    HW1 2753   6.284   2.384   6.494
  618SOL    HW2 2754   6.214   2.527   6.528
  619SOL     OW 2755   4.662   1.314   6.883
  619SOL    HW1 2756   4.608   1.333   6.802
  619SOL    HW2 2757   4.608   1.261   6.948
  620SOL     OW 2758   4.399   3.037   1.412
  620SOL    HW1 2759   4.315   2.982   1.410
  620SOL    HW2 2760   4.424   3.057   1.506
  621SOL     OW 2761   2.975   6.079   6.860
  621SOL    HW1 2762   2.961   5.992   6.906
  621SOL    HW2 2763   2.927   6.079   6.772
  622SOL     OW 2764   1.670   0.831   5.066
  622SOL    HW1 2765   1.659   0.922   5.025
  622SOL    HW2 2766   1.603   0.768   5.026
  623SOL     OW 2767   0.254   5.942   6.076
  623SOL    HW1 2768   0.241   6.024   6.020
  623SOL    HW2 2769   0.343   5.947   6.122
  624SOL     OW 2770   7.011   2.390   1.225
  624SOL    HW1 2771   6.921   2.379   1.266
  624SOL    HW2 2772   0.032   2.300   1.204
  625SOL     OW 2773   1.525   1.848   2.303
  625SOL    HW1 2774   1.610   1.863   2.251
  625SOL    HW2 2775   1.464   1.927   2.291
  626SOL     OW 2776   1.309   5.597   3.151
  626SOL    HW1 2777   1.347   5.521   3.099
  626SOL    HW2 2778   1.306   5.679   3.093
  627SOL     OW 2779   5.945   6.462   0.318
  627SOL    HW1 2780   5.967   6.504   0.230
  627SOL    HW2 2781   6.028   6.423   0.358
  628SOL     OW 2782   5.521   5.457   5.392
  628SOL    HW1 2783   5.559   5.528   5.453
  628SOL    HW2 2784   5.482   5.501   5.311
  629SOL     OW 2785   0.332   0.556   6.482
  629SOL    HW1 2786   0.359   0.535   6.576
  629SOL    HW2 2787   0.405   0.609   6.438
  630SOL     OW 2788   0.533   1.492   1.091
  630SOL    HW1 2789   0.529   1.591   1.078
  630SOL    HW2 2790   0.598   1.453   1.026
  631SOL     OW 2791   3.914   0.478   5.040
  631SOL    HW1 2792   3.835   0.428   5.074
  631SOL    HW2 2793   3.884   0.549   4.976
  632SOL     OW 2794   3.653   1.396   1.424
  632SOL    HW1 2795   3.728   1.374   1.362
  632SOL    HW2 2796   3.611   1.312   1.457
  633SOL     OW 2797   3.329   3.621   6.916
  633SOL    HW1 2798   3.399   3.647   6.850
  633SOL    HW2 2799   3.279   3.541   6.882
  634SOL     OW 2800   3.894   3.002   2.354
  634SOL    HW1 2801   3.799   3.033   2.353
  634SOL    HW2 2802   3.954   3.079   2.376
  635SOL     OW 2803   4.766   5.433   0.935
  635SOL    HW1 2804   4.771   5.403   0.840
  635SOL    HW2 2805   4.723   5.363   0.991
  636SOL     OW 2806   2.563   6.457   0.126
  636SOL    HW1 2807   2.538   6.362   0.147
  636SOL    HW2 2808   2.546   6.475   0.029
  637SOL     OW 2809   0.141   3.034   3.234
  637SOL    HW1 2810   0.123   3.123   3.192
  637SOL    HW2 2811   0.102   2.962   3.178
  638SOL     OW 2812   5.848   2.303   4.072
  638SOL    HW1 2813   5.902   2.300   3.988
  638SOL    HW2 2814   5.801   2.216   4.084
  639SOL     OW 2815   4.873   3.703   3.386
  639SOL    HW1 2816   4.815   3.624   3.406
  639SOL    HW2 2817   4.916   3.690   3.297
  640SOL     OW 2818   0.493   5.470   3.863
  640SOL    HW1 2819   0.569   5.406   3.859
  640SOL    HW2 2820   0.526   5.563   3.851
  641SOL     OW 2821   6.996   5.090   4.408
  641SOL    HW1 2822   6.947   5.065   4.492
  641SOL    HW2 2823   6.935   5.081   4.330
  642SOL     OW 2824   6.767   2.738   4.474
  642SOL    HW1 2825   6.667   2.737   4.470
  642SOL    HW2 2826   6.798   2.672   4.542
  643SOL     OW 2827   6.098   5.300   5.307
  643SOL    HW1 2828   6.012   5.286   5.355
  643SOL    HW2 2829   6.080   5.307   5.209
  644SOL     OW 2830   1.294   6.478   4.011
  644SOL    HW1 2831   1.330   6.419   3.938
  644SOL    HW2 2832   1.326   6.572   3.996
  645SOL     OW 2833   4.142   0.624   4.490
  645SOL    HW1 2834   4.066   0.680   4.456
  645SOL    HW2 2835   4.150   0.634   4.589
  646SOL     OW 2836   3.445   0.921   4.698
  646SOL    HW1 2837   3.484   0.874   4.619
  646SOL    HW2 2838   3.427   0.856   4.771
  647SOL     OW 2839   5.594   1.408   5.266
  647SOL    HW1 2840   5.691   1.387   5.252
  647SOL    HW2 2841   5.586   1.488   5.324
  648SOL     OW 2842   0.687   4.023   3.825
  648SOL    HW1 2843   0.782   4.056   3.828
  648SOL    HW2 2844   0.669   3.982   3.736
  649SOL     OW 2845   2.984   4.235   0.581
  649SOL    HW1 2846   2.988   4.205   0.485
  649SOL    HW2 2847   2.893   4.218   0.617
  650SOL     OW 2848   5.799   4.248   0.241
  650SOL    HW1 2849   5.887   4.210   0.271
  650SOL    HW2 2850   5.741   4.174   0.207
  651SOL     OW 2851   0.507   6.217   6.066
  651SOL    HW1 2852   0.593   6.264   6.085
  651SOL    HW2 2853   0.490   6.148   6.137
  652SOL     OW 2854   4.618   0.564   3.327
  652SOL    HW1 2855   4.714   0.575   3.353
  652SOL    HW2 2856   4.559   0.588   3.404
  653SOL     OW 2857   0.849   5.522   5.945
  653SOL    HW1 2858   0.788   5.498   6.020
  653SOL    HW2 2859   0.879   5.439   5.899
  654SOL     OW 2860   0.509   4.752   5.879
  654SOL    HW1 2861   0.595   4.760   5.829
  654SOL    HW2 2862   0.470   4.843   5.894
  655SOL     OW 2863   0.453   5.953   1.773
  655SOL    HW1 2864   0.405   5.869   1.746
  655SOL    HW2 2865   0.466   6.010   1.692
  656SOL     OW 2866   2.080   6.024   1.113
  656SOL    HW1 2867   2.016   6.019   1.190
  656SOL    HW2 2868   2.035   6.066   1.035
  657SOL     OW 2869   2.406   3.681   1.724
  657SOL    HW1 2870   2.496   3.725   1.730
  657SOL    HW2 2871   2.403   3.601   1.783
  658SOL     OW 2872   2.997   4.090   6.807
  658SOL    HW1 2873   3.045   4.086   6.894
  658SOL    HW2 2874   2.910   4.138   6.818
  659SOL     OW 2875   1.433   5.626   5.530
  659SOL    HW1 2876   1.458   5.555   5.463
  659SOL    HW2 2877   1.491   5.618   5.611
  660SOL     OW 2878   5.632   3.660   2.704
  660SOL    HW1 2879   5.565   3.588   2.689
  660SOL    HW2 2880   5.680   3.679   2.619
  661SOL     OW 2881   5.000   4.761   3.402
  661SOL    HW1 2882   4.995   4.852   3.442
  661SOL    HW2 2883   4.998   4.767   3.302
  662SOL     OW 2884   3.756   0.806   4.592
  662SOL    HW1 2885   3.781   0.899   4.619
  662SOL    HW2 2886   3.831   0.766   4.537
  663SOL     OW 2887   1.763   3.811   0.160
  663SOL    HW1 2888   1.745   3.773   0.069
  663SOL    HW2 2889   1.818   3.746   0.213
  664SOL     OW 2890   6.951   4.981   6.222
  664SOL    HW1 2891   6.937   4.900   6.164
  664SOL    HW2 2892   6.866   5.033   6.228
  665SOL     OW 2893   4.344   4.795   1.267
  665SOL    HW1 2894   4.352   4.700   1.297
  665SOL    HW2 2895   4.435   4.835   1.256
  666SOL     OW 2896   4.749   1.982   3.071
  666SOL    HW1 2897   4.650   1.991   3.072
  666SOL    HW2 2898   4.779   1.926   3.148
  667SOL     OW 2899   6.050   3.912   4.216
  667SOL    HW1 2900   6.062   3.902   4.117
  667SOL    HW2 2901   6.136   3.940   4.258
  668SOL     OW 2902   5.037   5.971   6.498
  668SOL    HW1 2903   5.053   5.888   6.445
  668SOL    HW2 2904   5.116   5.988   6.557
  669SOL     OW 2905   3.889   6.686   3.783
  669SOL    HW1 2906   3.846   6.638   3.706
  669SOL    HW2 2907   3.977   6.642   3.804
  670SOL     OW 2908   2.492   2.771   0.772
  670SOL    HW1 2909   2.490   2.735   0.865
  670SOL    HW2 2910   2.419   2.837   0.760
  671SOL     OW 2911   2.348   6.058   0.977
  671SOL    HW1 2912   2.313   6.019   0.892
  671SOL    HW2 2913   2.272   6.075   1.039
  672SOL     OW 2914   1.195   5.051   2.055
  672SOL    HW1 2915   1.107   5.027   2.013
  672SOL    HW2 2916   1.268   5.002   2.009
  673SOL     OW 2917   0.390   0.476   1.231
  673SOL    HW1 2918   0.322   0.525   1.178
  673SOL    HW2 2919   0.451   0.542   1.277
  674SOL     OW 2920   0.344   3.232   5.108
  674SOL    HW1 2921   0.292   3.201   5.187
  674SOL    HW2 2922   0.298   3.311   5.067
  675SOL     OW 2923   0.175   0.594   4.139
  675SOL    HW1 2924   0.108   0.642   4.196
  675SOL    HW2 2925   0.142   0.502   4.119
  676SOL     OW 2926   4.109   6.173   2.944
  676SOL    HW1 2927   4.106   6.096   3.008
  676SOL    HW2 2928   4.149   6.142   2.857
  677SOL     OW 2929   6.441   1.649   0.094
  677SOL    HW1 2930   6.399   1.735   0.068
  677SOL    HW2 2931   6.404   1.618   0.182
  678SOL     OW 2932   2.032   1.487   5.065
  678SOL    HW1 2933   2.019   1.448   5.157
  678SOL    HW2 2934   1.952   1.467   5.009
  679SOL     OW 2935   4.403   1.877   4.071
  679SOL    HW1 2936   4.332   1.897   4.002
  679SOL    HW2 2937   4.454   1.960   4.091
  680SOL     OW 2938   5.841   5.286   5.401
  680SOL    HW1 2939   5.754   5.258   5.442
  680SOL    HW2 2940   5.888   5.350   5.461
  681SOL     OW 2941   5.324   5.462   1.974
  681SOL    HW1 2942   5.355   5.552   2.003
  681SOL    HW2 2943   5.347   5.394   2.044
  682SOL     OW 2944   1.330   0.911   0.117
  682SOL    HW1 2945   1.255   0.977   0.123
  682SOL    HW2 2946   1.405   0.951   0.064
  683SOL     OW 2947   3.682   3.133   0.489
  683SOL    HW1 2948   3.702   3.036   0.503
  683SOL    HW2 2949   3.645   3.146   0.397
  684SOL     OW 2950   6.952   1.076   6.904
  684SOL    HW1 2951   6.963   0.979   6.880
  684SOL    HW2 2952   6.907   1.084   6.992
  685SOL     OW 2953   4.895   1.221   4.139
  685SOL    HW1 2954   4.846   1.180   4.062
  685SOL    HW2 2955   4.911   1.318   4.121
  686SOL     OW 2956   5.568   2.377   3.959
  686SOL    HW1 2957   5.547   2.472   3.934
  686SOL    HW2 2958   5.616   2.332   3.883
  687SOL     OW 2959   0.176   2.234   4.852
  687SOL    HW1 2960   0.227   2.168   4.796
  687SOL    HW2 2961   0.155   2.193   4.940
  688SOL     OW 2962   0.731   2.350   0.382
  688SOL    HW1 2963   0.731   2.443   0.345
  688SOL    HW2 2964   0.784   2.291   0.321
  689SOL     OW 2965   6.968   4.091   6.033
  689SOL    HW1 2966   0.005   4.015   6.068
  689SOL    HW2 2967   6.968   4.165   6.099
  690SOL     OW 2968   0.630   4.488   3.248
  690SOL    HW1 2969   0.626   4.518   3.343
  690SOL    HW2 2970   0.632   4.388   3.245
  691SOL     OW 2971   2.577   0.188   6.311
  691SOL    HW1 2972   2.496   0.137   6.337
  691SOL    HW2 2973   2.636   0.200   6.391
  692SOL     OW 2974   3.262   5.637   3.669
  692SOL    HW1 2975   3.355   5.646   3.633
  692SOL    HW2 2976   3.260   5.664   3.765
  693SOL     OW 2977   6.340   0.658   3.392
  693SOL    HW1 2978   6.250   0.664   3.435
  693SOL    HW2 2979   6.411   0.674   3.460
  694SOL     OW 2980   4.348   6.274   2.488
  694SOL    HW1 2981   4.317   6.362   2.524
  694SOL    HW2 2982   4.406   6.289   2.408
  695SOL     OW 2983   4.070   6.153   4.409
  695SOL    HW1 2984   4.094   6.081   4.474
  695SOL    HW2 2985   4.110   6.239   4.440
  696SOL     OW 2986   4.168   4.748   2.299
  696SOL    HW1 2987   4.165   4.677   2.228
  696SOL    HW2 2988   4.194   4.835   2.257
  697SOL     OW 2989   2.160   3.261   3.394
  697SOL    HW1 2990   2.066   3.293   3.389
  697SOL    HW2 2991   2.211   3.294   3.314
  698SOL     OW 2992   5.787   6.205   0.232
  698SOL    HW1 2993   5.854   6.134   0.254
  698SOL    HW2 2994   5.812   6.249   0.146
  699SOL     OW 2995   2.039   3.521   6.598
  699SOL    HW1 2996   2.095   3.598   6.567
  699SOL    HW2 2997   2.075   3.487   6.685
  700SOL     OW 2998   2.694   1.349   3.112
  700SOL    HW1 2999   2.708   1.445   3.085
  700SOL    HW2 3000   2.596   1.331   3.121
  701SOL     OW 3001   5.938   3.715   5.189
  701SOL    HW1 3002   5.911   3.775   5.114
  701SOL    HW2 3003   5.989   3.637   5.152
  702SOL     OW 3004   0.794   6.209   5.449
  702SOL    HW1 3005   0.889   6.241   5.444
  702SOL    HW2 3006   0.792   6.110   5.441
  703SOL     OW 3007   3.838   4.195   6.357
  703SOL    HW1 3008   3.774   4.197   6.279
  703SOL    HW2 3009   3.788   4.170   6.440
  704SOL     OW 3010   1.581   1.870   6.982
  704SOL    HW1 3011   1.530   1.857   6.896
  704SOL    HW2 3012   1.669   1.823   6.975
  705SOL     OW 3013   6.322   5.810   2.511
  705SOL    HW1 3014   6.266   5.773   2.438
  705SOL    HW2 3015   6.295   5.770   2.599
  706SOL     OW 3016   4.645   2.567   4.416
  706SOL    HW1 3017   4.617   2.605   4.328
  706SOL    HW2 3018   4.639   2.639   4.486
  707SOL     OW 3019   5.096   6.769   2.652
  707SOL    HW1 3020   5.146   6.769   2.566
  707SOL    HW2 3021   5.079   6.675   2.682
  708SOL     OW 3022   4.300   0.081   1.639
  708SOL    HW1 3023   4.343   0.160   1.594
  708SOL    HW2 3024   4.323   7.015   1.588
  709SOL     OW 3025   1.191   5.554   1.448
  709SOL    HW1 3026   1.229   5.472   1.491
  709SOL    HW2 3027   1.258   5.592   1.384
  710SOL     OW 3028   4.069   3.097   2.871
  710SOL    HW1 3029   3.990   3.044   2.902
  710SOL    HW2 3030   4.142   3.036   2.842
  711SOL     OW 3031   6.900   2.518   5.242
  711SOL    HW1 3032   6.847   2.592   5.282
  711SOL    HW2 3033   6.864   2.430   5.273
  712SOL     OW 3034   4.044   3.347   1.542
  712SOL    HW1 3035   3.992   3.262   1.534
  712SOL    HW2 3036   3.989   3.423   1.508
  713SOL     OW 3037   4.288   2.523   6.214
  713SOL    HW1 3038   4.239   2.567   6.289
  713SOL    HW2 3039   4.223   2.479   6.152
  714SOL     OW 3040   6.666   4.408   4.023
  714SOL    HW1 3041   6.714   4.418   3.936
  714SOL    HW2 3042   6.591   4.474   4.027
  715SOL     OW 3043   5.572   5.952   0.433
  715SOL    HW1 3044   5.595   6.029   0.493
  715SOL    HW2 3045   5.472   5.947   0.424
  716SOL     OW 3046   0.729   0.039   1.396
  716SOL    HW1 3047   0.630   0.048   1.401
  716SOL    HW2 3048   0.761   6.995   1.468
  717SOL     OW 3049   6.177   4.660   5.531
  717SOL    HW1 3050   6.169   4.561   5.533
  717SOL    HW2 3051   6.269   4.686   5.502
  718SOL     OW 3052   5.195   2.341   6.095
  718SOL    HW1 3053   5.274   2.280   6.105
  718SOL    HW2 3054   5.182   2.364   5.999
  719SOL     OW 3055   6.103   0.668   1.761
  719SOL    HW1 3056   6.003   0.665   1.769
  719SOL    HW2 3057   6.131   0.761   1.736
  720SOL     OW 3058   3.509   0.838   6.166
  720SOL    HW1 3059   3.560   0.864   6.084
  720SOL    HW2 3060   3.423   0.890   6.169
  721SOL     OW 3061   2.703   1.519   4.132
  721SOL    HW1 3062   2.648   1.511   4.214
  721SOL    HW2 3063   2.701   1.613   4.099
  722SOL     OW 3064   2.478   0.777   5.367
  722SOL    HW1 3065   2.533   0.751   5.288
  722SOL    HW2 3066   2.491   0.710   5.440
  723SOL     OW 3067   1.991   3.966   3.205
  723SOL    HW1 3068   1.964   3.999   3.115
  723SOL    HW2 3069   2.058   4.029   3.246
  724SOL     OW 3070   1.017   2.866   4.160
  724SOL    HW1 3071   0.926   2.873   4.118
  724SOL    HW2 3072   1.083   2.836   4.091
  725SOL     OW 3073   2.582   5.564   0.270
  725SOL    HW1 3074   2.523   5.483   0.273
  725SOL    HW2 3075   2.631   5.573   0.356
  726SOL     OW 3076   4.067   4.932   0.914
  726SOL    HW1 3077   3.975   4.896   0.897
  726SOL    HW2 3078   4.071   4.970   1.006
  727SOL     OW 3079   5.593   4.238   5.574
  727SOL    HW1 3080   5.625   4.175   5.644
  727SOL    HW2 3081   5.668   4.257   5.510
  728SOL     OW 3082   6.616   2.928   5.294
  728SOL    HW1 3083   6.582   2.949   5.385
  728SOL    HW2 3084   6.693   2.865   5.301
  729SOL     OW 3085   1.210   1.814   0.973
  729SOL    HW1 3086   1.210   1.876   1.052
  729SOL    HW2 3087   1.129   1.833   0.916
  730SOL     OW 3088   6.008   0.959   4.023
  730SOL    HW1 3089   6.021   0.981   3.926
  730SOL    HW2 3090   5.910   0.953   4.043
  731SOL     OW 3091   5.570   4.387   6.158
  731SOL    HW1 3092   5.498   4.398   6.090
  731SOL    HW2 3093   5.558   4.300   6.206
  732SOL     OW 3094   6.719   2.432   1.601
  732SOL    HW1 3095   6.748   2.371   1.675
  732SOL    HW2 3096   6.641   2.487   1.632
  733SOL     OW 3097   5.701   6.167   5.386
  733SOL    HW1 3098   5.615   6.216   5.375
  733SOL    HW2 3099   5.761   6.218   5.448
  734SOL     OW 3100   0.199   4.938   2.854
  734SOL    HW1 3101   0.172   4.843   2.871
  734SOL    HW2 3102   0.183   4.993   2.936
  735SOL     OW 3103   3.802   2.508   0.300
  735SOL    HW1 3104   3.786   2.602   0.329
  735SOL    HW2 3105   3.868   2.508   0.224
  736SOL     OW 3106   0.240   1.146   3.584
  736SOL    HW1 3107   0.183   1.065   3.569
  736SOL    HW2 3108   0.335   1.123   3.564
  737SOL     OW 3109   4.962   1.837   5.248
  737SOL    HW1 3110   4.919   1.925   5.229
  737SOL    HW2 3111   4.911   1.764   5.204
  738SOL     OW 3112   2.025   4.358   1.622
  738SOL    HW1 3113   2.039   4.399   1.532
  738SOL    HW2 3114   1.987   4.266   1.611
  739SOL     OW 3115   4.478   6.973   4.132
  739SOL    HW1 3116   4.389   6.933   4.154
  739SOL    HW2 3117   4.486   6.985   4.033
  740SOL     OW 3118   6.124   0.467   1.454
  740SOL    HW1 3119   6.131   0.561   1.485
  740SOL    HW2 3120   6.029   0.438   1.457
  741SOL     OW 3121   2.353   6.357   3.408
  741SOL    HW1 3122   2.307   6.291   3.467
  741SOL    HW2 3123   2.286   6.402   3.350
  742SOL     OW 3124   2.923   6.725   2.531
  742SOL    HW1 3125   2.857   6.755   2.599
  742SOL    HW2 3126   3.012   6.714   2.573
  743SOL     OW 3127   0.194   4.111   3.658
  743SOL    HW1 3128   0.106   4.143   3.693
  743SOL    HW2 3129   0.264   4.122   3.729
  744SOL     OW 3130   6.079   0.396   6.785
  744SOL    HW1 3131   6.160   0.375   6.840
  744SOL    HW2 3132   6.052   0.314   6.734
  745SOL     OW 3133   1.065   5.343   4.931
  745SOL    HW1 3134   1.015   5.314   5.013
  745SOL    HW2 3135   1.006   5.332   4.851
  746SOL     OW 3136   0.010   4.257   6.266
  746SOL    HW1 3137   0.078   4.203   6.316
  746SOL    HW2 3138   0.039   4.353   6.263
  747SOL     OW 3139   3.546   6.358   4.348
  747SOL    HW1 3140   3.631   6.331   4.303
  747SOL    HW2 3141   3.553   6.453   4.379
  748SOL     OW 3142   3.601   5.155   2.344
  748SOL    HW1 3143   3.671   5.225   2.357
  748SOL    HW2 3144   3.631   5.069   2.384
  749SOL     OW 3145   5.812   4.561   4.677
  749SOL    HW1 3146   5.819   4.464   4.653
  749SOL    HW2 3147   5.721   4.579   4.714
  750SOL     OW 3148   1.821   1.623   1.181
  750SOL    HW1 3149   1.759   1.544   1.186
  750SOL    HW2 3150   1.779   1.695   1.127
  751SOL     OW 3151   4.239   2.393   6.920
  751SOL    HW1 3152   4.170   2.359   6.984
  751SOL    HW2 3153   4.220   2.489   6.900
  752SOL     OW 3154   3.518   0.775   2.370
  752SOL    HW1 3155   3.567   0.706   2.423
  752SOL    HW2 3156   3.499   0.854   2.429
  753SOL     OW 3157   2.120   3.200   5.465
  753SOL    HW1 3158   2.206   3.249   5.479
  753SOL    HW2 3159   2.081   3.226   5.376
  754SOL     OW 3160   5.220   2.378   5.521
  754SOL    HW1 3161   5.224   2.426   5.433
  754SOL    HW2 3162   5.303   2.396   5.573
  755SOL     OW 3163   1.417   4.425   5.473
  755SOL    HW1 3164   1.389   4.491   5.543
  755SOL    HW2 3165   1.479   4.358   5.513
  756SOL     OW 3166   2.830   6.574   6.630
  756SOL    HW1 3167   2.904   6.638   6.613
  756SOL    HW2 3168   2.824   6.556   6.728
  757SOL     OW 3169   0.572   0.957   3.720
  757SOL    HW1 3170   0.522   0.915   3.644
  757SOL    HW2 3171   0.551   0.907   3.804
  758SOL     OW 3172   3.739   0.211   1.848
  758SOL    HW1 3173   3.679   0.287   1.873
  758SOL    HW2 3174   3.691   0.124   1.863
  759SOL     OW 3175   0.271   1.550   1.303
  759SOL    HW1 3176   0.275   1.552   1.203
  759SOL    HW2 3177   0.307   1.636   1.340
  760SOL     OW 3178   5.622   0.111   5.381
  760SOL    HW1 3179   5.629   0.015   5.354
  760SOL    HW2 3180   5.530   0.145   5.361
  761SOL     OW 3181   5.609   3.428   5.902
  761SOL    HW1 3182   5.555   3.510   5.923
  761SOL    HW2 3183   5.616   3.417   5.803
  762SOL     OW 3184   2.403   0.527   4.870
  762SOL    HW1 3185   2.432   0.495   4.780
  762SOL    HW2 3186   2.317   0.577   4.861
  763SOL     OW 3187   4.146   5.199   6.562
  763SOL    HW1 3188   4.076   5.206   6.492
  763SOL    HW2 3189   4.108   5.156   6.643
  764SOL     OW 3190   5.355   1.390   5.110
  764SOL    HW1 3191   5.412   1.370   5.189
  764SOL    HW2 3192   5.362   1.487   5.086
  765SOL     OW 3193   1.883   6.119   1.480
  765SOL    HW1 3194   1.803   6.134   1.538
  765SOL    HW2 3195   1.853   6.102   1.386
  766SOL     OW 3196   2.645   3.215   6.406
  766SOL    HW1 3197   2.684   3.128   6.434
  766SOL    HW2 3198   2.688   3.245   6.321
  767SOL     OW 3199   6.000   5.457   1.746
  767SOL    HW1 3200   5.926   5.519   1.770
  767SOL    HW2 3201   5.962   5.369   1.717
  768SOL     OW 3202   2.328   6.745   2.341
  768SOL    HW1 3203   2.247   6.695   2.372
  768SOL    HW2 3204   2.333   6.743   2.241
  769SOL     OW 3205   2.947   1.082   5.069
  769SOL    HW1 3206   2.961   1.120   4.977
  769SOL    HW2 3207   2.988   1.143   5.137
  770SOL     OW 3208   1.648   4.469   2.835
  770SOL    HW1 3209   1.621   4.373   2.825
  770SOL    HW2 3210   1.741   4.482   2.802
  771SOL     OW 3211   1.798   5.194   2.436
  771SOL    HW1 3212   1.876   5.247   2.405
  771SOL    HW2 3213   1.752   5.243   2.510
  772SOL     OW 3214   5.866   5.382   0.221
  772SOL    HW1 3215   5.930   5.379   0.298
  772SOL    HW2 3216   5.853   5.477   0.193
  773SOL     OW 3217   0.192   3.914   4.583
  773SOL    HW1 3218   0.119   3.887   4.520
  773SOL    HW2 3219   0.272   3.944   4.530
  774SOL     OW 3220   1.594   1.491   1.130
  774SOL    HW1 3221   1.534   1.566   1.159
  774SOL    HW2 3222   1.559   1.452   1.045
  775SOL     OW 3223   0.480   2.232   3.256
  775SOL    HW1 3224   0.506   2.255   3.349
  775SOL    HW2 3225   0.561   2.222   3.199
  776SOL     OW 3226   1.559   6.509   6.251
  776SOL    HW1 3227   1.495   6.584   6.236
  776SOL    HW2 3228   1.553   6.478   6.345
  777SOL     OW 3229   2.478   4.776   1.807
  777SOL    HW1 3230   2.497   4.705   1.875
  777SOL    HW2 3231   2.526   4.860   1.832
  778SOL     OW 3232   2.283   1.549   2.072
  778SOL    HW1 3233   2.246   1.578   2.160
  778SOL    HW2 3234   2.381   1.534   2.081
  779SOL     OW 3235   6.334   2.858   2.345
  779SOL    HW1 3236   6.347   2.924   2.419
  779SOL    HW2 3237   6.237   2.844   2.330
  780SOL     OW 3238   7.005   3.819   4.414
  780SOL    HW1 3239   6.914   3.793   4.383
  780SOL    HW2 3240   0.047   3.739   4.414
  781SOL     OW 3241   5.906   6.980   0.209
  781SOL    HW1 3242   5.955   0.049   0.204
  781SOL    HW2 3243   5.814   6.991   0.170
  782SOL     OW 3244   1.750   4.304   6.303
  782SOL    HW1 3245   1.829   4.359   6.275
  782SOL    HW2 3246   1.707   4.263   6.223
  783SOL     OW 3247   4.824   4.911   1.344
  783SOL    HW1 3248   4.856   5.005   1.352
  783SOL    HW2 3249   4.866   4.855   1.415
  784SOL     OW 3250   4.526   5.481   0.694
  784SOL    HW1 3251   4.600   5.414   0.682
  784SOL    HW2 3252   4.565   5.573   0.694
  785SOL     OW 3253   0.411   2.752   3.803
  785SOL    HW1 3254   0.402   2.665   3.852
  785SOL    HW2 3255   0.441   2.735   3.709
  786SOL     OW 3256   1.439   1.257   2.460
  786SOL    HW1 3257   1.523   1.292   2.503
  786SOL    HW2 3258   1.383   1.334   2.430
  787SOL     OW 3259   2.452   0.761   6.761
  787SOL    HW1 3260   2.508   0.727   6.686
  787SOL    HW2 3261   2.358   0.771   6.731
  788SOL     OW 3262   3.384   2.935   5.851
  788SOL    HW1 3263   3.458   2.881   5.809
  788SOL    HW2 3264   3.305   2.937   5.790
  789SOL     OW 3265   5.221   3.969   0.603
  789SOL    HW1 3266   5.123   3.961   0.583
  789SOL    HW2 3267   5.272   3.906   0.543
  790SOL     OW 3268   2.161   1.216   3.603
  790SOL    HW1 3269   2.219   1.277   3.549
  790SOL    HW2 3270   2.199   1.207   3.695
  791SOL     OW 3271   2.616   5.791   3.876
  791SOL    HW1 3272   2.529   5.827   3.910
  791SOL    HW2 3273   2.601   5.704   3.830
  792SOL     OW 3274   1.234   7.004   0.892
  792SOL    HW1 3275   1.172   0.008   0.817
  792SOL    HW2 3276   1.197   6.929   0.946
  793SOL     OW 3277   4.814   4.528   3.656
  793SOL    HW1 3278   4.890   4.493   3.711
  793SOL    HW2 3279   4.728   4.510   3.704
  794SOL     OW 3280   3.736   3.683   5.500
  794SOL    HW1 3281   3.774   3.682   5.407
  794SOL    HW2 3282   3.771   3.606   5.552
  795SOL     OW 3283   2.887   6.776   4.315
  795SOL    HW1 3284   2.837   6.744   4.235
  795SOL    HW2 3285   2.948   6.851   4.289
  796SOL     OW 3286   6.840   1.880   6.016
  796SOL    HW1 3287   6.921   1.823   6.000
  796SOL    HW2 3288   6.758   1.824   6.009
  797SOL     OW 3289   5.509   3.040   0.486
  797SOL    HW1 3290   5.560   2.968   0.534
  797SOL    HW2 3291   5.568   3.085   0.419
  798SOL     OW 3292   3.991   0.073   2.543
  798SOL    HW1 3293   3.962   0.090   2.448
  798SOL    HW2 3294   4.012   0.161   2.587
  799SOL     OW 3295   0.216   6.812   5.924
  799SOL    HW1 3296   0.299   6.866   5.937
  799SOL    HW2 3297   0.136   6.872   5.926
  800SOL     OW 3298   5.133   2.534   2.655
  800SOL    HW1 3299   5.228   2.546   2.685
  800SOL    HW2 3300   5.092   2.459   2.707
  801SOL     OW 3301   1.594   3.555   4.216
  801SOL    HW1 3302   1.534   3.568   4.295
  801SOL    HW2 3303   1.687   3.583   4.239
  802SOL     OW 3304   3.690   2.215   1.018
  802SOL    HW1 3305   3.677   2.178   0.926
  802SOL    HW2 3306   3.673   2.313   1.018
  803SOL     OW 3307   0.159   6.347   5.612
  803SOL    HW1 3308   0.218   6.364   5.533
  803SOL    HW2 3309   0.163   6.425   5.674
  804SOL     OW 3310   5.414   5.800   6.625
  804SOL    HW1 3311   5.368   5.846   6.702
  804SOL    HW2 3312   5.427   5.703   6.647
  805SOL     OW 3313   3.302   0.044   4.874
  805SOL    HW1 3314   3.262   0.069   4.786
  805SOL    HW2 3315   3.233   7.014   4.930
  806SOL     OW 3316   5.072   1.064   4.528
  806SOL    HW1 3317   5.064   1.083   4.625
  806SOL    HW2 3318   5.111   1.143   4.481
  807SOL     OW 3319   1.628   1.305   4.547
  807SOL    HW1 3320   1.644   1.364   4.468
  807SOL    HW2 3321   1.558   1.346   4.606
  808SOL     OW 3322   4.651   3.347   6.061
  808SOL    HW1 3323   4.569   3.362   6.116
  808SOL    HW2 3324   4.627   3.349   5.964
  809SOL     OW 3325   6.974   4.896   0.848
  809SOL    HW1 3326   0.046   4.940   0.848
  809SOL    HW2 3327   6.951   4.866   0.941
  810SOL     OW 3328   3.508   3.526   1.234
  810SOL    HW1 3329   3.561   3.586   1.174
  810SOL    HW2 3330   3.433   3.485   1.183
  811SOL     OW 3331   4.627   5.125   4.962
  811SOL    HW1 3332   4.551   5.154   4.904
  811SOL    HW2 3333   4.592   5.070   5.038
  812SOL     OW 3334   0.660   0.935   2.091
  812SOL    HW1 3335   0.651   0.871   2.015
  812SOL    HW2 3336   0.755   0.964   2.099
  813SOL     OW 3337   3.451   6.692   4.910
  813SOL    HW1 3338   3.458   6.600   4.948
  813SOL    HW2 3339   3.429   6.757   4.983
  814SOL     OW 3340   6.593   6.042   1.947
  814SOL    HW1 3341   6.607   6.021   2.043
  814SOL    HW2 3342   6.495   6.057   1.930
  815SOL     OW 3343   0.534   3.878   3.633
  815SOL    HW1 3344   0.491   3.805   3.580
  815SOL    HW2 3345   0.470   3.955   3.640
  816SOL     OW 3346   6.236   6.540   0.609
  816SOL    HW1 3347   6.223   6.583   0.519
  816SOL    HW2 3348   6.193   6.597   0.679
  817SOL     OW 3349   2.137   4.399   1.026
  817SOL    HW1 3350   2.125   4.390   0.927
  817SOL    HW2 3351   2.211   4.464   1.044
  818SOL     OW 3352   6.752   2.646   2.406
  818SOL    HW1 3353   6.794   2.702   2.335
  818SOL    HW2 3354   6.653   2.656   2.402
  819SOL     OW 3355   5.661   2.499   2.920
  819SOL    HW1 3356   5.660   2.555   2.838
  819SOL    HW2 3357   5.751   2.507   2.965
  820SOL     OW 3358   2.943   2.326   5.305
  820SOL    HW1 3359   3.029   2.323   5.253
  820SOL    HW2 3360   2.894   2.410   5.283
  821SOL     OW 3361   1.543   4.727   1.377
  821SOL    HW1 3362   1.572   4.745   1.283
  821SOL    HW2 3363   1.613   4.675   1.424
  822SOL     OW 3364   1.289   4.713   3.823
  822SOL    HW1 3365   1.283   4.813   3.815
  822SOL    HW2 3366   1.381   4.683   3.797
  823SOL     OW 3367   4.941   4.073   6.764
  823SOL    HW1 3368   4.973   3.988   6.724
  823SOL    HW2 3369   4.844   4.086   6.742
  824SOL     OW 3370   5.581   0.729   6.099
  824SOL    HW1 3371   5.630   0.807   6.059
  824SOL    HW2 3372   5.573   0.742   6.198
  825SOL     OW 3373   0.370   4.438   1.015
  825SOL    HW1 3374   0.449   4.383   0.989
  825SOL    HW2 3375   0.374   4.527   0.968
  826SOL     OW 3376   5.368   2.996   5.609
  826SOL    HW1 3377   5.284   2.993   5.556
  826SOL    HW2 3378   5.397   3.091   5.620
  827SOL     OW 3379   2.712   4.762   5.247
  827SOL    HW1 3380   2.771   4.790   5.323
  827SOL    HW2 3381   2.756   4.688   5.196
  828SOL     OW 3382   5.628   6.499   6.462
  828SOL    HW1 3383   5.680   6.434   6.406
  828SOL    HW2 3384   5.530   6.483   6.449
  829SOL     OW 3385   3.840   4.017   3.086
  829SOL    HW1 3386   3.886   4.035   3.173
  829SOL    HW2 3387   3.748   4.058   3.088
  830SOL     OW 3388   5.007   5.360   6.567
  830SOL    HW1 3389   4.930   5.349   6.630
  830SOL    HW2 3390   5.006   5.287   6.499
  831SOL     OW 3391   6.180   0.270   0.379
  831SOL    HW1 3392   6.240   0.225   0.312
  831SOL    HW2 3393   6.218   0.359   0.403
  832SOL     OW 3394   3.383   0.629   1.676
  832SOL    HW1 3395   3.330   0.692   1.734
  832SOL    HW2 3396   3.478   0.629   1.705
  833SOL     OW 3397   1.161   3.869   5.973
  833SOL    HW1 3398   1.078   3.902   5.927
  833SOL    HW2 3399   1.139   3.845   6.067
  834SOL     OW 3400   4.214   3.647   0.675
  834SOL    HW1 3401   4.216   3.583   0.751
  834SOL    HW2 3402   4.182   3.601   0.593
  835SOL     OW 3403   3.486   0.261   5.242
  835SOL    HW1 3404   3.501   0.335   5.307
  835SOL    HW2 3405   3.561   0.259   5.176
  836SOL     OW 3406   3.804   6.126   6.317
  836SOL    HW1 3407   3.834   6.088   6.229
  836SOL    HW2 3408   3.704   6.120   6.323
  837SOL     OW 3409   5.765   0.737   0.812
  837SOL    HW1 3410   5.682   0.772   0.767
  837SOL    HW2 3411   5.796   0.804   0.880
  838SOL     OW 3412   2.176   0.673   4.716
  838SOL    HW1 3413   2.167   0.600   4.648
  838SOL    HW2 3414   2.214   0.755   4.673
  839SOL     OW 3415   1.253   2.842   2.041
  839SOL    HW1 3416   1.282   2.752   2.074
  839SOL    HW2 3417   1.323   2.879   1.980
  840SOL     OW 3418   6.370   5.975   0.288
  840SOL    HW1 3419   6.341   5.933   0.202
  840SOL    HW2 3420   6.362   5.908   0.362
  841SOL     OW 3421   4.088   4.783   6.857
  841SOL    HW1 3422   4.034   4.863   6.831
  841SOL    HW2 3423   4.181   4.793   6.822
  842SOL     OW 3424   4.240   0.183   5.290
  842SOL    HW1 3425   4.232   0.270   5.337
  842SOL    HW2 3426   4.161   0.126   5.312
  843SOL     OW 3427   0.719   1.060   1.028
  843SOL    HW1 3428   0.748   1.069   1.123
  843SOL    HW2 3429   0.625   1.026   1.025
  844SOL     OW 3430   5.776   0.673   0.457
  844SOL    HW1 3431   5.682   0.638   0.454
  844SOL    HW2 3432   5.816   0.654   0.547
  845SOL     OW 3433   4.896   4.449   4.985
  845SOL    HW1 3434   4.922   4.545   4.991
  845SOL    HW2 3435   4.884   4.424   4.889
  846SOL     OW 3436   2.051   2.026   6.661
  846SOL    HW1 3437   1.960   2.066   6.671
  846SOL    HW2 3438   2.120   2.097   6.675
  847SOL     OW 3439   1.319   3.008   1.377
  847SOL    HW1 3440   1.360   2.918   1.391
  847SOL    HW2 3441   1.378   3.078   1.417
  848SOL     OW 3442   6.367   0.519   6.082
  848SOL    HW1 3443   6.458   0.537   6.045
  848SOL    HW2 3444   6.332   0.433   6.044
  849SOL     OW 3445   0.575   4.100   6.326
  849SOL    HW1 3446   0.545   4.153   6.247
  849SOL    HW2 3447   0.500   4.042   6.358
  850SOL     OW 3448   5.093   0.409   3.211
  850SOL    HW1 3449   5.149   0.487   3.183
  850SOL    HW2 3450   5.016   0.399   3.149
  851SOL     OW 3451   0.026   1.676   2.376
  851SOL    HW1 3452   0.052   1.715   2.465
  851SOL    HW2 3453   0.084   1.597   2.356
  852SOL     OW 3454   1.404   3.194   6.891
  852SOL    HW1 3455   1.472   3.132   6.931
  852SOL    HW2 3456   1.441   3.287   6.888
  853SOL     OW 3457   1.695   4.395   1.734
  853SOL    HW1 3458   1.653   4.485   1.734
  853SOL    HW2 3459   1.794   4.404   1.740
  854SOL     OW 3460   4.822   5.949   1.086
  854SOL    HW1 3461   4.852   6.023   1.026
  854SOL    HW2 3462   4.793   5.988   1.174
  855SOL     OW 3463   0.292   6.434   1.549
  855SOL    HW1 3464   0.269   6.531   1.539
  855SOL    HW2 3465   0.224   6.378   1.502
  856SOL     OW 3466   1.042   2.642   5.248
  856SOL    HW1 3467   0.962   2.659   5.306
  856SOL    HW2 3468   1.030   2.556   5.198
  857SOL     OW 3469   5.991   4.320   1.554
  857SOL    HW1 3470   6.038   4.403   1.525
  857SOL    HW2 3471   5.992   4.314   1.654
  858SOL     OW 3472   2.503   3.592   0.801
  858SOL    HW1 3473   2.525   3.531   0.725
  858SOL    HW2 3474   2.415   3.565   0.840
  859SOL     OW 3475   5.747   6.261   5.047
  859SOL    HW1 3476   5.656   6.283   5.082
  859SOL    HW2 3477   5.814   6.270   5.121
  860SOL     OW 3478   5.256   3.464   0.902
  860SOL    HW1 3479   5.242   3.369   0.874
  860SOL    HW2 3480   5.171   3.500   0.941
  861SOL     OW 3481   2.475   5.762   3.570
  861SOL    HW1 3482   2.515   5.707   3.496
  861SOL    HW2 3483   2.514   5.732   3.657
  862SOL     OW 3484   0.943   3.979   5.083
  862SOL    HW1 3485   0.851   3.979   5.124
  862SOL    HW2 3486   0.983   3.887   5.093
  863SOL     OW 3487   6.264   0.950   0.916
  863SOL    HW1 3488   6.257   1.049   0.906
  863SOL    HW2 3489   6.189   0.907   0.866
  864SOL     OW 3490   4.092   5.109   3.443
  864SOL    HW1 3491   4.158   5.133   3.372
  864SOL    HW2 3492   4.110   5.017   3.477
  865SOL     OW 3493   0.869   6.075   5.848
  865SOL    HW1 3494   0.940   6.008   5.824
  865SOL    HW2 3495   0.911   6.165   5.858
  866SOL     OW 3496   1.715   2.144   1.655
  866SOL    HW1 3497   1.801   2.193   1.640
  866SOL    HW2 3498   1.655   2.198   1.713
  867SOL     OW 3499   4.026   3.849   1.056
  867SOL    HW1 3500   3.951   3.888   1.003
  867SOL    HW2 3501   4.103   3.829   0.995
  868SOL     OW 3502   6.079   1.350   1.218
  868SOL    HW1 3503   6.178   1.337   1.228
  868SOL    HW2 3504   6.032   1.267   1.246
  869SOL     OW 3505   0.364   4.819   3.291
  869SOL    HW1 3506   0.376   4.775   3.202
  869SOL    HW2 3507   0.311   4.758   3.351
  870SOL     OW 3508   4.397   3.326   0.696
  870SOL    HW1 3509   4.424   3.420   0.676
  870SOL    HW2 3510   4.431   3.300   0.787
  871SOL     OW 3511   4.431   2.338   3.538
  871SOL    HW1 3512   4.388   2.366   3.624
  871SOL    HW2 3513   4.489   2.412   3.504
  872SOL     OW 3514   5.446   3.558   3.582
  872SOL    HW1 3515   5.532   3.607   3.600
  872SOL    HW2 3516   5.414   3.579   3.490
  873SOL     OW 3517   5.450   6.865   4.094
  873SOL    HW1 3518   5.449   6.793   4.025
  873SOL    HW2 3519   5.468   6.953   4.050
  874SOL     OW 3520   0.856   4.208   6.325
  874SOL    HW1 3521   0.793   4.134   6.300
  874SOL    HW2 3522   0.896   4.247   6.242
  875SOL     OW 3523   3.912   3.320   0.546
  875SOL    HW1 3524   3.889   3.413   0.517
  875SOL    HW2 3525   3.828   3.267   0.555
  876SOL     OW 3526   0.296   4.942   2.500
  876SOL    HW1 3527   0.354   4.966   2.577
  876SOL    HW2 3528   0.348   4.952   2.415
  877SOL     OW 3529   4.324   4.099   6.315
  877SOL    HW1 3530   4.263   4.125   6.240
  877SOL    HW2 3531   4.327   4.172   6.383
  878SOL     OW 3532   4.015   6.061   5.210
  878SOL    HW1 3533   3.930   6.081   5.162
  878SOL    HW2 3534   3.995   6.018   5.298
  879SOL     OW 3535   3.548   2.464   1.074
  879SOL    HW1 3536   3.518   2.559   1.064
  879SOL    HW2 3537   3.493   2.419   1.145
  880SOL     OW 3538   3.403   4.116   5.058
  880SOL    HW1 3539   3.369   4.116   5.152
  880SOL    HW2 3540   3.479   4.181   5.049
  881SOL     OW 3541   4.856   4.051   4.988
  881SOL    HW1 3542   4.794   3.985   5.031
  881SOL    HW2 3543   4.926   4.079   5.053
  882SOL     OW 3544   0.799   2.170   4.141
  882SOL    HW1 3545   0.829   2.214   4.226
  882SOL    HW2 3546   0.871   2.109   4.108
  883SOL     OW 3547   4.348   5.657   6.549
  883SOL    HW1 3548   4.321   5.710   6.469
  883SOL    HW2 3549   4.344   5.715   6.630
  884SOL     OW 3550   0.269   4.061   0.023
  884SOL    HW1 3551   0.319   4.039   0.107
  884SOL    HW2 3552   0.198   3.993   0.008
  885SOL     OW 3553   4.688   5.907   6.391
  885SOL    HW1 3554   4.735   5.995   6.385
  885SOL    HW2 3555   4.752   5.833   6.370
  886SOL     OW 3556   4.312   1.232   1.523
  886SOL    HW1 3557   4.230   1.275   1.561
  886SOL    HW2 3558   4.318   1.137   1.554
  887SOL     OW 3559   3.328   6.539   4.220
  887SOL    HW1 3560   3.358   6.607   4.153
  887SOL    HW2 3561   3.378   6.552   4.306
  888SOL     OW 3562   6.040   5.640   2.941
  888SOL    HW1 3563   6.087   5.584   3.009
  888SOL    HW2 3564   5.949   5.603   2.923
  889SOL     OW 3565   1.539   6.367   6.034
  889SOL    HW1 3566   1.573   6.416   6.114
  889SOL    HW2 3567   1.533   6.429   5.957
  890SOL     OW 3568   1.934   5.314   2.076
  890SOL    HW1 3569   2.000   5.254   2.122
  890SOL    HW2 3570   1.841   5.280   2.094
  891SOL     OW 3571   6.254   4.011   0.330
  891SOL    HW1 3572   6.346   3.976   0.313
  891SOL    HW2 3573   6.193   3.934   0.350
  892SOL     OW 3574   3.823   3.836   5.740
  892SOL    HW1 3575   3.772   3.792   5.666
  892SOL    HW2 3576   3.808   3.784   5.825
  893SOL     OW 3577   1.985   1.130   2.319
  893SOL    HW1 3578   1.890   1.160   2.318
  893SOL    HW2 3579   1.995   1.051   2.258
  894SOL     OW 3580   1.253   2.366   3.188
  894SOL    HW1 3581   1.162   2.387   3.153
  894SOL    HW2 3582   1.307   2.450   3.194
  895SOL     OW 3583   0.909   5.331   3.995
  895SOL    HW1 3584   0.934   5.237   4.017
  895SOL    HW2 3585   0.835   5.332   3.927
  896SOL     OW 3586   6.300   6.915   1.428
  896SOL    HW1 3587   6.327   6.914   1.525
  896SOL    HW2 3588   6.275   6.822   1.400
  897SOL     OW 3589   4.395   0.706   6.603
  897SOL    HW1 3590   4.459   0.721   6.528
  897SOL    HW2 3591   4.446   0.696   6.689
  898SOL     OW 3592   3.586   6.344   3.143
  898SOL    HW1 3593   3.558   6.288   3.222
  898SOL    HW2 3594   3.562   6.297   3.059
  899SOL     OW 3595   0.691   5.134   0.962
  899SOL    HW1 3596   0.729   5.063   0.904
  899SOL    HW2 3597   0.689   5.221   0.912
  900SOL     OW 3598   4.320   6.371   0.353
  900SOL    HW1 3599   4.340   6.434   0.428
  900SOL    HW2 3600   4.298   6.423   0.271
  901SOL     OW 3601   1.165   1.278   5.115
  901SOL    HW1 3602   1.134   1.183   5.117
  901SOL    HW2 3603   1.264   1.281   5.130
  902SOL     OW 3604   0.961   2.041   1.092
  902SOL    HW1 3605   1.056   2.021   1.116
  902SOL    HW2 3606   0.915   1.957   1.065
  903SOL     OW 3607   6.982   3.710   5.935
  903SOL    HW1 3608   6.916   3.772   5.978
  903SOL    HW2 3609   6.964   3.617   5.966
  904SOL     OW 3610   1.908   2.713   2.865
  904SOL    HW1 3611   1.947   2.693   2.954
  904SOL    HW2 3612   1.973   2.688   2.793
  905SOL     OW 3613   4.678   3.963   6.119
  905SOL    HW1 3614   4.598   3.931   6.171
  905SOL    HW2 3615   4.651   4.040   6.061
  906SOL     OW 3616   0.837   2.903   6.539
  906SOL    HW1 3617   0.926   2.857   6.533
  906SOL    HW2 3618   0.842   2.976   6.608
  907SOL     OW 3619   5.339   2.577   2.820
  907SOL    HW1 3620   5.427   2.541   2.854
  907SOL    HW2 3621   5.268   2.559   2.888
  908SOL     OW 3622   1.872   5.524   3.134
  908SOL    HW1 3623   1.784   5.551   3.173
  908SOL    HW2 3624   1.893   5.430   3.160
  909SOL     OW 3625   3.045   5.920   2.609
  909SOL    HW1 3626   2.989   5.844   2.641
  909SOL    HW2 3627   2.992   6.004   2.612
  910SOL     OW 3628   2.783   1.131   0.721
  910SOL    HW1 3629   2.872   1.089   0.701
  910SOL    HW2 3630   2.721   1.113   0.645
  911SOL     OW 3631   0.378   5.385   0.743
  911SOL    HW1 3632   0.281   5.393   0.720
  911SOL    HW2 3633   0.390   5.387   0.842
  912SOL     OW 3634   5.600   0.374   3.702
  912SOL    HW1 3635   5.516   0.409   3.661
  912SOL    HW2 3636   5.673   0.376   3.635
  913SOL     OW 3637   1.319   1.037   3.171
  913SOL    HW1 3638   1.267   0.974   3.229
  913SOL    HW2 3639   1.339   1.120   3.222
  914SOL     OW 3640   2.259   5.605   4.999
  914SOL    HW1 3641   2.357   5.589   4.994
  914SOL    HW2 3642   2.240   5.685   5.055
  915SOL     OW 3643   0.940   3.572   0.288
  915SOL    HW1 3644   0.902   3.486   0.324
  915SOL    HW2 3645   0.905   3.649   0.341
  916SOL     OW 3646   1.351   2.610   2.134
  916SOL    HW1 3647   1.328   2.517   2.105
  916SOL    HW2 3648   1.436   2.608   2.186
  917SOL     OW 3649   5.551   0.644   2.190
  917SOL    HW1 3650   5.602   0.591   2.257
  917SOL    HW2 3651   5.454   0.616   2.191
  918SOL     OW 3652   3.040   6.971   0.582
  918SOL    HW1 3653   3.040   0.048   0.615
  918SOL    HW2 3654   2.960   6.956   0.524
  919SOL     OW 3655   6.500   5.532   2.879
  919SOL    HW1 3656   6.517   5.437   2.856
  919SOL    HW2 3657   6.540   5.591   2.809
  920SOL     OW 3658   2.153   5.471   3.183
  920SOL    HW1 3659   2.055   5.454   3.175
  920SOL    HW2 3660   2.171   5.570   3.179
  921SOL     OW 3661   4.845   4.233   2.784
  921SOL    HW1 3662   4.843   4.137   2.756
  921SOL    HW2 3663   4.878   4.289   2.708
  922SOL     OW 3664   3.233   2.983   5.403
  922SOL    HW1 3665   3.228   3.066   5.457
  922SOL    HW2 3666   3.287   2.914   5.452
  923SOL     OW 3667   2.774   4.957   5.978
  923SOL    HW1 3668   2.866   4.921   5.986
  923SOL    HW2 3669   2.743   4.991   6.067
  924SOL     OW 3670   5.913   2.392   2.975
  924SOL    HW1 3671   5.911   2.328   2.898
  924SOL    HW2 3672   5.889   2.344   3.059
  925SOL     OW 3673   0.108   1.972   6.628
  925SOL    HW1 3674   0.087   1.973   6.725
  925SOL    HW2 3675   0.142   1.881   6.602
  926SOL     OW 3676   5.682   1.375   0.356
  926SOL    HW1 3677   5.754   1.317   0.395
  926SOL    HW2 3678   5.646   1.435   0.427
  927SOL     OW 3679   6.360   3.497   3.706
  927SOL    HW1 3680   6.320   3.531   3.621
  927SOL    HW2 3681   6.458   3.483   3.693
  928SOL     OW 3682   1.110   5.507   0.799
  928SOL    HW1 3683   1.045   5.474   0.731
  928SOL    HW2 3684   1.145   5.596   0.772
  929SOL     OW 3685   0.199   0.781   1.483
  929SOL    HW1 3686   0.299   0.777   1.484
  929SOL    HW2 3687   0.168   0.842   1.411
  930SOL     OW 3688   5.279   6.187   4.373
  930SOL    HW1 3689   5.329   6.112   4.330
  930SOL    HW2 3690   5.293   6.185   4.472
  931SOL     OW 3691   5.972   2.205   2.784
  931SOL    HW1 3692   5.940   2.235   2.694
  931SOL    HW2 3693   5.960   2.106   2.793
  932SOL     OW 3694   3.457   6.504   2.934
  932SOL    HW1 3695   3.515   6.459   3.002
  932SOL    HW2 3696   3.502   6.501   2.845
  933SOL     OW 3697   0.972   5.568   3.089
  933SOL    HW1 3698   0.950   5.490   3.030
  933SOL    HW2 3699   1.061   5.606   3.063
  934SOL     OW 3700   1.978   0.661   4.908
  934SOL    HW1 3701   2.053   0.685   4.845
  934SOL    HW2 3702   1.894   0.646   4.856
  935SOL     OW 3703   5.072   4.177   4.811
  935SOL    HW1 3704   4.998   4.148   4.872
  935SOL    HW2 3705   5.123   4.097   4.780
  936SOL     OW 3706   1.290   0.458   6.257
  936SOL    HW1 3707   1.341   0.490   6.336
  936SOL    HW2 3708   1.337   0.380   6.216
  937SOL     OW 3709   5.084   1.171   4.808
  937SOL    HW1 3710   5.095   1.093   4.870
  937SOL    HW2 3711   5.005   1.225   4.836
  938SOL     OW 3712   6.645   5.486   5.917
  938SOL    HW1 3713   6.676   5.391   5.915
  938SOL    HW2 3714   6.687   5.537   5.841
  939SOL     OW 3715   5.979   0.217   5.882
  939SOL    HW1 3716   5.952   0.306   5.920
  939SOL    HW2 3717   5.920   0.146   5.921
  940SOL     OW 3718   0.634   2.731   1.784
  940SOL    HW1 3719   0.590   2.670   1.717
  940SOL    HW2 3720   0.670   2.811   1.737
  941SOL     OW 3721   5.808   1.301   5.521
  941SOL    HW1 3722   5.814   1.324   5.424
  941SOL    HW2 3723   5.818   1.202   5.533
  942SOL     OW 3724   5.018   0.115   3.569
  942SOL    HW1 3725   5.033   0.020   3.543
  942SOL    HW2 3726   4.922   0.139   3.556
  943SOL     OW 3727   1.752   3.215   3.679
  943SOL    HW1 3728   1.825   3.147   3.679
  943SOL    HW2 3729   1.773   3.285   3.610
  944SOL     OW 3730   6.828   3.733   5.682
  944SOL    HW1 3731   6.902   3.747   5.747
  944SOL    HW2 3732   6.864   3.687   5.600
  945SOL     OW 3733   6.192   4.363   5.047
  945SOL    HW1 3734   6.191   4.420   4.965
  945SOL    HW2 3735   6.242   4.279   5.028
  946SOL     OW 3736   4.910   2.261   5.969
  946SOL    HW1 3737   4.838   2.249   5.901
  946SOL    HW2 3738   4.876   2.231   6.058
  947SOL     OW 3739   3.913   3.007   4.308
  947SOL    HW1 3740   3.989   3.041   4.251
  947SOL    HW2 3741   3.849   2.957   4.251
  948SOL     OW 3742   4.103   0.469   1.276
  948SOL    HW1 3743   4.177   0.419   1.320
  948SOL    HW2 3744   4.088   0.556   1.323
  949SOL     OW 3745   0.794   5.991   6.179
  949SOL    HW1 3746   0.823   5.960   6.088
  949SOL    HW2 3747   0.695   5.997   6.182
  950SOL     OW 3748   4.786   5.132   1.701
  950SOL    HW1 3749   4.690   5.111   1.681
  950SOL    HW2 3750   4.815   5.079   1.780
  951SOL     OW 3751   2.113   0.864   3.796
  951SOL    HW1 3752   2.181   0.847   3.725
  951SOL    HW2 3753   2.145   0.938   3.856
  952SOL     OW 3754   4.961   2.153   3.013
  952SOL    HW1 3755   4.956   2.189   2.920
  952SOL    HW2 3756   4.898   2.075   3.022
  953SOL     OW 3757   5.171   5.461   4.030
  953SOL    HW1 3758   5.163   5.373   4.076
  953SOL    HW2 3759   5.205   5.530   4.093
  954SOL     OW 3760   4.641   5.756   0.718
  954SOL    HW1 3761   4.649   5.851   0.686
  954SOL    HW2 3762   4.660   5.753   0.816
  955SOL     OW 3763   6.987   4.089   2.703
  955SOL    HW1 3764   7.005   4.000   2.745
  955SOL    HW2 3765   6.917   4.138   2.757
  956SOL     OW 3766   0.031   2.347   2.854
  956SOL    HW1 3767   0.084   2.308   2.779
  956SOL    HW2 3768   0.031   2.284   2.931
  957SOL     OW 3769   6.959   4.459   4.759
  957SOL    HW1 3770   6.989   4.474   4.853
  957SOL    HW2 3771   6.970   4.544   4.707
  958SOL     OW 3772   4.339   1.591   2.569
  958SOL    HW1 3773   4.299   1.664   2.513
  958SOL    HW2 3774   4.335   1.617   2.665
  959SOL     OW 3775   3.829   5.520   2.909
  959SOL    HW1 3776   3.843   5.525   2.810
  959SOL    HW2 3777   3.796   5.608   2.942
  960SOL     OW 3778   1.278   5.674   3.416
  960SOL    HW1 3779   1.329   5.613   3.476
  960SOL    HW2 3780   1.305   5.656   3.321
  961SOL     OW 3781   4.729   0.220   3.584
  961SOL    HW1 3782   4.665   0.288   3.620
  961SOL    HW2 3783   4.713   0.132   3.628
  962SOL     OW 3784   0.660   0.721   4.736
  962SOL    HW1 3785   0.658   0.710   4.835
  962SOL    HW2 3786   0.747   0.763   4.709
  963SOL     OW 3787   0.019   1.740   5.852
  963SOL    HW1 3788   0.106   1.691   5.862
  963SOL    HW2 3789   0.018   1.789   5.765
  964SOL     OW 3790   5.643   4.421   6.842
  964SOL    HW1 3791   5.678   4.441   6.750
  964SOL    HW2 3792   5.718   4.430   6.908
  965SOL     OW 3793   5.673   1.938   0.952
  965SOL    HW1 3794   5.756   1.984   0.920
  965SOL    HW2 3795   5.606   2.005   0.981
  966SOL     OW 3796   5.168   2.765   1.664
  966SOL    HW1 3797   5.242   2.740   1.602
  966SOL    HW2 3798   5.090   2.797   1.611
  967SOL     OW 3799   1.976   4.063   1.877
  967SOL    HW1 3800   1.893   4.110   1.847
  967SOL    HW2 3801   1.952   3.981   1.929
  968SOL     OW 3802   3.399   1.045   1.698
  968SOL    HW1 3803   3.373   0.950   1.712
  968SOL    HW2 3804   3.322   1.104   1.720
  969SOL     OW 3805   3.376   6.019   5.680
  969SOL    HW1 3806   3.411   5.958   5.752
  969SOL    HW2 3807   3.419   5.995   5.593
  970SOL     OW 3808   5.261   0.791   6.170
  970SOL    HW1 3809   5.191   0.809   6.100
  970SOL    HW2 3810   5.349   0.778   6.125
  971SOL     OW 3811   6.852   1.767   3.401
  971SOL    HW1 3812   6.762   1.757   3.443
  971SOL    HW2 3813   6.842   1.811   3.312
  972SOL     OW 3814   5.513   3.719   1.731
  972SOL    HW1 3815   5.507   3.818   1.716
  972SOL    HW2 3816   5.603   3.696   1.770
  973SOL     OW 3817   6.786   4.467   6.842
  973SOL    HW1 3818   6.835   4.408   6.778
  973SOL    HW2 3819   6.809   4.440   6.936
  974SOL     OW 3820   5.283   6.412   2.493
  974SOL    HW1 3821   5.376   6.377   2.497
  974SOL    HW2 3822   5.223   6.354   2.549
  975SOL     OW 3823   1.542   6.024   6.350
  975SOL    HW1 3824   1.553   6.095   6.419
  975SOL    HW2 3825   1.458   5.974   6.367
  976SOL     OW 3826   0.209   3.520   3.041
  976SOL    HW1 3827   0.235   3.481   2.953
  976SOL    HW2 3828   0.284   3.574   3.078
  977SOL     OW 3829   1.236   0.535   2.523
  977SOL    HW1 3830   1.290   0.591   2.461
  977SOL    HW2 3831   1.205   0.453   2.476
  978SOL     OW 3832   4.613   3.816   5.613
  978SOL    HW1 3833   4.538   3.763   5.651
  978SOL    HW2 3834   4.652   3.768   5.535
  979SOL     OW 3835   6.436   2.044   0.572
  979SOL    HW1 3836   6.510   2.084   0.518
  979SOL    HW2 3837   6.371   2.115   0.598
  980SOL     OW 3838   4.452   2.430   4.550
  980SOL    HW1 3839   4.517   2.448   4.476
  980SOL    HW2 3840   4.406   2.515   4.575
  981SOL     OW 3841   0.736   1.784   4.741
  981SOL    HW1 3842   0.646   1.814   4.711
  981SOL    HW2 3843   0.806   1.839   4.696
  982SOL     OW 3844   2.621   2.330   3.906
  982SOL    HW1 3845   2.588   2.372   3.821
  982SOL    HW2 3846   2.721   2.331   3.907
  983SOL     OW 3847   5.400   2.318   4.744
  983SOL    HW1 3848   5.434   2.225   4.757
  983SOL    HW2 3849   5.466   2.371   4.692
  984SOL     OW 3850   2.524   1.424   4.317
  984SOL    HW1 3851   2.562   1.373   4.395
  984SOL    HW2 3852   2.425   1.430   4.327
  985SOL     OW 3853   5.590   4.575   5.294
  985SOL    HW1 3854   5.652   4.509   5.337
  985SOL    HW2 3855   5.575   4.652   5.356
  986SOL     OW 3856   6.080   4.504   0.641
  986SOL    HW1 3857   6.087   4.602   0.624
  986SOL    HW2 3858   6.121   4.483   0.730
  987SOL     OW 3859   4.538   0.043   1.825
  987SOL    HW1 3860   4.606   6.995   1.857
  987SOL    HW2 3861   4.550   0.058   1.727
  988SOL     OW 3862   3.043   3.528   2.979
  988SOL    HW1 3863   3.098   3.472   3.041
  988SOL    HW2 3864   3.103   3.581   2.920
  989SOL     OW 3865   6.401   0.485   5.394
  989SOL    HW1 3866   6.327   0.423   5.420
  989SOL    HW2 3867   6.487   0.454   5.434
  990SOL     OW 3868   3.932   0.413   2.011
  990SOL    HW1 3869   4.025   0.397   1.977
  990SOL    HW2 3870   3.871   0.344   1.972
  991SOL     OW 3871   1.204   2.719   5.442
  991SOL    HW1 3872   1.149   2.716   5.358
  991SOL    HW2 3873   1.249   2.807   5.449
  992SOL     OW 3874   6.482   2.657   2.415
  992SOL    HW1 3875   6.431   2.738   2.385
  992SOL    HW2 3876   6.420   2.579   2.421
  993SOL     OW 3877   1.328   4.116   1.555
  993SOL    HW1 3878   1.396   4.167   1.609
  993SOL    HW2 3879   1.244   4.106   1.607
  994SOL     OW 3880   3.554   4.184   2.138
  994SOL    HW1 3881   3.525   4.277   2.160
  994SOL    HW2 3882   3.475   4.124   2.134
  995SOL     OW 3883   3.594   2.926   5.418
  995SOL    HW1 3884   3.555   3.017   5.401
  995SOL    HW2 3885   3.687   2.922   5.382
  996SOL     OW 3886   2.833   4.719   4.233
  996SOL    HW1 3887   2.834   4.742   4.330
  996SOL    HW2 3888   2.740   4.732   4.197
  997SOL     OW 3889   1.278   1.103   2.918
  997SOL    HW1 3890   1.312   1.198   2.920
  997SOL    HW2 3891   1.277   1.066   3.010
  998SOL     OW 3892   4.719   0.328   4.299
  998SOL    HW1 3893   4.709   0.229   4.291
  998SOL    HW2 3894   4.629   0.370   4.305
  999SOL     OW 3895   5.202   4.643   2.371
  999SOL    HW1 3896   5.182   4.573   2.303
  999SOL    HW2 3897   5.204   4.733   2.327
 1000SOL     OW 3898   2.423   1.182   2.095
 1000SOL    HW1 3899   2.417   1.245   2.018
 1000SOL    HW2 3900   2.452   1.233   2.177
 1001SOL     OW 3901   5.150   6.404   0.433
 1001SOL    HW1 3902   5.193   6.361   0.353
 1001SOL    HW2 3903   5.112   6.492   0.407
 1002SOL     OW 3904   5.956   1.861   0.625
 1002SOL    HW1 3905   5.936   1.780   0.570
 1002SOL    HW2 3906   5.934   1.842   0.721
 1003SOL     OW 3907   2.034   6.127   2.036
 1003SOL    HW1 3908   2.004   6.063   1.965
 1003SOL    HW2 3909   2.109   6.086   2.087
 1004SOL     OW 3910   0.430   6.889   2.314
 1004SOL    HW1 3911   0.431   6.851   2.222
 1004SOL    HW2 3912   0.383   6.977   2.314
 1005SOL     OW 3913   2.152   2.977   3.996
 1005SOL    HW1 3914   2.155   2.931   3.907
 1005SOL    HW2 3915   2.162   2.909   4.069
 1006SOL     OW 3916   1.490   4.573   1.054
 1006SOL    HW1 3917   1.518   4.664   1.084
 1006SOL    HW2 3918   1.542   4.547   0.972
 1007SOL     OW 3919   4.524   0.383   5.506
 1007SOL    HW1 3920   4.525   0.289   5.473
 1007SOL    HW2 3921   4.464   0.438   5.448
 1008SOL     OW 3922   1.645   2.814   5.070
 1008SOL    HW1 3923   1.664   2.729   5.020
 1008SOL    HW2 3924   1.552   2.843   5.051
 1009SOL     OW 3925   0.283   5.647   4.972
 1009SOL    HW1 3926   0.326   5.677   5.057
 1009SOL    HW2 3927   0.230   5.722   4.933
 1010SOL     OW 3928   3.342   2.763   5.585
 1010SOL    HW1 3929   3.419   2.699   5.587
 1010SOL    HW2 3930   3.265   2.720   5.538
 1011SOL     OW 3931   2.107   5.160   2.219
 1011SOL    HW1 3932   2.174   5.228   2.250
 1011SOL    HW2 3933   2.155   5.081   2.181
 1012SOL     OW 3934   6.957   0.403   1.431
 1012SOL    HW1 3935   6.860   0.387   1.412
 1012SOL    HW2 3936   6.982   0.494   1.399
 1013SOL     OW 3937   1.006   1.064   5.418
 1013SOL    HW1 3938   1.081   1.076   5.353
 1013SOL    HW2 3939   1.037   1.008   5.495
 1014SOL     OW 3940   5.579   5.971   6.503
 1014SOL    HW1 3941   5.546   6.051   6.553
 1014SOL    HW2 3942   5.528   5.890   6.533
 1015SOL     OW 3943   2.909   6.648   5.580
 1015SOL    HW1 3944   2.819   6.607   5.565
 1015SOL    HW2 3945   2.929   6.650   5.678
 1016SOL     OW 3946   4.119   3.579   6.744
 1016SOL    HW1 3947   4.166   3.657   6.704
 1016SOL    HW2 3948   4.141   3.497   6.691
 1017SOL     OW 3949   3.839   2.563   1.419
 1017SOL    HW1 3950   3.883   2.507   1.349
 1017SOL    HW2 3951   3.909   2.600   1.481
 1018SOL     OW 3952   0.577   3.765   4.421
 1018SOL    HW1 3953   0.555   3.688   4.362
 1018SOL    HW2 3954   0.673   3.760   4.448
 1019SOL     OW 3955   6.746   6.758   1.302
 1019SOL    HW1 3956   6.747   6.854   1.273
 1019SOL    HW2 3957   6.760   6.700   1.221
 1020SOL     OW 3958   0.722   0.793   1.614
 1020SOL    HW1 3959   0.748   0.770   1.521
 1020SOL    HW2 3960   0.740   0.890   1.632
 1021SOL     OW 3961   5.097   6.765   1.355
 1021SOL    HW1 3962   5.058   6.703   1.424
 1021SOL    HW2 3963   5.157   6.831   1.400
 1022SOL     OW 3964   4.056   5.016   5.707
 1022SOL    HW1 3965   4.110   5.072   5.644
 1022SOL    HW2 3966   4.089   5.030   5.800
 1023SOL     OW 3967   1.088   6.609   2.905
 1023SOL    HW1 3968   1.113   6.706   2.913
 1023SOL    HW2 3969   1.008   6.601   2.846
 1024SOL     OW 3970   0.185   2.212   4.138
 1024SOL    HW1 3971   0.165   2.285   4.073
 1024SOL    HW2 3972   0.114   2.142   4.133
 1025SOL     OW 3973   2.801   2.759   1.103
 1025SOL    HW1 3974   2.884   2.713   1.134
 1025SOL    HW2 3975   2.808   2.778   1.005
 1026SOL     OW 3976   2.157   2.862   1.119
 1026SOL    HW1 3977   2.146   2.786   1.055
 1026SOL    HW2 3978   2.142   2.830   1.213
 1027SOL     OW 3979   3.076   6.401   1.651
 1027SOL    HW1 3980   3.011   6.468   1.616
 1027SOL    HW2 3981   3.128   6.362   1.574
 1028SOL     OW 3982   3.120   6.151   0.411
 1028SOL    HW1 3983   3.080   6.242   0.402
 1028SOL    HW2 3984   3.075   6.102   0.485
 1029SOL     OW 3985   2.002   6.842   6.929
 1029SOL    HW1 3986   1.962   6.933   6.931
 1029SOL    HW2 3987   2.022   6.816   6.834
 1030SOL     OW 3988   2.963   3.249   1.989
 1030SOL    HW1 3989   3.040   3.258   1.925
 1030SOL    HW2 3990   2.878   3.245   1.938
 1031SOL     OW 3991   5.153   4.751   0.776
 1031SOL    HW1 3992   5.183   4.668   0.823
 1031SOL    HW2 3993   5.203   4.759   0.689
 1032SOL     OW 3994   2.409   2.013   4.702
 1032SOL    HW1 3995   2.392   1.922   4.741
 1032SOL    HW2 3996   2.392   2.083   4.771
 1033SOL     OW 3997   1.525   6.353   0.787
 1033SOL    HW1 3998   1.565   6.278   0.842
 1033SOL    HW2 3999   1.501   6.318   0.697
 1034SOL     OW 4000   0.609   5.314   4.882
 1034SOL    HW1 4001   0.524   5.293   4.931
 1034SOL    HW2 4002   0.588   5.375   4.805
 1035SOL     OW 4003   0.671   1.042   4.906
 1035SOL    HW1 4004   0.727   1.100   4.965
 1035SOL    HW2 4005   0.660   0.952   4.949
 1036SOL     OW 4006   3.334   1.108   2.017
 1036SOL    HW1 4007   3.390   1.177   2.063
 1036SOL    HW2 4008   3.242   1.108   2.057
 1037SOL     OW 4009   1.564   1.020   1.891
 1037SOL    HW1 4010   1.627   0.976   1.828
 1037SOL    HW2 4011   1.614   1.052   1.972
 1038SOL     OW 4012   1.219   0.141   4.909
 1038SOL    HW1 4013   1.187   0.196   4.832
 1038SOL    HW2 4014   1.216   0.044   4.885
 1039SOL     OW 4015   3.371   3.728   5.862
 1039SOL    HW1 4016   3.273   3.750   5.866
 1039SOL    HW2 4017   3.398   3.713   5.768
 1040SOL     OW 4018   4.804   2.963   2.611
 1040SOL    HW1 4019   4.868   2.958   2.535
 1040SOL    HW2 4020   4.802   2.875   2.659
 1041SOL     OW 4021   6.761   0.129   3.460
 1041SOL    HW1 4022   6.754   0.030   3.449
 1041SOL    HW2 4023   6.673   0.172   3.441
 1042SOL     OW 4024   4.673   5.287   2.408
 1042SOL    HW1 4025   4.691   5.228   2.487
 1042SOL    HW2 4026   4.594   5.345   2.427
 1043SOL     OW 4027   3.743   1.322   5.208
 1043SOL    HW1 4028   3.668   1.268   5.248
 1043SOL    HW2 4029   3.707   1.381   5.137
 1044SOL     OW 4030   5.318   4.482   2.610
 1044SOL    HW1 4031   5.319   4.532   2.523
 1044SOL    HW2 4032   5.240   4.420   2.612
 1045SOL     OW 4033   4.478   6.320   2.250
 1045SOL    HW1 4034   4.440   6.408   2.219
 1045SOL    HW2 4035   4.451   6.249   2.185
 1046SOL     OW 4036   1.387   0.697   0.283
 1046SOL    HW1 4037   1.473   0.716   0.330
 1046SOL    HW2 4038   1.353   0.781   0.242
 1047SOL     OW 4039   1.670   1.307   3.303
 1047SOL    HW1 4040   1.627   1.224   3.267
 1047SOL    HW2 4041   1.623   1.335   3.386
 1048SOL     OW 4042   5.104   6.447   4.218
 1048SOL    HW1 4043   5.108   6.543   4.246
 1048SOL    HW2 4044   5.184   6.398   4.253
 1049SOL     OW 4045   6.450   5.959   3.976
 1049SOL    HW1 4046   6.415   5.889   4.039
 1049SOL    HW2 4047   6.394   5.961   3.894
 1050SOL     OW 4048   4.330   5.276   1.155
 1050SOL    HW1 4049   4.345   5.356   1.213
 1050SOL    HW2 4050   4.361   5.296   1.062
 1051SOL     OW 4051   2.628   5.481   0.946
 1051SOL    HW1 4052   2.705   5.529   0.905
 1051SOL    HW2 4053   2.660   5.397   0.990
 1052SOL     OW 4054   3.712   0.443   4.660
 1052SOL    HW1 4055   3.763   0.501   4.724
 1052SOL    HW2 4056   3.626   0.489   4.636
 1053SOL     OW 4057   5.615   4.708   3.250
 1053SOL    HW1 4058   5.710   4.677   3.258
 1053SOL    HW2 4059   5.610   4.784   3.185
 1054SOL     OW 4060   2.943   4.088   5.886
 1054SOL    HW1 4061   3.015   4.078   5.954
 1054SOL    HW2 4062   2.892   4.173   5.903
 1055SOL     OW 4063   4.363   6.978   4.798
 1055SOL    HW1 4064   4.312   6.962   4.882
 1055SOL    HW2 4065   4.298   6.987   4.722
 1056SOL     OW 4066   1.975   5.277   6.219
 1056SOL    HW1 4067   1.998   5.238   6.307
 1056SOL    HW2 4068   1.883   5.317   6.223
 1057SOL     OW 4069   3.057   3.534   2.091
 1057SOL    HW1 4070   3.017   3.449   2.123
 1057SOL    HW2 4071   3.043   3.543   1.992
 1058SOL     OW 4072   4.412   1.451   3.470
 1058SOL    HW1 4073   4.397   1.496   3.557
 1058SOL    HW2 4074   4.326   1.412   3.437
 1059SOL     OW 4075   2.505   6.801   1.123
 1059SOL    HW1 4076   2.521   6.739   1.200
 1059SOL    HW2 4077   2.572   6.783   1.051
 1060SOL     OW 4078   0.021   4.611   4.415
 1060SOL    HW1 4079   0.078   4.567   4.345
 1060SOL    HW2 4080   0.073   4.684   4.459
 1061SOL     OW 4081   5.658   3.716   1.030
 1061SOL    HW1 4082   5.748   3.739   0.994
 1061SOL    HW2 4083   5.593   3.709   0.955
 1062SOL     OW 4084   5.779   3.999   6.327
 1062SOL    HW1 4085   5.741   3.934   6.393
 1062SOL    HW2 4086   5.708   4.025   6.261
 1063SOL     OW 4087   1.883   4.954   2.451
 1063SOL    HW1 4088   1.978   4.927   2.436
 1063SOL    HW2 4089   1.875   5.054   2.444
 1064SOL     OW 4090   1.541   3.900   1.765
 1064SOL    HW1 4091   1.554   3.943   1.854
 1064SOL    HW2 4092   1.495   3.812   1.776
 1065SOL     OW 4093   3.737   0.092   3.768
 1065SOL    HW1 4094   3.700   0.184   3.778
 1065SOL    HW2 4095   3.740   0.067   3.672
 1066SOL     OW 4096   4.607   0.669   3.623
 1066SOL    HW1 4097   4.550   0.747   3.650
 1066SOL    HW2 4098   4.686   0.664   3.684
 1067SOL     OW 4099   0.548   3.688   1.010
 1067SOL    HW1 4100   0.594   3.682   1.098
 1067SOL    HW2 4101   0.455   3.654   1.018
 1068SOL     OW 4102   5.426   5.205   2.978
 1068SOL    HW1 4103   5.352   5.239   2.919
 1068SOL    HW2 4104   5.494   5.277   2.990
 1069SOL     OW 4105   4.354   4.981   0.802
 1069SOL    HW1 4106   4.266   4.953   0.841
 1069SOL    HW2 4107   4.359   4.950   0.707
 1070SOL     OW 4108   0.373   0.171   2.398
 1070SOL    HW1 4109   0.277   0.199   2.406
 1070SOL    HW2 4110   0.424   0.240   2.346
 1071SOL     OW 4111   1.597   1.071   3.116
 1071SOL    HW1 4112   1.498   1.064   3.124
 1071SOL    HW2 4113   1.640   0.990   3.155
 1072SOL     OW 4114   2.385   0.665   0.571
 1072SOL    HW1 4115   2.340   0.589   0.618
 1072SOL    HW2 4116   2.427   0.726   0.639
 1073SOL     OW 4117   4.852   0.129   1.432
 1073SOL    HW1 4118   4.938   0.165   1.395
 1073SOL    HW2 4119   4.869   0.043   1.480
 1074SOL     OW 4120   2.417   5.636   0.904
 1074SOL    HW1 4121   2.503   5.588   0.927
 1074SOL    HW2 4122   2.343   5.570   0.900
 1075SOL     OW 4123   4.819   6.703   4.398
 1075SOL    HW1 4124   4.772   6.697   4.310
 1075SOL    HW2 4125   4.894   6.769   4.391
 1076SOL     OW 4126   0.034   2.917   5.627
 1076SOL    HW1 4127   0.059   2.822   5.646
 1076SOL    HW2 4128   6.958   2.933   5.658
 1077SOL     OW 4129   5.860   0.409   1.477
 1077SOL    HW1 4130   5.810   0.442   1.557
 1077SOL    HW2 4131   5.829   0.459   1.396
 1078SOL     OW 4132   1.250   1.678   2.464
 1078SOL    HW1 4133   1.167   1.622   2.461
 1078SOL    HW2 4134   1.312   1.651   2.391
 1079SOL     OW 4135   2.072   6.184   2.760
 1079SOL    HW1 4136   2.006   6.256   2.740
 1079SOL    HW2 4137   2.025   6.096   2.767
 1080SOL     OW 4138   0.899   4.272   4.050
 1080SOL    HW1 4139   0.928   4.232   4.137
 1080SOL    HW2 4140   0.916   4.207   3.976
 1081SOL     OW 4141   6.970   5.799   5.787
 1081SOL    HW1 4142   7.013   5.767   5.871
 1081SOL    HW2 4143   6.915   5.726   5.747
 1082SOL     OW 4144   4.020   2.001   5.633
 1082SOL    HW1 4145   3.953   1.942   5.589
 1082SOL    HW2 4146   4.022   1.982   5.731
 1083SOL     OW 4147   4.487   3.746   0.047
 1083SOL    HW1 4148   4.391   3.727   0.024
 1083SOL    HW2 4149   4.543   3.670   0.014
 1084SOL     OW 4150   5.774   6.056   6.957
 1084SOL    HW1 4151   5.738   6.017   6.873
 1084SOL    HW2 4152   5.827   5.987   7.006
 1085SOL     OW 4153   1.466   3.724   4.394
 1085SOL    HW1 4154   1.478   3.804   4.453
 1085SOL    HW2 4155   1.396   3.744   4.325
 1086SOL     OW 4156   6.569   6.373   1.042
 1086SOL    HW1 4157   6.588   6.471   1.046
 1086SOL    HW2 4158   6.635   6.324   1.098
 1087SOL     OW 4159   5.389   2.003   5.029
 1087SOL    HW1 4160   5.460   2.031   5.093
 1087SOL    HW2 4161   5.299   2.013   5.073
 1088SOL     OW 4162   6.303   4.182   3.553
 1088SOL    HW1 4163   6.215   4.135   3.557
 1088SOL    HW2 4164   6.337   4.199   3.645
 1089SOL     OW 4165   1.460   6.227   4.187
 1089SOL    HW1 4166   1.524   6.161   4.148
 1089SOL    HW2 4167   1.485   6.245   4.282
 1090SOL     OW 4168   2.207   1.935   3.587
 1090SOL    HW1 4169   2.213   2.014   3.526
 1090SOL    HW2 4170   2.111   1.917   3.608
 1091SOL     OW 4171   2.864   2.392   5.586
 1091SOL    HW1 4172   2.959   2.423   5.593
 1091SOL    HW2 4173   2.845   2.365   5.491
 1092SOL     OW 4174   1.959   4.266   1.176
 1092SOL    HW1 4175   1.870   4.270   1.132
 1092SOL    HW2 4176   2.027   4.315   1.121
 1093SOL     OW 4177   2.042   1.367   2.086
 1093SOL    HW1 4178   2.019   1.297   2.154
 1093SOL    HW2 4179   2.121   1.419   2.118
 1094SOL     OW 4180   0.781   6.745   3.448
 1094SOL    HW1 4181   0.832   6.700   3.521
 1094SOL    HW2 4182   0.738   6.677   3.389
 1095SOL     OW 4183   0.664   2.792   6.800
 1095SOL    HW1 4184   0.612   2.869   6.761
 1095SOL    HW2 4185   0.756   2.822   6.823
 1096SOL     OW 4186   3.448   4.420   1.693
 1096SOL    HW1 4187   3.512   4.346   1.709
 1096SOL    HW2 4188   3.480   4.503   1.740
 1097SOL     OW 4189   2.127   4.418   4.183
 1097SOL    HW1 4190   2.197   4.445   4.117
 1097SOL    HW2 4191   2.107   4.321   4.173
 1098SOL     OW 4192   4.493   3.550   0.540
 1098SOL    HW1 4193   4.400   3.565   0.505
 1098SOL    HW2 4194   4.559   3.592   0.477
 1099SOL     OW 4195   4.656   1.492   5.290
 1099SOL    HW1 4196   4.660   1.543   5.376
 1099SOL    HW2 4197   4.566   1.505   5.247
 1100SOL     OW 4198   3.469   2.298   6.224
 1100SOL    HW1 4199   3.449   2.203   6.250
 1100SOL    HW2 4200   3.504   2.301   6.131
 1101SOL     OW 4201   5.986   2.183   6.802
 1101SOL    HW1 4202   6.072   2.132   6.809
 1101SOL    HW2 4203   6.006   2.281   6.794
 1102SOL     OW 4204   0.563   6.139   4.845
 1102SOL    HW1 4205   0.625   6.138   4.766
 1102SOL    HW2 4206   0.478   6.093   4.822
 1103SOL     OW 4207   3.727   1.913   0.911
 1103SOL    HW1 4208   3.793   1.852   0.955
 1103SOL    HW2 4209   3.634   1.884   0.934
 1104SOL     OW 4210   2.138   2.887   5.202
 1104SOL    HW1 4211   2.208   2.948   5.165
 1104SOL    HW2 4212   2.145   2.884   5.302
 1105SOL     OW 4213   6.624   3.738   4.713
 1105SOL    HW1 4214   6.661   3.750   4.805
 1105SOL    HW2 4215   6.553   3.806   4.696
 1106SOL     OW 4216   0.559   1.952   1.560
 1106SOL    HW1 4217   0.561   2.041   1.606
 1106SOL    HW2 4218   0.539   1.881   1.627
 1107SOL     OW 4219   1.818   0.381   6.523
 1107SOL    HW1 4220   1.727   0.341   6.533
 1107SOL    HW2 4221   1.882   0.333   6.582
 1108SOL     OW 4222   3.794   0.332   5.493
 1108SOL    HW1 4223   3.828   0.364   5.582
 1108SOL    HW2 4224   3.694   0.329   5.495
 1109SOL     OW 4225   4.653   0.486   4.572
 1109SOL    HW1 4226   4.554   0.477   4.568
 1109SOL    HW2 4227   4.677   0.581   4.591
 1110SOL     OW 4228   2.530   2.005   3.273
 1110SOL    HW1 4229   2.495   2.087   3.317
 1110SOL    HW2 4230   2.458   1.936   3.267
 1111SOL     OW 4231   4.824   5.411   5.859
 1111SOL    HW1 4232   4.803   5.322   5.819
 1111SOL    HW2 4233   4.922   5.431   5.845
 1112SOL     OW 4234   5.184   1.606   2.385
 1112SOL    HW1 4235   5.126   1.565   2.456
 1112SOL    HW2 4236   5.252   1.665   2.427
 1113SOL     OW 4237   6.891   3.572   2.486
 1113SOL    HW1 4238   6.956   3.539   2.417
 1113SOL    HW2 4239   6.879   3.671   2.475
 1114SOL     OW 4240   3.863   1.874   6.708
 1114SOL    HW1 4241   3.879   1.807   6.636
 1114SOL    HW2 4242   3.810   1.950   6.671
 1115SOL     OW 4243   4.167   3.504   0.448
 1115SOL    HW1 4244   4.151   3.406   0.441
 1115SOL    HW2 4245   4.201   3.539   0.360
 1116SOL     OW 4246   4.980   6.800   5.185
 1116SOL    HW1 4247   5.079   6.787   5.182
 1116SOL    HW2 4248   4.959   6.897   5.196
 1117SOL     OW 4249   1.134   2.388   2.350
 1117SOL    HW1 4250   1.067   2.322   2.386
 1117SOL    HW2 4251   1.112   2.409   2.254
 1118SOL     OW 4252   2.506   4.492   1.205
 1118SOL    HW1 4253   2.533   4.400   1.234
 1118SOL    HW2 4254   2.435   4.527   1.266
 1119SOL     OW 4255   4.378   4.469   0.514
 1119SOL    HW1 4256   4.278   4.460   0.509
 1119SOL    HW2 4257   4.420   4.392   0.467
 1120SOL     OW 4258   6.059   6.998   5.124
 1120SOL    HW1 4259   6.052   6.981   5.026
 1120SOL    HW2 4260   6.096   6.917   5.170
 1121SOL     OW 4261   4.999   5.060   2.868
 1121SOL    HW1 4262   5.081   5.045   2.924
 1121SOL    HW2 4263   4.935   5.119   2.918
 1122SOL     OW 4264   5.449   3.583   6.854
 1122SOL    HW1 4265   5.422   3.526   6.932
 1122SOL    HW2 4266   5.390   3.562   6.776
 1123SOL     OW 4267   5.212   1.291   2.928
 1123SOL    HW1 4268   5.205   1.268   3.025
 1123SOL    HW2 4269   5.270   1.372   2.917
 1124SOL     OW 4270   6.685   3.531   5.369
 1124SOL    HW1 4271   6.631   3.474   5.431
 1124SOL    HW2 4272   6.773   3.551   5.412
 1125SOL     OW 4273   3.396   1.518   4.905
 1125SOL    HW1 4274   3.308   1.563   4.920
 1125SOL    HW2 4275   3.436   1.552   4.819
 1126SOL     OW 4276   6.041   5.018   6.716
 1126SOL    HW1 4277   6.129   5.059   6.741
 1126SOL    HW2 4278   6.057   4.929   6.672
 1127SOL     OW 4279   5.133   5.114   4.527
 1127SOL    HW1 4280   5.193   5.078   4.455
 1127SOL    HW2 4281   5.189   5.140   4.606
 1128SOL     OW 4282   5.520   1.942   5.428
 1128SOL    HW1 4283   5.541   2.000   5.350
 1128SOL    HW2 4284   5.561   1.981   5.511
 1129SOL     OW 4285   3.125   0.694   6.926
 1129SOL    HW1 4286   3.071   0.777   6.911
 1129SOL    HW2 4287   3.201   0.693   6.861
 1130SOL     OW 4288   2.558   4.983   0.400
 1130SOL    HW1 4289   2.605   5.000   0.487
 1130SOL    HW2 4290   2.459   4.992   0.414
 1131SOL     OW 4291   0.244   6.175   5.941
 1131SOL    HW1 4292   0.339   6.202   5.952
 1131SOL    HW2 4293   0.185   6.256   5.948
 1132SOL     OW 4294   5.509   0.296   1.296
 1132SOL    HW1 4295   5.522   0.197   1.297
 1132SOL    HW2 4296   5.441   0.322   1.364
 1133SOL     OW 4297   0.815   0.614   1.018
 1133SOL    HW1 4298   0.742   0.554   1.051
 1133SOL    HW2 4299   0.879   0.632   1.093
 1134SOL     OW 4300   5.391   0.962   1.667
 1134SOL    HW1 4301   5.450   0.882   1.658
 1134SOL    HW2 4302   5.441   1.044   1.637
 1135SOL     OW 4303   2.409   1.330   2.824
 1135SOL    HW1 4304   2.392   1.260   2.755
 1135SOL    HW2 4305   2.367   1.416   2.796
 1136SOL     OW 4306   3.211   4.996   4.580
 1136SOL    HW1 4307   3.145   4.946   4.524
 1136SOL    HW2 4308   3.168   5.080   4.614
 1137SOL     OW 4309   0.949   1.178   6.609
 1137SOL    HW1 4310   1.001   1.128   6.539
 1137SOL    HW2 4311   0.963   1.276   6.597
 1138SOL     OW 4312   0.134   1.038   6.377
 1138SOL    HW1 4313   0.137   1.137   6.363
 1138SOL    HW2 4314   0.183   0.992   6.303
 1139SOL     OW 4315   3.572   5.130   1.509
 1139SOL    HW1 4316   3.618   5.043   1.491
 1139SOL    HW2 4317   3.477   5.113   1.534
 1140SOL     OW 4318   4.360   1.230   2.101
 1140SOL    HW1 4319   4.281   1.207   2.157
 1140SOL    HW2 4320   4.428   1.156   2.107
 1141SOL     OW 4321   0.153   6.487   6.667
 1141SOL    HW1 4322   0.113   6.400   6.638
 1141SOL    HW2 4323   0.252   6.476   6.681
 1142SOL     OW 4324   2.844   0.137   4.986
 1142SOL    HW1 4325   2.867   0.233   4.999
 1142SOL    HW2 4326   2.840   0.116   4.888
 1143SOL     OW 4327   1.787   3.392   2.522
 1143SOL    HW1 4328   1.696   3.417   2.555
 1143SOL    HW2 4329   1.809   3.446   2.440
 1144SOL     OW 4330   6.464   5.006   5.220
 1144SOL    HW1 4331   6.494   5.021   5.126
 1144SOL    HW2 4332   6.445   5.093   5.264
 1145SOL     OW 4333   0.056   3.910   2.133
 1145SOL    HW1 4334   0.041   3.814   2.110
 1145SOL    HW2 4335   0.148   3.937   2.105
 1146SOL     OW 4336   6.289   0.691   2.382
 1146SOL    HW1 4337   6.260   0.610   2.331
 1146SOL    HW2 4338   6.369   0.732   2.337
 1147SOL     OW 4339   2.384   5.371   1.441
 1147SOL    HW1 4340   2.349   5.294   1.388
 1147SOL    HW2 4341   2.482   5.358   1.457
 1148SOL     OW 4342   4.957   6.685   0.630
 1148SOL    HW1 4343   4.879   6.728   0.677
 1148SOL    HW2 4344   4.926   6.648   0.543
 1149SOL     OW 4345   6.744   4.223   2.770
 1149SOL    HW1 4346   6.673   4.291   2.788
 1149SOL    HW2 4347   6.702   4.134   2.755
 1150SOL     OW 4348   2.756   3.868   0.519
 1150SOL    HW1 4349   2.760   3.777   0.480
 1150SOL    HW2 4350   2.846   3.893   0.556
 1151SOL     OW 4351   4.440   5.539   6.879
 1151SOL    HW1 4352   4.371   5.470   6.900
 1151SOL    HW2 4353   4.483   5.570   6.964
 1152SOL     OW 4354   6.138   4.744   6.022
 1152SOL    HW1 4355   6.211   4.772   5.960
 1152SOL    HW2 4356   6.065   4.699   5.970
 1153SOL     OW 4357   2.369   0.227   1.342
 1153SOL    HW1 4358   2.273   0.200   1.345
 1153SOL    HW2 4359   2.414   0.184   1.264
 1154SOL     OW 4360   0.622   4.294   1.639
 1154SOL    HW1 4361   0.569   4.210   1.654
 1154SOL    HW2 4362   0.612   4.322   1.543
 1155SOL     OW 4363   2.262   5.560   6.370
 1155SOL    HW1 4364   2.294   5.494   6.302
 1155SOL    HW2 4365   2.339   5.613   6.404
 1156SOL     OW 4366   3.007   1.671   4.348
 1156SOL    HW1 4367   2.953   1.588   4.331
 1156SOL    HW2 4368   3.036   1.673   4.443
 1157SOL     OW 4369   5.878   0.566   5.515
 1157SOL    HW1 4370   5.941   0.565   5.593
 1157SOL    HW2 4371   5.922   0.612   5.437
 1158SOL     OW 4372   6.759   5.522   5.435
 1158SOL    HW1 4373   6.659   5.513   5.439
 1158SOL    HW2 4374   6.784   5.588   5.365
 1159SOL     OW 4375   6.358   0.062   4.119
 1159SOL    HW1 4376   6.366   0.093   4.214
 1159SOL    HW2 4377   6.363   6.979   4.116
 1160SOL     OW 4378   3.900   3.775   1.287
 1160SOL    HW1 4379   3.970   3.798   1.219
 1160SOL    HW2 4380   3.810   3.787   1.246
 1161SOL     OW 4381   6.581   0.559   6.725
 1161SOL    HW1 4382   6.544   0.567   6.632
 1161SOL    HW2 4383   6.653   0.626   6.738
 1162SOL     OW 4384   2.747   2.003   6.631
 1162SOL    HW1 4385   2.738   2.103   6.639
 1162SOL    HW2 4386   2.816   1.981   6.561
 1163SOL     OW 4387   6.779   3.146   1.491
 1163SOL    HW1 4388   6.745   3.093   1.569
 1163SOL    HW2 4389   6.707   3.152   1.421
 1164SOL     OW 4390   5.633   2.970   5.452
 1164SOL    HW1 4391   5.636   2.902   5.379
 1164SOL    HW2 4392   5.538   2.994   5.473
 1165SOL     OW 4393   2.619   4.559   3.853
 1165SOL    HW1 4394   2.702   4.508   3.874
 1165SOL    HW2 4395   2.583   4.530   3.764
 1166SOL     OW 4396   3.465   6.969   0.002
 1166SOL    HW1 4397   3.455   6.995   6.923
 1166SOL    HW2 4398   3.391   7.009   0.056
 1167SOL     OW 4399   4.427   6.458   6.534
 1167SOL    HW1 4400   4.413   6.545   6.486
 1167SOL    HW2 4401   4.358   6.448   6.606
 1168SOL     OW 4402   5.017   1.982   3.882
 1168SOL    HW1 4403   5.103   1.976   3.931
 1168SOL    HW2 4404   4.957   1.907   3.909
 1169SOL     OW 4405   5.153   2.424   5.826
 1169SOL    HW1 4406   5.172   2.379   5.738
 1169SOL    HW2 4407   5.059   2.403   5.854
 1170SOL     OW 4408   5.454   1.178   2.825
 1170SOL    HW1 4409   5.361   1.210   2.840
 1170SOL    HW2 4410   5.461   1.083   2.854
 1171SOL     OW 4411   2.857   6.378   0.047
 1171SOL    HW1 4412   2.827   6.448   7.000
 1171SOL    HW2 4413   2.780   6.319   0.071
 1172SOL     OW 4414   3.064   4.023   2.119
 1172SOL    HW1 4415   3.039   4.114   2.153
 1172SOL    HW2 4416   3.006   3.954   2.162
 1173SOL     OW 4417   3.610   1.058   6.688
 1173SOL    HW1 4418   3.707   1.082   6.678
 1173SOL    HW2 4419   3.576   1.020   6.603
 1174SOL     OW 4420   3.555   4.653   0.684
 1174SOL    HW1 4421   3.562   4.752   0.672
 1174SOL    HW2 4422   3.621   4.608   0.624
 1175SOL     OW 4423   3.929   3.336   6.742
 1175SOL    HW1 4424   3.879   3.397   6.681
 1175SOL    HW2 4425   4.020   3.318   6.706
 1176SOL     OW 4426   5.870   4.846   6.495
 1176SOL    HW1 4427   5.877   4.945   6.503
 1176SOL    HW2 4428   5.827   4.822   6.407
 1177SOL     OW 4429   6.560   1.945   5.683
 1177SOL    HW1 4430   6.466   1.912   5.674
 1177SOL    HW2 4431   6.574   1.981   5.775
 1178SOL     OW 4432   3.020   3.583   1.029
 1178SOL    HW1 4433   2.983   3.625   1.112
 1178SOL    HW2 4434   2.976   3.625   0.949
 1179SOL     OW 4435   3.395   6.686   0.837
 1179SOL    HW1 4436   3.465   6.710   0.771
 1179SOL    HW2 4437   3.310   6.735   0.817
 1180SOL     OW 4438   2.373   6.146   3.891
 1180SOL    HW1 4439   2.382   6.073   3.959
 1180SOL    HW2 4440   2.394   6.110   3.800
 1181SOL     OW 4441   0.468   3.245   5.854
 1181SOL    HW1 4442   0.493   3.342   5.858
 1181SOL    HW2 4443   0.549   3.191   5.835
 1182SOL     OW 4444   2.761   5.282   3.132
 1182SOL    HW1 4445   2.811   5.232   3.061
 1182SOL    HW2 4446   2.734   5.219   3.204
 1183SOL     OW 4447   3.586   5.430   1.903
 1183SOL    HW1 4448   3.571   5.397   1.996
 1183SOL    HW2 4449   3.615   5.354   1.845
 1184SOL     OW 4450   5.351   0.034   6.466
 1184SOL    HW1 4451   5.367   6.955   6.443
 1184SOL    HW2 4452   5.280   0.040   6.536
 1185SOL     OW 4453   0.877   1.036   1.259
 1185SOL    HW1 4454   0.962   0.984   1.257
 1185SOL    HW2 4455   0.898   1.133   1.274
 1186SOL     OW 4456   5.557   5.991   5.208
 1186SOL    HW1 4457   5.583   6.067   5.268
 1186SOL    HW2 4458   5.634   5.928   5.199
 1187SOL     OW 4459   5.306   6.938   5.575
 1187SOL    HW1 4460   5.240   7.009   5.551
 1187SOL    HW2 4461   5.392   6.981   5.602
 1188SOL     OW 4462   3.670   5.607   6.049
 1188SOL    HW1 4463   3.658   5.516   6.009
 1188SOL    HW2 4464   3.581   5.645   6.072
 1189SOL     OW 4465   5.990   0.387   1.737
 1189SOL    HW1 4466   5.973   0.418   1.831
 1189SOL    HW2 4467   6.053   0.450   1.692
 1190SOL     OW 4468   3.371   5.903   2.977
 1190SOL    HW1 4469   3.341   5.872   2.887
 1190SOL    HW2 4470   3.451   5.850   3.006
 1191SOL     OW 4471   2.612   6.474   4.147
 1191SOL    HW1 4472   2.592   6.474   4.245
 1191SOL    HW2 4473   2.604   6.381   4.110
 1192SOL     OW 4474   5.772   6.267   3.505
 1192SOL    HW1 4475   5.856   6.304   3.545
 1192SOL    HW2 4476   5.743   6.327   3.430
 1193SOL     OW 4477   0.234   0.417   4.994
 1193SOL    HW1 4478   0.235   0.383   4.900
 1193SOL    HW2 4479   0.200   0.346   5.054
 1194SOL     OW 4480   6.620   1.629   0.771
 1194SOL    HW1 4481   6.713   1.634   0.734
 1194SOL    HW2 4482   6.585   1.536   0.763
 1195SOL     OW 4483   6.276   3.588   0.528
 1195SOL    HW1 4484   6.314   3.551   0.613
 1195SOL    HW2 4485   6.349   3.601   0.462
 1196SOL     OW 4486   6.125   4.379   2.894
 1196SOL    HW1 4487   6.046   4.347   2.947
 1196SOL    HW2 4488   6.109   4.473   2.865
 1197SOL     OW 4489   4.473   6.679   4.154
 1197SOL    HW1 4490   4.426   6.593   4.175
 1197SOL    HW2 4491   4.512   6.717   4.238
 1198SOL     OW 4492   1.046   3.882   2.232
 1198SOL    HW1 4493   1.145   3.890   2.221
 1198SOL    HW2 4494   1.019   3.785   2.227
 1199SOL     OW 4495   3.335   2.943   2.811
 1199SOL    HW1 4496   3.284   2.984   2.886
 1199SOL    HW2 4497   3.424   2.988   2.803
 1200SOL     OW 4498   3.769   3.909   4.536
 1200SOL    HW1 4499   3.789   3.956   4.450
 1200SOL    HW2 4500   3.733   3.818   4.517
 1201SOL     OW 4501   6.971   0.747   5.040
 1201SOL    HW1 4502   7.016   0.816   4.983
 1201SOL    HW2 4503   6.876   0.774   5.056
 1202SOL     OW 4504   6.392   6.380   5.380
 1202SOL    HW1 4505   6.409   6.384   5.282
 1202SOL    HW2 4506   6.463   6.325   5.424
 1203SOL     OW 4507   0.458   6.430   0.391
 1203SOL    HW1 4508   0.529   6.420   0.322
 1203SOL    HW2 4509   0.415   6.520   0.383
 1204SOL     OW 4510   5.101   1.299   1.794
 1204SOL    HW1 4511   5.098   1.270   1.890
 1204SOL    HW2 4512   5.031   1.369   1.778
 1205SOL     OW 4513   3.653   3.565   0.253
 1205SOL    HW1 4514   3.739   3.564   0.203
 1205SOL    HW2 4515   3.590   3.630   0.210
 1206SOL     OW 4516   1.190   3.143   4.562
 1206SOL    HW1 4517   1.226   3.058   4.524
 1206SOL    HW2 4518   1.260   3.187   4.618
 1207SOL     OW 4519   0.375   0.449   0.894
 1207SOL    HW1 4520   0.468   0.450   0.930
 1207SOL    HW2 4521   0.316   0.400   0.958
 1208SOL     OW 4522   3.084   3.543   1.793
 1208SOL    HW1 4523   3.162   3.605   1.782
 1208SOL    HW2 4524   3.118   3.451   1.815
 1209SOL     OW 4525   5.373   0.456   4.191
 1209SOL    HW1 4526   5.297   0.392   4.202
 1209SOL    HW2 4527   5.350   0.542   4.236
 1210SOL     OW 4528   4.817   6.700   4.107
 1210SOL    HW1 4529   4.788   6.662   4.019
 1210SOL    HW2 4530   4.877   6.635   4.154
 1211SOL     OW 4531   0.564   3.416   2.914
 1211SOL    HW1 4532   0.508   3.472   2.975
 1211SOL    HW2 4533   0.642   3.379   2.964
 1212SOL     OW 4534   6.614   0.556   5.978
 1212SOL    HW1 4535   6.675   0.521   6.048
 1212SOL    HW2 4536   6.636   0.513   5.890
 1213SOL     OW 4537   5.294   1.932   2.260
 1213SOL    HW1 4538   5.317   2.028   2.242
 1213SOL    HW2 4539   5.335   1.875   2.189
 1214SOL     OW 4540   0.188   2.645   6.401
 1214SOL    HW1 4541   0.185   2.592   6.486
 1214SOL    HW2 4542   0.262   2.712   6.406
 1215SOL     OW 4543   1.533   4.702   2.513
 1215SOL    HW1 4544   1.510   4.695   2.416
 1215SOL    HW2 4545   1.452   4.687   2.568
 1216SOL     OW 4546   5.846   1.247   0.859
 1216SOL    HW1 4547   5.850   1.330   0.803
 1216SOL    HW2 4548   5.910   1.179   0.824
 1217SOL     OW 4549   3.055   5.109   0.700
 1217SOL    HW1 4550   3.150   5.089   0.727
 1217SOL    HW2 4551   2.993   5.062   0.763
 1218SOL     OW 4552   1.807   2.725   5.518
 1218SOL    HW1 4553   1.888   2.671   5.496
 1218SOL    HW2 4554   1.810   2.812   5.469
 1219SOL     OW 4555   5.183   5.183   1.899
 1219SOL    HW1 4556   5.114   5.233   1.845
 1219SOL    HW2 4557   5.253   5.247   1.930
 1220SOL     OW 4558   6.577   3.955   2.213
 1220SOL    HW1 4559   6.605   3.927   2.121
 1220SOL    HW2 4560   6.641   4.024   2.248
 1221SOL     OW 4561   5.254   3.848   6.516
 1221SOL    HW1 4562   5.329   3.832   6.579
 1221SOL    HW2 4563   5.283   3.911   6.444
 1222SOL     OW 4564   0.139   0.824   6.830
 1222SOL    HW1 4565   0.230   0.799   6.863
 1222SOL    HW2 4566   0.073   0.820   6.906
 1223SOL     OW 4567   3.805   0.979   0.362
 1223SOL    HW1 4568   3.807   0.978   0.462
 1223SOL    HW2 4569   3.741   0.910   0.330
 1224SOL     OW 4570   3.251   5.941   6.802
 1224SOL    HW1 4571   3.211   5.992   6.878
 1224SOL    HW2 4572   3.326   5.884   6.836
 1225SOL     OW 4573   3.678   2.721   6.912
 1225SOL    HW1 4574   3.713   2.676   6.994
 1225SOL    HW2 4575   3.592   2.768   6.934
 1226SOL     OW 4576   3.382   6.126   0.375
 1226SOL    HW1 4577   3.286   6.147   0.393
 1226SOL    HW2 4578   3.394   6.105   0.278
 1227SOL     OW 4579   5.392   5.033   5.528
 1227SOL    HW1 4580   5.331   5.054   5.604
 1227SOL    HW2 4581   5.350   5.063   5.442
 1228SOL     OW 4582   3.801   2.309   6.327
 1228SOL    HW1 4583   3.759   2.228   6.285
 1228SOL    HW2 4584   3.826   2.288   6.422
 1229SOL     OW 4585   1.921   5.471   0.235
 1229SOL    HW1 4586   1.967   5.545   0.284
 1229SOL    HW2 4587   1.871   5.509   0.157
 1230SOL     OW 4588   5.879   6.050   2.093
 1230SOL    HW1 4589   5.800   6.043   2.033
 1230SOL    HW2 4590   5.896   6.146   2.116
 1231SOL     OW 4591   1.451   1.953   4.946
 1231SOL    HW1 4592   1.353   1.957   4.930
 1231SOL    HW2 4593   1.476   2.016   5.019
 1232SOL     OW 4594   6.229   0.966   4.860
 1232SOL    HW1 4595   6.216   0.875   4.819
 1232SOL    HW2 4596   6.141   1.013   4.865
 1233SOL     OW 4597   0.738   5.821   4.753
 1233SOL    HW1 4598   0.782   5.749   4.805
 1233SOL    HW2 4599   0.640   5.802   4.745
 1234SOL     OW 4600   5.895   2.205   5.280
 1234SOL    HW1 4601   5.878   2.188   5.378
 1234SOL    HW2 4602   5.810   2.236   5.237
 1235SOL     OW 4603   6.148   4.911   1.479
 1235SOL    HW1 4604   6.147   4.983   1.549
 1235SOL    HW2 4605   6.226   4.851   1.494
 1236SOL     OW 4606   4.608   1.692   1.687
 1236SOL    HW1 4607   4.672   1.715   1.760
 1236SOL    HW2 4608   4.531   1.756   1.689
 1237SOL     OW 4609   1.096   4.649   5.316
 1237SOL    HW1 4610   1.174   4.628   5.256
 1237SOL    HW2 4611   1.085   4.749   5.322
 1238SOL     OW 4612   1.675   0.055   6.126
 1238SOL    HW1 4613   1.729   0.105   6.058
 1238SOL    HW2 4614   1.595   0.014   6.081
 1239SOL     OW 4615   0.231   6.672   6.445
 1239SOL    HW1 4616   0.162   6.744   6.453
 1239SOL    HW2 4617   0.195   6.587   6.485
 1240SOL     OW 4618   6.017   6.022   1.487
 1240SOL    HW1 4619   5.988   5.926   1.484
 1240SOL    HW2 4620   6.104   6.028   1.536
 1241SOL     OW 4621   5.879   4.146   5.484
 1241SOL    HW1 4622   5.957   4.101   5.441
 1241SOL    HW2 4623   5.816   4.178   5.413
 1242SOL     OW 4624   1.966   3.962   1.061
 1242SOL    HW1 4625   1.915   4.047   1.070
 1242SOL    HW2 4626   1.949   3.904   1.141
 1243SOL     OW 4627   1.178   1.028   5.219
 1243SOL    HW1 4628   1.267   1.047   5.260
 1243SOL    HW2 4629   1.189   0.971   5.138
 1244SOL     OW 4630   5.341   6.202   4.650
 1244SOL    HW1 4631   5.303   6.128   4.706
 1244SOL    HW2 4632   5.429   6.231   4.689
 1245SOL     OW 4633   5.177   4.096   7.000
 1245SOL    HW1 4634   5.214   4.029   6.936
 1245SOL    HW2 4635   5.084   4.070   0.007
 1246SOL     OW 4636   3.128   1.477   1.338
 1246SOL    HW1 4637   3.062   1.518   1.275
 1246SOL    HW2 4638   3.217   1.468   1.294
 1247SOL     OW 4639   0.108   6.600   5.775
 1247SOL    HW1 4640   0.168   6.664   5.824
 1247SOL    HW2 4641   0.035   6.651   5.729
 1248SOL     OW 4642   1.993   6.910   3.723
 1248SOL    HW1 4643   1.957   6.834   3.669
 1248SOL    HW2 4644   1.978   6.996   3.673
 1249SOL     OW 4645   6.535   2.404   1.931
 1249SOL    HW1 4646   6.489   2.315   1.934
 1249SOL    HW2 4647   6.634   2.389   1.924
 1250SOL     OW 4648   5.973   5.066   3.367
 1250SOL    HW1 4649   5.878   5.049   3.342
 1250SOL    HW2 4650   6.004   4.997   3.432
 1251SOL     OW 4651   1.905   1.320   3.162
 1251SOL    HW1 4652   1.830   1.301   3.226
 1251SOL    HW2 4653   1.867   1.342   3.072
 1252SOL     OW 4654   4.078   4.536   6.930
 1252SOL    HW1 4655   3.982   4.508   6.931
 1252SOL    HW2 4656   4.085   4.633   6.908
 1253SOL     OW 4657   3.541   6.438   2.270
 1253SOL    HW1 4658   3.532   6.422   2.172
 1253SOL    HW2 4659   3.594   6.522   2.286
 1254SOL     OW 4660   0.592   2.345   3.480
 1254SOL    HW1 4661   0.630   2.276   3.541
 1254SOL    HW2 4662   0.648   2.428   3.486
 1255SOL     OW 4663   5.691   1.231   6.177
 1255SOL    HW1 4664   5.681   1.193   6.086
 1255SOL    HW2 4665   5.631   1.311   6.187
 1256SOL     OW 4666   6.965   0.302   3.493
 1256SOL    HW1 4667   6.915   0.222   3.460
 1256SOL    HW2 4668   0.033   0.312   3.442
 1257SOL     OW 4669   6.918   5.043   5.311
 1257SOL    HW1 4670   6.873   5.091   5.236
 1257SOL    HW2 4671   6.978   5.107   5.360
 1258SOL     OW 4672   1.439   5.179   2.983
 1258SOL    HW1 4673   1.445   5.157   3.080
 1258SOL    HW2 4674   1.525   5.222   2.954
 1259SOL     OW 4675   3.735   0.070   4.259
 1259SOL    HW1 4676   3.808   0.069   4.190
 1259SOL    HW2 4677   3.754   0.140   4.327
 1260SOL     OW 4678   3.322   2.143   0.410
 1260SOL    HW1 4679   3.229   2.178   0.394
 1260SOL    HW2 4680   3.320   2.078   0.486
 1261SOL     OW 4681   6.311   5.106   6.776
 1261SOL    HW1 4682   6.334   5.201   6.799
 1261SOL    HW2 4683   6.395   5.052   6.776
 1262SOL     OW 4684   5.530   4.575   1.036
 1262SOL    HW1 4685   5.491   4.484   1.051
 1262SOL    HW2 4686   5.464   4.632   0.988
 1263SOL     OW 4687   6.782   2.295   1.354
 1263SOL    HW1 4688   6.757   2.325   1.446
 1263SOL    HW2 4689   6.778   2.195   1.349
 1264SOL     OW 4690   6.784   3.438   1.271
 1264SOL    HW1 4691   6.810   3.374   1.343
 1264SOL    HW2 4692   6.813   3.531   1.297
 1265SOL     OW 4693   4.949   5.730   3.734
 1265SOL    HW1 4694   5.027   5.679   3.770
 1265SOL    HW2 4695   4.914   5.684   3.652
 1266SOL     OW 4696   0.625   1.319   4.580
 1266SOL    HW1 4697   0.697   1.352   4.518
 1266SOL    HW2 4698   0.540   1.307   4.529
 1267SOL     OW 4699   5.430   6.289   1.330
 1267SOL    HW1 4700   5.379   6.350   1.391
 1267SOL    HW2 4701   5.368   6.255   1.259
 1268SOL     OW 4702   4.074   3.085   0.418
 1268SOL    HW1 4703   4.007   3.156   0.394
 1268SOL    HW2 4704   4.166   3.123   0.410
 1269SOL     OW 4705   5.532   5.510   4.822
 1269SOL    HW1 4706   5.450   5.542   4.775
 1269SOL    HW2 4707   5.512   5.425   4.871
 1270SOL     OW 4708   2.239   4.270   3.428
 1270SOL    HW1 4709   2.239   4.209   3.348
 1270SOL    HW2 4710   2.205   4.360   3.402
 1271SOL     OW 4711   2.826   2.321   3.670
 1271SOL    HW1 4712   2.872   2.299   3.584
 1271SOL    HW2 4713   2.856   2.257   3.741
 1272SOL     OW 4714   5.407   5.751   0.255
 1272SOL    HW1 4715   5.352   5.680   0.301
 1272SOL    HW2 4716   5.476   5.707   0.197
 1273SOL     OW 4717   0.765   4.344   6.930
 1273SOL    HW1 4718   0.673   4.380   6.943
 1273SOL    HW2 4719   0.765   4.246   6.945
 1274SOL     OW 4720   6.609   4.324   1.372
 1274SOL    HW1 4721   6.510   4.330   1.387
 1274SOL    HW2 4722   6.649   4.415   1.383
 1275SOL     OW 4723   3.431   1.784   4.479
 1275SOL    HW1 4724   3.444   1.773   4.380
 1275SOL    HW2 4725   3.448   1.879   4.504
 1276SOL     OW 4726   6.957   6.544   4.990
 1276SOL    HW1 4727   6.918   6.464   5.036
 1276SOL    HW2 4728   6.956   6.529   4.891
 1277SOL     OW 4729   1.326   5.726   6.633
 1277SOL    HW1 4730   1.287   5.781   6.560
 1277SOL    HW2 4731   1.404   5.774   6.674
 1278SOL     OW 4732   0.887   6.878   4.938
 1278SOL    HW1 4733   0.960   6.810   4.936
 1278SOL    HW2 4734   0.855   6.895   4.845
 1279SOL     OW 4735   3.133   6.760   0.400
 1279SOL    HW1 4736   3.196   6.827   0.439
 1279SOL    HW2 4737   3.153   6.749   0.303
 1280SOL     OW 4738   3.238   6.442   5.069
 1280SOL    HW1 4739   3.185   6.361   5.094
 1280SOL    HW2 4740   3.298   6.420   4.992
 1281SOL     OW 4741   1.421   6.420   3.329
 1281SOL    HW1 4742   1.407   6.407   3.231
 1281SOL    HW2 4743   1.517   6.400   3.352
 1282SOL     OW 4744   0.526   2.182   6.893
 1282SOL    HW1 4745   0.499   2.142   6.806
 1282SOL    HW2 4746   0.599   2.249   6.878
 1283SOL     OW 4747   0.324   2.796   5.461
 1283SOL    HW1 4748   0.312   2.887   5.423
 1283SOL    HW2 4749   0.236   2.749   5.465
 1284SOL     OW 4750   5.139   1.945   1.753
 1284SOL    HW1 4751   5.073   1.931   1.827
 1284SOL    HW2 4752   5.090   1.948   1.666
 1285SOL     OW 4753   4.925   2.013   6.423
 1285SOL    HW1 4754   4.838   2.051   6.453
 1285SOL    HW2 4755   4.980   2.084   6.380
 1286SOL     OW 4756   5.042   4.012   1.901
 1286SOL    HW1 4757   5.109   3.939   1.888
 1286SOL    HW2 4758   5.073   4.095   1.854
 1287SOL     OW 4759   5.731   5.790   5.110
 1287SOL    HW1 4760   5.823   5.810   5.144
 1287SOL    HW2 4761   5.734   5.778   5.011
 1288SOL     OW 4762   4.413   3.516   6.809
 1288SOL    HW1 4763   4.501   3.545   6.845
 1288SOL    HW2 4764   4.396   3.420   6.833
 1289SOL     OW 4765   1.132   6.040   2.437
 1289SOL    HW1 4766   1.221   5.995   2.437
 1289SOL    HW2 4767   1.082   6.015   2.354
 1290SOL     OW 4768   0.815   6.345   6.456
 1290SOL    HW1 4769   0.739   6.409   6.466
 1290SOL    HW2 4770   0.821   6.288   6.539
 1291SOL     OW 4771   0.218   3.684   5.549
 1291SOL    HW1 4772   0.315   3.666   5.569
 1291SOL    HW2 4773   0.206   3.781   5.527
 1292SOL     OW 4774   0.376   5.960   2.130
 1292SOL    HW1 4775   0.448   5.893   2.146
 1292SOL    HW2 4776   0.327   5.936   2.046
 1293SOL     OW 4777   1.136   1.901   0.511
 1293SOL    HW1 4778   1.170   1.936   0.424
 1293SOL    HW2 4779   1.036   1.898   0.509
 1294SOL     OW 4780   0.919   3.065   6.746
 1294SOL    HW1 4781   0.969   2.978   6.743
 1294SOL    HW2 4782   0.956   3.121   6.820
 1295SOL     OW 4783   0.243   3.450   2.106
 1295SOL    HW1 4784   0.225   3.369   2.049
 1295SOL    HW2 4785   0.337   3.445   2.140
 1296SOL     OW 4786   3.594   0.130   5.797
 1296SOL    HW1 4787   3.587   0.229   5.784
 1296SOL    HW2 4788   3.599   0.110   5.894
 1297SOL     OW 4789   6.197   0.782   1.488
 1297SOL    HW1 4790   6.268   0.803   1.421
 1297SOL    HW2 4791   6.203   0.846   1.564
 1298SOL     OW 4792   5.578   4.635   2.548
 1298SOL    HW1 4793   5.564   4.597   2.456
 1298SOL    HW2 4794   5.623   4.566   2.605
 1299SOL     OW 4795   1.451   4.271   3.095
 1299SOL    HW1 4796   1.435   4.196   3.159
 1299SOL    HW2 4797   1.364   4.316   3.074
 1300SOL     OW 4798   3.046   2.789   1.365
 1300SOL    HW1 4799   3.029   2.703   1.317
 1300SOL    HW2 4800   3.089   2.770   1.453
 1301SOL     OW 4801   0.914   6.008   1.415
 1301SOL    HW1 4802   0.991   5.993   1.476
 1301SOL    HW2 4803   0.887   5.922   1.373
 1302SOL     OW 4804   5.122   0.604   5.229
 1302SOL    HW1 4805   5.215   0.571   5.210
 1302SOL    HW2 4806   5.077   0.543   5.294
 1303SOL     OW 4807   4.733   1.720   1.931
 1303SOL    HW1 4808   4.785   1.715   2.016
 1303SOL    HW2 4809   4.643   1.679   1.943
 1304SOL     OW 4810   2.308   1.472   6.301
 1304SOL    HW1 4811   2.266   1.385   6.275
 1304SOL    HW2 4812   2.252   1.547   6.266
 1305SOL     OW 4813   5.070   3.469   0.045
 1305SOL    HW1 4814   5.050   3.506   0.135
 1305SOL    HW2 4815   5.054   3.370   0.045
 1306SOL     OW 4816   0.555   4.989   4.215
 1306SOL    HW1 4817   0.534   4.922   4.286
 1306SOL    HW2 4818   0.546   5.081   4.253
 1307SOL     OW 4819   0.979   4.222   4.332
 1307SOL    HW1 4820   0.960   4.169   4.415
 1307SOL    HW2 4821   0.969   4.319   4.352
 1308SOL     OW 4822   5.546   6.628   5.169
 1308SOL    HW1 4823   5.582   6.620   5.263
 1308SOL    HW2 4824   5.616   6.670   5.111
 1309SOL     OW 4825   5.416   3.166   5.322
 1309SOL    HW1 4826   5.369   3.191   5.238
 1309SOL    HW2 4827   5.468   3.245   5.356
 1310SOL     OW 4828   0.003   3.726   4.034
 1310SOL    HW1 4829   6.964   3.785   4.092
 1310SOL    HW2 4830   0.083   3.695   4.086
 1311SOL     OW 4831   0.463   6.628   4.802
 1311SOL    HW1 4832   0.529   6.625   4.878
 1311SOL    HW2 4833   0.513   6.624   4.715
 1312SOL     OW 4834   1.556   0.012   6.777
 1312SOL    HW1 4835   1.645   0.036   6.817
 1312SOL    HW2 4836   1.560   6.937   6.740
 1313SOL     OW 4837   0.982   3.837   3.923
 1313SOL    HW1 4838   0.940   3.800   4.006
 1313SOL    HW2 4839   1.066   3.786   3.903
 1314SOL     OW 4840   4.137   1.285   5.581
 1314SOL    HW1 4841   4.178   1.203   5.621
 1314SOL    HW2 4842   4.199   1.362   5.591
 1315SOL     OW 4843   0.587   1.079   1.337
 1315SOL    HW1 4844   0.687   1.085   1.341
 1315SOL    HW2 4845   0.549   1.103   1.426
 1316SOL     OW 4846   1.662   6.073   4.706
 1316SOL    HW1 4847   1.678   6.081   4.608
 1316SOL    HW2 4848   1.704   5.990   4.741
 1317SOL     OW 4849   2.319   4.566   6.388
 1317SOL    HW1 4850   2.237   4.606   6.428
 1317SOL    HW2 4851   2.400   4.600   6.437
 1318SOL     OW 4852   0.820   1.795   1.041
 1318SOL    HW1 4853   0.727   1.796   1.003
 1318SOL    HW2 4854   0.820   1.747   1.129
 1319SOL     OW 4855   6.790   0.557   0.421
 1319SOL    HW1 4856   6.720   0.486   0.420
 1319SOL    HW2 4857   6.864   0.530   0.483
 1320SOL     OW 4858   4.512   4.328   0.805
 1320SOL    HW1 4859   4.473   4.320   0.897
 1320SOL    HW2 4860   4.606   4.363   0.812
 1321SOL     OW 4861   5.574   1.472   6.216
 1321SOL    HW1 4862   5.508   1.464   6.290
 1321SOL    HW2 4863   5.526   1.480   6.129
 1322SOL     OW 4864   3.843   0.792   4.112
 1322SOL    HW1 4865   3.839   0.889   4.088
 1322SOL    HW2 4866   3.932   0.755   4.087
 1323SOL     OW 4867   5.015   0.787   5.457
 1323SOL    HW1 4868   5.068   0.860   5.414
 1323SOL    HW2 4869   5.039   0.700   5.414
 1324SOL     OW 4870   1.297   3.340   0.456
 1324SOL    HW1 4871   1.264   3.433   0.443
 1324SOL    HW2 4872   1.351   3.312   0.376
 1325SOL     OW 4873   2.052   0.418   2.838
 1325SOL    HW1 4874   2.056   0.482   2.761
 1325SOL    HW2 4875   1.993   0.456   2.909
 1326SOL     OW 4876   4.923   3.343   4.980
 1326SOL    HW1 4877   4.900   3.440   4.983
 1326SOL    HW2 4878   4.850   3.289   5.021
 1327SOL     OW 4879   1.256   4.947   2.307
 1327SOL    HW1 4880   1.338   4.897   2.278
 1327SOL    HW2 4881   1.210   4.985   2.226
 1328SOL     OW 4882   1.305   2.978   0.800
 1328SOL    HW1 4883   1.363   3.025   0.867
 1328SOL    HW2 4884   1.334   3.002   0.708
 1329SOL     OW 4885   0.234   2.504   1.308
 1329SOL    HW1 4886   0.309   2.451   1.270
 1329SOL    HW2 4887   0.149   2.480   1.262
 1330SOL     OW 4888   0.588   1.526   1.665
 1330SOL    HW1 4889   0.686   1.532   1.685
 1330SOL    HW2 4890   0.544   1.612   1.689
 1331SOL     OW 4891   5.040   2.587   3.447
 1331SOL    HW1 4892   4.990   2.504   3.419
 1331SOL    HW2 4893   5.086   2.569   3.534
 1332SOL     OW 4894   2.864   7.015   6.332
 1332SOL    HW1 4895   2.812   0.083   6.329
 1332SOL    HW2 4896   2.874   6.986   6.427
 1333SOL     OW 4897   4.001   3.854   5.195
 1333SOL    HW1 4898   3.960   3.791   5.128
 1333SOL    HW2 4899   3.965   3.946   5.180
 1334SOL     OW 4900   6.365   1.769   4.666
 1334SOL    HW1 4901   6.371   1.740   4.570
 1334SOL    HW2 4902   6.420   1.851   4.679
 1335SOL     OW 4903   2.459   2.248   3.349
 1335SOL    HW1 4904   2.488   2.342   3.368
 1335SOL    HW2 4905   2.368   2.232   3.390
 1336SOL     OW 4906   2.018   1.796   5.366
 1336SOL    HW1 4907   1.968   1.870   5.320
 1336SOL    HW2 4908   1.974   1.775   5.453
 1337SOL     OW 4909   1.675   2.549   4.449
 1337SOL    HW1 4910   1.605   2.484   4.479
 1337SOL    HW2 4911   1.688   2.541   4.350
 1338SOL     OW 4912   5.584   2.096   5.230
 1338SOL    HW1 4913   5.669   2.045   5.224
 1338SOL    HW2 4914   5.604   2.193   5.243
 1339SOL     OW 4915   0.187   1.656   6.300
 1339SOL    HW1 4916   0.196   1.607   6.213
 1339SOL    HW2 4917   0.144   1.745   6.283
 1340SOL     OW 4918   0.025   1.968   2.856
 1340SOL    HW1 4919   0.111   2.015   2.874
 1340SOL    HW2 4920   0.029   1.925   2.766
 1341SOL     OW 4921   5.367   0.180   6.204
 1341SOL    HW1 4922   5.344   0.270   6.242
 1341SOL    HW2 4923   5.347   0.109   6.271
 1342SOL     OW 4924   1.707   5.354   5.967
 1342SOL    HW1 4925   1.788   5.296   5.980
 1342SOL    HW2 4926   1.735   5.440   5.923
 1343SOL     OW 4927   4.752   6.084   3.313
 1343SOL    HW1 4928   4.755   6.182   3.296
 1343SOL    HW2 4929   4.806   6.063   3.395
 1344SOL     OW 4930   0.102   5.560   4.511
 1344SOL    HW1 4931   0.041   5.485   4.535
 1344SOL    HW2 4932   0.057   5.620   4.445
 1345SOL     OW 4933   1.680   0.693   2.634
 1345SOL    HW1 4934   1.707   0.754   2.560
 1345SOL    HW2 4935   1.714   0.601   2.616
 1346SOL     OW 4936   0.804   6.095   4.371
 1346SOL    HW1 4937   0.849   6.071   4.285
 1346SOL    HW2 4938   0.725   6.153   4.352
 1347SOL     OW 4939   6.232   6.679   4.648
 1347SOL    HW1 4940   6.162   6.616   4.615
 1347SOL    HW2 4941   6.217   6.770   4.609
 1348SOL     OW 4942   5.420   5.202   2.524
 1348SOL    HW1 4943   5.334   5.249   2.546
 1348SOL    HW2 4944   5.402   5.105   2.510
 1349SOL     OW 4945   4.514   2.359   5.832
 1349SOL    HW1 4946   4.430   2.354   5.777
 1349SOL    HW2 4947   4.579   2.421   5.788
 1350SOL     OW 4948   5.329   5.006   5.256
 1350SOL    HW1 4949   5.413   4.977   5.210
 1350SOL    HW2 4950   5.252   4.996   5.194
 1351SOL     OW 4951   6.263   1.202   3.390
 1351SOL    HW1 4952   6.186   1.211   3.328
 1351SOL    HW2 4953   6.342   1.165   3.340
 1352SOL     OW 4954   6.844   6.656   2.561
 1352SOL    HW1 4955   6.922   6.653   2.623
 1352SOL    HW2 4956   6.767   6.701   2.606
 1353SOL     OW 4957   0.327   3.359   0.023
 1353SOL    HW1 4958   0.410   3.414   0.031
 1353SOL    HW2 4959   0.334   3.280   0.084
 1354SOL     OW 4960   0.832   3.355   0.437
 1354SOL    HW1 4961   0.733   3.356   0.449
 1354SOL    HW2 4962   0.875   3.320   0.520
 1355SOL     OW 4963   6.421   2.302   5.520
 1355SOL    HW1 4964   6.485   2.285   5.445
 1355SOL    HW2 4965   6.351   2.367   5.490
 1356SOL     OW 4966   2.922   3.252   2.934
 1356SOL    HW1 4967   2.929   3.346   2.967
 1356SOL    HW2 4968   2.862   3.249   2.854
 1357SOL     OW 4969   1.369   3.253   5.396
 1357SOL    HW1 4970   1.464   3.247   5.367
 1357SOL    HW2 4971   1.337   3.348   5.389
 1358SOL     OW 4972   4.317   0.900   5.835
 1358SOL    HW1 4973   4.413   0.930   5.835
 1358SOL    HW2 4974   4.308   0.818   5.892
 1359SOL     OW 4975   5.902   4.541   1.828
 1359SOL    HW1 4976   5.961   4.586   1.895
 1359SOL    HW2 4977   5.934   4.448   1.811
 1360SOL     OW 4978   4.131   2.684   0.120
 1360SOL    HW1 4979   4.170   2.773   0.143
 1360SOL    HW2 4980   4.150   2.619   0.193
 1361SOL     OW 4981   6.813   5.199   5.104
 1361SOL    HW1 4982   6.859   5.199   5.015
 1361SOL    HW2 4983   6.846   5.276   5.159
 1362SOL     OW 4984   2.925   3.772   4.244
 1362SOL    HW1 4985   2.942   3.760   4.342
 1362SOL    HW2 4986   2.902   3.868   4.226
 1363SOL     OW 4987   6.926   5.521   3.326
 1363SOL    HW1 4988   6.951   5.602   3.379
 1363SOL    HW2 4989   6.844   5.478   3.365
 1364SOL     OW 4990   6.406   2.235   1.485
 1364SOL    HW1 4991   6.396   2.335   1.487
 1364SOL    HW2 4992   6.487   2.209   1.538
 1365SOL     OW 4993   0.781   2.448   5.969
 1365SOL    HW1 4994   0.700   2.504   5.950
 1365SOL    HW2 4995   0.753   2.354   5.985
 1366SOL     OW 4996   1.008   4.743   6.850
 1366SOL    HW1 4997   1.007   4.646   6.824
 1366SOL    HW2 4998   1.040   4.798   6.772
 1367SOL     OW 4999   1.895   6.734   2.556
 1367SOL    HW1 5000   1.914   6.825   2.592
 1367SOL    HW2 5001   1.799   6.729   2.526
 1368SOL     OW 5002   6.729   0.357   3.661
 1368SOL    HW1 5003   6.671   0.403   3.593
 1368SOL    HW2 5004   6.814   0.329   3.618
 1369SOL     OW 5005   2.383   0.010   1.921
 1369SOL    HW1 5006   2.397   0.035   1.825
 1369SOL    HW2 5007   2.285   0.017   1.943
 1370SOL     OW 5008   4.170   1.626   2.192
 1370SOL    HW1 5009   4.192   1.575   2.109
 1370SOL    HW2 5010   4.100   1.577   2.244
 1371SOL     OW 5011   6.453   1.424   4.516
 1371SOL    HW1 5012   6.423   1.507   4.470
 1371SOL    HW2 5013   6.429   1.344   4.460
 1372SOL     OW 5014   1.049   2.846   0.595
 1372SOL    HW1 5015   1.077   2.942   0.592
 1372SOL    HW2 5016   0.964   2.834   0.544
 1373SOL     OW 5017   4.902   2.199   6.730
 1373SOL    HW1 5018   4.872   2.120   6.784
 1373SOL    HW2 5019   4.851   2.202   6.644
 1374SOL     OW 5020   4.798   1.821   0.094
 1374SOL    HW1 5021   4.819   1.723   0.093
 1374SOL    HW2 5022   4.814   1.857   0.186
 1375SOL     OW 5023   0.543   4.623   6.403
 1375SOL    HW1 5024   0.610   4.552   6.381
 1375SOL    HW2 5025   0.451   4.584   6.400
 1376SOL     OW 5026   4.672   4.668   5.153
 1376SOL    HW1 5027   4.631   4.695   5.066
 1376SOL    HW2 5028   4.772   4.669   5.144
 1377SOL     OW 5029   0.710   3.157   5.757
 1377SOL    HW1 5030   0.779   3.156   5.830
 1377SOL    HW2 5031   0.753   3.132   5.670
 1378SOL     OW 5032   6.159   1.327   4.931
 1378SOL    HW1 5033   6.200   1.396   4.870
 1378SOL    HW2 5034   6.062   1.319   4.910
 1379SOL     OW 5035   3.744   6.724   2.914
 1379SOL    HW1 5036   3.689   6.687   2.989
 1379SOL    HW2 5037   3.789   6.649   2.866
 1380SOL     OW 5038   0.408   0.036   2.630
 1380SOL    HW1 5039   0.412   0.066   2.535
 1380SOL    HW2 5040   0.313   0.028   2.659
 1381SOL     OW 5041   5.776   2.288   6.636
 1381SOL    HW1 5042   5.752   2.217   6.569
 1381SOL    HW2 5043   5.847   2.252   6.697
 1382SOL     OW 5044   4.763   3.456   0.173
 1382SOL    HW1 5045   4.811   3.529   0.125
 1382SOL    HW2 5046   4.737   3.385   0.108
 1383SOL     OW 5047   0.889   0.114   1.918
 1383SOL    HW1 5048   0.853   0.030   1.960
 1383SOL    HW2 5049   0.814   0.178   1.903
 1384SOL     OW 5050   4.802   0.376   2.226
 1384SOL    HW1 5051   4.752   0.364   2.140
 1384SOL    HW2 5052   4.795   0.471   2.256
 1385SOL     OW 5053   2.240   4.537   3.363
 1385SOL    HW1 5054   2.162   4.600   3.362
 1385SOL    HW2 5055   2.262   4.510   3.269
 1386SOL     OW 5056   3.130   0.359   4.640
 1386SOL    HW1 5057   3.155   0.263   4.644
 1386SOL    HW2 5058   3.213   0.416   4.641
 1387SOL     OW 5059   3.638   5.956   2.260
 1387SOL    HW1 5060   3.560   5.945   2.198
 1387SOL    HW2 5061   3.689   5.870   2.265
 1388SOL     OW 5062   0.488   0.511   3.121
 1388SOL    HW1 5063   0.578   0.510   3.077
 1388SOL    HW2 5064   0.479   0.432   3.182
 1389SOL     OW 5065   6.565   0.998   4.059
 1389SOL    HW1 5066   6.625   0.969   3.985
 1389SOL    HW2 5067   6.470   0.979   4.035
 1390SOL     OW 5068   6.439   3.007   6.150
 1390SOL    HW1 5069   6.509   3.077   6.159
 1390SOL    HW2 5070   6.366   3.040   6.089
 1391SOL     OW 5071   5.774   6.784   5.622
 1391SOL    HW1 5072   5.790   6.837   5.704
 1391SOL    HW2 5073   5.795   6.688   5.640
 1392SOL     OW 5074   5.439   6.616   6.226
 1392SOL    HW1 5075   5.495   6.547   6.181
 1392SOL    HW2 5076   5.342   6.599   6.206
 1393SOL     OW 5077   6.726   3.798   6.052
 1393SOL    HW1 5078   6.683   3.879   6.091
 1393SOL    HW2 5079   6.683   3.775   5.965
 1394SOL     OW 5080   3.730   5.945   4.780
 1394SOL    HW1 5081   3.749   5.896   4.866
 1394SOL    HW2 5082   3.636   5.980   4.782
 1395SOL     OW 5083   1.747   4.163   4.103
 1395SOL    HW1 5084   1.840   4.159   4.067
 1395SOL    HW2 5085   1.721   4.259   4.118
 1396SOL     OW 5086   0.533   0.142   4.397
 1396SOL    HW1 5087   0.625   0.172   4.371
 1396SOL    HW2 5088   0.466   0.211   4.369
 1397SOL     OW 5089   0.233   5.985   4.441
 1397SOL    HW1 5090   0.204   5.973   4.347
 1397SOL    HW2 5091   0.155   6.016   4.496
 1398SOL     OW 5092   2.342   1.190   6.946
 1398SOL    HW1 5093   2.408   1.238   6.887
 1398SOL    HW2 5094   2.389   1.119   6.998
 1399SOL     OW 5095   3.941   6.141   0.330
 1399SOL    HW1 5096   4.017   6.088   0.367
 1399SOL    HW2 5097   3.965   6.174   0.238
 1400SOL     OW 5098   0.443   1.825   4.711
 1400SOL    HW1 5099   0.435   1.805   4.808
 1400SOL    HW2 5100   0.370   1.780   4.661
 1401SOL     OW 5101   5.746   0.396   4.474
 1401SOL    HW1 5102   5.845   0.406   4.466
 1401SOL    HW2 5103   5.704   0.405   4.384
 1402SOL     OW 5104   5.682   4.580   6.343
 1402SOL    HW1 5105   5.667   4.517   6.267
 1402SOL    HW2 5106   5.719   4.666   6.309
 1403SOL     OW 5107   1.935   2.072   1.138
 1403SOL    HW1 5108   1.885   2.075   1.052
 1403SOL    HW2 5109   2.000   2.148   1.142
 1404SOL     OW 5110   6.663   0.326   0.058
 1404SOL    HW1 5111   6.708   0.294   6.992
 1404SOL    HW2 5112   6.576   0.370   0.035
 1405SOL     OW 5113   2.918   4.014   0.952
 1405SOL    HW1 5114   2.833   4.057   0.921
 1405SOL    HW2 5115   2.916   3.917   0.927
 1406SOL     OW 5116   1.776   5.502   1.366
 1406SOL    HW1 5117   1.825   5.533   1.285
 1406SOL    HW2 5118   1.814   5.547   1.447
 1407SOL     OW 5119   1.396   4.053   3.311
 1407SOL    HW1 5120   1.428   4.042   3.405
 1407SOL    HW2 5121   1.312   4.108   3.311
 1408SOL     OW 5122   5.612   0.070   6.397
 1408SOL    HW1 5123   5.625   7.015   6.330
 1408SOL    HW2 5124   5.517   0.069   6.429
 1409SOL     OW 5125   0.958   6.955   5.268
 1409SOL    HW1 5126   0.993   0.024   5.306
 1409SOL    HW2 5127   0.982   6.950   5.171
 1410SOL     OW 5128   2.087   4.357   6.368
 1410SOL    HW1 5129   2.115   4.369   6.272
 1410SOL    HW2 5130   2.091   4.445   6.415
 1411SOL     OW 5131   3.341   6.422   0.213
 1411SOL    HW1 5132   3.312   6.490   0.146
 1411SOL    HW2 5133   3.362   6.468   0.300
 1412SOL     OW 5134   0.852   4.070   1.228
 1412SOL    HW1 5135   0.772   4.023   1.191
 1412SOL    HW2 5136   0.931   4.052   1.169
 1413SOL     OW 5137   2.288   1.435   4.535
 1413SOL    HW1 5138   2.340   1.488   4.603
 1413SOL    HW2 5139   2.219   1.494   4.493
 1414SOL     OW 5140   2.549   1.767   1.651
 1414SOL    HW1 5141   2.529   1.817   1.736
 1414SOL    HW2 5142   2.647   1.756   1.641
 1415SOL     OW 5143   3.022   1.579   3.982
 1415SOL    HW1 5144   2.946   1.637   4.010
 1415SOL    HW2 5145   2.997   1.526   3.902
 1416SOL     OW 5146   3.893   6.595   4.360
 1416SOL    HW1 5147   3.966   6.596   4.428
 1416SOL    HW2 5148   3.902   6.675   4.301
 1417SOL     OW 5149   3.026   2.558   6.693
 1417SOL    HW1 5150   3.008   2.486   6.760
 1417SOL    HW2 5151   3.000   2.525   6.602
 1418SOL     OW 5152   2.894   3.698   1.250
 1418SOL    HW1 5153   2.977   3.705   1.306
 1418SOL    HW2 5154   2.816   3.681   1.310
 1419SOL     OW 5155   3.405   5.783   4.300
 1419SOL    HW1 5156   3.370   5.825   4.217
 1419SOL    HW2 5157   3.331   5.732   4.345
 1420SOL     OW 5158   3.473   6.057   3.241
 1420SOL    HW1 5159   3.422   5.974   3.263
 1420SOL    HW2 5160   3.416   6.116   3.184
 1421SOL     OW 5161   1.284   4.030   4.332
 1421SOL    HW1 5162   1.326   4.112   4.293
 1421SOL    HW2 5163   1.247   4.052   4.423
 1422SOL     OW 5164   2.647   4.302   6.409
 1422SOL    HW1 5165   2.717   4.241   6.372
 1422SOL    HW2 5166   2.657   4.307   6.508
 1423SOL     OW 5167   3.889   0.691   4.362
 1423SOL    HW1 5168   3.886   0.731   4.270
 1423SOL    HW2 5169   3.871   0.592   4.356
 1424SOL     OW 5170   0.080   3.934   6.553
 1424SOL    HW1 5171   0.121   3.843   6.566
 1424SOL    HW2 5172   0.072   3.953   6.455
 1425SOL     OW 5173   2.322   5.339   5.136
 1425SOL    HW1 5174   2.285   5.416   5.083
 1425SOL    HW2 5175   2.300   5.354   5.233
 1426SOL     OW 5176   2.806   1.971   6.203
 1426SOL    HW1 5177   2.871   1.974   6.278
 1426SOL    HW2 5178   2.855   1.968   6.116
 1427SOL     OW 5179   6.766   6.697   3.921
 1427SOL    HW1 5180   6.671   6.670   3.907
 1427SOL    HW2 5181   6.824   6.616   3.917
 1428SOL     OW 5182   0.842   2.066   1.684
 1428SOL    HW1 5183   0.843   2.008   1.603
 1428SOL    HW2 5184   0.768   2.133   1.677
 1429SOL     OW 5185   5.551   1.849   7.016
 1429SOL    HW1 5186   5.561   1.947   6.996
 1429SOL    HW2 5187   5.617   1.822   0.068
 1430SOL     OW 5188   2.229   5.056   3.779
 1430SOL    HW1 5189   2.327   5.075   3.779
 1430SOL    HW2 5190   2.207   4.990   3.851
 1431SOL     OW 5191   3.062   2.712   0.073
 1431SOL    HW1 5192   3.058   2.616   0.045
 1431SOL    HW2 5193   2.985   2.733   0.133
 1432SOL     OW 5194   3.407   1.135   1.036
 1432SOL    HW1 5195   3.308   1.146   1.020
 1432SOL    HW2 5196   3.427   1.040   1.058
 1433SOL     OW 5197   4.815   1.009   4.928
 1433SOL    HW1 5198   4.899   0.962   4.901
 1433SOL    HW2 5199   4.833   1.065   5.009
 1434SOL     OW 5200   0.625   1.002   6.361
 1434SOL    HW1 5201   0.599   1.099   6.353
 1434SOL    HW2 5202   0.672   0.988   6.448
 1435SOL     OW 5203   6.394   7.000   3.034
 1435SOL    HW1 5204   6.352   0.046   3.098
 1435SOL    HW2 5205   6.386   0.018   2.941
 1436SOL     OW 5206   5.313   4.345   0.026
 1436SOL    HW1 5207   5.386   4.380   0.085
 1436SOL    HW2 5208   5.313   4.245   0.029
 1437SOL     OW 5209   3.771   1.525   6.172
 1437SOL    HW1 5210   3.866   1.503   6.193
 1437SOL    HW2 5211   3.764   1.622   6.147
 1438SOL     OW 5212   2.488   0.064   1.104
 1438SOL    HW1 5213   2.515   0.077   1.009
 1438SOL    HW2 5214   2.477   6.983   1.122
 1439SOL     OW 5215   0.017   4.457   0.576
 1439SOL    HW1 5216   0.064   4.460   0.665
 1439SOL    HW2 5217   7.015   4.550   0.546
 1440SOL     OW 5218   3.129   2.942   5.719
 1440SOL    HW1 5219   3.071   2.907   5.645
 1440SOL    HW2 5220   3.077   3.007   5.774
 1441SOL     OW 5221   6.188   3.090   4.249
 1441SOL    HW1 5222   6.279   3.055   4.228
 1441SOL    HW2 5223   6.171   3.083   4.347
 1442SOL     OW 5224   6.374   5.185   0.148
 1442SOL    HW1 5225   6.451   5.138   0.106
 1442SOL    HW2 5226   6.342   5.133   0.227
 1443SOL     OW 5227   0.725   2.879   4.584
 1443SOL    HW1 5228   0.676   2.795   4.561
 1443SOL    HW2 5229   0.670   2.933   4.648
 1444SOL     OW 5230   4.372   5.943   1.159
 1444SOL    HW1 5231   4.395   5.860   1.108
 1444SOL    HW2 5232   4.456   5.994   1.179
 1445SOL     OW 5233   0.130   2.635   1.535
 1445SOL    HW1 5234   0.035   2.622   1.508
 1445SOL    HW2 5235   0.189   2.583   1.472
 1446SOL     OW 5236   4.794   2.063   6.925
 1446SOL    HW1 5237   4.847   2.053   7.009
 1446SOL    HW2 5238   4.699   2.038   6.942
 1447SOL     OW 5239   5.903   6.603   5.878
 1447SOL    HW1 5240   5.840   6.606   5.956
 1447SOL    HW2 5241   5.983   6.549   5.902
 1448SOL     OW 5242   6.542   2.636   0.146
 1448SOL    HW1 5243   6.527   2.734   0.161
 1448SOL    HW2 5244   6.546   2.618   0.047
 1449SOL     OW 5245   6.820   1.111   6.641
 1449SOL    HW1 5246   6.873   1.155   6.568
 1449SOL    HW2 5247   6.848   1.148   6.730
 1450SOL     OW 5248   0.857   2.342   2.012
 1450SOL    HW1 5249   0.886   2.249   2.033
 1450SOL    HW2 5250   0.932   2.392   1.968
 1451SOL     OW 5251   2.639   1.118   2.514
 1451SOL    HW1 5252   2.643   1.097   2.416
 1451SOL    HW2 5253   2.729   1.101   2.555
 1452SOL     OW 5254   4.117   1.013   4.424
 1452SOL    HW1 5255   4.131   0.959   4.341
 1452SOL    HW2 5256   4.194   1.077   4.436
 1453SOL     OW 5257   6.920   3.095   5.078
 1453SOL    HW1 5258   6.942   3.191   5.066
 1453SOL    HW2 5259   6.964   3.041   5.006
 1454SOL     OW 5260   6.656   2.549   3.048
 1454SOL    HW1 5261   6.627   2.530   2.954
 1454SOL    HW2 5262   6.746   2.593   3.047
 1455SOL     OW 5263   1.321   0.430   1.305
 1455SOL    HW1 5264   1.259   0.494   1.350
 1455SOL    HW2 5265   1.340   0.353   1.367
 1456SOL     OW 5266   6.432   6.967   5.251
 1456SOL    HW1 5267   6.368   6.951   5.325
 1456SOL    HW2 5268   6.460   0.045   5.251
 1457SOL     OW 5269   1.340   6.919   1.357
 1457SOL    HW1 5270   1.258   6.949   1.405
 1457SOL    HW2 5271   1.314   6.856   1.284
 1458SOL     OW 5272   5.669   6.021   3.582
 1458SOL    HW1 5273   5.704   6.109   3.550
 1458SOL    HW2 5274   5.743   5.971   3.629
 1459SOL     OW 5275   2.764   5.184   5.564
 1459SOL    HW1 5276   2.678   5.136   5.580
 1459SOL    HW2 5277   2.753   5.248   5.488
 1460SOL     OW 5278   0.127   5.455   6.095
 1460SOL    HW1 5279   0.210   5.461   6.040
 1460SOL    HW2 5280   0.148   5.413   6.183
 1461SOL     OW 5281   0.709   5.319   3.815
 1461SOL    HW1 5282   0.707   5.223   3.787
 1461SOL    HW2 5283   0.762   5.372   3.749
 1462SOL     OW 5284   1.281   0.965   6.067
 1462SOL    HW1 5285   1.209   0.943   6.000
 1462SOL    HW2 5286   1.328   1.049   6.039
 1463SOL     OW 5287   6.995   5.449   0.032
 1463SOL    HW1 5288   0.041   5.490   6.984
 1463SOL    HW2 5289   0.002   5.478   0.125
 1464SOL     OW 5290   5.941   6.544   0.974
 1464SOL    HW1 5291   6.012   6.536   1.044
 1464SOL    HW2 5292   5.896   6.633   0.982
 1465SOL     OW 5293   1.671   1.571   4.032
 1465SOL    HW1 5294   1.679   1.603   4.126
 1465SOL    HW2 5295   1.755   1.522   4.006
 1466SOL     OW 5296   1.492   1.543   2.178
 1466SOL    HW1 5297   1.449   1.632   2.188
 1466SOL    HW2 5298   1.436   1.474   2.224
 1467SOL     OW 5299   2.169   2.214   1.878
 1467SOL    HW1 5300   2.149   2.305   1.842
 1467SOL    HW2 5301   2.258   2.183   1.843
 1468SOL     OW 5302   5.580   5.409   3.025
 1468SOL    HW1 5303   5.617   5.470   2.956
 1468SOL    HW2 5304   5.600   5.445   3.116
 1469SOL     OW 5305   0.925   1.060   2.103
 1469SOL    HW1 5306   0.964   1.106   2.023
 1469SOL    HW2 5307   0.998   1.038   2.167
 1470SOL     OW 5308   1.731   1.462   2.239
 1470SOL    HW1 5309   1.756   1.544   2.289
 1470SOL    HW2 5310   1.634   1.466   2.214
 1471SOL     OW 5311   1.134   0.269   0.522
 1471SOL    HW1 5312   1.197   0.339   0.558
 1471SOL    HW2 5313   1.068   0.245   0.593
 1472SOL     OW 5314   4.003   5.712   5.044
 1472SOL    HW1 5315   4.067   5.650   4.999
 1472SOL    HW2 5316   4.016   5.708   5.143
 1473SOL     OW 5317   5.337   6.466   3.993
 1473SOL    HW1 5318   5.290   6.380   3.972
 1473SOL    HW2 5319   5.368   6.465   4.088
 1474SOL     OW 5320   6.070   5.374   3.074
 1474SOL    HW1 5321   6.009   5.360   3.153
 1474SOL    HW2 5322   6.024   5.344   2.991
 1475SOL     OW 5323   6.480   0.576   1.886
 1475SOL    HW1 5324   6.477   0.669   1.924
 1475SOL    HW2 5325   6.575   0.548   1.873
 1476SOL     OW 5326   2.377   1.372   1.406
 1476SOL    HW1 5327   2.361   1.416   1.494
 1476SOL    HW2 5328   2.390   1.443   1.336
 1477SOL     OW 5329   3.457   0.947   6.453
 1477SOL    HW1 5330   3.379   1.007   6.443
 1477SOL    HW2 5331   3.443   0.863   6.401
 1478SOL     OW 5332   6.052   5.245   0.086
 1478SOL    HW1 5333   6.077   5.150   0.106
 1478SOL    HW2 5334   5.998   5.281   0.162
 1479SOL     OW 5335   1.666   3.372   0.095
 1479SOL    HW1 5336   1.720   3.395   0.013
 1479SOL    HW2 5337   1.727   3.354   0.171
 1480SOL     OW 5338   3.536   6.849   5.805
 1480SOL    HW1 5339   3.633   6.823   5.810
 1480SOL    HW2 5340   3.529   6.949   5.804
 1481SOL     OW 5341   6.916   2.554   5.600
 1481SOL    HW1 5342   6.889   2.460   5.624
 1481SOL    HW2 5343   7.014   2.555   5.577
 1482SOL     OW 5344   4.693   2.622   1.296
 1482SOL    HW1 5345   4.706   2.532   1.339
 1482SOL    HW2 5346   4.623   2.673   1.347
 1483SOL     OW 5347   5.678   2.067   6.051
 1483SOL    HW1 5348   5.653   1.975   6.023
 1483SOL    HW2 5349   5.720   2.063   6.142
 1484SOL     OW 5350   5.754   5.243   3.987
 1484SOL    HW1 5351   5.831   5.184   4.014
 1484SOL    HW2 5352   5.770   5.336   4.021
 1485SOL     OW 5353   2.913   1.944   3.157
 1485SOL    HW1 5354   2.885   2.040   3.155
 1485SOL    HW2 5355   2.882   1.901   3.241
 1486SOL     OW 5356   5.104   2.052   3.236
 1486SOL    HW1 5357   5.185   2.094   3.276
 1486SOL    HW2 5358   5.052   2.121   3.186
 1487SOL     OW 5359   6.597   3.096   6.776
 1487SOL    HW1 5360   6.694   3.119   6.779
 1487SOL    HW2 5361   6.542   3.179   6.782
 1488SOL     OW 5362   5.335   1.761   3.606
 1488SOL    HW1 5363   5.412   1.820   3.634
 1488SOL    HW2 5364   5.323   1.767   3.507
 1489SOL     OW 5365   3.598   5.164   3.951
 1489SOL    HW1 5366   3.525   5.172   4.018
 1489SOL    HW2 5367   3.574   5.095   3.883
 1490SOL     OW 5368   1.144   2.797   1.087
 1490SOL    HW1 5369   1.079   2.778   1.013
 1490SOL    HW2 5370   1.169   2.894   1.085
 1491SOL     OW 5371   6.701   3.871   3.757
 1491SOL    HW1 5372   6.635   3.879   3.832
 1491SOL    HW2 5373   6.748   3.783   3.764
 1492SOL     OW 5374   5.729   1.240   2.456
 1492SOL    HW1 5375   5.786   1.254   2.536
 1492SOL    HW2 5376   5.633   1.236   2.483
 1493SOL     OW 5377   4.395   0.406   4.223
 1493SOL    HW1 5378   4.383   0.427   4.320
 1493SOL    HW2 5379   4.337   0.329   4.198
 1494SOL     OW 5380   5.948   1.845   5.577
 1494SOL    HW1 5381   5.999   1.886   5.501
 1494SOL    HW2 5382   5.946   1.910   5.654
 1495SOL     OW 5383   6.453   2.513   5.261
 1495SOL    HW1 5384   6.473   2.416   5.249
 1495SOL    HW2 5385   6.503   2.566   5.192
 1496SOL     OW 5386   0.495   1.353   1.893
 1496SOL    HW1 5387   0.575   1.394   1.938
 1496SOL    HW2 5388   0.506   1.359   1.794
 1497SOL     OW 5389   6.696   2.839   3.797
 1497SOL    HW1 5390   6.694   2.859   3.699
 1497SOL    HW2 5391   6.789   2.852   3.831
 1498SOL     OW 5392   1.909   4.942   6.105
 1498SOL    HW1 5393   1.999   4.899   6.097
 1498SOL    HW2 5394   1.917   5.039   6.079
 1499SOL     OW 5395   1.080   3.424   6.843
 1499SOL    HW1 5396   1.053   3.515   6.874
 1499SOL    HW2 5397   1.060   3.414   6.746
 1500SOL     OW 5398   6.705   6.161   0.027
 1500SOL    HW1 5399   6.661   6.195   6.961
 1500SOL    HW2 5400   6.640   6.165   0.102
 1501SOL     OW 5401   5.590   1.795   5.977
 1501SOL    HW1 5402   5.673   1.741   5.987
 1501SOL    HW2 5403   5.540   1.796   6.063
 1502SOL     OW 5404   5.696   0.495   1.256
 1502SOL    HW1 5405   5.661   0.406   1.227
 1502SOL    HW2 5406   5.662   0.566   1.194
 1503SOL     OW 5407   2.016   2.150   2.129
 1503SOL    HW1 5408   2.061   2.179   2.044
 1503SOL    HW2 5409   1.918   2.139   2.112
 1504SOL     OW 5410   1.122   0.292   5.132
 1504SOL    HW1 5411   1.158   0.233   5.059
 1504SOL    HW2 5412   1.084   0.235   5.205
 1505SOL     OW 5413   6.082   0.507   5.754
 1505SOL    HW1 5414   6.177   0.528   5.733
 1505SOL    HW2 5415   6.075   0.483   5.851
 1506SOL     OW 5416   1.790   5.264   1.219
 1506SOL    HW1 5417   1.868   5.211   1.253
 1506SOL    HW2 5418   1.782   5.349   1.270
 1507SOL     OW 5419   0.984   1.767   5.832
 1507SOL    HW1 5420   1.013   1.862   5.820
 1507SOL    HW2 5421   0.917   1.743   5.762
 1508SOL     OW 5422   6.736   0.512   1.907
 1508SOL    HW1 5423   6.811   0.548   1.851
 1508SOL    HW2 5424   6.773   0.471   1.990
 1509SOL     OW 5425   4.652   2.815   5.614
 1509SOL    HW1 5426   4.751   2.807   5.599
 1509SOL    HW2 5427   4.635   2.888   5.680
 1510SOL     OW 5428   5.475   2.472   5.082
 1510SOL    HW1 5429   5.532   2.471   5.000
 1510SOL    HW2 5430   5.383   2.441   5.058
 1511SOL     OW 5431   3.268   2.942   1.639
 1511SOL    HW1 5432   3.357   2.943   1.685
 1511SOL    HW2 5433   3.258   2.856   1.588
 1512SOL     OW 5434   0.924   4.962   1.301
 1512SOL    HW1 5435   0.825   4.973   1.311
 1512SOL    HW2 5436   0.945   4.864   1.292
 1513SOL     OW 5437   3.434   0.695   3.696
 1513SOL    HW1 5438   3.510   0.751   3.664
 1513SOL    HW2 5439   3.357   0.704   3.632
 1514SOL     OW 5440   4.706   2.133   5.817
 1514SOL    HW1 5441   4.652   2.215   5.798
 1514SOL    HW2 5442   4.657   2.076   5.883
 1515SOL     OW 5443   5.851   2.242   4.959
 1515SOL    HW1 5444   5.821   2.338   4.965
 1515SOL    HW2 5445   5.774   2.185   4.932
 1516SOL     OW 5446   6.932   7.010   0.615
 1516SOL    HW1 5447   6.851   0.039   0.581
 1516SOL    HW2 5448   6.932   6.915   0.583
 1517SOL     OW 5449   4.237   6.243   3.697
 1517SOL    HW1 5450   4.165   6.293   3.649
 1517SOL    HW2 5451   4.301   6.308   3.739
 1518SOL     OW 5452   1.109   3.166   6.923
 1518SOL    HW1 5453   1.103   3.263   6.897
 1518SOL    HW2 5454   1.204   3.144   6.947
 1519SOL     OW 5455   6.019   5.053   2.110
 1519SOL    HW1 5456   6.085   5.124   2.084
 1519SOL    HW2 5457   6.042   5.019   2.201
 1520SOL     OW 5458   0.330   3.849   2.304
 1520SOL    HW1 5459   0.280   3.829   2.388
 1520SOL    HW2 5460   0.313   3.944   2.278
 1521SOL     OW 5461   2.087   4.225   0.356
 1521SOL    HW1 5462   2.039   4.313   0.347
 1521SOL    HW2 5463   2.058   4.163   0.283
 1522SOL     OW 5464   6.291   6.993   4.934
 1522SOL    HW1 5465   6.334   6.919   4.986
 1522SOL    HW2 5466   6.360   0.044   4.912
 1523SOL     OW 5467   4.908   4.649   6.972
 1523SOL    HW1 5468   5.008   4.653   6.972
 1523SOL    HW2 5469   4.873   4.694   6.890
 1524SOL     OW 5470   1.433   2.109   2.224
 1524SOL    HW1 5471   1.406   2.195   2.266
 1524SOL    HW2 5472   1.379   2.094   2.141
 1525SOL     OW 5473   6.622   2.454   0.541
 1525SOL    HW1 5474   6.595   2.484   0.633
 1525SOL    HW2 5475   6.696   2.512   0.507
 1526SOL     OW 5476   0.445   6.796   6.884
 1526SOL    HW1 5477   0.372   6.779   6.951
 1526SOL    HW2 5478   0.406   6.792   6.792
 1527SOL     OW 5479   3.819   0.841   5.650
 1527SOL    HW1 5480   3.786   0.922   5.602
 1527SOL    HW2 5481   3.792   0.759   5.600
 1528SOL     OW 5482   4.987   5.879   2.418
 1528SOL    HW1 5483   4.987   5.789   2.374
 1528SOL    HW2 5484   5.024   5.947   2.353
 1529SOL     OW 5485   3.819   0.114   0.542
 1529SOL    HW1 5486   3.760   0.176   0.594
 1529SOL    HW2 5487   3.908   0.157   0.527
 1530SOL     OW 5488   3.346   1.551   2.909
 1530SOL    HW1 5489   3.304   1.580   2.824
 1530SOL    HW2 5490   3.387   1.630   2.955
 1531SOL     OW 5491   5.435   0.947   4.869
 1531SOL    HW1 5492   5.355   0.901   4.831
 1531SOL    HW2 5493   5.472   1.010   4.801
 1532SOL     OW 5494   2.691   3.674   6.016
 1532SOL    HW1 5495   2.719   3.757   6.065
 1532SOL    HW2 5496   2.592   3.666   6.020
 1533SOL     OW 5497   6.564   3.267   0.061
 1533SOL    HW1 5498   6.643   3.254   0.002
 1533SOL    HW2 5499   6.556   3.190   0.124
 1534SOL     OW 5500   1.760   5.116   6.496
 1534SOL    HW1 5501   1.776   5.107   6.594
 1534SOL    HW2 5502   1.777   5.029   6.451
 1535SOL     OW 5503   4.964   6.472   4.522
 1535SOL    HW1 5504   4.885   6.529   4.500
 1535SOL    HW2 5505   5.048   6.526   4.514
 1536SOL     OW 5506   4.118   4.328   5.339
 1536SOL    HW1 5507   4.159   4.268   5.407
 1536SOL    HW2 5508   4.187   4.358   5.274
 1537SOL     OW 5509   3.886   6.009   3.514
 1537SOL    HW1 5510   3.974   6.023   3.469
 1537SOL    HW2 5511   3.900   5.993   3.611
 1538SOL     OW 5512   3.800   5.886   5.030
 1538SOL    HW1 5513   3.748   5.871   5.114
 1538SOL    HW2 5514   3.890   5.843   5.038
 1539SOL     OW 5515   4.296   3.643   1.712
 1539SOL    HW1 5516   4.372   3.707   1.704
 1539SOL    HW2 5517   4.213   3.685   1.674
 1540SOL     OW 5518   1.786   6.086   6.161
 1540SOL    HW1 5519   1.686   6.078   6.160
 1540SOL    HW2 5520   1.826   5.996   6.177
 1541SOL     OW 5521   3.294   3.117   2.513
 1541SOL    HW1 5522   3.195   3.122   2.529
 1541SOL    HW2 5523   3.324   3.022   2.519
 1542SOL     OW 5524   6.593   5.972   1.678
 1542SOL    HW1 5525   6.676   6.002   1.631
 1542SOL    HW2 5526   6.601   5.991   1.776
 1543SOL     OW 5527   3.318   3.806   4.899
 1543SOL    HW1 5528   3.405   3.848   4.875
 1543SOL    HW2 5529   3.248   3.876   4.911
 1544SOL     OW 5530   3.473   3.942   2.869
 1544SOL    HW1 5531   3.474   3.984   2.960
 1544SOL    HW2 5532   3.417   3.997   2.808
 1545SOL     OW 5533   5.385   0.993   3.953
 1545SOL    HW1 5534   5.356   1.074   4.005
 1545SOL    HW2 5535   5.388   0.914   4.015
 1546SOL     OW 5536   4.768   6.826   6.219
 1546SOL    HW1 5537   4.836   6.859   6.285
 1546SOL    HW2 5538   4.812   6.765   6.154
 1547SOL     OW 5539   1.830   3.762   3.119
 1547SOL    HW1 5540   1.753   3.795   3.063
 1547SOL    HW2 5541   1.889   3.839   3.143
 1548SOL     OW 5542   4.538   4.112   5.873
 1548SOL    HW1 5543   4.622   4.072   5.836
 1548SOL    HW2 5544   4.556   4.207   5.900
 1549SOL     OW 5545   3.778   1.234   2.794
 1549SOL    HW1 5546   3.701   1.182   2.832
 1549SOL    HW2 5547   3.849   1.244   2.863
 1550SOL     OW 5548   2.318   5.179   5.990
 1550SOL    HW1 5549   2.372   5.251   5.946
 1550SOL    HW2 5550   2.252   5.142   5.924
 1551SOL     OW 5551   2.156   4.095   6.775
 1551SOL    HW1 5552   2.108   4.182   6.782
 1551SOL    HW2 5553   2.244   4.109   6.729
 1552SOL     OW 5554   0.169   0.027   0.905
 1552SOL    HW1 5555   0.071   0.021   0.888
 1552SOL    HW2 5556   0.192   0.117   0.941
 1553SOL     OW 5557   0.105   0.699   5.842
 1553SOL    HW1 5558   0.049   0.635   5.789
 1553SOL    HW2 5559   0.080   0.693   5.938
 1554SOL     OW 5560   3.677   1.789   3.255
 1554SOL    HW1 5561   3.618   1.867   3.235
 1554SOL    HW2 5562   3.727   1.763   3.173
 1555SOL     OW 5563   5.041   1.862   6.963
 1555SOL    HW1 5564   4.948   1.874   6.997
 1555SOL    HW2 5565   5.076   1.774   6.993
 1556SOL     OW 5566   3.732   0.963   0.646
 1556SOL    HW1 5567   3.722   0.898   0.721
 1556SOL    HW2 5568   3.766   1.050   0.682
 1557SOL     OW 5569   2.529   1.165   6.523
 1557SOL    HW1 5570   2.580   1.203   6.446
 1557SOL    HW2 5571   2.474   1.087   6.492
 1558SOL     OW 5572   5.190   1.183   4.047
 1558SOL    HW1 5573   5.092   1.165   4.047
 1558SOL    HW2 5574   5.207   1.278   4.070
 1559SOL     OW 5575   0.071   2.848   0.315
 1559SOL    HW1 5576   0.143   2.796   0.269
 1559SOL    HW2 5577   7.002   2.799   0.306
 1560SOL     OW 5578   3.487   1.610   5.830
 1560SOL    HW1 5579   3.489   1.516   5.864
 1560SOL    HW2 5580   3.440   1.613   5.742
 1561SOL     OW 5581   6.779   6.160   2.258
 1561SOL    HW1 5582   6.774   6.236   2.194
 1561SOL    HW2 5583   6.699   6.101   2.248
 1562SOL     OW 5584   4.494   6.195   1.432
 1562SOL    HW1 5585   4.484   6.289   1.463
 1562SOL    HW2 5586   4.404   6.153   1.420
 1563SOL     OW 5587   2.415   1.079   5.922
 1563SOL    HW1 5588   2.380   0.989   5.947
 1563SOL    HW2 5589   2.507   1.090   5.958
 1564SOL     OW 5590   1.102   2.856   2.647
 1564SOL    HW1 5591   1.160   2.782   2.612
 1564SOL    HW2 5592   1.097   2.850   2.747
 1565SOL     OW 5593   4.444   5.281   3.677
 1565SOL    HW1 5594   4.418   5.194   3.719
 1565SOL    HW2 5595   4.525   5.266   3.619
 1566SOL     OW 5596   5.560   5.147   4.499
 1566SOL    HW1 5597   5.554   5.114   4.593
 1566SOL    HW2 5598   5.592   5.074   4.440
 1567SOL     OW 5599   6.277   5.850   0.050
 1567SOL    HW1 5600   6.370   5.867   0.018
 1567SOL    HW2 5601   6.254   5.753   0.037
 1568SOL     OW 5602   2.394   6.247   1.517
 1568SOL    HW1 5603   2.359   6.229   1.609
 1568SOL    HW2 5604   2.336   6.201   1.450
 1569SOL     OW 5605   2.969   0.054   3.306
 1569SOL    HW1 5606   3.024   0.013   3.234
 1569SOL    HW2 5607   2.940   7.001   3.371
 1570SOL     OW 5608   2.456   6.576   0.328
 1570SOL    HW1 5609   2.487   6.534   0.243
 1570SOL    HW2 5610   2.436   6.672   0.313
 1571SOL     OW 5611   6.263   1.950   2.738
 1571SOL    HW1 5612   6.336   1.911   2.794
 1571SOL    HW2 5613   6.299   1.970   2.646
 1572SOL     OW 5614   1.407   5.823   0.764
 1572SOL    HW1 5615   1.438   5.774   0.682
 1572SOL    HW2 5616   1.310   5.804   0.780
 1573SOL     OW 5617   6.497   4.010   1.694
 1573SOL    HW1 5618   6.404   4.028   1.725
 1573SOL    HW2 5619   6.552   4.092   1.708
 1574SOL     OW 5620   6.353   1.332   3.622
 1574SOL    HW1 5621   6.315   1.265   3.558
 1574SOL    HW2 5622   6.333   1.304   3.716
 1575SOL     OW 5623   2.182   2.188   1.153
 1575SOL    HW1 5624   2.262   2.142   1.191
 1575SOL    HW2 5625   2.178   2.282   1.189
 1576SOL     OW 5626   1.276   0.619   2.763
 1576SOL    HW1 5627   1.344   0.693   2.762
 1576SOL    HW2 5628   1.262   0.585   2.670
 1577SOL     OW 5629   2.603   0.508   6.049
 1577SOL    HW1 5630   2.558   0.424   6.018
 1577SOL    HW2 5631   2.602   0.575   5.975
 1578SOL     OW 5632   5.482   2.573   5.919
 1578SOL    HW1 5633   5.422   2.516   5.863
 1578SOL    HW2 5634   5.556   2.610   5.863
 1579SOL     OW 5635   0.160   1.826   2.073
 1579SOL    HW1 5636   0.178   1.848   2.169
 1579SOL    HW2 5637   0.246   1.826   2.022
 1580SOL     OW 5638   3.341   4.067   3.802
 1580SOL    HW1 5639   3.407   4.051   3.875
 1580SOL    HW2 5640   3.249   4.049   3.836
 1581SOL     OW 5641   6.248   4.465   4.788
 1581SOL    HW1 5642   6.196   4.540   4.745
 1581SOL    HW2 5643   6.337   4.499   4.817
 1582SOL     OW 5644   1.955   6.711   4.230
 1582SOL    HW1 5645   1.991   6.689   4.139
 1582SOL    HW2 5646   1.902   6.634   4.265
 1583SOL     OW 5647   0.524   5.637   2.519
 1583SOL    HW1 5648   0.618   5.669   2.507
 1583SOL    HW2 5649   0.519   5.582   2.603
 1584SOL     OW 5650   0.623   5.879   6.743
 1584SOL    HW1 5651   0.616   5.932   6.659
 1584SOL    HW2 5652   0.588   5.787   6.728
 1585SOL     OW 5653   4.247   1.797   3.165
 1585SOL    HW1 5654   4.191   1.856   3.106
 1585SOL    HW2 5655   4.215   1.803   3.259
 1586SOL     OW 5656   3.110   4.887   2.034
 1586SOL    HW1 5657   3.092   4.870   2.131
 1586SOL    HW2 5658   3.196   4.841   2.008
 1587SOL     OW 5659   2.749   5.826   5.887
 1587SOL    HW1 5660   2.814   5.893   5.923
 1587SOL    HW2 5661   2.675   5.873   5.839
 1588SOL     OW 5662   3.578   1.047   2.871
 1588SOL    HW1 5663   3.533   1.131   2.902
 1588SOL    HW2 5664   3.509   0.979   2.848
 1589SOL     OW 5665   0.296   3.266   1.939
 1589SOL    HW1 5666   0.261   3.172   1.934
 1589SOL    HW2 5667   0.358   3.283   1.863
 1590SOL     OW 5668   4.089   0.191   4.525
 1590SOL    HW1 5669   3.994   0.173   4.502
 1590SOL    HW2 5670   4.094   0.260   4.596
 1591SOL     OW 5671   0.164   5.235   1.616
 1591SOL    HW1 5672   0.201   5.265   1.528
 1591SOL    HW2 5673   0.206   5.148   1.642
 1592SOL     OW 5674   2.385   4.034   6.560
 1592SOL    HW1 5675   2.484   4.027   6.555
 1592SOL    HW2 5676   2.344   3.945   6.538
 1593SOL     OW 5677   0.667   6.418   5.672
 1593SOL    HW1 5678   0.721   6.342   5.708
 1593SOL    HW2 5679   0.727   6.480   5.620
 1594SOL     OW 5680   1.365   6.576   1.707
 1594SOL    HW1 5681   1.268   6.580   1.730
 1594SOL    HW2 5682   1.394   6.666   1.673
 1595SOL     OW 5683   1.574   5.401   0.766
 1595SOL    HW1 5684   1.652   5.345   0.737
 1595SOL    HW2 5685   1.593   5.497   0.745
 1596SOL     OW 5686   0.452   2.398   4.130
 1596SOL    HW1 5687   0.430   2.304   4.105
 1596SOL    HW2 5688   0.532   2.428   4.078
 1597SOL     OW 5689   1.335   6.417   0.251
 1597SOL    HW1 5690   1.238   6.440   0.245
 1597SOL    HW2 5691   1.379   6.476   0.319
 1598SOL     OW 5692   6.991   4.661   5.469
 1598SOL    HW1 5693   0.035   4.622   5.538
 1598SOL    HW2 5694   6.915   4.708   5.514
 1599SOL     OW 5695   4.628   5.344   4.582
 1599SOL    HW1 5696   4.713   5.293   4.591
 1599SOL    HW2 5697   4.578   5.313   4.501
 1600SOL     OW 5698   3.622   1.473   3.419
 1600SOL    HW1 5699   3.643   1.550   3.479
 1600SOL    HW2 5700   3.705   1.446   3.370
 1601SOL     OW 5701   6.530   6.119   4.382
 1601SOL    HW1 5702   6.503   6.211   4.411
 1601SOL    HW2 5703   6.545   6.119   4.283
 1602SOL     OW 5704   3.773   5.441   4.150
 1602SOL    HW1 5705   3.684   5.476   4.120
 1602SOL    HW2 5706   3.787   5.349   4.112
 1603SOL     OW 5707   1.677   6.355   3.366
 1603SOL    HW1 5708   1.722   6.436   3.328
 1603SOL    HW2 5709   1.739   6.276   3.360
 1604SOL     OW 5710   5.203   4.154   0.780
 1604SOL    HW1 5711   5.203   4.100   0.696
 1604SOL    HW2 5712   5.125   4.217   0.780
 1605SOL     OW 5713   6.308   5.162   1.327
 1605SOL    HW1 5714   6.317   5.097   1.402
 1605SOL    HW2 5715   6.330   5.254   1.360
 1606SOL     OW 5716   4.037   6.941   5.611
 1606SOL    HW1 5717   4.010   6.987   5.696
 1606SOL    HW2 5718   4.134   6.957   5.594
 1607SOL     OW 5719   4.449   1.596   0.906
 1607SOL    HW1 5720   4.511   1.518   0.905
 1607SOL    HW2 5721   4.436   1.629   0.812
 1608SOL     OW 5722   0.503   1.091   3.282
 1608SOL    HW1 5723   0.419   1.039   3.290
 1608SOL    HW2 5724   0.564   1.047   3.216
 1609SOL     OW 5725   4.599   0.376   6.884
 1609SOL    HW1 5726   4.577   0.394   6.789
 1609SOL    HW2 5727   4.515   0.367   6.937
 1610SOL     OW 5728   6.333   4.329   6.730
 1610SOL    HW1 5729   6.402   4.402   6.722
 1610SOL    HW2 5730   6.266   4.354   6.800
 1611SOL     OW 5731   2.491   3.856   0.670
 1611SOL    HW1 5732   2.505   3.776   0.728
 1611SOL    HW2 5733   2.574   3.875   0.618
 1612SOL     OW 5734   3.069   0.302   0.249
 1612SOL    HW1 5735   3.056   0.205   0.226
 1612SOL    HW2 5736   3.025   0.321   0.337
 1613SOL     OW 5737   1.338   5.753   2.147
 1613SOL    HW1 5738   1.293   5.746   2.235
 1613SOL    HW2 5739   1.326   5.845   2.110
 1614SOL     OW 5740   4.754   3.017   6.380
 1614SOL    HW1 5741   4.849   2.999   6.404
 1614SOL    HW2 5742   4.705   2.931   6.368
 1615SOL     OW 5743   5.788   5.590   0.677
 1615SOL    HW1 5744   5.803   5.503   0.631
 1615SOL    HW2 5745   5.692   5.617   0.668
 1616SOL     OW 5746   3.471   1.163   5.226
 1616SOL    HW1 5747   3.408   1.214   5.284
 1616SOL    HW2 5748   3.459   1.191   5.131
 1617SOL     OW 5749   5.846   6.855   2.670
 1617SOL    HW1 5750   5.854   6.893   2.762
 1617SOL    HW2 5751   5.921   6.888   2.614
 1618SOL     OW 5752   1.307   5.467   2.477
 1618SOL    HW1 5753   1.264   5.399   2.536
 1618SOL    HW2 5754   1.364   5.421   2.409
 1619SOL     OW 5755   0.801   3.900   1.466
 1619SOL    HW1 5756   0.714   3.850   1.468
 1619SOL    HW2 5757   0.812   3.944   1.377
 1620SOL     OW 5758   2.734   4.523   1.621
 1620SOL    HW1 5759   2.801   4.465   1.576
 1620SOL    HW2 5760   2.771   4.555   1.708
 1621SOL     OW 5761   6.702   0.965   0.748
 1621SOL    HW1 5762   6.626   0.967   0.683
 1621SOL    HW2 5763   6.683   1.028   0.824
 1622SOL     OW 5764   0.511   3.045   4.987
 1622SOL    HW1 5765   0.438   3.093   5.035
 1622SOL    HW2 5766   0.574   3.111   4.947
 1623SOL     OW 5767   2.054   2.869   4.775
 1623SOL    HW1 5768   2.114   2.937   4.733
 1623SOL    HW2 5769   2.078   2.778   4.741
 1624SOL     OW 5770   3.315   1.299   5.427
 1624SOL    HW1 5771   3.262   1.384   5.425
 1624SOL    HW2 5772   3.343   1.280   5.521
 1625SOL     OW 5773   1.638   5.080   0.315
 1625SOL    HW1 5774   1.730   5.115   0.332
 1625SOL    HW2 5775   1.583   5.088   0.398
 1626SOL     OW 5776   4.478   1.569   0.153
 1626SOL    HW1 5777   4.398   1.599   0.205
 1626SOL    HW2 5778   4.530   1.503   0.208
 1627SOL     OW 5779   6.393   3.057   3.663
 1627SOL    HW1 5780   6.351   3.098   3.745
 1627SOL    HW2 5781   6.321   3.021   3.604
 1628SOL     OW 5782   4.849   4.734   0.231
 1628SOL    HW1 5783   4.758   4.775   0.237
 1628SOL    HW2 5784   4.868   4.709   0.136
 1629SOL     OW 5785   2.894   0.870   3.746
 1629SOL    HW1 5786   2.907   0.788   3.690
 1629SOL    HW2 5787   2.826   0.851   3.817
 1630SOL     OW 5788   1.600   4.627   5.679
 1630SOL    HW1 5789   1.590   4.537   5.721
 1630SOL    HW2 5790   1.684   4.630   5.625
 1631SOL     OW 5791   0.934   3.109   0.346
 1631SOL    HW1 5792   0.937   3.114   0.246
 1631SOL    HW2 5793   0.884   3.188   0.383
 1632SOL     OW 5794   5.918   2.428   0.841
 1632SOL    HW1 5795   5.961   2.396   0.756
 1632SOL    HW2 5796   5.982   2.415   0.917
 1633SOL     OW 5797   5.342   4.015   4.378
 1633SOL    HW1 5798   5.258   3.997   4.431
 1633SOL    HW2 5799   5.334   3.974   4.288
 1634SOL     OW 5800   3.946   5.724   4.247
 1634SOL    HW1 5801   4.013   5.654   4.272
 1634SOL    HW2 5802   3.857   5.681   4.231
 1635SOL     OW 5803   0.231   5.107   6.805
 1635SOL    HW1 5804   0.131   5.098   6.811
 1635SOL    HW2 5805   0.273   5.017   6.815
 1636SOL     OW 5806   2.892   4.337   1.467
 1636SOL    HW1 5807   2.929   4.297   1.383
 1636SOL    HW2 5808   2.954   4.317   1.543
 1637SOL     OW 5809   0.608   0.882   2.753
 1637SOL    HW1 5810   0.632   0.789   2.724
 1637SOL    HW2 5811   0.606   0.886   2.853
 1638SOL     OW 5812   6.968   4.573   3.870
 1638SOL    HW1 5813   0.014   4.519   3.924
 1638SOL    HW2 5814   7.010   4.597   3.783
 1639SOL     OW 5815   5.071   6.854   2.233
 1639SOL    HW1 5816   5.114   6.922   2.173
 1639SOL    HW2 5817   5.140   6.816   2.295
 1640SOL     OW 5818   5.802   0.479   0.059
 1640SOL    HW1 5819   5.782   0.402   0.120
 1640SOL    HW2 5820   5.889   0.521   0.086
 1641SOL     OW 5821   4.551   1.739   3.223
 1641SOL    HW1 5822   4.568   1.652   3.270
 1641SOL    HW2 5823   4.453   1.759   3.226
 1642SOL     OW 5824   6.472   3.628   6.449
 1642SOL    HW1 5825   6.525   3.618   6.365
 1642SOL    HW2 5826   6.429   3.541   6.471
 1643SOL     OW 5827   2.877   4.765   4.739
 1643SOL    HW1 5828   2.898   4.852   4.784
 1643SOL    HW2 5829   2.832   4.704   4.805
 1644SOL     OW 5830   5.981   3.293   0.257
 1644SOL    HW1 5831   6.067   3.330   0.290
 1644SOL    HW2 5832   5.946   3.351   0.183
 1645SOL     OW 5833   3.362   4.918   6.375
 1645SOL    HW1 5834   3.370   4.819   6.364
 1645SOL    HW2 5835   3.452   4.956   6.398
 1646SOL     OW 5836   2.812   6.611   6.903
 1646SOL    HW1 5837   2.860   6.670   6.968
 1646SOL    HW2 5838   2.713   6.619   6.917
 1647SOL     OW 5839   5.750   3.280   4.301
 1647SOL    HW1 5840   5.719   3.208   4.239
 1647SOL    HW2 5841   5.700   3.365   4.281
 1648SOL     OW 5842   5.565   5.700   0.583
 1648SOL    HW1 5843   5.547   5.776   0.522
 1648SOL    HW2 5844   5.531   5.615   0.542
 1649SOL     OW 5845   3.297   1.302   4.084
 1649SOL    HW1 5846   3.272   1.233   4.016
 1649SOL    HW2 5847   3.303   1.260   4.174
 1650SOL     OW 5848   1.588   6.148   5.760
 1650SOL    HW1 5849   1.616   6.171   5.853
 1650SOL    HW2 5850   1.550   6.055   5.759
 1651SOL     OW 5851   0.360   1.831   1.375
 1651SOL    HW1 5852   0.278   1.888   1.375
 1651SOL    HW2 5853   0.438   1.885   1.407
 1652SOL     OW 5854   0.975   3.495   2.440
 1652SOL    HW1 5855   1.018   3.545   2.364
 1652SOL    HW2 5856   0.978   3.552   2.522
 1653SOL     OW 5857   0.433   6.687   0.761
 1653SOL    HW1 5858   0.521   6.655   0.726
 1653SOL    HW2 5859   0.431   6.787   0.761
 1654SOL     OW 5860   0.325   3.481   1.620
 1654SOL    HW1 5861   0.374   3.395   1.632
 1654SOL    HW2 5862   0.361   3.549   1.684
 1655SOL     OW 5863   0.939   2.145   5.267
 1655SOL    HW1 5864   0.923   2.057   5.221
 1655SOL    HW2 5865   0.885   2.148   5.352
 1656SOL     OW 5866   2.307   4.258   2.490
 1656SOL    HW1 5867   2.369   4.189   2.526
 1656SOL    HW2 5868   2.338   4.349   2.520
 1657SOL     OW 5869   0.002   1.148   4.123
 1657SOL    HW1 5870   6.948   1.086   4.156
 1657SOL    HW2 5871   0.055   1.181   4.201
 1658SOL     OW 5872   0.272   6.532   1.217
 1658SOL    HW1 5873   0.291   6.468   1.142
 1658SOL    HW2 5874   0.210   6.489   1.283
 1659SOL     OW 5875   3.766   6.885   6.786
 1659SOL    HW1 5876   3.743   6.839   6.872
 1659SOL    HW2 5877   3.723   6.838   6.710
 1660SOL     OW 5878   1.374   5.822   3.622
 1660SOL    HW1 5879   1.356   5.788   3.529
 1660SOL    HW2 5880   1.287   5.831   3.671
 1661SOL     OW 5881   3.083   6.966   1.200
 1661SOL    HW1 5882   3.084   6.873   1.236
 1661SOL    HW2 5883   2.989   6.992   1.176
 1662SOL     OW 5884   6.701   0.289   4.154
 1662SOL    HW1 5885   6.661   0.226   4.087
 1662SOL    HW2 5886   6.633   0.309   4.225
 1663SOL     OW 5887   4.533   6.616   3.227
 1663SOL    HW1 5888   4.603   6.653   3.165
 1663SOL    HW2 5889   4.491   6.692   3.278
 1664SOL     OW 5890   1.978   6.615   4.902
 1664SOL    HW1 5891   2.037   6.677   4.851
 1664SOL    HW2 5892   2.002   6.521   4.880
 1665SOL     OW 5893   0.445   2.479   2.881
 1665SOL    HW1 5894   0.371   2.412   2.873
 1665SOL    HW2 5895   0.407   2.568   2.905
 1666SOL     OW 5896   5.716   2.100   6.443
 1666SOL    HW1 5897   5.781   2.051   6.385
 1666SOL    HW2 5898   5.652   2.035   6.483
 1667SOL     OW 5899   6.767   6.126   0.886
 1667SOL    HW1 5900   6.765   6.043   0.941
 1667SOL    HW2 5901   6.798   6.104   0.793
 1668SOL     OW 5902   5.321   6.462   4.566
 1668SOL    HW1 5903   5.313   6.372   4.609
 1668SOL    HW2 5904   5.416   6.478   4.540
 1669SOL     OW 5905   6.514   5.220   6.432
 1669SOL    HW1 5906   6.554   5.267   6.511
 1669SOL    HW2 5907   6.460   5.141   6.463
 1670SOL     OW 5908   0.365   3.990   5.935
 1670SOL    HW1 5909   0.329   3.995   5.842
 1670SOL    HW2 5910   0.327   3.910   5.981
 1671SOL     OW 5911   5.963   1.241   2.728
 1671SOL    HW1 5912   5.864   1.246   2.713
 1671SOL    HW2 5913   5.984   1.164   2.789
 1672SOL     OW 5914   1.420   2.414   0.715
 1672SOL    HW1 5915   1.463   2.402   0.805
 1672SOL    HW2 5916   1.368   2.499   0.713
 1673SOL     OW 5917   1.154   1.290   4.609
 1673SOL    HW1 5918   1.111   1.353   4.544
 1673SOL    HW2 5919   1.084   1.241   4.660
 1674SOL     OW 5920   0.722   3.174   2.349
 1674SOL    HW1 5921   0.795   3.145   2.411
 1674SOL    HW2 5922   0.648   3.215   2.402
 1675SOL     OW 5923   5.522   6.927   0.806
 1675SOL    HW1 5924   5.523   6.911   0.904
 1675SOL    HW2 5925   5.569   6.852   0.760
 1676SOL     OW 5926   2.222   2.847   2.102
 1676SOL    HW1 5927   2.313   2.834   2.062
 1676SOL    HW2 5928   2.173   2.760   2.101
 1677SOL     OW 5929   3.242   3.402   4.376
 1677SOL    HW1 5930   3.253   3.500   4.388
 1677SOL    HW2 5931   3.185   3.365   4.450
 1678SOL     OW 5932   5.757   4.126   3.926
 1678SOL    HW1 5933   5.753   4.035   3.883
 1678SOL    HW2 5934   5.735   4.196   3.857
 1679SOL     OW 5935   2.423   2.695   4.462
 1679SOL    HW1 5936   2.336   2.702   4.413
 1679SOL    HW2 5937   2.420   2.754   4.543
 1680SOL     OW 5938   0.230   2.871   5.050
 1680SOL    HW1 5939   0.222   2.933   5.128
 1680SOL    HW2 5940   0.189   2.914   4.969
 1681SOL     OW 5941   6.712   5.543   0.024
 1681SOL    HW1 5942   6.799   5.493   0.034
 1681SOL    HW2 5943   6.666   5.547   0.113
 1682SOL     OW 5944   1.517   1.049   4.872
 1682SOL    HW1 5945   1.585   1.010   4.810
 1682SOL    HW2 5946   1.563   1.094   4.949
 1683SOL     OW 5947   4.904   5.181   1.415
 1683SOL    HW1 5948   4.990   5.228   1.435
 1683SOL    HW2 5949   4.866   5.144   1.500
 1684SOL     OW 5950   1.277   5.751   2.424
 1684SOL    HW1 5951   1.265   5.658   2.457
 1684SOL    HW2 5952   1.277   5.814   2.502
 1685SOL     OW 5953   2.545   0.879   4.822
 1685SOL    HW1 5954   2.584   0.943   4.756
 1685SOL    HW2 5955   2.568   0.785   4.796
 1686SOL     OW 5956   2.535   6.335   4.390
 1686SOL    HW1 5957   2.574   6.376   4.473
 1686SOL    HW2 5958   2.470   6.263   4.417
 1687SOL     OW 5959   2.140   3.314   1.704
 1687SOL    HW1 5960   2.204   3.363   1.762
 1687SOL    HW2 5961   2.168   3.323   1.608
 1688SOL     OW 5962   2.307   2.528   4.194
 1688SOL    HW1 5963   2.329   2.460   4.264
 1688SOL    HW2 5964   2.391   2.565   4.155
 1689SOL     OW 5965   6.002   1.508   2.690
 1689SOL    HW1 5966   6.087   1.544   2.727
 1689SOL    HW2 5967   6.000   1.409   2.702
 1690SOL     OW 5968   1.715   2.306   4.093
 1690SOL    HW1 5969   1.805   2.314   4.050
 1690SOL    HW2 5970   1.721   2.245   4.172
 1691SOL     OW 5971   6.235   3.566   3.463
 1691SOL    HW1 5972   6.185   3.479   3.461
 1691SOL    HW2 5973   6.170   3.641   3.472
 1692SOL     OW 5974   5.262   6.445   1.512
 1692SOL    HW1 5975   5.167   6.415   1.500
 1692SOL    HW2 5976   5.264   6.530   1.564
 1693SOL     OW 5977   6.836   2.184   2.286
 1693SOL    HW1 5978   6.784   2.250   2.231
 1693SOL    HW2 5979   6.932   2.188   2.259
 1694SOL     OW 5980   5.775   1.053   2.235
 1694SOL    HW1 5981   5.755   1.129   2.297
 1694SOL    HW2 5982   5.795   0.971   2.288
 1695SOL     OW 5983   4.081   0.586   5.870
 1695SOL    HW1 5984   4.104   0.607   5.775
 1695SOL    HW2 5985   4.145   0.632   5.931
 1696SOL     OW 5986   4.402   5.277   0.874
 1696SOL    HW1 5987   4.372   5.195   0.825
 1696SOL    HW2 5988   4.421   5.350   0.808
 1697SOL     OW 5989   5.981   1.007   0.790
 1697SOL    HW1 5990   5.928   0.947   0.849
 1697SOL    HW2 5991   6.001   0.960   0.704
 1698SOL     OW 5992   3.750   0.358   6.862
 1698SOL    HW1 5993   3.777   0.440   6.812
 1698SOL    HW2 5994   3.769   0.370   6.959
 1699SOL     OW 5995   1.954   1.019   0.396
 1699SOL    HW1 5996   1.969   0.924   0.423
 1699SOL    HW2 5997   1.959   1.027   0.296
 1700SOL     OW 5998   6.143   3.429   4.054
 1700SOL    HW1 5999   6.179   3.521   4.041
 1700SOL    HW2 6000   6.210   3.362   4.023
 1701SOL     OW 6001   4.902   4.098   6.202
 1701SOL    HW1 6002   4.958   4.125   6.124
 1701SOL    HW2 6003   4.832   4.032   6.172
 1702SOL     OW 6004   6.279   1.521   0.293
 1702SOL    HW1 6005   6.295   1.542   0.390
 1702SOL    HW2 6006   6.231   1.434   0.286
 1703SOL     OW 6007   3.193   2.670   1.566
 1703SOL    HW1 6008   3.116   2.619   1.605
 1703SOL    HW2 6009   3.279   2.632   1.600
 1704SOL     OW 6010   0.815   2.219   1.264
 1704SOL    HW1 6011   0.887   2.163   1.224
 1704SOL    HW2 6012   0.784   2.286   1.197
 1705SOL     OW 6013   2.772   1.740   2.086
 1705SOL    HW1 6014   2.681   1.770   2.058
 1705SOL    HW2 6015   2.800   1.790   2.168
 1706SOL     OW 6016   5.111   1.286   2.074
 1706SOL    HW1 6017   5.211   1.279   2.081
 1706SOL    HW2 6018   5.077   1.338   2.153
 1707SOL     OW 6019   4.989   1.683   2.184
 1707SOL    HW1 6020   5.053   1.637   2.245
 1707SOL    HW2 6021   5.029   1.691   2.093
 1708SOL     OW 6022   4.951   5.325   2.282
 1708SOL    HW1 6023   4.931   5.321   2.184
 1708SOL    HW2 6024   4.869   5.301   2.334
 1709SOL     OW 6025   3.247   6.346   2.609
 1709SOL    HW1 6026   3.314   6.325   2.538
 1709SOL    HW2 6027   3.217   6.261   2.654
 1710SOL     OW 6028   5.210   4.805   3.705
 1710SOL    HW1 6029   5.117   4.778   3.728
 1710SOL    HW2 6030   5.274   4.755   3.764
 1711SOL     OW 6031   1.563   4.135   4.352
 1711SOL    HW1 6032   1.514   4.074   4.414
 1711SOL    HW2 6033   1.608   4.082   4.281
 1712SOL     OW 6034   6.521   2.217   5.287
 1712SOL    HW1 6035   6.446   2.211   5.220
 1712SOL    HW2 6036   6.535   2.127   5.329
 1713SOL     OW 6037   4.365   2.182   1.213
 1713SOL    HW1 6038   4.302   2.138   1.278
 1713SOL    HW2 6039   4.323   2.266   1.179
 1714SOL     OW 6040   3.693   1.175   5.765
 1714SOL    HW1 6041   3.688   1.203   5.861
 1714SOL    HW2 6042   3.779   1.206   5.726
 1715SOL     OW 6043   0.644   5.415   3.210
 1715SOL    HW1 6044   0.544   5.405   3.208
 1715SOL    HW2 6045   0.668   5.501   3.255
 1716SOL     OW 6046   5.245   6.834   3.267
 1716SOL    HW1 6047   5.271   6.908   3.205
 1716SOL    HW2 6048   5.174   6.866   3.330
 1717SOL     OW 6049   2.527   6.544   6.022
 1717SOL    HW1 6050   2.483   6.596   5.948
 1717SOL    HW2 6051   2.559   6.457   5.986
 1718SOL     OW 6052   2.406   1.528   1.656
 1718SOL    HW1 6053   2.481   1.590   1.631
 1718SOL    HW2 6054   2.333   1.579   1.701
 1719SOL     OW 6055   2.045   3.288   1.219
 1719SOL    HW1 6056   2.059   3.379   1.179
 1719SOL    HW2 6057   2.118   3.227   1.189
 1720SOL     OW 6058   6.710   3.304   0.401
 1720SOL    HW1 6059   6.757   3.393   0.408
 1720SOL    HW2 6060   6.746   3.254   0.322
 1721SOL     OW 6061   1.812   6.805   1.388
 1721SOL    HW1 6062   1.748   6.728   1.390
 1721SOL    HW2 6063   1.906   6.771   1.382
 1722SOL     OW 6064   3.229   1.252   3.370
 1722SOL    HW1 6065   3.156   1.290   3.427
 1722SOL    HW2 6066   3.318   1.287   3.402
 1723SOL     OW 6067   5.754   2.446   2.257
 1723SOL    HW1 6068   5.757   2.545   2.243
 1723SOL    HW2 6069   5.666   2.410   2.224
 1724SOL     OW 6070   6.589   2.676   1.699
 1724SOL    HW1 6071   6.573   2.644   1.793
 1724SOL    HW2 6072   6.503   2.709   1.660
 1725SOL     OW 6073   2.125   5.369   6.544
 1725SOL    HW1 6074   2.163   5.278   6.527
 1725SOL    HW2 6075   2.162   5.434   6.478
 1726SOL     OW 6076   6.454   4.596   4.961
 1726SOL    HW1 6077   6.506   4.512   4.975
 1726SOL    HW2 6078   6.485   4.666   5.025
 1727SOL     OW 6079   3.475   2.871   4.185
 1727SOL    HW1 6080   3.391   2.819   4.203
 1727SOL    HW2 6081   3.472   2.908   4.093
 1728SOL     OW 6082   4.900   4.734   4.883
 1728SOL    HW1 6083   4.807   4.770   4.887
 1728SOL    HW2 6084   4.965   4.810   4.873
 1729SOL     OW 6085   1.925   4.403   2.739
 1729SOL    HW1 6086   1.937   4.491   2.692
 1729SOL    HW2 6087   1.963   4.330   2.683
 1730SOL     OW 6088   1.309   6.476   5.678
 1730SOL    HW1 6089   1.284   6.381   5.696
 1730SOL    HW2 6090   1.227   6.532   5.671
 1731SOL     OW 6091   0.193   3.859   3.418
 1731SOL    HW1 6092   0.210   3.914   3.337
 1731SOL    HW2 6093   0.258   3.884   3.490
 1732SOL     OW 6094   2.829   5.081   5.248
 1732SOL    HW1 6095   2.821   5.006   5.314
 1732SOL    HW2 6096   2.739   5.123   5.234
 1733SOL     OW 6097   1.862   4.832   1.957
 1733SOL    HW1 6098   1.885   4.817   2.053
 1733SOL    HW2 6099   1.945   4.823   1.902
 1734SOL     OW 6100   4.595   3.553   1.221
 1734SOL    HW1 6101   4.637   3.605   1.295
 1734SOL    HW2 6102   4.547   3.474   1.259
 1735SOL     OW 6103   5.031   5.800   0.599
 1735SOL    HW1 6104   5.047   5.869   0.529
 1735SOL    HW2 6105   4.970   5.729   0.564
 1736SOL     OW 6106   3.519   3.866   0.513
 1736SOL    HW1 6107   3.590   3.894   0.449
 1736SOL    HW2 6108   3.455   3.805   0.467
 1737SOL     OW 6109   3.250   1.177   4.311
 1737SOL    HW1 6110   3.255   1.100   4.375
 1737SOL    HW2 6111   3.173   1.236   4.335
 1738SOL     OW 6112   1.627   2.910   3.957
 1738SOL    HW1 6113   1.573   2.977   4.007
 1738SOL    HW2 6114   1.707   2.955   3.917
 1739SOL     OW 6115   0.175   1.996   5.524
 1739SOL    HW1 6116   0.219   1.986   5.434
 1739SOL    HW2 6117   0.166   2.093   5.545
 1740SOL     OW 6118   0.395   2.158   5.688
 1740SOL    HW1 6119   0.429   2.116   5.604
 1740SOL    HW2 6120   0.298   2.180   5.677
 1741SOL     OW 6121   2.072   0.400   3.812
 1741SOL    HW1 6122   1.999   0.346   3.770
 1741SOL    HW2 6123   2.131   0.340   3.866
 1742SOL     OW 6124   5.828   0.557   6.414
 1742SOL    HW1 6125   5.920   0.518   6.413
 1742SOL    HW2 6126   5.772   0.510   6.482
 1743SOL     OW 6127   0.512   1.769   1.787
 1743SOL    HW1 6128   0.605   1.790   1.817
 1743SOL    HW2 6129   0.447   1.794   1.859
 1744SOL     OW 6130   6.830   2.367   3.231
 1744SOL    HW1 6131   6.756   2.369   3.165
 1744SOL    HW2 6132   6.875   2.456   3.234
 1745SOL     OW 6133   5.569   5.530   2.155
 1745SOL    HW1 6134   5.529   5.439   2.170
 1745SOL    HW2 6135   5.591   5.572   2.242
 1746SOL     OW 6136   1.528   3.938   4.549
 1746SOL    HW1 6137   1.475   4.007   4.598
 1746SOL    HW2 6138   1.585   3.888   4.614
 1747SOL     OW 6139   4.653   1.432   3.363
 1747SOL    HW1 6140   4.557   1.438   3.390
 1747SOL    HW2 6141   4.677   1.336   3.344
 1748SOL     OW 6142   0.914   0.822   4.914
 1748SOL    HW1 6143   0.975   0.900   4.902
 1748SOL    HW2 6144   0.929   0.782   5.005
 1749SOL     OW 6145   2.114   0.343   4.843
 1749SOL    HW1 6146   2.119   0.363   4.745
 1749SOL    HW2 6147   2.082   0.249   4.856
 1750SOL     OW 6148   5.033   6.213   4.413
 1750SOL    HW1 6149   5.126   6.208   4.377
 1750SOL    HW2 6150   5.017   6.304   4.453
 1751SOL     OW 6151   3.795   6.313   4.224
 1751SOL    HW1 6152   3.772   6.219   4.198
 1751SOL    HW2 6153   3.873   6.312   4.287
 1752SOL     OW 6154   6.586   1.999   2.313
 1752SOL    HW1 6155   6.526   2.000   2.233
 1752SOL    HW2 6156   6.628   2.089   2.325
 1753SOL     OW 6157   6.701   1.181   1.553
 1753SOL    HW1 6158   6.702   1.128   1.638
 1753SOL    HW2 6159   6.679   1.277   1.573
 1754SOL     OW 6160   1.708   4.599   6.848
 1754SOL    HW1 6161   1.670   4.519   6.895
 1754SOL    HW2 6162   1.633   4.657   6.817
 1755SOL     OW 6163   6.807   6.079   1.534
 1755SOL    HW1 6164   6.900   6.072   1.496
 1755SOL    HW2 6165   6.777   6.174   1.529
 1756SOL     OW 6166   4.522   5.924   5.582
 1756SOL    HW1 6167   4.505   5.981   5.502
 1756SOL    HW2 6168   4.445   5.931   5.645
 1757SOL     OW 6169   2.192   5.125   4.846
 1757SOL    HW1 6170   2.253   5.195   4.882
 1757SOL    HW2 6171   2.107   5.167   4.814
 1758SOL     OW 6172   2.467   0.326   4.309
 1758SOL    HW1 6173   2.546   0.271   4.335
 1758SOL    HW2 6174   2.383   0.280   4.338
 1759SOL     OW 6175   1.463   6.241   5.509
 1759SOL    HW1 6176   1.550   6.232   5.558
 1759SOL    HW2 6177   1.412   6.156   5.516
 1760SOL     OW 6178   5.312   1.382   2.602
 1760SOL    HW1 6179   5.367   1.396   2.519
 1760SOL    HW2 6180   5.373   1.366   2.679
 1761SOL     OW 6181   0.211   0.268   1.029
 1761SOL    HW1 6182   0.117   0.273   0.997
 1761SOL    HW2 6183   0.213   0.246   1.126
 1762SOL     OW 6184   0.378   1.341   4.419
 1762SOL    HW1 6185   0.349   1.270   4.355
 1762SOL    HW2 6186   0.372   1.430   4.374
 1763SOL     OW 6187   1.492   4.326   3.749
 1763SOL    HW1 6188   1.579   4.276   3.744
 1763SOL    HW2 6189   1.469   4.343   3.845
 1764SOL     OW 6190   2.150   3.205   2.408
 1764SOL    HW1 6191   2.214   3.150   2.461
 1764SOL    HW2 6192   2.152   3.176   2.312
 1765SOL     OW 6193   3.680   0.564   1.189
 1765SOL    HW1 6194   3.653   0.650   1.233
 1765SOL    HW2 6195   3.600   0.524   1.144
 1766SOL     OW 6196   5.096   4.137   2.596
 1766SOL    HW1 6197   5.153   4.193   2.537
 1766SOL    HW2 6198   5.070   4.053   2.548
 1767SOL     OW 6199   0.490   3.736   2.618
 1767SOL    HW1 6200   0.459   3.768   2.529
 1767SOL    HW2 6201   0.448   3.647   2.638
 1768SOL     OW 6202   4.124   1.633   6.836
 1768SOL    HW1 6203   4.160   1.615   6.744
 1768SOL    HW2 6204   4.166   1.569   6.901
 1769SOL     OW 6205   4.624   1.704   6.446
 1769SOL    HW1 6206   4.557   1.768   6.484
 1769SOL    HW2 6207   4.710   1.712   6.495
 1770SOL     OW 6208   6.781   4.510   4.494
 1770SOL    HW1 6209   6.868   4.559   4.491
 1770SOL    HW2 6210   6.794   4.420   4.535
 1771SOL     OW 6211   2.346   5.467   0.554
 1771SOL    HW1 6212   2.408   5.537   0.588
 1771SOL    HW2 6213   2.295   5.428   0.631
 1772SOL     OW 6214   3.429   6.925   3.580
 1772SOL    HW1 6215   3.482   6.886   3.504
 1772SOL    HW2 6216   3.470   6.898   3.667
 1773SOL     OW 6217   2.968   3.624   6.324
 1773SOL    HW1 6218   2.902   3.562   6.365
 1773SOL    HW2 6219   3.018   3.576   6.252
 1774SOL     OW 6220   4.502   0.344   1.806
 1774SOL    HW1 6221   4.536   0.364   1.714
 1774SOL    HW2 6222   4.514   0.246   1.826
 1775SOL     OW 6223   1.866   5.025   5.277
 1775SOL    HW1 6224   1.957   5.063   5.261
 1775SOL    HW2 6225   1.875   4.937   5.326
 1776SOL     OW 6226   5.284   1.118   6.422
 1776SOL    HW1 6227   5.328   1.121   6.333
 1776SOL    HW2 6228   5.210   1.185   6.425
 1777SOL     OW 6229   3.430   5.944   5.362
 1777SOL    HW1 6230   3.377   5.998   5.296
 1777SOL    HW2 6231   3.367   5.895   5.423
 1778SOL     OW 6232   4.320   1.796   4.474
 1778SOL    HW1 6233   4.407   1.783   4.428
 1778SOL    HW2 6234   4.336   1.819   4.570
 1779SOL     OW 6235   3.872   1.418   4.849
 1779SOL    HW1 6236   3.844   1.374   4.764
 1779SOL    HW2 6237   3.942   1.362   4.894
 1780SOL     OW 6238   2.360   3.892   5.898
 1780SOL    HW1 6239   2.432   3.913   5.832
 1780SOL    HW2 6240   2.274   3.932   5.868
 1781SOL     OW 6241   4.949   5.002   3.511
 1781SOL    HW1 6242   5.040   5.044   3.516
 1781SOL    HW2 6243   4.894   5.032   3.588
 1782SOL     OW 6244   2.810   1.702   3.428
 1782SOL    HW1 6245   2.882   1.689   3.360
 1782SOL    HW2 6246   2.844   1.677   3.518
 1783SOL     OW 6247   2.370   3.395   6.189
 1783SOL    HW1 6248   2.328   3.311   6.154
 1783SOL    HW2 6249   2.467   3.397   6.164
 1784SOL     OW 6250   2.499   1.339   2.423
 1784SOL    HW1 6251   2.547   1.426   2.413
 1784SOL    HW2 6252   2.561   1.269   2.457
 1785SOL     OW 6253   5.611   5.505   3.298
 1785SOL    HW1 6254   5.598   5.591   3.347
 1785SOL    HW2 6255   5.618   5.430   3.363
 1786SOL     OW 6256   1.252   3.944   0.450
 1786SOL    HW1 6257   1.182   3.882   0.487
 1786SOL    HW2 6258   1.337   3.893   0.436
 1787SOL     OW 6259   2.105   0.921   5.285
 1787SOL    HW1 6260   2.193   0.966   5.303
 1787SOL    HW2 6261   2.056   0.908   5.371
 1788SOL     OW 6262   3.565   3.966   6.982
 1788SOL    HW1 6263   3.496   4.038   6.972
 1788SOL    HW2 6264   3.647   3.992   6.930
 1789SOL     OW 6265   5.751   2.719   2.192
 1789SOL    HW1 6266   5.654   2.716   2.166
 1789SOL    HW2 6267   5.792   2.802   2.155
 1790SOL     OW 6268   3.594   6.863   4.362
 1790SOL    HW1 6269   3.647   6.924   4.303
 1790SOL    HW2 6270   3.601   6.893   4.457
 1791SOL     OW 6271   6.935   1.243   4.683
 1791SOL    HW1 6272   6.957   1.254   4.586
 1791SOL    HW2 6273   6.871   1.166   4.693
 1792SOL     OW 6274   0.721   0.960   4.466
 1792SOL    HW1 6275   0.801   0.901   4.482
 1792SOL    HW2 6276   0.687   0.994   4.554
 1793SOL     OW 6277   6.144   0.666   3.892
 1793SOL    HW1 6278   6.193   0.611   3.959
 1793SOL    HW2 6279   6.103   0.745   3.938
 1794SOL     OW 6280   5.008   6.301   6.034
 1794SOL    HW1 6281   4.925   6.297   6.089
 1794SOL    HW2 6282   4.983   6.307   5.937
 1795SOL     OW 6283   6.304   4.885   2.398
 1795SOL    HW1 6284   6.373   4.951   2.367
 1795SOL    HW2 6285   6.213   4.925   2.389
 1796SOL     OW 6286   2.293   0.666   4.428
 1796SOL    HW1 6287   2.269   0.695   4.336
 1796SOL    HW2 6288   2.306   0.746   4.486
 1797SOL     OW 6289   1.273   6.826   5.873
 1797SOL    HW1 6290   1.364   6.866   5.885
 1797SOL    HW2 6291   1.258   6.756   5.942
 1798SOL     OW 6292   4.704   2.743   5.218
 1798SOL    HW1 6293   4.633   2.702   5.274
 1798SOL    HW2 6294   4.697   2.843   5.223
 1799SOL     OW 6295   5.686   2.668   6.413
 1799SOL    HW1 6296   5.702   2.639   6.507
 1799SOL    HW2 6297   5.593   2.705   6.405
 1800SOL     OW 6298   5.278   4.289   3.783
 1800SOL    HW1 6299   5.180   4.304   3.777
 1800SOL    HW2 6300   5.325   4.342   3.713
 1801SOL     OW 6301   0.992   1.786   3.060
 1801SOL    HW1 6302   0.906   1.830   3.033
 1801SOL    HW2 6303   1.061   1.802   2.990
 1802SOL     OW 6304   6.318   6.072   3.019
 1802SOL    HW1 6305   6.357   6.131   2.948
 1802SOL    HW2 6306   6.330   5.976   2.993
 1803SOL     OW 6307   0.143   6.505   1.854
 1803SOL    HW1 6308   0.161   6.588   1.801
 1803SOL    HW2 6309   0.219   6.440   1.842
 1804SOL     OW 6310   3.561   3.198   5.382
 1804SOL    HW1 6311   3.485   3.185   5.446
 1804SOL    HW2 6312   3.541   3.277   5.324
 1805SOL     OW 6313   1.394   4.509   5.983
 1805SOL    HW1 6314   1.353   4.578   5.923
 1805SOL    HW2 6315   1.440   4.440   5.927
 1806SOL     OW 6316   1.320   2.281   1.644
 1806SOL    HW1 6317   1.390   2.213   1.618
 1806SOL    HW2 6318   1.236   2.263   1.594
 1807SOL     OW 6319   5.994   2.221   6.141
 1807SOL    HW1 6320   6.014   2.123   6.141
 1807SOL    HW2 6321   5.995   2.255   6.235
 1808SOL     OW 6322   5.889   4.533   4.351
 1808SOL    HW1 6323   5.967   4.596   4.358
 1808SOL    HW2 6324   5.842   4.528   4.439
 1809SOL     OW 6325   2.560   2.522   4.910
 1809SOL    HW1 6326   2.611   2.487   4.989
 1809SOL    HW2 6327   2.503   2.600   4.939
 1810SOL     OW 6328   1.243   6.890   4.830
 1810SOL    HW1 6329   1.307   6.883   4.754
 1810SOL    HW2 6330   1.268   6.825   4.902
 1811SOL     OW 6331   4.493   4.837   2.876
 1811SOL    HW1 6332   4.431   4.759   2.888
 1811SOL    HW2 6333   4.583   4.804   2.849
 1812SOL     OW 6334   5.100   6.936   6.154
 1812SOL    HW1 6335   5.119   6.864   6.087
 1812SOL    HW2 6336   5.139   6.910   6.242
 1813SOL     OW 6337   5.157   5.252   1.517
 1813SOL    HW1 6338   5.201   5.312   1.450
 1813SOL    HW2 6339   5.179   5.157   1.497
 1814SOL     OW 6340   6.169   0.583   0.831
 1814SOL    HW1 6341   6.141   0.632   0.914
 1814SOL    HW2 6342   6.253   0.623   0.795
 1815SOL     OW 6343   6.142   0.511   3.200
 1815SOL    HW1 6344   6.223   0.550   3.156
 1815SOL    HW2 6345   6.072   0.582   3.210
 1816SOL     OW 6346   2.900   4.983   0.278
 1816SOL    HW1 6347   2.896   5.028   0.367
 1816SOL    HW2 6348   2.871   5.048   0.207
 1817SOL     OW 6349   3.807   0.354   3.322
 1817SOL    HW1 6350   3.758   0.440   3.338
 1817SOL    HW2 6351   3.786   0.321   3.231
 1818SOL     OW 6352   2.295   6.362   1.149
 1818SOL    HW1 6353   2.372   6.333   1.092
 1818SOL    HW2 6354   2.239   6.427   1.097
 1819SOL     OW 6355   1.311   6.332   1.861
 1819SOL    HW1 6356   1.315   6.239   1.826
 1819SOL    HW2 6357   1.337   6.396   1.789
 1820SOL     OW 6358   3.506   0.404   2.412
 1820SOL    HW1 6359   3.431   0.366   2.358
 1820SOL    HW2 6360   3.476   0.417   2.506
 1821SOL     OW 6361   2.752   0.702   1.222
 1821SOL    HW1 6362   2.791   0.794   1.228
 1821SOL    HW2 6363   2.761   0.656   1.310
 1822SOL     OW 6364   0.833   2.320   1.502
 1822SOL    HW1 6365   0.930   2.340   1.505
 1822SOL    HW2 6366   0.811   2.273   1.416
 1823SOL     OW 6367   3.710   6.219   2.748
 1823SOL    HW1 6368   3.680   6.170   2.666
 1823SOL    HW2 6369   3.789   6.276   2.725
 1824SOL     OW 6370   4.105   3.816   0.475
 1824SOL    HW1 6371   4.032   3.753   0.449
 1824SOL    HW2 6372   4.150   3.784   0.558
 1825SOL     OW 6373   0.930   2.443   4.857
 1825SOL    HW1 6374   0.918   2.542   4.865
 1825SOL    HW2 6375   0.903   2.414   4.766
 1826SOL     OW 6376   2.825   1.726   1.610
 1826SOL    HW1 6377   2.843   1.631   1.585
 1826SOL    HW2 6378   2.899   1.760   1.669
 1827SOL     OW 6379   6.668   5.457   1.178
 1827SOL    HW1 6380   6.596   5.440   1.245
 1827SOL    HW2 6381   6.687   5.372   1.127
 1828SOL     OW 6382   1.822   2.708   0.176
 1828SOL    HW1 6383   1.743   2.734   0.232
 1828SOL    HW2 6384   1.828   2.608   0.172
 1829SOL     OW 6385   3.501   0.671   3.120
 1829SOL    HW1 6386   3.574   0.690   3.055
 1829SOL    HW2 6387   3.522   0.589   3.172
 1830SOL     OW 6388   5.625   6.119   4.537
 1830SOL    HW1 6389   5.619   6.021   4.518
 1830SOL    HW2 6390   5.678   6.133   4.621
 1831SOL     OW 6391   5.670   6.700   1.629
 1831SOL    HW1 6392   5.765   6.695   1.658
 1831SOL    HW2 6393   5.629   6.609   1.631
 1832SOL     OW 6394   4.083   1.746   0.773
 1832SOL    HW1 6395   4.176   1.714   0.754
 1832SOL    HW2 6396   4.058   1.817   0.707
 1833SOL     OW 6397   5.477   0.696   1.636
 1833SOL    HW1 6398   5.503   0.713   1.730
 1833SOL    HW2 6399   5.532   0.621   1.599
 1834SOL     OW 6400   2.380   3.743   0.463
 1834SOL    HW1 6401   2.398   3.772   0.369
 1834SOL    HW2 6402   2.409   3.814   0.526
 1835SOL     OW 6403   0.106   4.743   1.873
 1835SOL    HW1 6404   0.087   4.646   1.856
 1835SOL    HW2 6405   0.205   4.757   1.881
 1836SOL     OW 6406   5.238   2.719   1.249
 1836SOL    HW1 6407   5.247   2.749   1.344
 1836SOL    HW2 6408   5.145   2.686   1.232
 1837SOL     OW 6409   0.592   6.741   5.402
 1837SOL    HW1 6410   0.562   6.669   5.339
 1837SOL    HW2 6411   0.620   6.821   5.349
 1838SOL     OW 6412   6.458   1.166   5.480
 1838SOL    HW1 6413   6.393   1.239   5.500
 1838SOL    HW2 6414   6.524   1.198   5.412
 1839SOL     OW 6415   0.603   1.218   5.487
 1839SOL    HW1 6416   0.570   1.310   5.507
 1839SOL    HW2 6417   0.567   1.155   5.556
 1840SOL     OW 6418   3.999   6.927   1.920
 1840SOL    HW1 6419   4.004   0.008   1.903
 1840SOL    HW2 6420   3.906   6.901   1.946
 1841SOL     OW 6421   2.167   1.248   3.209
 1841SOL    HW1 6422   2.075   1.253   3.169
 1841SOL    HW2 6423   2.174   1.165   3.265
 1842SOL     OW 6424   1.636   5.721   0.924
 1842SOL    HW1 6425   1.561   5.758   0.869
 1842SOL    HW2 6426   1.662   5.788   0.994
 1843SOL     OW 6427   6.122   0.627   4.549
 1843SOL    HW1 6428   6.209   0.649   4.505
 1843SOL    HW2 6429   6.071   0.562   4.491
 1844SOL     OW 6430   3.722   6.753   5.147
 1844SOL    HW1 6431   3.668   6.679   5.107
 1844SOL    HW2 6432   3.733   6.826   5.080
 1845SOL     OW 6433   2.876   6.475   4.682
 1845SOL    HW1 6434   2.856   6.548   4.747
 1845SOL    HW2 6435   2.935   6.407   4.725
 1846SOL     OW 6436   3.616   1.183   2.438
 1846SOL    HW1 6437   3.704   1.136   2.436
 1846SOL    HW2 6438   3.623   1.265   2.495
 1847SOL     OW 6439   1.372   0.227   5.734
 1847SOL    HW1 6440   1.280   0.190   5.719
 1847SOL    HW2 6441   1.436   0.184   5.670
 1848SOL     OW 6442   1.952   6.249   3.252
 1848SOL    HW1 6443   2.002   6.334   3.266
 1848SOL    HW2 6444   1.906   6.252   3.162
 1849SOL     OW 6445   3.995   2.645   1.648
 1849SOL    HW1 6446   4.052   2.728   1.651
 1849SOL    HW2 6447   4.040   2.572   1.698
 1850SOL     OW 6448   0.078   2.583   2.360
 1850SOL    HW1 6449   0.023   2.614   2.437
 1850SOL    HW2 6450   0.157   2.531   2.393
 1851SOL     OW 6451   0.746   3.521   6.768
 1851SOL    HW1 6452   0.815   3.561   6.829
 1851SOL    HW2 6453   0.792   3.467   6.698
 1852SOL     OW 6454   6.984   4.505   2.798
 1852SOL    HW1 6455   0.022   4.579   2.837
 1852SOL    HW2 6456   6.955   4.443   2.871
 1853SOL     OW 6457   0.029   2.970   3.497
 1853SOL    HW1 6458   0.095   2.956   3.571
 1853SOL    HW2 6459   0.076   3.008   3.418
 1854SOL     OW 6460   2.112   5.225   2.789
 1854SOL    HW1 6461   2.175   5.269   2.853
 1854SOL    HW2 6462   2.018   5.242   2.818
 1855SOL     OW 6463   5.463   3.823   5.038
 1855SOL    HW1 6464   5.368   3.854   5.040
 1855SOL    HW2 6465   5.477   3.756   5.111
 1856SOL     OW 6466   4.861   3.804   6.031
 1856SOL    HW1 6467   4.778   3.860   6.040
 1856SOL    HW2 6468   4.922   3.823   6.107
 1857SOL     OW 6469   3.834   2.095   6.970
 1857SOL    HW1 6470   3.897   2.071   0.027
 1857SOL    HW2 6471   3.884   2.101   6.884
 1858SOL     OW 6472   5.713   3.375   3.142
 1858SOL    HW1 6473   5.674   3.309   3.206
 1858SOL    HW2 6474   5.807   3.396   3.169
 1859SOL     OW 6475   5.253   1.702   3.893
 1859SOL    HW1 6476   5.269   1.713   3.795
 1859SOL    HW2 6477   5.155   1.699   3.910
 1860SOL     OW 6478   0.986   0.793   5.216
 1860SOL    HW1 6479   1.016   0.880   5.255
 1860SOL    HW2 6480   0.982   0.724   5.289
 1861SOL     OW 6481   6.254   0.199   2.360
 1861SOL    HW1 6482   6.351   0.221   2.352
 1861SOL    HW2 6483   6.230   0.126   2.296
 1862SOL     OW 6484   2.969   0.430   6.457
 1862SOL    HW1 6485   2.921   0.431   6.369
 1862SOL    HW2 6486   3.021   0.515   6.467
 1863SOL     OW 6487   0.063   2.325   3.902
 1863SOL    HW1 6488   0.097   2.232   3.886
 1863SOL    HW2 6489   7.000   2.341   3.845
 1864SOL     OW 6490   2.547   5.768   4.730
 1864SOL    HW1 6491   2.549   5.710   4.812
 1864SOL    HW2 6492   2.560   5.711   4.649
 1865SOL     OW 6493   3.774   0.408   0.113
 1865SOL    HW1 6494   3.836   0.345   0.160
 1865SOL    HW2 6495   3.810   0.501   0.120
 1866SOL     OW 6496   6.247   5.050   3.951
 1866SOL    HW1 6497   6.170   5.062   3.888
 1866SOL    HW2 6498   6.265   4.953   3.963
 1867SOL     OW 6499   1.603   4.010   0.973
 1867SOL    HW1 6500   1.606   3.911   0.960
 1867SOL    HW2 6501   1.508   4.041   0.969
 1868SOL     OW 6502   4.831   3.488   6.667
 1868SOL    HW1 6503   4.899   3.467   6.597
 1868SOL    HW2 6504   4.751   3.530   6.624
 1869SOL     OW 6505   0.209   3.489   4.934
 1869SOL    HW1 6506   0.277   3.449   4.873
 1869SOL    HW2 6507   0.218   3.588   4.933
 1870SOL     OW 6508   1.291   3.389   5.105
 1870SOL    HW1 6509   1.386   3.374   5.134
 1870SOL    HW2 6510   1.245   3.446   5.173
 1871SOL     OW 6511   0.248   0.707   0.164
 1871SOL    HW1 6512   0.301   0.718   0.081
 1871SOL    HW2 6513   0.201   0.618   0.163
 1872SOL     OW 6514   4.550   1.990   0.359
 1872SOL    HW1 6515   4.595   2.079   0.354
 1872SOL    HW2 6516   4.464   1.993   0.307
 1873SOL     OW 6517   5.913   0.793   6.078
 1873SOL    HW1 6518   5.965   0.731   6.019
 1873SOL    HW2 6519   5.944   0.783   6.173
 1874SOL     OW 6520   1.835   1.055   6.412
 1874SOL    HW1 6521   1.761   1.122   6.403
 1874SOL    HW2 6522   1.900   1.087   6.481
 1875SOL     OW 6523   6.381   0.679   0.648
 1875SOL    HW1 6524   6.380   0.777   0.664
 1875SOL    HW2 6525   6.454   0.636   0.701
 1876SOL     OW 6526   3.631   5.845   5.708
 1876SOL    HW1 6527   3.673   5.929   5.672
 1876SOL    HW2 6528   3.652   5.769   5.647
 1877SOL     OW 6529   1.135   1.336   3.451
 1877SOL    HW1 6530   1.192   1.415   3.471
 1877SOL    HW2 6531   1.133   1.274   3.529
 1878SOL     OW 6532   0.017   2.483   4.435
 1878SOL    HW1 6533   0.040   2.495   4.338
 1878SOL    HW2 6534   0.004   2.386   4.454
 1879SOL     OW 6535   2.229   5.931   3.658
 1879SOL    HW1 6536   2.317   5.892   3.631
 1879SOL    HW2 6537   2.155   5.869   3.631
 1880SOL     OW 6538   0.374   1.399   2.948
 1880SOL    HW1 6539   0.406   1.384   3.041
 1880SOL    HW2 6540   0.405   1.488   2.915
 1881SOL     OW 6541   1.254   2.005   3.436
 1881SOL    HW1 6542   1.353   2.018   3.439
 1881SOL    HW2 6543   1.222   1.972   3.524
 1882SOL     OW 6544   1.185   4.477   6.383
 1882SOL    HW1 6545   1.265   4.495   6.440
 1882SOL    HW2 6546   1.208   4.408   6.314
 1883SOL     OW 6547   1.042   3.530   3.211
 1883SOL    HW1 6548   1.137   3.525   3.243
 1883SOL    HW2 6549   0.982   3.548   3.289
 1884SOL     OW 6550   6.014   2.318   0.615
 1884SOL    HW1 6551   6.080   2.354   0.549
 1884SOL    HW2 6552   6.056   2.244   0.667
 1885SOL     OW 6553   0.117   1.976   6.927
 1885SOL    HW1 6554   0.172   1.965   7.011
 1885SOL    HW2 6555   0.039   1.913   6.931
 1886SOL     OW 6556   2.587   1.325   1.119
 1886SOL    HW1 6557   2.504   1.381   1.124
 1886SOL    HW2 6558   2.574   1.252   1.051
 1887SOL     OW 6559   0.513   4.885   6.268
 1887SOL    HW1 6560   0.526   4.794   6.308
 1887SOL    HW2 6561   0.559   4.953   6.325
 1888SOL     OW 6562   3.249   2.052   6.457
 1888SOL    HW1 6563   3.213   1.962   6.484
 1888SOL    HW2 6564   3.240   2.116   6.533
 1889SOL     OW 6565   5.633   2.503   6.155
 1889SOL    HW1 6566   5.581   2.563   6.095
 1889SOL    HW2 6567   5.634   2.541   6.248
 1890SOL     OW 6568   1.261   5.772   5.107
 1890SOL    HW1 6569   1.170   5.799   5.075
 1890SOL    HW2 6570   1.328   5.838   5.074
 1891SOL     OW 6571   5.321   3.129   3.816
 1891SOL    HW1 6572   5.373   3.129   3.731
 1891SOL    HW2 6573   5.237   3.181   3.804
 1892SOL     OW 6574   3.917   0.327   0.840
 1892SOL    HW1 6575   3.829   0.367   0.865
 1892SOL    HW2 6576   3.944   0.260   0.909
 1893SOL     OW 6577   3.278   1.971   5.992
 1893SOL    HW1 6578   3.325   2.059   5.991
 1893SOL    HW2 6579   3.346   1.897   5.995
 1894SOL     OW 6580   3.700   3.922   2.583
 1894SOL    HW1 6581   3.759   3.999   2.608
 1894SOL    HW2 6582   3.688   3.920   2.483
 1895SOL     OW 6583   5.406   0.998   2.535
 1895SOL    HW1 6584   5.313   1.024   2.559
 1895SOL    HW2 6585   5.416   0.999   2.436
 1896SOL     OW 6586   1.014   0.521   2.843
 1896SOL    HW1 6587   0.981   0.486   2.756
 1896SOL    HW2 6588   1.112   0.541   2.838
 1897SOL     OW 6589   0.726   5.050   2.485
 1897SOL    HW1 6590   0.740   5.141   2.525
 1897SOL    HW2 6591   0.641   5.048   2.434
 1898SOL     OW 6592   3.077   4.837   2.295
 1898SOL    HW1 6593   3.177   4.833   2.298
 1898SOL    HW2 6594   3.040   4.825   2.387
 1899SOL     OW 6595   0.889   1.903   2.405
 1899SOL    HW1 6596   0.856   1.990   2.442
 1899SOL    HW2 6597   0.885   1.833   2.476
 1900SOL     OW 6598   1.224   0.539   5.196
 1900SOL    HW1 6599   1.141   0.560   5.248
 1900SOL    HW2 6600   1.216   0.448   5.155
 1901SOL     OW 6601   2.072   0.915   1.457
 1901SOL    HW1 6602   2.150   0.969   1.425
 1901SOL    HW2 6603   1.987   0.960   1.428
 1902SOL     OW 6604   2.186   2.466   4.472
 1902SOL    HW1 6605   2.190   2.537   4.543
 1902SOL    HW2 6606   2.277   2.427   4.460
 1903SOL     OW 6607   6.289   3.651   3.936
 1903SOL    HW1 6608   6.331   3.595   3.864
 1903SOL    HW2 6609   6.341   3.736   3.945
 1904SOL     OW 6610   5.991   6.866   4.209
 1904SOL    HW1 6611   5.953   6.902   4.294
 1904SOL    HW2 6612   5.924   6.805   4.166
 1905SOL     OW 6613   1.720   0.911   4.272
 1905SOL    HW1 6614   1.667   0.963   4.205
 1905SOL    HW2 6615   1.662   0.891   4.351
 1906SOL     OW 6616   2.545   0.370   5.382
 1906SOL    HW1 6617   2.557   0.334   5.475
 1906SOL    HW2 6618   2.448   0.371   5.360
 1907SOL     OW 6619   3.794   0.024   3.153
 1907SOL    HW1 6620   3.861   0.004   3.225
 1907SOL    HW2 6621   3.828   7.008   3.065
 1908SOL     OW 6622   4.100   0.992   4.810
 1908SOL    HW1 6623   4.191   1.023   4.780
 1908SOL    HW2 6624   4.033   1.015   4.740
 1909SOL     OW 6625   0.829   4.143   2.674
 1909SOL    HW1 6626   0.905   4.086   2.642
 1909SOL    HW2 6627   0.744   4.113   2.631
 1910SOL     OW 6628   0.473   2.615   6.961
 1910SOL    HW1 6629   0.570   2.591   6.965
 1910SOL    HW2 6630   0.448   2.666   0.026
 1911SOL     OW 6631   5.853   3.294   5.533
 1911SOL    HW1 6632   5.921   3.226   5.558
 1911SOL    HW2 6633   5.763   3.252   5.531
 1912SOL     OW 6634   3.132   6.583   1.291
 1912SOL    HW1 6635   3.225   6.617   1.300
 1912SOL    HW2 6636   3.111   6.568   1.194
 1913SOL     OW 6637   0.922   5.956   5.403
 1913SOL    HW1 6638   0.928   5.981   5.307
 1913SOL    HW2 6639   0.995   5.891   5.425
 1914SOL     OW 6640   3.472   2.950   6.620
 1914SOL    HW1 6641   3.385   2.908   6.594
 1914SOL    HW2 6642   3.547   2.888   6.596
 1915SOL     OW 6643   3.724   1.908   5.625
 1915SOL    HW1 6644   3.675   1.944   5.546
 1915SOL    HW2 6645   3.696   1.959   5.707
 1916SOL     OW 6646   3.310   6.069   1.127
 1916SOL    HW1 6647   3.279   6.160   1.155
 1916SOL    HW2 6648   3.382   6.078   1.058
 1917SOL     OW 6649   3.154   3.016   4.558
 1917SOL    HW1 6650   3.223   2.986   4.492
 1917SOL    HW2 6651   3.184   2.990   4.650
 1918SOL     OW 6652   0.508   1.222   6.961
 1918SOL    HW1 6653   0.535   1.221   6.865
 1918SOL    HW2 6654   0.414   1.254   6.969
 1919SOL     OW 6655   2.453   0.464   1.415
 1919SOL    HW1 6656   2.379   0.496   1.474
 1919SOL    HW2 6657   2.424   0.380   1.368
 1920SOL     OW 6658   1.289   4.810   2.728
 1920SOL    HW1 6659   1.255   4.877   2.662
 1920SOL    HW2 6660   1.212   4.760   2.767
 1921SOL     OW 6661   1.770   4.654   0.314
 1921SOL    HW1 6662   1.711   4.700   0.380
 1921SOL    HW2 6663   1.779   4.711   0.232
 1922SOL     OW 6664   3.273   4.306   0.670
 1922SOL    HW1 6665   3.313   4.382   0.618
 1922SOL    HW2 6666   3.173   4.315   0.670
 1923SOL     OW 6667   3.202   0.809   6.028
 1923SOL    HW1 6668   3.220   0.905   6.046
 1923SOL    HW2 6669   3.108   0.798   5.996
 1924SOL     OW 6670   5.254   4.957   1.746
 1924SOL    HW1 6671   5.340   4.942   1.796
 1924SOL    HW2 6672   5.200   5.026   1.794
 1925SOL     OW 6673   2.176   3.671   0.651
 1925SOL    HW1 6674   2.215   3.657   0.742
 1925SOL    HW2 6675   2.247   3.703   0.588
 1926SOL     OW 6676   1.640   6.865   2.888
 1926SOL    HW1 6677   1.686   6.936   2.834
 1926SOL    HW2 6678   1.621   6.900   2.979
 1927SOL     OW 6679   3.359   4.223   5.847
 1927SOL    HW1 6680   3.453   4.245   5.821
 1927SOL    HW2 6681   3.298   4.236   5.769
 1928SOL     OW 6682   6.736   4.232   5.629
 1928SOL    HW1 6683   6.780   4.168   5.692
 1928SOL    HW2 6684   6.756   4.206   5.535
 1929SOL     OW 6685   0.980   5.664   2.230
 1929SOL    HW1 6686   1.039   5.600   2.279
 1929SOL    HW2 6687   0.935   5.617   2.155
 1930SOL     OW 6688   3.700   4.076   6.588
 1930SOL    HW1 6689   3.650   4.035   6.512
 1930SOL    HW2 6690   3.712   4.008   6.661
 1931SOL     OW 6691   0.199   2.979   2.317
 1931SOL    HW1 6692   0.252   2.895   2.324
 1931SOL    HW2 6693   0.260   3.058   2.317
 1932SOL     OW 6694   5.125   3.443   3.459
 1932SOL    HW1 6695   5.196   3.446   3.529
 1932SOL    HW2 6696   5.035   3.440   3.503
 1933SOL     OW 6697   2.647   4.314   0.729
 1933SOL    HW1 6698   2.674   4.259   0.650
 1933SOL    HW2 6699   2.680   4.407   0.718
 1934SOL     OW 6700   0.767   0.094   5.004
 1934SOL    HW1 6701   0.831   0.136   4.941
 1934SOL    HW2 6702   0.785   7.013   5.010
 1935SOL     OW 6703   3.295   6.159   4.324
 1935SOL    HW1 6704   3.232   6.204   4.387
 1935SOL    HW2 6705   3.387   6.197   4.335
 1936SOL     OW 6706   6.588   3.943   4.174
 1936SOL    HW1 6707   6.593   3.898   4.086
 1936SOL    HW2 6708   6.597   4.042   4.162
 1937SOL     OW 6709   4.643   0.306   0.862
 1937SOL    HW1 6710   4.560   0.304   0.807
 1937SOL    HW2 6711   4.635   0.242   0.938
 1938SOL     OW 6712   2.595   1.148   1.735
 1938SOL    HW1 6713   2.540   1.064   1.734
 1938SOL    HW2 6714   2.634   1.165   1.645
 1939SOL     OW 6715   6.652   0.425   4.855
 1939SOL    HW1 6716   6.591   0.495   4.817
 1939SOL    HW2 6717   6.727   0.469   4.904
 1940SOL     OW 6718   4.581   5.331   0.245
 1940SOL    HW1 6719   4.560   5.245   0.198
 1940SOL    HW2 6720   4.556   5.408   0.187
 1941SOL     OW 6721   6.955   4.226   3.757
 1941SOL    HW1 6722   7.007   4.308   3.785
 1941SOL    HW2 6723   6.963   4.156   3.828
 1942SOL     OW 6724   5.316   0.376   1.480
 1942SOL    HW1 6725   5.297   0.392   1.577
 1942SOL    HW2 6726   5.245   0.418   1.424
 1943SOL     OW 6727   2.769   6.235   2.177
 1943SOL    HW1 6728   2.779   6.323   2.132
 1943SOL    HW2 6729   2.838   6.172   2.142
 1944SOL     OW 6730   5.653   2.672   0.442
 1944SOL    HW1 6731   5.703   2.735   0.382
 1944SOL    HW2 6732   5.709   2.591   0.459
 1945SOL     OW 6733   3.646   5.671   1.795
 1945SOL    HW1 6734   3.590   5.653   1.715
 1945SOL    HW2 6735   3.640   5.594   1.858
 1946SOL     OW 6736   6.280   0.229   1.362
 1946SOL    HW1 6737   6.216   0.306   1.360
 1946SOL    HW2 6738   6.245   0.154   1.306
 1947SOL     OW 6739   4.504   0.124   5.381
 1947SOL    HW1 6740   4.404   0.135   5.377
 1947SOL    HW2 6741   4.530   0.043   5.329
 1948SOL     OW 6742   5.588   5.269   3.752
 1948SOL    HW1 6743   5.493   5.290   3.773
 1948SOL    HW2 6744   5.640   5.261   3.837
 1949SOL     OW 6745   3.346   4.441   6.516
 1949SOL    HW1 6746   3.328   4.413   6.610
 1949SOL    HW2 6747   3.380   4.362   6.464
 1950SOL     OW 6748   4.038   4.425   0.366
 1950SOL    HW1 6749   4.074   4.469   0.449
 1950SOL    HW2 6750   3.981   4.490   0.317
 1951SOL     OW 6751   5.808   3.790   0.006
 1951SOL    HW1 6752   5.856   3.796   6.936
 1951SOL    HW2 6753   5.729   3.729   7.013
 1952SOL     OW 6754   4.902   2.506   0.587
 1952SOL    HW1 6755   4.848   2.575   0.636
 1952SOL    HW2 6756   4.994   2.542   0.571
 1953SOL     OW 6757   5.856   1.635   6.346
 1953SOL    HW1 6758   5.843   1.536   6.355
 1953SOL    HW2 6759   5.941   1.653   6.297
 1954SOL     OW 6760   5.395   1.496   3.305
 1954SOL    HW1 6761   5.426   1.585   3.270
 1954SOL    HW2 6762   5.465   1.457   3.365
 1955SOL     OW 6763   0.982   1.467   2.154
 1955SOL    HW1 6764   0.981   1.469   2.254
 1955SOL    HW2 6765   1.075   1.448   2.122
 1956SOL     OW 6766   5.047   6.534   2.822
 1956SOL    HW1 6767   4.972   6.519   2.758
 1956SOL    HW2 6768   5.013   6.529   2.916
 1957SOL     OW 6769   5.939   4.996   4.450
 1957SOL    HW1 6770   5.876   5.005   4.373
 1957SOL    HW2 6771   6.027   4.962   4.418
 1958SOL     OW 6772   4.911   2.688   2.725
 1958SOL    HW1 6773   4.833   2.628   2.709
 1958SOL    HW2 6774   4.994   2.644   2.689
 1959SOL     OW 6775   0.605   0.766   5.014
 1959SOL    HW1 6776   0.627   0.746   5.110
 1959SOL    HW2 6777   0.514   0.730   4.993
 1960SOL     OW 6778   6.863   4.569   2.154
 1960SOL    HW1 6779   6.941   4.532   2.205
 1960SOL    HW2 6780   6.855   4.520   2.067
 1961SOL     OW 6781   5.640   4.278   4.379
 1961SOL    HW1 6782   5.617   4.281   4.282
 1961SOL    HW2 6783   5.652   4.184   4.408
 1962SOL     OW 6784   1.811   6.735   3.619
 1962SOL    HW1 6785   1.741   6.768   3.556
 1962SOL    HW2 6786   1.803   6.636   3.629
 1963SOL     OW 6787   0.801   1.874   1.476
 1963SOL    HW1 6788   0.708   1.910   1.489
 1963SOL    HW2 6789   0.810   1.839   1.382
 1964SOL     OW 6790   4.582   4.154   0.615
 1964SOL    HW1 6791   4.570   4.223   0.686
 1964SOL    HW2 6792   4.532   4.182   0.533
 1965SOL     OW 6793   1.572   3.308   4.458
 1965SOL    HW1 6794   1.589   3.304   4.359
 1965SOL    HW2 6795   1.531   3.222   4.488
 1966SOL     OW 6796   6.807   6.216   0.294
 1966SOL    HW1 6797   6.897   6.194   0.330
 1966SOL    HW2 6798   6.814   6.243   0.198
 1967SOL     OW 6799   5.680   2.678   5.737
 1967SOL    HW1 6800   5.629   2.660   5.653
 1967SOL    HW2 6801   5.674   2.776   5.759
 1968SOL     OW 6802   2.479   0.191   6.761
 1968SOL    HW1 6803   2.475   0.122   6.689
 1968SOL    HW2 6804   2.457   0.280   6.723
 1969SOL     OW 6805   1.016   1.612   1.764
 1969SOL    HW1 6806   1.038   1.566   1.678
 1969SOL    HW2 6807   0.977   1.546   1.828
 1970SOL     OW 6808   2.211   6.480   6.092
 1970SOL    HW1 6809   2.308   6.458   6.104
 1970SOL    HW2 6810   2.182   6.542   6.164
 1971SOL     OW 6811   0.118   6.880   5.560
 1971SOL    HW1 6812   0.121   6.941   5.640
 1971SOL    HW2 6813   0.168   6.921   5.485
 1972SOL     OW 6814   5.225   2.642   2.172
 1972SOL    HW1 6815   5.316   2.673   2.145
 1972SOL    HW2 6816   5.158   2.671   2.104
 1973SOL     OW 6817   3.109   2.352   0.375
 1973SOL    HW1 6818   3.191   2.396   0.337
 1973SOL    HW2 6819   3.045   2.422   0.405
 1974SOL     OW 6820   5.823   0.014   4.708
 1974SOL    HW1 6821   5.915   6.992   4.709
 1974SOL    HW2 6822   5.807   0.063   4.793
 1975SOL     OW 6823   2.156   1.597   3.834
 1975SOL    HW1 6824   2.111   1.574   3.748
 1975SOL    HW2 6825   2.230   1.532   3.852
 1976SOL     OW 6826   0.325   6.387   0.092
 1976SOL    HW1 6827   0.348   6.415   0.185
 1976SOL    HW2 6828   0.404   6.401   0.032
 1977SOL     OW 6829   0.697   3.199   4.778
 1977SOL    HW1 6830   0.620   3.187   4.715
 1977SOL    HW2 6831   0.777   3.228   4.727
 1978SOL     OW 6832   1.672   0.355   2.882
 1978SOL    HW1 6833   1.672   0.381   2.785
 1978SOL    HW2 6834   1.589   0.303   2.902
 1979SOL     OW 6835   6.354   4.246   6.114
 1979SOL    HW1 6836   6.425   4.263   6.182
 1979SOL    HW2 6837   6.396   4.237   6.024
 1980SOL     OW 6838   3.019   0.510   4.385
 1980SOL    HW1 6839   3.027   0.411   4.372
 1980SOL    HW2 6840   2.922   0.536   4.381
 1981SOL     OW 6841   6.818   1.886   2.453
 1981SOL    HW1 6842   6.784   1.959   2.395
 1981SOL    HW2 6843   6.839   1.806   2.397
 1982SOL     OW 6844   0.265   4.111   5.070
 1982SOL    HW1 6845   0.186   4.089   5.128
 1982SOL    HW2 6846   0.242   4.092   4.975
 1983SOL     OW 6847   0.592   1.597   2.655
 1983SOL    HW1 6848   0.558   1.613   2.748
 1983SOL    HW2 6849   0.602   1.499   2.640
 1984SOL     OW 6850   5.896   1.314   4.914
 1984SOL    HW1 6851   5.882   1.216   4.928
 1984SOL    HW2 6852   5.810   1.362   4.928
 1985SOL     OW 6853   1.452   6.207   2.511
 1985SOL    HW1 6854   1.359   6.238   2.530
 1985SOL    HW2 6855   1.487   6.157   2.591
 1986SOL     OW 6856   1.612   1.459   6.872
 1986SOL    HW1 6857   1.650   1.402   6.799
 1986SOL    HW2 6858   1.670   1.453   6.954
 1987SOL     OW 6859   1.776   2.650   2.456
 1987SOL    HW1 6860   1.766   2.744   2.488
 1987SOL    HW2 6861   1.873   2.627   2.448
 1988SOL     OW 6862   5.934   4.313   0.529
 1988SOL    HW1 6863   5.995   4.383   0.565
 1988SOL    HW2 6864   5.844   4.352   0.512
 1989SOL     OW 6865   2.556   5.389   4.338
 1989SOL    HW1 6866   2.499   5.312   4.365
 1989SOL    HW2 6867   2.514   5.437   4.261
 1990SOL     OW 6868   3.518   6.068   0.625
 1990SOL    HW1 6869   3.534   6.151   0.677
 1990SOL    HW2 6870   3.484   6.092   0.533
 1991SOL     OW 6871   3.728   4.748   6.809
 1991SOL    HW1 6872   3.715   4.754   6.710
 1991SOL    HW2 6873   3.720   4.839   6.849
 1992SOL     OW 6874   1.277   0.719   0.697
 1992SOL    HW1 6875   1.225   0.694   0.615
 1992SOL    HW2 6876   1.320   0.809   0.682
 1993SOL     OW 6877   3.685   2.810   5.051
 1993SOL    HW1 6878   3.710   2.714   5.042
 1993SOL    HW2 6879   3.678   2.833   5.149
 1994SOL     OW 6880   0.388   1.107   0.678
 1994SOL    HW1 6881   0.452   1.174   0.713
 1994SOL    HW2 6882   0.436   1.043   0.618
 1995SOL     OW 6883   5.196   2.349   3.359
 1995SOL    HW1 6884   5.177   2.420   3.427
 1995SOL    HW2 6885   5.268   2.288   3.394
 1996SOL     OW 6886   2.068   3.534   1.065
 1996SOL    HW1 6887   1.971   3.530   1.040
 1996SOL    HW2 6888   2.082   3.604   1.134
 1997SOL     OW 6889   3.796   1.380   4.362
 1997SOL    HW1 6890   3.831   1.316   4.293
 1997SOL    HW2 6891   3.729   1.440   4.319
 1998SOL     OW 6892   1.929   4.608   6.201
 1998SOL    HW1 6893   1.989   4.652   6.134
 1998SOL    HW2 6894   1.861   4.552   6.153
 1999SOL     OW 6895   2.721   0.126   0.314
 1999SOL    HW1 6896   2.770   0.039   0.323
 1999SOL    HW2 6897   2.785   0.201   0.326
 2000SOL     OW 6898   4.379   2.219   5.424
 2000SOL    HW1 6899   4.329   2.154   5.481
 2000SOL    HW2 6900   4.445   2.169   5.368
 2001SOL     OW 6901   2.971   0.867   1.854
 2001SOL    HW1 6902   2.894   0.923   1.884
 2001SOL    HW2 6903   2.959   0.844   1.757
 2002SOL     OW 6904   0.970   4.790   6.575
 2002SOL    HW1 6905   0.984   4.749   6.485
 2002SOL    HW2 6906   0.875   4.776   6.603
 2003SOL     OW 6907   6.203   5.724   2.245
 2003SOL    HW1 6908   6.191   5.818   2.212
 2003SOL    HW2 6909   6.288   5.686   2.208
 2004SOL     OW 6910   5.493   0.925   5.737
 2004SOL    HW1 6911   5.394   0.920   5.751
 2004SOL    HW2 6912   5.533   0.834   5.748
 2005SOL     OW 6913   0.967   4.759   0.434
 2005SOL    HW1 6914   0.892   4.753   0.500
 2005SOL    HW2 6915   0.928   4.766   0.342
 2006SOL     OW 6916   5.091   6.706   4.246
 2006SOL    HW1 6917   5.066   6.799   4.221
 2006SOL    HW2 6918   5.114   6.703   4.344
 2007SOL     OW 6919   4.570   4.922   1.209
 2007SOL    HW1 6920   4.657   4.914   1.257
 2007SOL    HW2 6921   4.586   4.918   1.110
 2008SOL     OW 6922   2.964   4.857   4.025
 2008SOL    HW1 6923   2.898   4.878   3.953
 2008SOL    HW2 6924   2.926   4.788   4.086
 2009SOL     OW 6925   5.963   1.159   1.998
 2009SOL    HW1 6926   5.928   1.072   1.965
 2009SOL    HW2 6927   6.060   1.149   2.021
 2010SOL     OW 6928   2.021   1.687   0.824
 2010SOL    HW1 6929   2.060   1.659   0.736
 2010SOL    HW2 6930   2.041   1.784   0.840
 2011SOL     OW 6931   6.928   6.792   4.751
 2011SOL    HW1 6932   6.973   6.807   4.839
 2011SOL    HW2 6933   6.847   6.850   4.745
 2012SOL     OW 6934   1.396   3.680   1.884
 2012SOL    HW1 6935   1.326   3.713   1.947
 2012SOL    HW2 6936   1.368   3.592   1.846
 2013SOL     OW 6937   6.422   2.363   3.520
 2013SOL    HW1 6938   6.414   2.379   3.619
 2013SOL    HW2 6939   6.502   2.412   3.485
 2014SOL     OW 6940   2.494   5.178   3.723
 2014SOL    HW1 6941   2.494   5.247   3.650
 2014SOL    HW2 6942   2.545   5.098   3.694
 2015SOL     OW 6943   1.795   0.642   6.528
 2015SOL    HW1 6944   1.709   0.666   6.573
 2015SOL    HW2 6945   1.805   0.542   6.525
 2016SOL     OW 6946   0.944   6.079   5.156
 2016SOL    HW1 6947   1.004   6.159   5.151
 2016SOL    HW2 6948   0.852   6.104   5.127
 2017SOL     OW 6949   2.908   6.868   4.608
 2017SOL    HW1 6950   2.988   6.829   4.654
 2017SOL    HW2 6951   2.900   6.829   4.517
 2018SOL     OW 6952   5.542   0.029   5.656
 2018SOL    HW1 6953   5.586   0.085   5.726
 2018SOL    HW2 6954   5.572   0.059   5.565
 2019SOL     OW 6955   5.165   2.628   6.595
 2019SOL    HW1 6956   5.109   2.632   6.512
 2019SOL    HW2 6957   5.116   2.577   6.666
 2020SOL     OW 6958   1.020   6.636   4.771
 2020SOL    HW1 6959   1.035   6.609   4.866
 2020SOL    HW2 6960   0.929   6.604   4.742
 2021SOL     OW 6961   0.883   6.040   4.002
 2021SOL    HW1 6962   0.783   6.032   4.001
 2021SOL    HW2 6963   0.923   5.954   3.972
 2022SOL     OW 6964   1.684   3.738   3.370
 2022SOL    HW1 6965   1.752   3.726   3.298
 2022SOL    HW2 6966   1.731   3.757   3.457
 2023SOL     OW 6967   6.508   0.790   6.216
 2023SOL    HW1 6968   6.485   0.719   6.282
 2023SOL    HW2 6969   6.439   0.792   6.143
 2024SOL     OW 6970   0.172   0.148   3.746
 2024SOL    HW1 6971   0.271   0.143   3.736
 2024SOL    HW2 6972   0.129   0.084   3.682
 2025SOL     OW 6973   2.675   2.173   3.096
 2025SOL    HW1 6974   2.623   2.115   3.159
 2025SOL    HW2 6975   2.660   2.143   3.002
 2026SOL     OW 6976   0.298   2.639   6.125
 2026SOL    HW1 6977   0.279   2.734   6.151
 2026SOL    HW2 6978   0.222   2.581   6.154
 2027SOL     OW 6979   1.073   0.336   0.230
 2027SOL    HW1 6980   1.113   0.311   0.318
 2027SOL    HW2 6981   1.038   0.254   0.184
 2028SOL     OW 6982   3.008   6.523   5.349
 2028SOL    HW1 6983   2.971   6.564   5.432
 2028SOL    HW2 6984   3.096   6.566   5.327
 2029SOL     OW 6985   6.509   0.809   0.318
 2029SOL    HW1 6986   6.568   0.870   0.264
 2029SOL    HW2 6987   6.522   0.715   0.286
 2030SOL     OW 6988   2.390   1.358   3.107
 2030SOL    HW1 6989   2.409   1.310   3.021
 2030SOL    HW2 6990   2.313   1.313   3.153
 2031SOL     OW 6991   6.391   5.398   1.021
 2031SOL    HW1 6992   6.485   5.430   1.033
 2031SOL    HW2 6993   6.389   5.298   1.024
 2032SOL     OW 6994   4.630   0.261   2.403
 2032SOL    HW1 6995   4.686   0.249   2.485
 2032SOL    HW2 6996   4.690   0.280   2.325
 2033SOL     OW 6997   3.414   4.058   6.191
 2033SOL    HW1 6998   3.351   4.105   6.253
 2033SOL    HW2 6999   3.428   3.964   6.222
 2034SOL     OW 7000   3.098   5.655   5.274
 2034SOL    HW1 7001   3.039   5.576   5.290
 2034SOL    HW2 7002   3.106   5.671   5.176
 2035SOL     OW 7003   0.168   0.259   3.326
 2035SOL    HW1 7004   0.129   0.167   3.317
 2035SOL    HW2 7005   0.142   0.314   3.246
 2036SOL     OW 7006   1.435   3.979   2.672
 2036SOL    HW1 7007   1.391   3.992   2.761
 2036SOL    HW2 7008   1.370   3.937   2.609
 2037SOL     OW 7009   6.516   2.937   5.851
 2037SOL    HW1 7010   6.474   2.848   5.869
 2037SOL    HW2 7011   6.449   2.998   5.808
 2038SOL     OW 7012   1.810   2.443   0.205
 2038SOL    HW1 7013   1.723   2.446   0.256
 2038SOL    HW2 7014   1.822   2.351   0.167
 2039SOL     OW 7015   0.431   5.402   3.544
 2039SOL    HW1 7016   0.438   5.302   3.544
 2039SOL    HW2 7017   0.401   5.433   3.635
 2040SOL     OW 7018   3.297   3.246   5.206
 2040SOL    HW1 7019   3.199   3.261   5.220
 2040SOL    HW2 7020   3.313   3.211   5.114
 2041SOL     OW 7021   0.598   6.049   5.847
 2041SOL    HW1 7022   0.697   6.057   5.861
 2041SOL    HW2 7023   0.551   6.103   5.917
 2042SOL     OW 7024   4.871   6.084   0.030
 2042SOL    HW1 7025   4.936   6.160   0.025
 2042SOL    HW2 7026   4.899   6.011   6.985
 2043SOL     OW 7027   6.765   3.381   3.872
 2043SOL    HW1 7028   6.709   3.368   3.954
 2043SOL    HW2 7029   6.780   3.479   3.859
 2044SOL     OW 7030   6.271   6.793   1.888
 2044SOL    HW1 7031   6.337   6.811   1.815
 2044SOL    HW2 7032   6.187   6.843   1.870
 2045SOL     OW 7033   2.221   4.841   4.008
 2045SOL    HW1 7034   2.149   4.910   4.016
 2045SOL    HW2 7035   2.248   4.811   4.099
 2046SOL     OW 7036   6.553   2.250   3.947
 2046SOL    HW1 7037   6.508   2.266   3.859
 2046SOL    HW2 7038   6.510   2.306   4.017
 2047SOL     OW 7039   6.581   2.653   6.696
 2047SOL    HW1 7040   6.676   2.683   6.694
 2047SOL    HW2 7041   6.531   2.695   6.621
 2048SOL     OW 7042   1.562   6.444   5.745
 2048SOL    HW1 7043   1.571   6.345   5.746
 2048SOL    HW2 7044   1.469   6.469   5.718
 2049SOL     OW 7045   6.084   1.573   5.153
 2049SOL    HW1 7046   6.174   1.594   5.116
 2049SOL    HW2 7047   6.049   1.489   5.110
 2050SOL     OW 7048   6.445   2.391   4.166
 2050SOL    HW1 7049   6.477   2.348   4.250
 2050SOL    HW2 7050   6.506   2.466   4.141
 2051SOL     OW 7051   0.981   5.047   0.575
 2051SOL    HW1 7052   1.027   5.115   0.519
 2051SOL    HW2 7053   0.899   5.014   0.529
 2052SOL     OW 7054   1.343   3.665   1.296
 2052SOL    HW1 7055   1.387   3.589   1.344
 2052SOL    HW2 7056   1.359   3.657   1.198
 2053SOL     OW 7057   5.831   6.614   4.420
 2053SOL    HW1 7058   5.902   6.650   4.479
 2053SOL    HW2 7059   5.765   6.562   4.474
 2054SOL     OW 7060   3.558   4.099   3.091
 2054SOL    HW1 7061   3.568   4.070   3.186
 2054SOL    HW2 7062   3.461   4.110   3.069
 2055SOL     OW 7063   6.365   3.216   3.435
 2055SOL    HW1 7064   6.405   3.241   3.523
 2055SOL    HW2 7065   6.296   3.144   3.448
 2056SOL     OW 7066   4.329   5.983   2.455
 2056SOL    HW1 7067   4.297   6.077   2.469
 2056SOL    HW2 7068   4.312   5.957   2.360
 2057SOL     OW 7069   5.396   4.013   5.467
 2057SOL    HW1 7070   5.351   3.989   5.553
 2057SOL    HW2 7071   5.440   4.102   5.476
 2058SOL     OW 7072   0.467   1.708   3.436
 2058SOL    HW1 7073   0.494   1.621   3.477
 2058SOL    HW2 7074   0.514   1.783   3.482
 2059SOL     OW 7075   1.830   6.077   6.621
 2059SOL    HW1 7076   1.916   6.041   6.658
 2059SOL    HW2 7077   1.849   6.144   6.550
 2060SOL     OW 7078   0.080   4.465   1.877
 2060SOL    HW1 7079   7.005   4.442   1.907
 2060SOL    HW2 7080   0.100   4.419   1.790
 2061SOL     OW 7081   0.948   2.133   3.215
 2061SOL    HW1 7082   0.932   2.060   3.281
 2061SOL    HW2 7083   1.036   2.118   3.170
 2062SOL     OW 7084   6.207   6.435   3.877
 2062SOL    HW1 7085   6.192   6.457   3.974
 2062SOL    HW2 7086   6.298   6.396   3.866
 2063SOL     OW 7087   1.875   6.614   6.302
 2063SOL    HW1 7088   1.810   6.651   6.369
 2063SOL    HW2 7089   1.859   6.516   6.290
 2064SOL     OW 7090   1.338   2.505   5.498
 2064SOL    HW1 7091   1.413   2.548   5.549
 2064SOL    HW2 7092   1.280   2.576   5.457
 2065SOL     OW 7093   6.240   2.470   5.414
 2065SOL    HW1 7094   6.175   2.545   5.427
 2065SOL    HW2 7095   6.313   2.500   5.353
 2066SOL     OW 7096   0.671   4.374   4.398
 2066SOL    HW1 7097   0.687   4.306   4.327
 2066SOL    HW2 7098   0.573   4.385   4.413
 2067SOL     OW 7099   6.158   5.005   0.875
 2067SOL    HW1 7100   6.180   4.910   0.854
 2067SOL    HW2 7101   6.219   5.039   0.946
 2068SOL     OW 7102   2.542   6.745   4.566
 2068SOL    HW1 7103   2.598   6.664   4.549
 2068SOL    HW2 7104   2.446   6.723   4.549
 2069SOL     OW 7105   6.770   1.706   4.095
 2069SOL    HW1 7106   6.856   1.753   4.114
 2069SOL    HW2 7107   6.789   1.616   4.057
 2070SOL     OW 7108   0.807   1.051   1.610
 2070SOL    HW1 7109   0.879   0.998   1.568
 2070SOL    HW2 7110   0.809   1.145   1.574
 2071SOL     OW 7111   6.544   0.085   6.041
 2071SOL    HW1 7112   6.558   0.003   5.986
 2071SOL    HW2 7113   6.538   0.165   5.981
 2072SOL     OW 7114   4.308   6.453   4.275
 2072SOL    HW1 7115   4.231   6.416   4.224
 2072SOL    HW2 7116   4.303   6.422   4.371
 2073SOL     OW 7117   4.054   6.981   5.056
 2073SOL    HW1 7118   4.038   7.001   4.959
 2073SOL    HW2 7119   4.139   0.008   5.085
 2074SOL     OW 7120   1.948   2.671   6.660
 2074SOL    HW1 7121   2.007   2.750   6.675
 2074SOL    HW2 7122   1.876   2.670   6.728
 2075SOL     OW 7123   6.775   2.861   2.883
 2075SOL    HW1 7124   6.711   2.923   2.927
 2075SOL    HW2 7125   6.733   2.822   2.801
 2076SOL     OW 7126   5.978   0.227   6.328
 2076SOL    HW1 7127   5.977   0.166   6.249
 2076SOL    HW2 7128   5.903   0.203   6.390
 2077SOL     OW 7129   6.131   2.513   3.547
 2077SOL    HW1 7130   6.034   2.527   3.568
 2077SOL    HW2 7131   6.141   2.431   3.490
 2078SOL     OW 7132   1.077   5.867   6.030
 2078SOL    HW1 7133   1.130   5.782   6.029
 2078SOL    HW2 7134   0.990   5.853   5.983
 2079SOL     OW 7135   5.564   2.078   3.198
 2079SOL    HW1 7136   5.560   2.135   3.116
 2079SOL    HW2 7137   5.646   2.099   3.250
 2080SOL     OW 7138   1.684   6.930   4.901
 2080SOL    HW1 7139   1.674   6.856   4.835
 2080SOL    HW2 7140   1.644   7.014   4.864
 2081SOL     OW 7141   1.369   5.328   4.502
 2081SOL    HW1 7142   1.325   5.349   4.590
 2081SOL    HW2 7143   1.349   5.402   4.437
 2082SOL     OW 7144   0.586   6.997   3.221
 2082SOL    HW1 7145   0.639   0.061   3.197
 2082SOL    HW2 7146   0.633   6.915   3.187
 2083SOL     OW 7147   6.774   4.799   5.599
 2083SOL    HW1 7148   6.750   4.740   5.676
 2083SOL    HW2 7149   6.704   4.792   5.528
 2084SOL     OW 7150   0.708   4.589   3.516
 2084SOL    HW1 7151   0.792   4.599   3.462
 2084SOL    HW2 7152   0.725   4.620   3.610
 2085SOL     OW 7153   4.646   0.396   0.201
 2085SOL    HW1 7154   4.728   0.435   0.158
 2085SOL    HW2 7155   4.567   0.410   0.141
 2086SOL     OW 7156   3.938   6.476   6.298
 2086SOL    HW1 7157   4.027   6.434   6.280
 2086SOL    HW2 7158   3.938   6.517   6.389
 2087SOL     OW 7159   4.703   0.700   1.611
 2087SOL    HW1 7160   4.656   0.786   1.592
 2087SOL    HW2 7161   4.800   0.718   1.628
 2088SOL     OW 7162   1.605   6.065   0.351
 2088SOL    HW1 7163   1.542   6.074   0.274
 2088SOL    HW2 7164   1.600   6.146   0.409
 2089SOL     OW 7165   5.217   2.897   6.138
 2089SOL    HW1 7166   5.307   2.924   6.103
 2089SOL    HW2 7167   5.178   2.827   6.078
 2090SOL     OW 7168   4.385   3.666   5.613
 2090SOL    HW1 7169   4.299   3.693   5.657
 2090SOL    HW2 7170   4.383   3.693   5.517
 2091SOL     OW 7171   0.663   5.541   0.970
 2091SOL    HW1 7172   0.563   5.538   0.971
 2091SOL    HW2 7173   0.699   5.507   1.057
 2092SOL     OW 7174   4.949   3.989   0.099
 2092SOL    HW1 7175   5.005   3.907   0.107
 2092SOL    HW2 7176   4.871   3.971   0.040
 2093SOL     OW 7177   2.570   2.194   1.220
 2093SOL    HW1 7178   2.664   2.158   1.216
 2093SOL    HW2 7179   2.507   2.119   1.241
 2094SOL     OW 7180   6.160   1.898   3.216
 2094SOL    HW1 7181   6.242   1.845   3.193
 2094SOL    HW2 7182   6.153   1.976   3.154
 2095SOL     OW 7183   6.020   6.969   5.581
 2095SOL    HW1 7184   6.104   6.935   5.539
 2095SOL    HW2 7185   6.029   0.049   5.599
 2096SOL     OW 7186   4.705   4.113   3.055
 2096SOL    HW1 7187   4.774   4.109   2.983
 2096SOL    HW2 7188   4.617   4.080   3.018
 2097SOL     OW 7189   2.755   3.489   6.562
 2097SOL    HW1 7190   2.738   3.478   6.660
 2097SOL    HW2 7191   2.675   3.462   6.510
 2098SOL     OW 7192   3.848   6.075   1.862
 2098SOL    HW1 7193   3.854   6.141   1.787
 2098SOL    HW2 7194   3.864   5.983   1.827
 2099SOL     OW 7195   3.644   2.774   6.480
 2099SOL    HW1 7196   3.608   2.682   6.465
 2099SOL    HW2 7197   3.632   2.828   6.397
 2100SOL     OW 7198   5.393   2.506   6.727
 2100SOL    HW1 7199   5.336   2.573   6.776
 2100SOL    HW2 7200   5.363   2.499   6.632
 2101SOL     OW 7201   1.164   0.066   1.546
 2101SOL    HW1 7202   1.110   0.027   1.621
 2101SOL    HW2 7203   1.103   0.107   1.479
 2102SOL     OW 7204   5.616   4.941   2.553
 2102SOL    HW1 7205   5.608   4.842   2.561
 2102SOL    HW2 7206   5.571   4.985   2.631
 2103SOL     OW 7207   3.427   3.789   6.728
 2103SOL    HW1 7208   3.330   3.765   6.727
 2103SOL    HW2 7209   3.446   3.854   6.654
 2104SOL     OW 7210   1.463   4.281   1.730
 2104SOL    HW1 7211   1.558   4.311   1.718
 2104SOL    HW2 7212   1.403   4.340   1.676
 2105SOL     OW 7213   5.275   4.665   5.598
 2105SOL    HW1 7214   5.354   4.606   5.581
 2105SOL    HW2 7215   5.241   4.701   5.511
 2106SOL     OW 7216   5.071   3.673   0.744
 2106SOL    HW1 7217   5.064   3.740   0.818
 2106SOL    HW2 7218   5.167   3.659   0.720
 2107SOL     OW 7219   6.065   2.395   5.221
 2107SOL    HW1 7220   6.115   2.443   5.293
 2107SOL    HW2 7221   6.019   2.316   5.260
 2108SOL     OW 7222   6.245   5.636   4.641
 2108SOL    HW1 7223   6.337   5.609   4.668
 2108SOL    HW2 7224   6.206   5.566   4.580
 2109SOL     OW 7225   4.740   5.748   2.027
 2109SOL    HW1 7226   4.825   5.799   2.029
 2109SOL    HW2 7227   4.720   5.720   1.933
 2110SOL     OW 7228   2.408   1.297   0.363
 2110SOL    HW1 7229   2.378   1.222   0.304
 2110SOL    HW2 7230   2.491   1.338   0.325
 2111SOL     OW 7231   2.351   2.785   6.694
 2111SOL    HW1 7232   2.392   2.696   6.715
 2111SOL    HW2 7233   2.380   2.852   6.762
 2112SOL     OW 7234   5.260   2.792   0.710
 2112SOL    HW1 7235   5.286   2.779   0.806
 2112SOL    HW2 7236   5.189   2.862   0.704
 2113SOL     OW 7237   2.667   1.723   4.349
 2113SOL    HW1 7238   2.698   1.816   4.329
 2113SOL    HW2 7239   2.567   1.721   4.352
 2114SOL     OW 7240   2.243   1.934   6.447
 2114SOL    HW1 7241   2.159   1.964   6.491
 2114SOL    HW2 7242   2.317   1.932   6.514
 2115SOL     OW 7243   1.136   4.665   3.230
 2115SOL    HW1 7244   1.120   4.648   3.132
 2115SOL    HW2 7245   1.144   4.764   3.246
 2116SOL     OW 7246   0.449   4.734   3.060
 2116SOL    HW1 7247   0.547   4.716   3.064
 2116SOL    HW2 7248   0.430   4.804   2.991
 2117SOL     OW 7249   6.688   4.677   1.682
 2117SOL    HW1 7250   6.685   4.751   1.749
 2117SOL    HW2 7251   6.782   4.644   1.673
 2118SOL     OW 7252   6.261   2.691   2.950
 2118SOL    HW1 7253   6.321   2.613   2.932
 2118SOL    HW2 7254   6.166   2.665   2.932
 2119SOL     OW 7255   1.654   0.201   0.872
 2119SOL    HW1 7256   1.724   0.265   0.905
 2119SOL    HW2 7257   1.563   0.239   0.891
 2120SOL     OW 7258   0.503   4.590   4.073
 2120SOL    HW1 7259   0.453   4.635   3.999
 2120SOL    HW2 7260   0.540   4.503   4.040
 2121SOL     OW 7261   1.318   3.326   5.870
 2121SOL    HW1 7262   1.398   3.307   5.926
 2121SOL    HW2 7263   1.344   3.386   5.794
 2122SOL     OW 7264   5.685   4.842   5.953
 2122SOL    HW1 7265   5.676   4.869   5.857
 2122SOL    HW2 7266   5.650   4.748   5.964
 2123SOL     OW 7267   6.690   5.283   2.214
 2123SOL    HW1 7268   6.606   5.324   2.250
 2123SOL    HW2 7269   6.726   5.217   2.280
 2124SOL     OW 7270   2.919   2.346   1.041
 2124SOL    HW1 7271   2.962   2.347   0.951
 2124SOL    HW2 7272   2.970   2.404   1.104
 2125SOL     OW 7273   2.166   0.458   2.356
 2125SOL    HW1 7274   2.106   0.382   2.381
 2125SOL    HW2 7275   2.261   0.428   2.360
 2126SOL     OW 7276   4.073   2.509   6.404
 2126SOL    HW1 7277   4.066   2.422   6.355
 2126SOL    HW2 7278   4.131   2.497   6.484
 2127SOL     OW 7279   1.212   2.147   5.327
 2127SOL    HW1 7280   1.275   2.219   5.357
 2127SOL    HW2 7281   1.123   2.188   5.304
 2128SOL     OW 7282   6.445   2.992   4.186
 2128SOL    HW1 7283   6.411   2.917   4.129
 2128SOL    HW2 7284   6.535   3.020   4.153
 2129SOL     OW 7285   4.815   3.170   5.177
 2129SOL    HW1 7286   4.806   3.265   5.207
 2129SOL    HW2 7287   4.726   3.124   5.187
 2130SOL     OW 7288   3.234   0.431   3.196
 2130SOL    HW1 7289   3.312   0.473   3.242
 2130SOL    HW2 7290   3.266   0.364   3.128
 2131SOL     OW 7291   4.863   1.556   0.083
 2131SOL    HW1 7292   4.793   1.510   0.138
 2131SOL    HW2 7293   4.872   1.510   7.012
 2132SOL     OW 7294   3.991   0.995   0.859
 2132SOL    HW1 7295   4.046   0.950   0.789
 2132SOL    HW2 7296   3.902   0.950   0.866
 2133SOL     OW 7297   3.216   3.193   1.016
 2133SOL    HW1 7298   3.176   3.126   0.952
 2133SOL    HW2 7299   3.146   3.260   1.041
 2134SOL     OW 7300   1.066   0.588   5.436
 2134SOL    HW1 7301   1.056   0.658   5.507
 2134SOL    HW2 7302   1.121   0.513   5.470
 2135SOL     OW 7303   1.796   3.145   5.126
 2135SOL    HW1 7304   1.864   3.176   5.059
 2135SOL    HW2 7305   1.760   3.057   5.097
 2136SOL     OW 7306   0.529   4.036   4.676
 2136SOL    HW1 7307   0.599   3.972   4.707
 2136SOL    HW2 7308   0.553   4.128   4.707
 2137SOL     OW 7309   0.501   5.896   4.227
 2137SOL    HW1 7310   0.421   5.910   4.169
 2137SOL    HW2 7311   0.496   5.958   4.306
 2138SOL     OW 7312   6.935   0.694   2.088
 2138SOL    HW1 7313   6.940   0.793   2.096
 2138SOL    HW2 7314   6.946   0.668   1.992
 2139SOL     OW 7315   3.130   0.772   2.590
 2139SOL    HW1 7316   3.067   0.840   2.627
 2139SOL    HW2 7317   3.127   0.774   2.490
 2140SOL     OW 7318   3.810   6.045   4.104
 2140SOL    HW1 7319   3.890   6.015   4.157
 2140SOL    HW2 7320   3.774   5.968   4.051
 2141SOL     OW 7321   6.362   4.725   1.592
 2141SOL    HW1 7322   6.380   4.735   1.690
 2141SOL    HW2 7323   6.333   4.631   1.573
 2142SOL     OW 7324   1.281   2.067   3.137
 2142SOL    HW1 7325   1.364   2.113   3.107
 2142SOL    HW2 7326   1.299   2.018   3.223
 2143SOL     OW 7327   3.146   4.489   1.360
 2143SOL    HW1 7328   3.186   4.449   1.278
 2143SOL    HW2 7329   3.064   4.542   1.336
 2144SOL     OW 7330   1.326   5.672   3.901
 2144SOL    HW1 7331   1.249   5.610   3.914
 2144SOL    HW2 7332   1.351   5.675   3.805
 2145SOL     OW 7333   4.252   5.880   4.055
 2145SOL    HW1 7334   4.163   5.911   4.088
 2145SOL    HW2 7335   4.277   5.930   3.972
 2146SOL     OW 7336   2.921   3.970   1.249
 2146SOL    HW1 7337   2.890   4.032   1.176
 2146SOL    HW2 7338   2.921   3.876   1.214
 2147SOL     OW 7339   6.809   1.479   6.164
 2147SOL    HW1 7340   6.747   1.545   6.208
 2147SOL    HW2 7341   6.755   1.415   6.109
 2148SOL     OW 7342   5.258   2.543   4.680
 2148SOL    HW1 7343   5.309   2.458   4.691
 2148SOL    HW2 7344   5.321   2.616   4.652
 2149SOL     OW 7345   3.344   1.949   1.200
 2149SOL    HW1 7346   3.437   1.972   1.229
 2149SOL    HW2 7347   3.289   2.033   1.196
 2150SOL     OW 7348   2.908   1.908   2.278
 2150SOL    HW1 7349   2.910   2.006   2.255
 2150SOL    HW2 7350   2.876   1.897   2.372
 2151SOL     OW 7351   2.059   1.057   4.359
 2151SOL    HW1 7352   1.972   1.107   4.358
 2151SOL    HW2 7353   2.076   1.020   4.268
 2152SOL     OW 7354   4.086   6.210   1.618
 2152SOL    HW1 7355   4.133   6.193   1.705
 2152SOL    HW2 7356   4.089   6.308   1.597
 2153SOL     OW 7357   3.240   0.764   3.462
 2153SOL    HW1 7358   3.309   0.824   3.421
 2153SOL    HW2 7359   3.195   0.711   3.391
 2154SOL     OW 7360   4.546   0.405   5.133
 2154SOL    HW1 7361   4.491   0.452   5.201
 2154SOL    HW2 7362   4.638   0.390   5.169
 2155SOL     OW 7363   1.759   6.331   0.227
 2155SOL    HW1 7364   1.686   6.342   0.160
 2155SOL    HW2 7365   1.788   6.421   0.261
 2156SOL     OW 7366   2.284   0.513   3.659
 2156SOL    HW1 7367   2.247   0.601   3.631
 2156SOL    HW2 7368   2.226   0.473   3.731
 2157SOL     OW 7369   6.191   0.907   3.206
 2157SOL    HW1 7370   6.276   0.960   3.206
 2157SOL    HW2 7371   6.118   0.961   3.248
 2158SOL     OW 7372   3.539   6.057   0.974
 2158SOL    HW1 7373   3.549   6.156   0.981
 2158SOL    HW2 7374   3.612   6.020   0.916
 2159SOL     OW 7375   2.214   6.125   5.367
 2159SOL    HW1 7376   2.128   6.165   5.399
 2159SOL    HW2 7377   2.196   6.061   5.293
 2160SOL     OW 7378   4.709   3.933   0.668
 2160SOL    HW1 7379   4.663   4.016   0.635
 2160SOL    HW2 7380   4.749   3.884   0.591
 2161SOL     OW 7381   5.127   4.254   3.141
 2161SOL    HW1 7382   5.091   4.310   3.065
 2161SOL    HW2 7383   5.207   4.203   3.109
 2162SOL     OW 7384   2.792   0.717   0.901
 2162SOL    HW1 7385   2.717   0.655   0.878
 2162SOL    HW2 7386   2.799   0.725   1.000
 2163SOL     OW 7387   0.152   4.158   6.683
 2163SOL    HW1 7388   0.121   4.094   6.612
 2163SOL    HW2 7389   0.076   4.179   6.743
 2164SOL     OW 7390   2.026   2.772   0.440
 2164SOL    HW1 7391   2.035   2.675   0.465
 2164SOL    HW2 7392   2.063   2.787   0.349
 2165SOL     OW 7393   0.501   1.666   2.899
 2165SOL    HW1 7394   0.452   1.732   2.842
 2165SOL    HW2 7395   0.501   1.697   2.994
 2166SOL     OW 7396   1.440   2.284   5.373
 2166SOL    HW1 7397   1.532   2.261   5.405
 2166SOL    HW2 7398   1.423   2.382   5.388
 2167SOL     OW 7399   1.387   1.182   3.800
 2167SOL    HW1 7400   1.438   1.123   3.738
 2167SOL    HW2 7401   1.444   1.261   3.826
 2168SOL     OW 7402   0.878   1.849   3.583
 2168SOL    HW1 7403   0.798   1.907   3.566
 2168SOL    HW2 7404   0.854   1.780   3.652
 2169SOL     OW 7405   5.595   1.989   5.719
 2169SOL    HW1 7406   5.600   1.917   5.788
 2169SOL    HW2 7407   5.550   2.070   5.758
 2170SOL     OW 7408   6.119   5.604   5.268
 2170SOL    HW1 7409   6.033   5.556   5.287
 2170SOL    HW2 7410   6.155   5.575   5.180
 2171SOL     OW 7411   6.888   3.868   1.748
 2171SOL    HW1 7412   6.868   3.914   1.661
 2171SOL    HW2 7413   6.932   3.780   1.729
 2172SOL     OW 7414   2.490   2.340   0.366
 2172SOL    HW1 7415   2.435   2.371   0.289
 2172SOL    HW2 7416   2.432   2.326   0.446
 2173SOL     OW 7417   3.948   0.144   4.832
 2173SOL    HW1 7418   3.892   0.129   4.913
 2173SOL    HW2 7419   3.893   0.126   4.750
 2174SOL     OW 7420   5.380   4.824   4.991
 2174SOL    HW1 7421   5.359   4.749   5.054
 2174SOL    HW2 7422   5.479   4.833   4.982
 2175SOL     OW 7423   2.639   2.093   4.529
 2175SOL    HW1 7424   2.687   2.161   4.585
 2175SOL    HW2 7425   2.555   2.065   4.575
 2176SOL     OW 7426   0.815   2.904   7.015
 2176SOL    HW1 7427   0.867   2.831   0.042
 2176SOL    HW2 7428   0.846   2.992   0.033
 2177SOL     OW 7429   6.261   1.049   3.626
 2177SOL    HW1 7430   6.288   0.953   3.624
 2177SOL    HW2 7431   6.252   1.084   3.533
 2178SOL     OW 7432   1.079   3.961   0.208
 2178SOL    HW1 7433   1.054   4.057   0.195
 2178SOL    HW2 7434   1.125   3.951   0.296
 2179SOL     OW 7435   1.637   5.420   4.625
 2179SOL    HW1 7436   1.606   5.408   4.531
 2179SOL    HW2 7437   1.637   5.332   4.672
 2180SOL     OW 7438   2.387   2.858   1.817
 2180SOL    HW1 7439   2.460   2.910   1.773
 2180SOL    HW2 7440   2.298   2.896   1.790
 2181SOL     OW 7441   4.678   4.807   5.395
 2181SOL    HW1 7442   4.751   4.740   5.406
 2181SOL    HW2 7443   4.653   4.815   5.298
 2182SOL     OW 7444   0.611   3.459   5.200
 2182SOL    HW1 7445   0.524   3.497   5.231
 2182SOL    HW2 7446   0.681   3.529   5.205
 2183SOL     OW 7447   2.953   4.259   5.536
 2183SOL    HW1 7448   2.975   4.278   5.440
 2183SOL    HW2 7449   2.918   4.342   5.579
 2184SOL     OW 7450   4.924   1.773   6.520
 2184SOL    HW1 7451   4.924   1.866   6.482
 2184SOL    HW2 7452   4.881   1.774   6.610
 2185SOL     OW 7453   1.555   1.876   1.129
 2185SOL    HW1 7454   1.615   1.938   1.180
 2185SOL    HW2 7455   1.603   1.842   1.048
 2186SOL     OW 7456   0.023   5.145   2.379
 2186SOL    HW1 7457   0.044   5.241   2.357
 2186SOL    HW2 7458   0.102   5.103   2.422
 2187SOL     OW 7459   6.787   1.587   1.920
 2187SOL    HW1 7460   6.695   1.614   1.889
 2187SOL    HW2 7461   6.830   1.664   1.967
 2188SOL     OW 7462   5.855   6.296   4.299
 2188SOL    HW1 7463   5.759   6.271   4.290
 2188SOL    HW2 7464   5.881   6.357   4.225
 2189SOL     OW 7465   1.665   6.943   0.252
 2189SOL    HW1 7466   1.731   6.885   0.300
 2189SOL    HW2 7467   1.697   0.020   0.252
 2190SOL     OW 7468   0.486   2.444   1.880
 2190SOL    HW1 7469   0.491   2.521   1.943
 2190SOL    HW2 7470   0.483   2.478   1.786
 2191SOL     OW 7471   3.171   1.831   6.623
 2191SOL    HW1 7472   3.172   1.742   6.669
 2191SOL    HW2 7473   3.246   1.887   6.657
 2192SOL     OW 7474   3.516   0.441   3.264
 2192SOL    HW1 7475   3.509   0.343   3.248
 2192SOL    HW2 7476   3.506   0.459   3.362
 2193SOL     OW 7477   6.496   5.591   6.127
 2193SOL    HW1 7478   6.539   5.528   6.062
 2193SOL    HW2 7479   6.419   5.545   6.172
 2194SOL     OW 7480   2.131   5.134   6.395
 2194SOL    HW1 7481   2.119   5.075   6.474
 2194SOL    HW2 7482   2.200   5.094   6.333
 2195SOL     OW 7483   0.079   0.430   3.732
 2195SOL    HW1 7484   0.132   0.363   3.784
 2195SOL    HW2 7485   0.018   0.382   3.669
 2196SOL     OW 7486   3.233   0.244   5.052
 2196SOL    HW1 7487   3.273   0.180   4.986
 2196SOL    HW2 7488   3.306   0.300   5.092
 2197SOL     OW 7489   3.298   3.459   1.059
 2197SOL    HW1 7490   3.319   3.381   1.000
 2197SOL    HW2 7491   3.201   3.482   1.051
 2198SOL     OW 7492   6.687   0.942   0.156
 2198SOL    HW1 7493   6.712   0.884   0.079
 2198SOL    HW2 7494   6.748   1.021   0.160
 2199SOL     OW 7495   4.764   1.162   3.316
 2199SOL    HW1 7496   4.718   1.094   3.374
 2199SOL    HW2 7497   4.850   1.123   3.283
 2200SOL     OW 7498   3.150   0.089   4.645
 2200SOL    HW1 7499   3.163   0.064   4.549
 2200SOL    HW2 7500   3.052   0.087   4.667
 2201SOL     OW 7501   6.378   2.379   3.143
 2201SOL    HW1 7502   6.462   2.434   3.145
 2201SOL    HW2 7503   6.333   2.391   3.054
 2202SOL     OW 7504   2.674   4.811   2.571
 2202SOL    HW1 7505   2.636   4.872   2.640
 2202SOL    HW2 7506   2.771   4.831   2.558
 2203SOL     OW 7507   2.337   2.866   1.467
 2203SOL    HW1 7508   2.353   2.891   1.372
 2203SOL    HW2 7509   2.424   2.840   1.510
 2204SOL     OW 7510   3.873   1.493   6.824
 2204SOL    HW1 7511   3.832   1.490   6.915
 2204SOL    HW2 7512   3.953   1.554   6.826
 2205SOL     OW 7513   1.553   6.737   5.918
 2205SOL    HW1 7514   1.561   6.677   5.839
 2205SOL    HW2 7515   1.645   6.765   5.948
 2206SOL     OW 7516   2.312   4.349   5.806
 2206SOL    HW1 7517   2.214   4.367   5.813
 2206SOL    HW2 7518   2.330   4.289   5.728
 2207SOL     OW 7519   2.627   3.875   6.975
 2207SOL    HW1 7520   2.540   3.923   6.978
 2207SOL    HW2 7521   2.653   3.858   6.879
 2208SOL     OW 7522   1.546   6.082   2.727
 2208SOL    HW1 7523   1.627   6.041   2.684
 2208SOL    HW2 7524   1.532   6.040   2.817
 2209SOL     OW 7525   0.992   5.709   5.698
 2209SOL    HW1 7526   1.078   5.758   5.682
 2209SOL    HW2 7527   1.002   5.648   5.777
 2210SOL     OW 7528   0.239   5.049   4.239
 2210SOL    HW1 7529   0.301   5.127   4.251
 2210SOL    HW2 7530   0.146   5.082   4.227
 2211SOL     OW 7531   5.574   0.539   0.224
 2211SOL    HW1 7532   5.511   0.615   0.209
 2211SOL    HW2 7533   5.644   0.539   0.153
 2212SOL     OW 7534   2.527   6.581   6.877
 2212SOL    HW1 7535   2.487   6.528   6.802
 2212SOL    HW2 7536   2.491   6.675   6.874
 2213SOL     OW 7537   3.827   2.945   5.288
 2213SOL    HW1 7538   3.870   2.856   5.307
 2213SOL    HW2 7539   3.882   2.995   5.221
 2214SOL     OW 7540   4.149   2.619   5.779
 2214SOL    HW1 7541   4.071   2.606   5.717
 2214SOL    HW2 7542   4.182   2.713   5.771
 2215SOL     OW 7543   6.327   1.765   6.733
 2215SOL    HW1 7544   6.351   1.670   6.717
 2215SOL    HW2 7545   6.345   1.789   6.829
 2216SOL     OW 7546   1.431   0.119   6.001
 2216SOL    HW1 7547   1.403   0.191   5.938
 2216SOL    HW2 7548   1.354   0.096   6.060
 2217SOL     OW 7549   4.003   6.922   1.216
 2217SOL    HW1 7550   3.983   6.826   1.234
 2217SOL    HW2 7551   4.053   6.960   1.294
 2218SOL     OW 7552   0.380   6.771   0.444
 2218SOL    HW1 7553   0.327   6.780   0.528
 2218SOL    HW2 7554   0.477   6.761   0.466
 2219SOL     OW 7555   6.958   2.710   1.924
 2219SOL    HW1 7556   6.942   2.617   1.889
 2219SOL    HW2 7557   0.038   2.721   1.944
 2220SOL     OW 7558   0.724   0.592   4.010
 2220SOL    HW1 7559   0.707   0.503   3.967
 2220SOL    HW2 7560   0.743   0.579   4.108
 2221SOL     OW 7561   6.356   0.542   5.682
 2221SOL    HW1 7562   6.406   0.518   5.598
 2221SOL    HW2 7563   6.414   0.598   5.741
 2222SOL     OW 7564   4.081   0.217   0.540
 2222SOL    HW1 7565   4.160   0.188   0.485
 2222SOL    HW2 7566   4.096   0.309   0.574
 2223SOL     OW 7567   6.052   0.498   3.702
 2223SOL    HW1 7568   6.079   0.566   3.770
 2223SOL    HW2 7569   5.989   0.432   3.744
 2224SOL     OW 7570   1.675   4.376   1.417
 2224SOL    HW1 7571   1.719   4.298   1.461
 2224SOL    HW2 7572   1.699   4.460   1.466
 2225SOL     OW 7573   6.354   5.815   2.970
 2225SOL    HW1 7574   6.431   5.807   2.906
 2225SOL    HW2 7575   6.279   5.757   2.940
 2226SOL     OW 7576   3.969   5.373   0.798
 2226SOL    HW1 7577   3.941   5.381   0.894
 2226SOL    HW2 7578   3.900   5.413   0.739
 2227SOL     OW 7579   5.358   3.748   0.505
 2227SOL    HW1 7580   5.370   3.684   0.580
 2227SOL    HW2 7581   5.446   3.764   0.460
 2228SOL     OW 7582   2.660   5.265   1.490
 2228SOL    HW1 7583   2.638   5.168   1.478
 2228SOL    HW2 7584   2.672   5.285   1.587
 2229SOL     OW 7585   3.947   1.892   4.593
 2229SOL    HW1 7586   3.862   1.846   4.617
 2229SOL    HW2 7587   3.928   1.971   4.535
 2230SOL     OW 7588   5.881   5.471   5.175
 2230SOL    HW1 7589   5.843   5.406   5.240
 2230SOL    HW2 7590   5.808   5.525   5.134
 2231SOL     OW 7591   0.460   0.759   1.443
 2231SOL    HW1 7592   0.524   0.785   1.371
 2231SOL    HW2 7593   0.484   0.806   1.528
 2232SOL     OW 7594   0.964   2.687   4.531
 2232SOL    HW1 7595   1.003   2.620   4.594
 2232SOL    HW2 7596   0.920   2.760   4.584
 2233SOL     OW 7597   2.317   4.564   1.374
 2233SOL    HW1 7598   2.363   4.545   1.461
 2233SOL    HW2 7599   2.218   4.548   1.384
 2234SOL     OW 7600   4.499   2.242   1.902
 2234SOL    HW1 7601   4.449   2.296   1.970
 2234SOL    HW2 7602   4.437   2.216   1.828
 2235SOL     OW 7603   1.797   0.698   1.334
 2235SOL    HW1 7604   1.715   0.756   1.329
 2235SOL    HW2 7605   1.829   0.677   1.242
 2236SOL     OW 7606   0.793   4.478   6.689
 2236SOL    HW1 7607   0.850   4.446   6.613
 2236SOL    HW2 7608   0.808   4.421   6.769
 2237SOL     OW 7609   5.618   4.886   3.794
 2237SOL    HW1 7610   5.598   4.871   3.698
 2237SOL    HW2 7611   5.573   4.970   3.825
 2238SOL     OW 7612   5.453   4.919   1.940
 2238SOL    HW1 7613   5.487   4.989   2.004
 2238SOL    HW2 7614   5.397   4.853   1.990
 2239SOL     OW 7615   3.128   5.125   3.649
 2239SOL    HW1 7616   3.082   5.151   3.565
 2239SOL    HW2 7617   3.206   5.185   3.665
 2240SOL     OW 7618   5.319   6.157   3.847
 2240SOL    HW1 7619   5.223   6.135   3.865
 2240SOL    HW2 7620   5.340   6.136   3.752
 2241SOL     OW 7621   0.698   7.004   2.361
 2241SOL    HW1 7622   0.610   6.956   2.361
 2241SOL    HW2 7623   0.683   0.084   2.341
 2242SOL     OW 7624   4.599   2.602   2.962
 2242SOL    HW1 7625   4.692   2.639   2.968
 2242SOL    HW2 7626   4.570   2.600   2.866
 2243SOL     OW 7627   2.822   6.395   5.219
 2243SOL    HW1 7628   2.774   6.346   5.292
 2243SOL    HW2 7629   2.884   6.462   5.261
 2244SOL     OW 7630   2.686   0.047   2.390
 2244SOL    HW1 7631   2.715   6.969   2.400
 2244SOL    HW2 7632   2.626   0.055   2.310
 2245SOL     OW 7633   0.280   1.455   2.348
 2245SOL    HW1 7634   0.247   1.438   2.441
 2245SOL    HW2 7635   0.357   1.519   2.352
 2246SOL     OW 7636   1.129   1.271   5.748
 2246SOL    HW1 7637   1.030   1.272   5.737
 2246SOL    HW2 7638   1.157   1.348   5.805
 2247SOL     OW 7639   2.685   2.949   5.803
 2247SOL    HW1 7640   2.678   2.961   5.704
 2247SOL    HW2 7641   2.700   3.037   5.846
 2248SOL     OW 7642   3.622   3.916   6.387
 2248SOL    HW1 7643   3.563   3.872   6.318
 2248SOL    HW2 7644   3.718   3.896   6.366
 2249SOL     OW 7645   5.837   6.614   2.377
 2249SOL    HW1 7646   5.865   6.639   2.284
 2249SOL    HW2 7647   5.858   6.517   2.393
 2250SOL     OW 7648   4.486   3.831   0.297
 2250SOL    HW1 7649   4.481   3.782   0.210
 2250SOL    HW2 7650   4.581   3.856   0.316
 2251SOL     OW 7651   5.138   0.946   0.412
 2251SOL    HW1 7652   5.066   1.006   0.446
 2251SOL    HW2 7653   5.193   0.994   0.344
 2252SOL     OW 7654   5.598   2.181   2.916
 2252SOL    HW1 7655   5.596   2.275   2.948
 2252SOL    HW2 7656   5.533   2.171   2.840
 2253SOL     OW 7657   1.195   3.878   6.523
 2253SOL    HW1 7658   1.293   3.868   6.503
 2253SOL    HW2 7659   1.163   3.965   6.486
 2254SOL     OW 7660   2.470   3.238   5.578
 2254SOL    HW1 7661   2.410   3.315   5.554
 2254SOL    HW2 7662   2.420   3.152   5.566
 2255SOL     OW 7663   4.713   2.940   6.946
 2255SOL    HW1 7664   4.683   2.857   6.899
 2255SOL    HW2 7665   4.747   2.916   0.020
 2256SOL     OW 7666   4.771   6.213   1.759
 2256SOL    HW1 7667   4.779   6.196   1.858
 2256SOL    HW2 7668   4.786   6.128   1.709
 2257SOL     OW 7669   7.008   2.050   4.131
 2257SOL    HW1 7670   7.001   1.950   4.132
 2257SOL    HW2 7671   6.922   2.090   4.101
 2258SOL     OW 7672   1.252   5.599   6.029
 2258SOL    HW1 7673   1.352   5.598   6.038
 2258SOL    HW2 7674   1.217   5.507   6.048
 2259SOL     OW 7675   4.651   4.353   6.748
 2259SOL    HW1 7676   4.629   4.427   6.685
 2259SOL    HW2 7677   4.701   4.390   6.826
 2260SOL     OW 7678   5.892   4.384   3.079
 2260SOL    HW1 7679   5.917   4.327   3.157
 2260SOL    HW2 7680   5.815   4.341   3.031
 2261SOL     OW 7681   6.838   6.509   0.717
 2261SOL    HW1 7682   6.843   6.455   0.800
 2261SOL    HW2 7683   6.762   6.477   0.660
 2262SOL     OW 7684   5.087   2.183   2.015
 2262SOL    HW1 7685   5.158   2.114   2.005
 2262SOL    HW2 7686   5.109   2.242   2.093
 2263SOL     OW 7687   2.675   6.043   6.123
 2263SOL    HW1 7688   2.721   6.106   6.185
 2263SOL    HW2 7689   2.709   5.950   6.137
 2264SOL     OW 7690   3.112   2.909   0.951
 2264SOL    HW1 7691   3.141   2.925   0.857
 2264SOL    HW2 7692   3.013   2.899   0.955
 2265SOL     OW 7693   0.611   0.550   3.567
 2265SOL    HW1 7694   0.512   0.557   3.572
 2265SOL    HW2 7695   0.649   0.633   3.525
 2266SOL     OW 7696   6.453   1.755   1.378
 2266SOL    HW1 7697   6.417   1.848   1.382
 2266SOL    HW2 7698   6.523   1.749   1.307
 2267SOL     OW 7699   5.008   2.667   4.901
 2267SOL    HW1 7700   4.925   2.613   4.890
 2267SOL    HW2 7701   5.062   2.630   4.977
 2268SOL     OW 7702   6.553   3.987   6.234
 2268SOL    HW1 7703   6.455   3.985   6.252
 2268SOL    HW2 7704   6.594   4.067   6.279
 2269SOL     OW 7705   5.464   6.352   5.079
 2269SOL    HW1 7706   5.400   6.291   5.124
 2269SOL    HW2 7707   5.473   6.436   5.132
 2270SOL     OW 7708   3.596   2.491   6.403
 2270SOL    HW1 7709   3.696   2.487   6.406
 2270SOL    HW2 7710   3.562   2.421   6.341
 2271SOL     OW 7711   6.339   4.161   0.560
 2271SOL    HW1 7712   6.300   4.120   0.477
 2271SOL    HW2 7713   6.415   4.221   0.534
 2272SOL     OW 7714   5.852   1.669   4.804
 2272SOL    HW1 7715   5.888   1.623   4.885
 2272SOL    HW2 7716   5.927   1.691   4.742
 2273SOL     OW 7717   1.694   0.653   2.133
 2273SOL    HW1 7718   1.778   0.655   2.188
 2273SOL    HW2 7719   1.697   0.574   2.071
 2274SOL     OW 7720   1.989   2.329   5.997
 2274SOL    HW1 7721   1.960   2.361   5.907
 2274SOL    HW2 7722   2.061   2.388   6.033
 2275SOL     OW 7723   5.768   0.800   4.645
 2275SOL    HW1 7724   5.726   0.818   4.734
 2275SOL    HW2 7725   5.770   0.701   4.628
 2276SOL     OW 7726   2.950   4.644   1.261
 2276SOL    HW1 7727   2.915   4.611   1.173
 2276SOL    HW2 7728   3.018   4.716   1.246
 2277SOL     OW 7729   3.834   3.402   5.372
 2277SOL    HW1 7730   3.752   3.345   5.373
 2277SOL    HW2 7731   3.828   3.468   5.297
 2278SOL     OW 7732   6.587   5.391   3.852
 2278SOL    HW1 7733   6.654   5.320   3.874
 2278SOL    HW2 7734   6.549   5.374   3.761
 2279SOL     OW 7735   4.741   5.950   4.679
 2279SOL    HW1 7736   4.727   5.888   4.756
 2279SOL    HW2 7737   4.798   6.027   4.708
 2280SOL     OW 7738   0.064   6.121   5.023
 2280SOL    HW1 7739   0.120   6.137   5.105
 2280SOL    HW2 7740   6.987   6.146   5.042
 2281SOL     OW 7741   3.585   1.140   1.513
 2281SOL    HW1 7742   3.529   1.158   1.432
 2281SOL    HW2 7743   3.529   1.093   1.582
 2282SOL     OW 7744   4.419   6.835   5.151
 2282SOL    HW1 7745   4.406   6.926   5.112
 2282SOL    HW2 7746   4.460   6.775   5.083
 2283SOL     OW 7747   6.385   4.782   1.871
 2283SOL    HW1 7748   6.373   4.873   1.910
 2283SOL    HW2 7749   6.344   4.714   1.932
 2284SOL     OW 7750   2.410   1.570   0.043
 2284SOL    HW1 7751   2.381   1.655   0.086
 2284SOL    HW2 7752   2.446   1.589   6.969
 2285SOL     OW 7753   1.666   2.078   0.547
 2285SOL    HW1 7754   1.586   2.030   0.583
 2285SOL    HW2 7755   1.651   2.177   0.553
 2286SOL     OW 7756   0.525   7.010   4.639
 2286SOL    HW1 7757   0.518   0.050   4.557
 2286SOL    HW2 7758   0.594   6.939   4.625
 2287SOL     OW 7759   1.838   1.939   2.283
 2287SOL    HW1 7760   1.896   1.882   2.224
 2287SOL    HW2 7761   1.806   2.018   2.231
 2288SOL     OW 7762   6.641   5.073   4.531
 2288SOL    HW1 7763   6.736   5.086   4.557
 2288SOL    HW2 7764   6.589   5.155   4.552
 2289SOL     OW 7765   6.394   4.631   2.823
 2289SOL    HW1 7766   6.396   4.580   2.909
 2289SOL    HW2 7767   6.449   4.584   2.754
 2290SOL     OW 7768   1.188   3.430   2.034
 2290SOL    HW1 7769   1.243   3.398   2.111
 2290SOL    HW2 7770   1.248   3.450   1.956
 2291SOL     OW 7771   2.145   2.577   6.862
 2291SOL    HW1 7772   2.108   2.648   6.922
 2291SOL    HW2 7773   2.101   2.582   6.773
 2292SOL     OW 7774   5.828   2.437   3.662
 2292SOL    HW1 7775   5.805   2.344   3.694
 2292SOL    HW2 7776   5.844   2.496   3.741
 2293SOL     OW 7777   6.467   6.640   1.089
 2293SOL    HW1 7778   6.500   6.730   1.061
 2293SOL    HW2 7779   6.512   6.613   1.174
 2294SOL     OW 7780   3.619   1.087   6.233
 2294SOL    HW1 7781   3.575   0.998   6.223
 2294SOL    HW2 7782   3.596   1.126   6.323
 2295SOL     OW 7783   0.846   1.728   2.633
 2295SOL    HW1 7784   0.792   1.646   2.646
 2295SOL    HW2 7785   0.844   1.783   2.716
 2296SOL     OW 7786   3.694   6.067   2.511
 2296SOL    HW1 7787   3.669   6.018   2.428
 2296SOL    HW2 7788   3.792   6.084   2.511
 2297SOL     OW 7789   5.038   4.111   5.725
 2297SOL    HW1 7790   5.095   4.160   5.659
 2297SOL    HW2 7791   4.968   4.059   5.677
 2298SOL     OW 7792   3.954   3.858   2.354
 2298SOL    HW1 7793   3.864   3.901   2.347
 2298SOL    HW2 7794   3.994   3.880   2.443
 2299SOL     OW 7795   4.642   4.343   5.079
 2299SOL    HW1 7796   4.636   4.250   5.115
 2299SOL    HW2 7797   4.735   4.360   5.047
 2300SOL     OW 7798   2.061   5.957   3.047
 2300SOL    HW1 7799   2.067   5.976   3.145
 2300SOL    HW2 7800   1.968   5.972   3.015
 2301SOL     OW 7801   3.292   2.969   3.351
 2301SOL    HW1 7802   3.259   2.877   3.375
 2301SOL    HW2 7803   3.226   3.013   3.290
 2302SOL     OW 7804   3.882   0.369   1.145
 2302SOL    HW1 7805   3.968   0.403   1.183
 2302SOL    HW2 7806   3.806   0.424   1.179
 2303SOL     OW 7807   2.557   3.618   0.090
 2303SOL    HW1 7808   2.507   3.643   0.173
 2303SOL    HW2 7809   2.596   3.701   0.049
 2304SOL     OW 7810   5.176   6.686   4.497
 2304SOL    HW1 7811   5.245   6.623   4.533
 2304SOL    HW2 7812   5.173   6.768   4.554
 2305SOL     OW 7813   1.930   0.576   3.070
 2305SOL    HW1 7814   1.836   0.544   3.081
 2305SOL    HW2 7815   1.930   0.665   3.024
 2306SOL     OW 7816   2.304   5.338   2.350
 2306SOL    HW1 7817   2.362   5.323   2.430
 2306SOL    HW2 7818   2.277   5.434   2.345
 2307SOL     OW 7819   0.037   2.655   4.628
 2307SOL    HW1 7820   6.983   2.649   4.698
 2307SOL    HW2 7821   0.019   2.587   4.557
 2308SOL     OW 7822   2.399   4.876   1.551
 2308SOL    HW1 7823   2.471   4.927   1.503
 2308SOL    HW2 7824   2.434   4.846   1.640
 2309SOL     OW 7825   1.840   0.447   5.418
 2309SOL    HW1 7826   1.752   0.434   5.372
 2309SOL    HW2 7827   1.875   0.358   5.448
 2310SOL     OW 7828   5.588   5.681   1.481
 2310SOL    HW1 7829   5.663   5.625   1.447
 2310SOL    HW2 7830   5.601   5.776   1.451
 2311SOL     OW 7831   2.283   6.791   0.970
 2311SOL    HW1 7832   2.204   6.843   1.002
 2311SOL    HW2 7833   2.359   6.803   1.034
 2312SOL     OW 7834   4.906   5.914   3.134
 2312SOL    HW1 7835   4.841   5.968   3.187
 2312SOL    HW2 7836   4.929   5.963   3.050
 2313SOL     OW 7837   4.996   5.826   2.102
 2313SOL    HW1 7838   5.011   5.851   2.006
 2313SOL    HW2 7839   5.047   5.743   2.123
 2314SOL     OW 7840   5.248   5.819   3.657
 2314SOL    HW1 7841   5.280   5.755   3.726
 2314SOL    HW2 7842   5.227   5.770   3.573
 2315SOL     OW 7843   5.037   2.682   6.368
 2315SOL    HW1 7844   5.130   2.691   6.334
 2315SOL    HW2 7845   4.979   2.641   6.297
 2316SOL     OW 7846   4.006   1.852   3.753
 2316SOL    HW1 7847   4.001   1.934   3.696
 2316SOL    HW2 7848   3.997   1.770   3.696
 2317SOL     OW 7849   0.406   5.970   3.170
 2317SOL    HW1 7850   0.464   6.037   3.123
 2317SOL    HW2 7851   0.310   5.997   3.161
 2318SOL     OW 7852   0.768   2.577   3.554
 2318SOL    HW1 7853   0.847   2.548   3.607
 2318SOL    HW2 7854   0.797   2.639   3.481
 2319SOL     OW 7855   2.002   5.306   3.459
 2319SOL    HW1 7856   1.953   5.286   3.373
 2319SOL    HW2 7857   1.939   5.348   3.524
 2320SOL     OW 7858   0.772   2.328   3.915
 2320SOL    HW1 7859   0.690   2.334   3.858
 2320SOL    HW2 7860   0.760   2.258   3.986
 2321SOL     OW 7861   2.955   0.374   5.945
 2321SOL    HW1 7862   2.876   0.323   5.910
 2321SOL    HW2 7863   3.028   0.309   5.969
 2322SOL     OW 7864   2.513   1.795   4.915
 2322SOL    HW1 7865   2.460   1.756   4.990
 2322SOL    HW2 7866   2.582   1.857   4.951
 2323SOL     OW 7867   2.740   4.998   2.168
 2323SOL    HW1 7868   2.823   5.050   2.148
 2323SOL    HW2 7869   2.763   4.901   2.178
 2324SOL     OW 7870   6.660   6.509   1.896
 2324SOL    HW1 7871   6.752   6.472   1.884
 2324SOL    HW2 7872   6.655   6.556   1.984
 2325SOL     OW 7873   0.901   4.805   1.726
 2325SOL    HW1 7874   1.000   4.792   1.720
 2325SOL    HW2 7875   0.855   4.722   1.696
 2326SOL     OW 7876   3.454   4.856   5.263
 2326SOL    HW1 7877   3.457   4.929   5.331
 2326SOL    HW2 7878   3.359   4.840   5.235
 2327SOL     OW 7879   6.208   3.799   4.679
 2327SOL    HW1 7880   6.234   3.834   4.769
 2327SOL    HW2 7881   6.113   3.826   4.660
 2328SOL     OW 7882   3.474   2.044   3.168
 2328SOL    HW1 7883   3.562   2.062   3.212
 2328SOL    HW2 7884   3.402   2.096   3.214
 2329SOL     OW 7885   1.280   4.633   5.116
 2329SOL    HW1 7886   1.352   4.579   5.160
 2329SOL    HW2 7887   1.317   4.722   5.091
 2330SOL     OW 7888   0.601   4.275   2.302
 2330SOL    HW1 7889   0.643   4.289   2.213
 2330SOL    HW2 7890   0.599   4.362   2.352
 2331SOL     OW 7891   6.499   3.890   0.300
 2331SOL    HW1 7892   6.464   3.797   0.314
 2331SOL    HW2 7893   6.590   3.886   0.260
 2332SOL     OW 7894   4.521   1.973   5.935
 2332SOL    HW1 7895   4.575   1.893   5.910
 2332SOL    HW2 7896   4.466   1.952   6.016
 2333SOL     OW 7897   0.028   5.669   3.051
 2333SOL    HW1 7898   6.952   5.686   3.082
 2333SOL    HW2 7899   0.028   5.589   2.990
 2334SOL     OW 7900   2.662   0.309   6.924
 2334SOL    HW1 7901   2.738   0.350   6.875
 2334SOL    HW2 7902   2.614   0.245   6.863
 2335SOL     OW 7903   5.802   1.202   3.052
 2335SOL    HW1 7904   5.822   1.299   3.037
 2335SOL    HW2 7905   5.851   1.148   2.983
 2336SOL     OW 7906   3.978   1.976   5.279
 2336SOL    HW1 7907   3.892   1.925   5.269
 2336SOL    HW2 7908   4.054   1.912   5.292
 2337SOL     OW 7909   4.353   1.115   3.462
 2337SOL    HW1 7910   4.332   1.183   3.393
 2337SOL    HW2 7911   4.292   1.127   3.541
 2338SOL     OW 7912   0.746   0.847   0.066
 2338SOL    HW1 7913   0.662   0.899   0.083
 2338SOL    HW2 7914   0.784   0.875   6.995
 2339SOL     OW 7915   3.816   3.459   4.967
 2339SOL    HW1 7916   3.749   3.385   4.963
 2339SOL    HW2 7917   3.908   3.421   4.975
 2340SOL     OW 7918   5.476   5.820   6.067
 2340SOL    HW1 7919   5.410   5.875   6.018
 2340SOL    HW2 7920   5.566   5.864   6.065
 2341SOL     OW 7921   5.196   4.050   1.268
 2341SOL    HW1 7922   5.106   4.006   1.267
 2341SOL    HW2 7923   5.226   4.065   1.173
 2342SOL     OW 7924   0.605   5.588   5.642
 2342SOL    HW1 7925   0.681   5.625   5.589
 2342SOL    HW2 7926   0.560   5.662   5.692
 2343SOL     OW 7927   2.131   6.512   2.190
 2343SOL    HW1 7928   2.228   6.488   2.195
 2343SOL    HW2 7929   2.120   6.611   2.200
 2344SOL     OW 7930   1.545   1.191   1.271
 2344SOL    HW1 7931   1.643   1.208   1.265
 2344SOL    HW2 7932   1.529   1.101   1.311
 2345SOL     OW 7933   2.253   5.420   5.375
 2345SOL    HW1 7934   2.163   5.404   5.417
 2345SOL    HW2 7935   2.270   5.518   5.370
 2346SOL     OW 7936   5.262   3.251   4.869
 2346SOL    HW1 7937   5.284   3.348   4.864
 2346SOL    HW2 7938   5.165   3.238   4.848
 2347SOL     OW 7939   2.058   3.943   1.630
 2347SOL    HW1 7940   2.035   4.024   1.685
 2347SOL    HW2 7941   2.154   3.919   1.644
 2348SOL     OW 7942   3.536   5.690   3.555
 2348SOL    HW1 7943   3.462   5.692   3.487
 2348SOL    HW2 7944   3.610   5.631   3.522
 2349SOL     OW 7945   0.658   5.452   6.589
 2349SOL    HW1 7946   0.617   5.399   6.515
 2349SOL    HW2 7947   0.681   5.390   6.664
 2350SOL     OW 7948   5.172   6.779   6.377
 2350SOL    HW1 7949   5.163   6.697   6.321
 2350SOL    HW2 7950   5.262   6.781   6.420
 2351SOL     OW 7951   3.662   4.916   2.822
 2351SOL    HW1 7952   3.608   4.881   2.745
 2351SOL    HW2 7953   3.610   4.903   2.907
 2352SOL     OW 7954   0.846   3.905   2.472
 2352SOL    HW1 7955   0.937   3.936   2.445
 2352SOL    HW2 7956   0.820   3.826   2.417
 2353SOL     OW 7957   2.926   4.842   4.487
 2353SOL    HW1 7958   2.917   4.809   4.581
 2353SOL    HW2 7959   2.920   4.942   4.486
 2354SOL     OW 7960   3.493   2.328   6.692
 2354SOL    HW1 7961   3.584   2.329   6.649
 2354SOL    HW2 7962   3.457   2.421   6.697
 2355SOL     OW 7963   1.237   4.664   6.604
 2355SOL    HW1 7964   1.261   4.745   6.550
 2355SOL    HW2 7965   1.147   4.631   6.577
 2356SOL     OW 7966   2.725   4.119   0.565
 2356SOL    HW1 7967   2.669   4.159   0.492
 2356SOL    HW2 7968   2.720   4.019   0.560
 2357SOL     OW 7969   3.874   5.196   4.031
 2357SOL    HW1 7970   3.787   5.158   4.000
 2357SOL    HW2 7971   3.948   5.159   3.976
 2358SOL     OW 7972   2.696   5.108   4.695
 2358SOL    HW1 7973   2.683   5.196   4.649
 2358SOL    HW2 7974   2.662   5.034   4.637
 2359SOL     OW 7975   0.976   1.593   6.034
 2359SOL    HW1 7976   1.072   1.568   6.048
 2359SOL    HW2 7977   0.967   1.646   5.949
 2360SOL     OW 7978   4.955   6.082   5.438
 2360SOL    HW1 7979   5.001   6.008   5.485
 2360SOL    HW2 7980   5.004   6.104   5.353
 2361SOL     OW 7981   2.529   7.008   4.674
 2361SOL    HW1 7982   2.563   6.925   4.630
 2361SOL    HW2 7983   2.431   7.016   4.660
 2362SOL     OW 7984   4.007   6.707   5.139
 2362SOL    HW1 7985   4.007   6.799   5.100
 2362SOL    HW2 7986   3.920   6.691   5.186
 2363SOL     OW 7987   4.778   2.510   4.754
 2363SOL    HW1 7988   4.820   2.452   4.684
 2363SOL    HW2 7989   4.704   2.563   4.713
 2364SOL     OW 7990   0.090   1.935   3.294
 2364SOL    HW1 7991   0.048   1.981   3.373
 2364SOL    HW2 7992   0.033   1.857   3.268
 2365SOL     OW 7993   5.814   3.394   6.105
 2365SOL    HW1 7994   5.743   3.429   6.044
 2365SOL    HW2 7995   5.902   3.436   6.080
 2366SOL     OW 7996   1.432   3.592   5.700
 2366SOL    HW1 7997   1.477   3.603   5.788
 2366SOL    HW2 7998   1.498   3.610   5.627
 2367SOL     OW 7999   2.193   3.725   6.496
 2367SOL    HW1 8000   2.280   3.677   6.505
 2367SOL    HW2 8001   2.193   3.781   6.414
 2368SOL     OW 8002   5.228   1.295   4.444
 2368SOL    HW1 8003   5.324   1.317   4.426
 2368SOL    HW2 8004   5.172   1.377   4.428
 2369SOL     OW 8005   2.084   2.899   4.461
 2369SOL    HW1 8006   1.989   2.928   4.455
 2369SOL    HW2 8007   2.112   2.859   4.374
 2370SOL     OW 8008   4.372   4.266   6.705
 2370SOL    HW1 8009   4.330   4.300   6.789
 2370SOL    HW2 8010   4.458   4.315   6.689
 2371SOL     OW 8011   1.567   5.770   2.383
 2371SOL    HW1 8012   1.597   5.852   2.431
 2371SOL    HW2 8013   1.467   5.764   2.386
 2372SOL     OW 8014   0.853   1.867   0.486
 2372SOL    HW1 8015   0.800   1.951   0.485
 2372SOL    HW2 8016   0.810   1.801   0.547
 2373SOL     OW 8017   5.839   0.553   6.782
 2373SOL    HW1 8018   5.786   0.509   6.854
 2373SOL    HW2 8019   5.907   0.489   6.747
 2374SOL     OW 8020   6.148   6.188   3.657
 2374SOL    HW1 8021   6.122   6.201   3.561
 2374SOL    HW2 8022   6.228   6.245   3.677
 2375SOL     OW 8023   1.050   6.579   3.816
 2375SOL    HW1 8024   1.026   6.546   3.907
 2375SOL    HW2 8025   1.146   6.605   3.814
 2376SOL     OW 8026   6.292   2.685   4.277
 2376SOL    HW1 8027   6.325   2.712   4.368
 2376SOL    HW2 8028   6.198   2.718   4.265
 2377SOL     OW 8029   3.162   3.601   3.832
 2377SOL    HW1 8030   3.078   3.559   3.796
 2377SOL    HW2 8031   3.138   3.668   3.901
 2378SOL     OW 8032   5.178   2.293   6.776
 2378SOL    HW1 8033   5.080   2.278   6.762
 2378SOL    HW2 8034   5.225   2.204   6.779
 2379SOL     OW 8035   6.671   2.970   0.031
 2379SOL    HW1 8036   6.608   3.008   0.099
 2379SOL    HW2 8037   6.623   2.961   6.961
 2380SOL     OW 8038   6.765   0.274   5.813
 2380SOL    HW1 8039   6.800   0.184   5.836
 2380SOL    HW2 8040   6.667   0.269   5.797
 2381SOL     OW 8041   2.062   4.161   4.142
 2381SOL    HW1 8042   2.101   4.102   4.212
 2381SOL    HW2 8043   2.111   4.146   4.055
 2382SOL     OW 8044   2.431   5.339   2.595
 2382SOL    HW1 8045   2.354   5.280   2.618
 2382SOL    HW2 8046   2.482   5.361   2.678
 2383SOL     OW 8047   5.958   6.370   6.891
 2383SOL    HW1 8048   5.867   6.352   6.927
 2383SOL    HW2 8049   5.978   6.305   6.818
 2384SOL     OW 8050   1.751   1.230   1.672
 2384SOL    HW1 8051   1.836   1.187   1.641
 2384SOL    HW2 8052   1.758   1.254   1.769
 2385SOL     OW 8053   6.351   0.386   1.087
 2385SOL    HW1 8054   6.373   0.430   1.174
 2385SOL    HW2 8055   6.260   0.345   1.092
 2386SOL     OW 8056   3.845   4.862   3.933
 2386SOL    HW1 8057   3.903   4.917   3.993
 2386SOL    HW2 8058   3.773   4.817   3.987
 2387SOL     OW 8059   6.760   2.192   4.695
 2387SOL    HW1 8060   6.800   2.261   4.755
 2387SOL    HW2 8061   6.708   2.237   4.622
 2388SOL     OW 8062   1.194   1.987   5.026
 2388SOL    HW1 8063   1.102   1.990   5.066
 2388SOL    HW2 8064   1.238   2.076   5.039
 2389SOL     OW 8065   4.727   4.161   3.707
 2389SOL    HW1 8066   4.729   4.095   3.783
 2389SOL    HW2 8067   4.670   4.239   3.732
 2390SOL     OW 8068   3.641   4.215   4.952
 2390SOL    HW1 8069   3.675   4.132   4.908
 2390SOL    HW2 8070   3.672   4.295   4.900
 2391SOL     OW 8071   3.284   4.424   5.445
 2391SOL    HW1 8072   3.360   4.489   5.456
 2391SOL    HW2 8073   3.302   4.342   5.498
 2392SOL     OW 8074   3.433   5.539   5.378
 2392SOL    HW1 8075   3.374   5.460   5.395
 2392SOL    HW2 8076   3.392   5.621   5.417
 2393SOL     OW 8077   3.718   5.244   1.276
 2393SOL    HW1 8078   3.647   5.243   1.206
 2393SOL    HW2 8079   3.678   5.216   1.364
 2394SOL     OW 8080   1.259   3.727   4.857
 2394SOL    HW1 8081   1.222   3.636   4.871
 2394SOL    HW2 8082   1.358   3.722   4.843
 2395SOL     OW 8083   6.903   2.355   6.569
 2395SOL    HW1 8084   6.900   2.258   6.547
 2395SOL    HW2 8085   6.876   2.369   6.664
 2396SOL     OW 8086   5.718   6.107   1.113
 2396SOL    HW1 8087   5.748   6.131   1.021
 2396SOL    HW2 8088   5.782   6.146   1.180
 2397SOL     OW 8089   6.690   4.738   0.512
 2397SOL    HW1 8090   6.781   4.776   0.522
 2397SOL    HW2 8091   6.692   4.663   0.445
 2398SOL     OW 8092   2.308   4.879   5.777
 2398SOL    HW1 8093   2.295   4.975   5.752
 2398SOL    HW2 8094   2.389   4.843   5.730
 2399SOL     OW 8095   4.358   1.966   2.253
 2399SOL    HW1 8096   4.446   2.014   2.256
 2399SOL    HW2 8097   4.339   1.939   2.158
 2400SOL     OW 8098   3.484   4.424   0.354
 2400SOL    HW1 8099   3.436   4.348   0.313
 2400SOL    HW2 8100   3.421   4.477   0.411
 2401SOL     OW 8101   3.536   0.414   5.468
 2401SOL    HW1 8102   3.510   0.506   5.436
 2401SOL    HW2 8103   3.513   0.405   5.564
 2402SOL     OW 8104   6.810   1.782   4.506
 2402SOL    HW1 8105   6.729   1.782   4.447
 2402SOL    HW2 8106   6.871   1.856   4.479
 2403SOL     OW 8107   2.896   2.840   0.257
 2403SOL    HW1 8108   2.859   2.801   0.341
 2403SOL    HW2 8109   2.827   2.835   0.184
 2404SOL     OW 8110   5.475   1.800   2.095
 2404SOL    HW1 8111   5.504   1.789   2.000
 2404SOL    HW2 8112   5.504   1.721   2.148
 2405SOL     OW 8113   4.072   3.309   5.450
 2405SOL    HW1 8114   3.980   3.349   5.445
 2405SOL    HW2 8115   4.121   3.349   5.528
 2406SOL     OW 8116   2.125   0.571   3.278
 2406SOL    HW1 8117   2.080   0.610   3.358
 2406SOL    HW2 8118   2.061   0.569   3.201
 2407SOL     OW 8119   4.455   2.055   3.192
 2407SOL    HW1 8120   4.409   1.991   3.131
 2407SOL    HW2 8121   4.466   2.012   3.282
 2408SOL     OW 8122   3.334   5.493   2.710
 2408SOL    HW1 8123   3.414   5.443   2.678
 2408SOL    HW2 8124   3.274   5.513   2.632
 2409SOL     OW 8125   2.389   2.603   1.979
 2409SOL    HW1 8126   2.379   2.682   1.918
 2409SOL    HW2 8127   2.309   2.597   2.039
 2410SOL     OW 8128   6.255   2.730   6.182
 2410SOL    HW1 8129   6.197   2.810   6.200
 2410SOL    HW2 8130   6.300   2.741   6.094
 2411SOL     OW 8131   3.659   4.475   5.511
 2411SOL    HW1 8132   3.662   4.564   5.467
 2411SOL    HW2 8133   3.725   4.414   5.467
 2412SOL     OW 8134   2.797   4.013   0.217
 2412SOL    HW1 8135   2.706   4.003   0.177
 2412SOL    HW2 8136   2.856   3.938   0.186
 2413SOL     OW 8137   6.197   3.397   6.737
 2413SOL    HW1 8138   6.164   3.316   6.785
 2413SOL    HW2 8139   6.173   3.391   6.640
 2414SOL     OW 8140   5.893   3.750   2.966
 2414SOL    HW1 8141   5.893   3.708   3.056
 2414SOL    HW2 8142   5.973   3.718   2.914
 2415SOL     OW 8143   1.625   0.456   1.198
 2415SOL    HW1 8144   1.623   0.387   1.270
 2415SOL    HW2 8145   1.565   0.532   1.224
 2416SOL     OW 8146   3.011   1.125   4.810
 2416SOL    HW1 8147   2.938   1.091   4.749
 2416SOL    HW2 8148   3.099   1.094   4.775
 2417SOL     OW 8149   4.683   2.464   0.306
 2417SOL    HW1 8150   4.744   2.401   0.355
 2417SOL    HW2 8151   4.669   2.431   0.213
 2418SOL     OW 8152   3.665   3.658   4.624
 2418SOL    HW1 8153   3.609   3.588   4.667
 2418SOL    HW2 8154   3.745   3.616   4.581
 2419SOL     OW 8155   0.241   6.672   4.585
 2419SOL    HW1 8156   0.194   6.584   4.583
 2419SOL    HW2 8157   0.325   6.664   4.638
 2420SOL     OW 8158   4.184   0.129   2.821
 2420SOL    HW1 8159   4.165   0.061   2.891
 2420SOL    HW2 8160   4.237   0.087   2.746
 2421SOL     OW 8161   2.549   1.028   4.585
 2421SOL    HW1 8162   2.462   1.050   4.543
 2421SOL    HW2 8163   2.622   1.032   4.516
 2422SOL     OW 8164   5.389   0.414   1.083
 2422SOL    HW1 8165   5.363   0.337   1.025
 2422SOL    HW2 8166   5.439   0.380   1.163
 2423SOL     OW 8167   1.096   6.036   2.721
 2423SOL    HW1 8168   1.091   6.066   2.626
 2423SOL    HW2 8169   1.081   6.115   2.781
 2424SOL     OW 8170   5.560   5.756   5.790
 2424SOL    HW1 8171   5.463   5.749   5.764
 2424SOL    HW2 8172   5.568   5.746   5.889
 2425SOL     OW 8173   6.431   6.901   4.397
 2425SOL    HW1 8174   6.417   6.830   4.466
 2425SOL    HW2 8175   6.526   6.900   4.367
 2426SOL     OW 8176   1.190   4.685   4.310
 2426SOL    HW1 8177   1.222   4.645   4.224
 2426SOL    HW2 8178   1.113   4.632   4.345
 2427SOL     OW 8179   5.989   5.288   6.655
 2427SOL    HW1 8180   6.043   5.312   6.575
 2427SOL    HW2 8181   5.992   5.189   6.669
 2428SOL     OW 8182   1.133   0.566   3.651
 2428SOL    HW1 8183   1.033   0.558   3.650
 2428SOL    HW2 8184   1.164   0.582   3.744
 2429SOL     OW 8185   6.646   5.140   3.202
 2429SOL    HW1 8186   6.640   5.060   3.263
 2429SOL    HW2 8187   6.740   5.174   3.203
 2430SOL     OW 8188   5.646   2.873   0.638
 2430SOL    HW1 8189   5.651   2.793   0.578
 2430SOL    HW2 8190   5.654   2.843   0.733
 2431SOL     OW 8191   4.173   0.730   2.142
 2431SOL    HW1 8192   4.193   0.633   2.145
 2431SOL    HW2 8193   4.113   0.749   2.064
 2432SOL     OW 8194   4.463   6.206   3.002
 2432SOL    HW1 8195   4.389   6.142   3.025
 2432SOL    HW2 8196   4.443   6.296   3.040
 2433SOL     OW 8197   2.954   6.779   0.070
 2433SOL    HW1 8198   3.046   6.762   0.105
 2433SOL    HW2 8199   2.888   6.731   0.128
 2434SOL     OW 8200   4.743   1.575   3.594
 2434SOL    HW1 8201   4.811   1.629   3.545
 2434SOL    HW2 8202   4.702   1.508   3.532
 2435SOL     OW 8203   4.391   5.792   0.227
 2435SOL    HW1 8204   4.446   5.816   0.308
 2435SOL    HW2 8205   4.360   5.876   0.182
 2436SOL     OW 8206   2.367   6.888   0.723
 2436SOL    HW1 8207   2.433   6.953   0.761
 2436SOL    HW2 8208   2.347   6.817   0.790
 2437SOL     OW 8209   5.298   5.788   1.281
 2437SOL    HW1 8210   5.367   5.837   1.227
 2437SOL    HW2 8211   5.320   5.691   1.282
 2438SOL     OW 8212   3.793   0.847   5.249
 2438SOL    HW1 8213   3.822   0.760   5.287
 2438SOL    HW2 8214   3.865   0.885   5.191
 2439SOL     OW 8215   1.231   3.876   6.920
 2439SOL    HW1 8216   1.213   3.790   6.968
 2439SOL    HW2 8217   1.324   3.876   6.884
 2440SOL     OW 8218   3.725   6.380   5.283
 2440SOL    HW1 8219   3.662   6.324   5.230
 2440SOL    HW2 8220   3.709   6.365   5.381
 2441SOL     OW 8221   6.275   1.347   0.069
 2441SOL    HW1 8222   6.281   1.440   0.106
 2441SOL    HW2 8223   6.363   1.322   0.028
 2442SOL     OW 8224   5.597   5.754   3.437
 2442SOL    HW1 8225   5.634   5.844   3.417
 2442SOL    HW2 8226   5.657   5.706   3.502
 2443SOL     OW 8227   3.300   0.355   6.375
 2443SOL    HW1 8228   3.260   0.440   6.340
 2443SOL    HW2 8229   3.235   0.280   6.362
 2444SOL     OW 8230   4.110   4.685   6.267
 2444SOL    HW1 8231   4.035   4.627   6.235
 2444SOL    HW2 8232   4.196   4.633   6.265
 2445SOL     OW 8233   6.663   1.148   1.877
 2445SOL    HW1 8234   6.714   1.131   1.961
 2445SOL    HW2 8235   6.686   1.239   1.842
 2446SOL     OW 8236   0.151   3.077   4.322
 2446SOL    HW1 8237   0.110   2.986   4.318
 2446SOL    HW2 8238   0.095   3.141   4.269
 2447SOL     OW 8239   2.913   0.943   1.134
 2447SOL    HW1 8240   2.878   1.035   1.150
 2447SOL    HW2 8241   2.922   0.928   1.035
 2448SOL     OW 8242   6.494   0.955   4.351
 2448SOL    HW1 8243   6.469   0.883   4.416
 2448SOL    HW2 8244   6.506   0.915   4.260
 2449SOL     OW 8245   6.944   4.142   3.067
 2449SOL    HW1 8246   6.970   4.236   3.046
 2449SOL    HW2 8247   6.876   4.142   3.141
 2450SOL     OW 8248   3.632   5.610   5.211
 2450SOL    HW1 8249   3.555   5.582   5.268
 2450SOL    HW2 8250   3.605   5.607   5.115
 2451SOL     OW 8251   0.918   0.764   3.563
 2451SOL    HW1 8252   0.946   0.690   3.502
 2451SOL    HW2 8253   0.899   0.727   3.654
 2452SOL     OW 8254   2.783   1.963   3.418
 2452SOL    HW1 8255   2.693   1.974   3.376
 2452SOL    HW2 8256   2.798   1.867   3.441
 2453SOL     OW 8257   6.548   4.054   0.815
 2453SOL    HW1 8258   6.641   4.068   0.849
 2453SOL    HW2 8259   6.482   4.095   0.879
 2454SOL     OW 8260   3.876   0.973   0.082
 2454SOL    HW1 8261   3.823   0.969   0.167
 2454SOL    HW2 8262   3.964   1.016   0.099
 2455SOL     OW 8263   4.428   0.368   0.597
 2455SOL    HW1 8264   4.369   0.443   0.627
 2455SOL    HW2 8265   4.516   0.406   0.567
 2456SOL     OW 8266   6.144   2.085   0.665
 2456SOL    HW1 8267   6.086   2.008   0.641
 2456SOL    HW2 8268   6.190   2.067   0.752
 2457SOL     OW 8269   6.850   0.139   6.255
 2457SOL    HW1 8270   6.784   0.077   6.296
 2457SOL    HW2 8271   6.880   0.103   6.167
 2458SOL     OW 8272   2.177   5.945   4.243
 2458SOL    HW1 8273   2.211   5.861   4.286
 2458SOL    HW2 8274   2.094   5.924   4.191
 2459SOL     OW 8275   2.404   6.099   6.077
 2459SOL    HW1 8276   2.430   6.068   5.986
 2459SOL    HW2 8277   2.486   6.113   6.132
 2460SOL     OW 8278   2.055   1.287   1.301
 2460SOL    HW1 8279   2.148   1.323   1.309
 2460SOL    HW2 8280   2.055   1.205   1.244
 2461SOL     OW 8281   4.610   1.116   3.074
 2461SOL    HW1 8282   4.653   1.171   3.146
 2461SOL    HW2 8283   4.511   1.121   3.084
 2462SOL     OW 8284   1.962   6.006   0.372
 2462SOL    HW1 8285   2.042   5.991   0.431
 2462SOL    HW2 8286   1.879   5.981   0.421
 2463SOL     OW 8287   6.597   2.066   5.920
 2463SOL    HW1 8288   6.676   2.020   5.960
 2463SOL    HW2 8289   6.613   2.165   5.921
 2464SOL     OW 8290   1.968   3.949   2.236
 2464SOL    HW1 8291   2.020   3.885   2.179
 2464SOL    HW2 8292   1.870   3.931   2.226
 2465SOL     OW 8293   0.602   0.498   1.545
 2465SOL    HW1 8294   0.649   0.586   1.536
 2465SOL    HW2 8295   0.667   0.424   1.531
 2466SOL     OW 8296   2.073   1.987   2.441
 2466SOL    HW1 8297   2.103   1.997   2.347
 2466SOL    HW2 8298   1.974   2.001   2.446
 2467SOL     OW 8299   5.187   1.196   5.207
 2467SOL    HW1 8300   5.113   1.138   5.172
 2467SOL    HW2 8301   5.202   1.273   5.144
 2468SOL     OW 8302   4.692   6.515   1.913
 2468SOL    HW1 8303   4.696   6.419   1.940
 2468SOL    HW2 8304   4.719   6.572   1.991
 2469SOL     OW 8305   4.069   4.191   5.700
 2469SOL    HW1 8306   3.981   4.165   5.660
 2469SOL    HW2 8307   4.078   4.150   5.790
 2470SOL     OW 8308   3.660   4.751   6.057
 2470SOL    HW1 8309   3.591   4.698   6.008
 2470SOL    HW2 8310   3.748   4.745   6.009
 2471SOL     OW 8311   2.933   6.025   0.600
 2471SOL    HW1 8312   2.982   5.970   0.667
 2471SOL    HW2 8313   2.881   5.965   0.539
 2472SOL     OW 8314   5.037   2.316   4.701
 2472SOL    HW1 8315   5.119   2.371   4.721
 2472SOL    HW2 8316   4.979   2.365   4.637
 2473SOL     OW 8317   2.167   3.978   4.760
 2473SOL    HW1 8318   2.102   4.053   4.746
 2473SOL    HW2 8319   2.207   3.986   4.851
 2474SOL     OW 8320   0.946   6.195   0.523
 2474SOL    HW1 8321   0.878   6.151   0.464
 2474SOL    HW2 8322   1.015   6.128   0.550
 2475SOL     OW 8323   4.573   1.498   2.397
 2475SOL    HW1 8324   4.474   1.494   2.391
 2475SOL    HW2 8325   4.607   1.421   2.452
 2476SOL     OW 8326   0.040   1.810   3.616
 2476SOL    HW1 8327   6.980   1.824   3.555
 2476SOL    HW2 8328   0.104   1.886   3.607
 2477SOL     OW 8329   4.947   1.063   2.070
 2477SOL    HW1 8330   5.018   1.132   2.085
 2477SOL    HW2 8331   4.897   1.048   2.155
 2478SOL     OW 8332   6.315   1.300   2.631
 2478SOL    HW1 8333   6.285   1.392   2.605
 2478SOL    HW2 8334   6.248   1.233   2.599
 2479SOL     OW 8335   1.161   3.833   1.665
 2479SOL    HW1 8336   1.247   3.841   1.614
 2479SOL    HW2 8337   1.107   3.758   1.626
 2480SOL     OW 8338   5.623   4.385   0.457
 2480SOL    HW1 8339   5.633   4.295   0.414
 2480SOL    HW2 8340   5.586   4.373   0.549
 2481SOL     OW 8341   2.065   0.774   6.912
 2481SOL    HW1 8342   2.063   0.713   6.832
 2481SOL    HW2 8343   2.087   0.867   6.881
 2482SOL     OW 8344   4.903   3.492   5.791
 2482SOL    HW1 8345   4.982   3.457   5.740
 2482SOL    HW2 8346   4.934   3.534   5.876
 2483SOL     OW 8347   1.768   2.077   6.828
 2483SOL    HW1 8348   1.709   2.041   6.756
 2483SOL    HW2 8349   1.765   2.177   6.826
 2484SOL     OW 8350   3.138   0.747   0.484
 2484SOL    HW1 8351   3.196   0.799   0.546
 2484SOL    HW2 8352   3.055   0.719   0.532
 2485SOL     OW 8353   5.806   3.921   1.395
 2485SOL    HW1 8354   5.798   3.993   1.463
 2485SOL    HW2 8355   5.798   3.832   1.439
 2486SOL     OW 8356   1.824   4.869   4.630
 2486SOL    HW1 8357   1.853   4.788   4.579
 2486SOL    HW2 8358   1.727   4.862   4.652
 2487SOL     OW 8359   3.541   5.864   0.118
 2487SOL    HW1 8360   3.448   5.887   0.093
 2487SOL    HW2 8361   3.587   5.821   0.041
 2488SOL     OW 8362   2.082   4.300   2.022
 2488SOL    HW1 8363   2.032   4.386   2.035
 2488SOL    HW2 8364   2.017   4.229   1.995
 2489SOL     OW 8365   1.300   5.501   2.888
 2489SOL    HW1 8366   1.246   5.564   2.832
 2489SOL    HW2 8367   1.255   5.412   2.890
 2490SOL     OW 8368   6.553   4.954   1.403
 2490SOL    HW1 8369   6.567   4.911   1.493
 2490SOL    HW2 8370   6.525   4.885   1.337
 2491SOL     OW 8371   2.939   5.260   0.981
 2491SOL    HW1 8372   3.001   5.287   0.907
 2491SOL    HW2 8373   2.875   5.191   0.948
 2492SOL     OW 8374   4.509   2.699   0.205
 2492SOL    HW1 8375   4.535   2.617   0.256
 2492SOL    HW2 8376   4.500   2.777   0.268
 2493SOL     OW 8377   6.094   0.843   2.529
 2493SOL    HW1 8378   6.070   0.805   2.618
 2493SOL    HW2 8379   6.158   0.782   2.483
 2494SOL     OW 8380   5.973   4.253   1.815
 2494SOL    HW1 8381   6.068   4.266   1.843
 2494SOL    HW2 8382   5.921   4.216   1.893
 2495SOL     OW 8383   5.051   0.689   4.488
 2495SOL    HW1 8384   4.972   0.737   4.525
 2495SOL    HW2 8385   5.023   0.635   4.409
 2496SOL     OW 8386   0.767   4.385   5.736
 2496SOL    HW1 8387   0.838   4.382   5.806
 2496SOL    HW2 8388   0.749   4.292   5.703
 2497SOL     OW 8389   0.015   0.519   0.957
 2497SOL    HW1 8390   7.011   0.426   0.986
 2497SOL    HW2 8391   6.949   0.575   0.959
 2498SOL     OW 8392   3.269   2.025   4.254
 2498SOL    HW1 8393   3.173   2.001   4.237
 2498SOL    HW2 8394   3.274   2.085   4.334
 2499SOL     OW 8395   5.503   2.069   4.337
 2499SOL    HW1 8396   5.560   1.990   4.313
 2499SOL    HW2 8397   5.539   2.150   4.290
 2500SOL     OW 8398   4.358   3.099   6.958
 2500SOL    HW1 8399   4.394   3.007   6.968
 2500SOL    HW2 8400   4.262   3.101   6.988
 2501SOL     OW 8401   6.125   5.624   0.027
 2501SOL    HW1 8402   6.036   5.664   0.049
 2501SOL    HW2 8403   6.114   5.555   6.973
 2502SOL     OW 8404   2.177   5.709   3.007
 2502SOL    HW1 8405   2.269   5.743   3.025
 2502SOL    HW2 8406   2.110   5.778   3.035
 2503SOL     OW 8407   3.101   5.517   4.719
 2503SOL    HW1 8408   3.111   5.548   4.814
 2503SOL    HW2 8409   3.005   5.496   4.701
 2504SOL     OW 8410   2.898   5.073   4.868
 2504SOL    HW1 8411   2.981   5.084   4.814
 2504SOL    HW2 8412   2.818   5.082   4.809
 2505SOL     OW 8413   1.973   5.861   4.051
 2505SOL    HW1 8414   1.939   5.796   4.119
 2505SOL    HW2 8415   2.038   5.816   3.990
 2506SOL     OW 8416   5.884   2.962   6.667
 2506SOL    HW1 8417   5.859   3.054   6.639
 2506SOL    HW2 8418   5.802   2.913   6.699
 2507SOL     OW 8419   0.800   4.493   0.322
 2507SOL    HW1 8420   0.896   4.515   0.338
 2507SOL    HW2 8421   0.788   4.394   0.326
 2508SOL     OW 8422   2.648   1.388   1.880
 2508SOL    HW1 8423   2.611   1.322   1.815
 2508SOL    HW2 8424   2.746   1.401   1.863
 2509SOL     OW 8425   5.957   2.982   2.742
 2509SOL    HW1 8426   6.033   2.917   2.739
 2509SOL    HW2 8427   5.904   2.975   2.657
 2510SOL     OW 8428   3.362   4.244   1.474
 2510SOL    HW1 8429   3.316   4.155   1.465
 2510SOL    HW2 8430   3.443   4.234   1.532
 2511SOL     OW 8431   2.843   1.231   3.622
 2511SOL    HW1 8432   2.781   1.239   3.544
 2511SOL    HW2 8433   2.938   1.239   3.591
 2512SOL     OW 8434   4.917   4.660   4.581
 2512SOL    HW1 8435   4.912   4.699   4.673
 2512SOL    HW2 8436   4.967   4.722   4.521
 2513SOL     OW 8437   1.377   3.262   4.759
 2513SOL    HW1 8438   1.394   3.357   4.786
 2513SOL    HW2 8439   1.382   3.203   4.839
 2514SOL     OW 8440   6.569   3.611   4.460
 2514SOL    HW1 8441   6.580   3.632   4.557
 2514SOL    HW2 8442   6.492   3.548   4.449
 2515SOL     OW 8443   1.202   6.543   0.684
 2515SOL    HW1 8444   1.167   6.551   0.591
 2515SOL    HW2 8445   1.276   6.609   0.698
 2516SOL     OW 8446   5.741   0.668   3.586
 2516SOL    HW1 8447   5.766   0.574   3.564
 2516SOL    HW2 8448   5.692   0.670   3.674
 2517SOL     OW 8449   0.806   5.166   5.859
 2517SOL    HW1 8450   0.771   5.075   5.837
 2517SOL    HW2 8451   0.747   5.236   5.818
 2518SOL     OW 8452   2.084   3.518   0.052
 2518SOL    HW1 8453   2.052   3.580   6.999
 2518SOL    HW2 8454   2.148   3.452   0.013
 2519SOL     OW 8455   5.119   6.435   3.625
 2519SOL    HW1 8456   5.104   6.416   3.722
 2519SOL    HW2 8457   5.114   6.350   3.573
 2520SOL     OW 8458   1.321   2.768   0.168
 2520SOL    HW1 8459   1.332   2.686   0.224
 2520SOL    HW2 8460   1.238   2.816   0.196
 2521SOL     OW 8461   1.228   5.817   5.638
 2521SOL    HW1 8462   1.309   5.760   5.621
 2521SOL    HW2 8463   1.235   5.901   5.584
 2522SOL     OW 8464   0.198   3.296   5.737
 2522SOL    HW1 8465   0.187   3.390   5.769
 2522SOL    HW2 8466   0.294   3.269   5.748
 2523SOL     OW 8467   0.210   2.867   1.942
 2523SOL    HW1 8468   0.163   2.954   1.954
 2523SOL    HW2 8469   0.303   2.873   1.979
 2524SOL     OW 8470   0.993   5.227   5.324
 2524SOL    HW1 8471   0.955   5.319   5.335
 2524SOL    HW2 8472   1.079   5.232   5.273
 2525SOL     OW 8473   0.417   2.806   4.196
 2525SOL    HW1 8474   0.352   2.744   4.241
 2525SOL    HW2 8475   0.507   2.762   4.193
 2526SOL     OW 8476   1.824   4.319   5.387
 2526SOL    HW1 8477   1.754   4.253   5.357
 2526SOL    HW2 8478   1.884   4.340   5.311
 2527SOL     OW 8479   5.250   6.218   5.158
 2527SOL    HW1 8480   5.165   6.270   5.168
 2527SOL    HW2 8481   5.234   6.123   5.181
 2528SOL     OW 8482   5.728   4.373   0.889
 2528SOL    HW1 8483   5.778   4.289   0.867
 2528SOL    HW2 8484   5.641   4.374   0.840
 2529SOL     OW 8485   6.748   6.261   6.601
 2529SOL    HW1 8486   6.841   6.234   6.624
 2529SOL    HW2 8487   6.732   6.246   6.503
 2530SOL     OW 8488   1.406   6.861   4.604
 2530SOL    HW1 8489   1.500   6.871   4.573
 2530SOL    HW2 8490   1.372   6.770   4.580
 2531SOL     OW 8491   4.795   6.098   4.354
 2531SOL    HW1 8492   4.888   6.136   4.357
 2531SOL    HW2 8493   4.769   6.081   4.259
 2532SOL     OW 8494   1.140   5.789   0.751
 2532SOL    HW1 8495   1.116   5.833   0.664
 2532SOL    HW2 8496   1.079   5.821   0.823
 2533SOL     OW 8497   3.542   0.147   3.184
 2533SOL    HW1 8498   3.631   0.107   3.207
 2533SOL    HW2 8499   3.528   0.142   3.085
 2534SOL     OW 8500   2.745   0.897   2.865
 2534SOL    HW1 8501   2.729   0.905   2.964
 2534SOL    HW2 8502   2.684   0.828   2.827
 2535SOL     OW 8503   2.825   2.777   6.773
 2535SOL    HW1 8504   2.911   2.730   6.752
 2535SOL    HW2 8505   2.748   2.715   6.762
 2536SOL     OW 8506   6.482   1.921   3.782
 2536SOL    HW1 8507   6.578   1.947   3.796
 2536SOL    HW2 8508   6.471   1.823   3.797
 2537SOL     OW 8509   4.907   6.417   6.593
 2537SOL    HW1 8510   4.946   6.464   6.514
 2537SOL    HW2 8511   4.865   6.484   6.654
 2538SOL     OW 8512   1.413   4.174   4.693
 2538SOL    HW1 8513   1.378   4.215   4.776
 2538SOL    HW2 8514   1.367   4.214   4.614
 2539SOL     OW 8515   5.169   0.644   5.951
 2539SOL    HW1 8516   5.113   0.639   5.868
 2539SOL    HW2 8517   5.116   0.608   6.029
 2540SOL     OW 8518   4.249   0.934   2.716
 2540SOL    HW1 8519   4.206   0.854   2.674
 2540SOL    HW2 8520   4.347   0.919   2.722
 2541SOL     OW 8521   2.010   6.493   5.368
 2541SOL    HW1 8522   2.067   6.556   5.315
 2541SOL    HW2 8523   1.917   6.530   5.374
 2542SOL     OW 8524   5.105   1.433   6.212
 2542SOL    HW1 8525   5.059   1.348   6.237
 2542SOL    HW2 8526   5.050   1.511   6.242
 2543SOL     OW 8527   2.263   1.906   2.608
 2543SOL    HW1 8528   2.315   1.844   2.549
 2543SOL    HW2 8529   2.182   1.939   2.558
 2544SOL     OW 8530   0.273   5.046   1.185
 2544SOL    HW1 8531   0.304   4.998   1.103
 2544SOL    HW2 8532   0.235   4.980   1.249
 2545SOL     OW 8533   1.923   0.664   1.080
 2545SOL    HW1 8534   1.966   0.713   1.004
 2545SOL    HW2 8535   1.867   0.590   1.044
 2546SOL     OW 8536   0.024   2.408   1.877
 2546SOL    HW1 8537   0.031   2.436   1.972
 2546SOL    HW2 8538   0.082   2.467   1.821
 2547SOL     OW 8539   6.084   4.569   0.008
 2547SOL    HW1 8540   5.987   4.546   7.016
 2547SOL    HW2 8541   6.116   4.618   6.945
 2548SOL     OW 8542   3.060   6.893   5.484
 2548SOL    HW1 8543   3.007   6.813   5.511
 2548SOL    HW2 8544   3.043   6.967   5.548
 2549SOL     OW 8545   1.875   0.936   1.148
 2549SOL    HW1 8546   1.870   1.006   1.077
 2549SOL    HW2 8547   1.870   0.845   1.106
 2550SOL     OW 8548   0.084   0.421   6.433
 2550SOL    HW1 8549   0.163   0.476   6.460
 2550SOL    HW2 8550   0.092   0.395   6.337
 2551SOL     OW 8551   2.983   5.420   0.145
 2551SOL    HW1 8552   2.955   5.416   0.240
 2551SOL    HW2 8553   2.936   5.349   0.092
 2552SOL     OW 8554   0.922   5.405   6.237
 2552SOL    HW1 8555   0.995   5.393   6.169
 2552SOL    HW2 8556   0.933   5.493   6.282
 2553SOL     OW 8557   3.698   3.712   6.808
 2553SOL    HW1 8558   3.621   3.776   6.818
 2553SOL    HW2 8559   3.681   3.653   6.728
 2554SOL     OW 8560   1.242   5.992   6.790
 2554SOL    HW1 8561   1.174   5.955   6.726
 2554SOL    HW2 8562   1.331   5.951   6.771
 2555SOL     OW 8563   6.523   6.342   5.975
 2555SOL    HW1 8564   6.589   6.418   5.977
 2555SOL    HW2 8565   6.552   6.275   5.906
 2556SOL     OW 8566   3.887   5.770   0.247
 2556SOL    HW1 8567   3.928   5.794   0.335
 2556SOL    HW2 8568   3.951   5.715   0.194
 2557SOL     OW 8569   2.427   2.473   6.352
 2557SOL    HW1 8570   2.489   2.471   6.274
 2557SOL    HW2 8571   2.346   2.416   6.332
 2558SOL     OW 8572   3.932   3.558   5.689
 2558SOL    HW1 8573   4.009   3.498   5.712
 2558SOL    HW2 8574   3.967   3.647   5.661
 2559SOL     OW 8575   6.491   3.394   4.767
 2559SOL    HW1 8576   6.510   3.327   4.695
 2559SOL    HW2 8577   6.416   3.454   4.739
 2560SOL     OW 8578   5.369   3.524   4.311
 2560SOL    HW1 8579   5.425   3.580   4.371
 2560SOL    HW2 8580   5.354   3.572   4.224
 2561SOL     OW 8581   3.066   0.034   3.959
 2561SOL    HW1 8582   3.021   7.014   3.877
 2561SOL    HW2 8583   3.158   7.014   3.966
 2562SOL     OW 8584   2.034   5.588   2.098
 2562SOL    HW1 8585   1.973   5.626   2.168
 2562SOL    HW2 8586   2.032   5.488   2.103
 2563SOL     OW 8587   4.343   1.928   0.190
 2563SOL    HW1 8588   4.310   1.874   0.267
 2563SOL    HW2 8589   4.297   1.899   0.106
 2564SOL     OW 8590   1.018   6.655   6.534
 2564SOL    HW1 8591   1.036   6.746   6.496
 2564SOL    HW2 8592   1.086   6.590   6.499
 2565SOL     OW 8593   7.001   0.597   0.245
 2565SOL    HW1 8594   6.914   0.595   0.295
 2565SOL    HW2 8595   0.047   0.660   0.290
 2566SOL     OW 8596   1.723   6.953   1.050
 2566SOL    HW1 8597   1.635   6.969   1.005
 2566SOL    HW2 8598   1.787   6.912   0.985
 2567SOL     OW 8599   1.282   1.236   1.329
 2567SOL    HW1 8600   1.281   1.246   1.428
 2567SOL    HW2 8601   1.376   1.238   1.296
 2568SOL     OW 8602   3.234   0.084   6.594
 2568SOL    HW1 8603   3.247   7.006   6.622
 2568SOL    HW2 8604   3.199   0.086   6.500
 2569SOL     OW 8605   2.885   0.378   1.893
 2569SOL    HW1 8606   2.881   0.357   1.796
 2569SOL    HW2 8607   2.803   0.344   1.938
 2570SOL     OW 8608   6.176   0.470   0.108
 2570SOL    HW1 8609   6.129   0.538   0.052
 2570SOL    HW2 8610   6.238   0.517   0.171
 2571SOL     OW 8611   2.169   3.668   5.487
 2571SOL    HW1 8612   2.240   3.724   5.443
 2571SOL    HW2 8613   2.208   3.579   5.509
 2572SOL     OW 8614   2.183   6.005   0.722
 2572SOL    HW1 8615   2.220   6.088   0.680
 2572SOL    HW2 8616   2.120   6.031   0.795
 2573SOL     OW 8617   6.540   1.702   2.386
 2573SOL    HW1 8618   6.592   1.640   2.326
 2573SOL    HW2 8619   6.551   1.796   2.353
 2574SOL     OW 8620   6.455   3.330   6.808
 2574SOL    HW1 8621   6.444   3.320   6.907
 2574SOL    HW2 8622   6.374   3.376   6.771
 2575SOL     OW 8623   4.892   5.296   0.265
 2575SOL    HW1 8624   4.971   5.304   0.326
 2575SOL    HW2 8625   4.809   5.320   0.315
 2576SOL     OW 8626   4.272   6.821   4.428
 2576SOL    HW1 8627   4.254   6.851   4.334
 2576SOL    HW2 8628   4.371   6.812   4.441
 2577SOL     OW 8629   4.182   6.489   2.287
 2577SOL    HW1 8630   4.104   6.551   2.297
 2577SOL    HW2 8631   4.251   6.531   2.228
 2578SOL     OW 8632   4.749   2.164   4.552
 2578SOL    HW1 8633   4.714   2.130   4.465
 2578SOL    HW2 8634   4.823   2.104   4.584
 2579SOL     OW 8635   0.996   0.538   3.138
 2579SOL    HW1 8636   1.026   0.444   3.119
 2579SOL    HW2 8637   0.975   0.584   3.052
 2580SOL     OW 8638   2.439   2.562   6.853
 2580SOL    HW1 8639   2.474   2.485   6.905
 2580SOL    HW2 8640   2.346   2.584   6.882
 2581SOL     OW 8641   6.736   4.333   1.029
 2581SOL    HW1 8642   6.676   4.294   1.099
 2581SOL    HW2 8643   6.804   4.264   1.002
 2582SOL     OW 8644   0.763   4.289   2.066
 2582SOL    HW1 8645   0.726   4.215   2.011
 2582SOL    HW2 8646   0.857   4.267   2.094
 2583SOL     OW 8647   0.500   1.774   1.084
 2583SOL    HW1 8648   0.459   1.817   1.165
 2583SOL    HW2 8649   0.467   1.818   1.001
 2584SOL     OW 8650   4.057   5.603   0.114
 2584SOL    HW1 8651   4.067   5.599   0.014
 2584SOL    HW2 8652   4.122   5.541   0.157
 2585SOL     OW 8653   4.040   2.251   0.948
 2585SOL    HW1 8654   4.041   2.350   0.964
 2585SOL    HW2 8655   4.112   2.228   0.883
 2586SOL     OW 8656   3.421   1.536   3.786
 2586SOL    HW1 8657   3.403   1.541   3.885
 2586SOL    HW2 8658   3.402   1.443   3.754
 2587SOL     OW 8659   0.036   0.697   3.675
 2587SOL    HW1 8660   0.049   0.598   3.663
 2587SOL    HW2 8661   6.956   0.718   3.673
 2588SOL     OW 8662   4.850   0.120   6.928
 2588SOL    HW1 8663   4.842   0.210   6.885
 2588SOL    HW2 8664   4.766   0.099   6.978
 2589SOL     OW 8665   0.490   5.945   6.245
 2589SOL    HW1 8666   0.423   6.003   6.290
 2589SOL    HW2 8667   0.467   5.849   6.259
 2590SOL     OW 8668   3.389   6.158   1.828
 2590SOL    HW1 8669   3.461   6.089   1.834
 2590SOL    HW2 8670   3.302   6.113   1.811
 2591SOL     OW 8671   6.781   5.738   1.974
 2591SOL    HW1 8672   6.820   5.824   2.009
 2591SOL    HW2 8673   6.856   5.676   1.949
 2592SOL     OW 8674   3.346   6.314   1.231
 2592SOL    HW1 8675   3.375   6.395   1.181
 2592SOL    HW2 8676   3.422   6.249   1.238
 2593SOL     OW 8677   2.751   5.899   1.023
 2593SOL    HW1 8678   2.665   5.847   1.024
 2593SOL    HW2 8679   2.778   5.921   1.117
 2594SOL     OW 8680   0.456   5.821   5.789
 2594SOL    HW1 8681   0.488   5.914   5.806
 2594SOL    HW2 8682   0.467   5.766   5.872
 2595SOL     OW 8683   6.314   1.528   4.795
 2595SOL    HW1 8684   6.306   1.467   4.716
 2595SOL    HW2 8685   6.350   1.616   4.765
 2596SOL     OW 8686   3.775   1.897   1.739
 2596SOL    HW1 8687   3.724   1.975   1.703
 2596SOL    HW2 8688   3.831   1.857   1.665
 2597SOL     OW 8689   1.483   3.994   6.463
 2597SOL    HW1 8690   1.535   3.928   6.517
 2597SOL    HW2 8691   1.518   3.993   6.369
 2598SOL     OW 8692   6.160   1.385   4.334
 2598SOL    HW1 8693   6.085   1.351   4.277
 2598SOL    HW2 8694   6.246   1.347   4.301
 2599SOL     OW 8695   2.729   0.045   0.628
 2599SOL    HW1 8696   2.789   0.124   0.614
 2599SOL    HW2 8697   2.661   0.066   0.697
 2600SOL     OW 8698   4.926   3.163   4.087
 2600SOL    HW1 8699   5.011   3.197   4.126
 2600SOL    HW2 8700   4.874   3.115   4.158
 2601SOL     OW 8701   1.853   2.201   0.083
 2601SOL    HW1 8702   1.863   2.109   0.121
 2601SOL    HW2 8703   1.890   2.203   7.007
 2602SOL     OW 8704   6.608   4.890   4.074
 2602SOL    HW1 8705   6.551   4.942   4.009
 2602SOL    HW2 8706   6.701   4.885   4.039
 2603SOL     OW 8707   2.124   1.806   1.658
 2603SOL    HW1 8708   2.028   1.825   1.638
 2603SOL    HW2 8709   2.134   1.709   1.684
 2604SOL     OW 8710   4.959   1.341   2.840
 2604SOL    HW1 8711   5.052   1.319   2.867
 2604SOL    HW2 8712   4.898   1.267   2.867
 2605SOL     OW 8713   2.394   4.349   2.855
 2605SOL    HW1 8714   2.431   4.424   2.910
 2605SOL    HW2 8715   2.351   4.387   2.773
 2606SOL     OW 8716   6.937   4.672   1.401
 2606SOL    HW1 8717   6.852   4.618   1.400
 2606SOL    HW2 8718   6.952   4.708   1.494
 2607SOL     OW 8719   6.851   1.140   0.136
 2607SOL    HW1 8720   6.824   1.234   0.120
 2607SOL    HW2 8721   6.938   1.138   0.185
 2608SOL     OW 8722   4.958   4.641   1.505
 2608SOL    HW1 8723   4.895   4.590   1.445
 2608SOL    HW2 8724   5.043   4.659   1.456
 2609SOL     OW 8725   6.939   1.798   1.404
 2609SOL    HW1 8726   0.003   1.769   1.353
 2609SOL    HW2 8727   6.870   1.725   1.401
 2610SOL     OW 8728   0.171   4.842   4.461
 2610SOL    HW1 8729   0.146   4.930   4.420
 2610SOL    HW2 8730   0.271   4.838   4.473
 2611SOL     OW 8731   4.660   6.216   0.721
 2611SOL    HW1 8732   4.612   6.187   0.638
 2611SOL    HW2 8733   4.615   6.177   0.801
 2612SOL     OW 8734   6.586   0.200   5.496
 2612SOL    HW1 8735   6.665   0.146   5.468
 2612SOL    HW2 8736   6.518   0.140   5.540
 2613SOL     OW 8737   2.842   6.964   6.894
 2613SOL    HW1 8738   2.820   0.001   6.975
 2613SOL    HW2 8739   2.872   6.873   6.922
 2614SOL     OW 8740   6.982   0.680   6.078
 2614SOL    HW1 8741   7.017   0.710   6.167
 2614SOL    HW2 8742   6.931   0.754   6.035
 2615SOL     OW 8743   0.049   2.855   2.991
 2615SOL    HW1 8744   6.984   2.878   2.940
 2615SOL    HW2 8745   0.099   2.783   2.943
 2616SOL     OW 8746   3.933   3.104   5.108
 2616SOL    HW1 8747   4.028   3.129   5.091
 2616SOL    HW2 8748   3.891   3.173   5.167
 2617SOL     OW 8749   3.426   6.560   1.083
 2617SOL    HW1 8750   3.524   6.540   1.087
 2617SOL    HW2 8751   3.405   6.605   0.996
 2618SOL     OW 8752   0.271   0.251   4.148
 2618SOL    HW1 8753   0.342   0.217   4.086
 2618SOL    HW2 8754   0.197   0.292   4.094
 2619SOL     OW 8755   4.090   1.541   3.196
 2619SOL    HW1 8756   4.058   1.594   3.118
 2619SOL    HW2 8757   4.100   1.602   3.275
 2620SOL     OW 8758   0.199   6.831   2.987
 2620SOL    HW1 8759   0.215   6.914   3.041
 2620SOL    HW2 8760   0.101   6.819   2.971
 2621SOL     OW 8761   1.237   6.024   3.280
 2621SOL    HW1 8762   1.252   6.087   3.356
 2621SOL    HW2 8763   1.139   6.014   3.264
 2622SOL     OW 8764   1.950   2.944   5.865
 2622SOL    HW1 8765   2.000   2.859   5.877
 2622SOL    HW2 8766   1.858   2.934   5.905
 2623SOL     OW 8767   2.280   1.709   5.495
 2623SOL    HW1 8768   2.369   1.699   5.452
 2623SOL    HW2 8769   2.213   1.737   5.427
 2624SOL     OW 8770   6.804   2.055   5.561
 2624SOL    HW1 8771   6.720   2.003   5.572
 2624SOL    HW2 8772   6.883   1.993   5.562
 2625SOL     OW 8773   2.380   2.394   5.260
 2625SOL    HW1 8774   2.325   2.379   5.342
 2625SOL    HW2 8775   2.326   2.444   5.192
 2626SOL     OW 8776   0.445   6.962   5.918
 2626SOL    HW1 8777   0.460   0.012   5.845
 2626SOL    HW2 8778   0.528   6.909   5.932
 2627SOL     OW 8779   1.619   1.386   5.562
 2627SOL    HW1 8780   1.579   1.431   5.483
 2627SOL    HW2 8781   1.667   1.454   5.618
 2628SOL     OW 8782   2.335   5.039   6.253
 2628SOL    HW1 8783   2.298   5.088   6.174
 2628SOL    HW2 8784   2.367   4.949   6.224
 2629SOL     OW 8785   2.738   3.238   1.298
 2629SOL    HW1 8786   2.738   3.157   1.239
 2629SOL    HW2 8787   2.779   3.213   1.386
 2630SOL     OW 8788   2.844   1.887   2.565
 2630SOL    HW1 8789   2.893   1.967   2.600
 2630SOL    HW2 8790   2.746   1.906   2.563
 2631SOL     OW 8791   5.618   0.686   5.508
 2631SOL    HW1 8792   5.636   0.778   5.474
 2631SOL    HW2 8793   5.703   0.633   5.511
 2632SOL     OW 8794   4.079   2.768   6.358
 2632SOL    HW1 8795   4.057   2.671   6.351
 2632SOL    HW2 8796   4.059   2.812   6.270
 2633SOL     OW 8797   0.041   1.109   4.439
 2633SOL    HW1 8798   6.992   1.037   4.456
 2633SOL    HW2 8799   0.103   1.116   4.518
 2634SOL     OW 8800   0.898   4.652   3.330
 2634SOL    HW1 8801   0.995   4.645   3.309
 2634SOL    HW2 8802   0.880   4.739   3.377
 2635SOL     OW 8803   6.106   6.406   5.387
 2635SOL    HW1 8804   6.084   6.496   5.427
 2635SOL    HW2 8805   6.205   6.395   5.383
 2636SOL     OW 8806   4.362   0.551   5.320
 2636SOL    HW1 8807   4.395   0.643   5.343
 2636SOL    HW2 8808   4.277   0.559   5.267
 2637SOL     OW 8809   4.977   1.689   3.900
 2637SOL    HW1 8810   4.979   1.591   3.917
 2637SOL    HW2 8811   4.898   1.712   3.843
 2638SOL     OW 8812   6.748   0.488   3.215
 2638SOL    HW1 8813   6.751   0.389   3.203
 2638SOL    HW2 8814   6.653   0.520   3.205
 2639SOL     OW 8815   0.698   6.487   0.943
 2639SOL    HW1 8816   0.710   6.469   0.845
 2639SOL    HW2 8817   0.600   6.495   0.964
 2640SOL     OW 8818   0.510   5.640   5.257
 2640SOL    HW1 8819   0.503   5.664   5.354
 2640SOL    HW2 8820   0.501   5.723   5.202
 2641SOL     OW 8821   5.136   3.225   2.579
 2641SOL    HW1 8822   5.192   3.278   2.642
 2641SOL    HW2 8823   5.039   3.235   2.604
 2642SOL     OW 8824   4.227   6.714   3.891
 2642SOL    HW1 8825   4.166   6.786   3.857
 2642SOL    HW2 8826   4.189   6.625   3.867
 2643SOL     OW 8827   0.166   4.060   3.181
 2643SOL    HW1 8828   0.084   4.095   3.135
 2643SOL    HW2 8829   0.214   4.136   3.226
 2644SOL     OW 8830   6.017   6.010   5.682
 2644SOL    HW1 8831   6.082   5.978   5.613
 2644SOL    HW2 8832   5.969   5.932   5.722
 2645SOL     OW 8833   4.545   5.632   4.674
 2645SOL    HW1 8834   4.612   5.562   4.648
 2645SOL    HW2 8835   4.555   5.711   4.614
 2646SOL     OW 8836   6.141   0.663   6.723
 2646SOL    HW1 8837   6.168   0.703   6.811
 2646SOL    HW2 8838   6.139   0.563   6.730
 2647SOL     OW 8839   6.703   6.934   2.372
 2647SOL    HW1 8840   6.638   6.872   2.415
 2647SOL    HW2 8841   6.700   0.006   2.417
 2648SOL     OW 8842   0.757   0.095   4.099
 2648SOL    HW1 8843   0.753   7.013   4.107
 2648SOL    HW2 8844   0.838   0.122   4.048
 2649SOL     OW 8845   5.393   3.098   0.064
 2649SOL    HW1 8846   5.307   3.147   0.077
 2649SOL    HW2 8847   5.384   3.004   0.099
 2650SOL     OW 8848   1.209   4.314   4.502
 2650SOL    HW1 8849   1.152   4.371   4.560
 2650SOL    HW2 8850   1.160   4.294   4.417
 2651SOL     OW 8851   1.051   0.950   0.359
 2651SOL    HW1 8852   1.047   0.963   0.260
 2651SOL    HW2 8853   1.039   0.854   0.381
 2652SOL     OW 8854   3.907   3.881   4.239
 2652SOL    HW1 8855   3.860   3.967   4.253
 2652SOL    HW2 8856   3.942   3.877   4.145
 2653SOL     OW 8857   4.909   0.039   5.236
 2653SOL    HW1 8858   4.913   0.061   5.333
 2653SOL    HW2 8859   4.819   0.065   5.200
 2654SOL     OW 8860   4.764   6.216   2.040
 2654SOL    HW1 8861   4.729   6.151   2.108
 2654SOL    HW2 8862   4.852   6.252   2.070
 2655SOL     OW 8863   4.679   6.367   4.284
 2655SOL    HW1 8864   4.678   6.414   4.373
 2655SOL    HW2 8865   4.604   6.301   4.281
 2656SOL     OW 8866   3.366   4.930   4.211
 2656SOL    HW1 8867   3.279   4.885   4.229
 2656SOL    HW2 8868   3.393   4.984   4.291
 2657SOL     OW 8869   1.079   3.816   6.226
 2657SOL    HW1 8870   0.984   3.848   6.218
 2657SOL    HW2 8871   1.107   3.819   6.321
 2658SOL     OW 8872   4.980   4.316   0.745
 2658SOL    HW1 8873   4.986   4.342   0.648
 2658SOL    HW2 8874   4.899   4.359   0.785
 2659SOL     OW 8875   5.405   3.141   4.172
 2659SOL    HW1 8876   5.483   3.123   4.232
 2659SOL    HW2 8877   5.365   3.054   4.142
 2660SOL     OW 8878   1.640   0.276   1.410
 2660SOL    HW1 8879   1.685   0.199   1.365
 2660SOL    HW2 8880   1.542   0.258   1.419
 2661SOL     OW 8881   2.741   6.770   0.965
 2661SOL    HW1 8882   2.691   6.717   0.896
 2661SOL    HW2 8883   2.839   6.764   0.947
 2662SOL     OW 8884   4.917   6.844   4.856
 2662SOL    HW1 8885   4.959   6.794   4.931
 2662SOL    HW2 8886   4.818   6.831   4.858
 2663SOL     OW 8887   3.133   3.834   6.934
 2663SOL    HW1 8888   3.187   3.750   6.928
 2663SOL    HW2 8889   3.049   3.824   6.881
 2664SOL     OW 8890   4.317   4.222   5.503
 2664SOL    HW1 8891   4.294   4.230   5.600
 2664SOL    HW2 8892   4.370   4.137   5.489
 2665SOL     OW 8893   2.502   2.788   5.248
 2665SOL    HW1 8894   2.434   2.741   5.192
 2665SOL    HW2 8895   2.505   2.884   5.223
 2666SOL     OW 8896   5.631   4.467   1.343
 2666SOL    HW1 8897   5.707   4.482   1.280
 2666SOL    HW2 8898   5.556   4.530   1.320
 2667SOL     OW 8899   0.508   6.717   3.776
 2667SOL    HW1 8900   0.530   6.789   3.711
 2667SOL    HW2 8901   0.583   6.650   3.780
 2668SOL     OW 8902   0.014   3.139   4.626
 2668SOL    HW1 8903   6.998   3.097   4.542
 2668SOL    HW2 8904   0.098   3.190   4.607
 2669SOL     OW 8905   2.740   4.459   5.371
 2669SOL    HW1 8906   2.795   4.484   5.292
 2669SOL    HW2 8907   2.787   4.488   5.455
 2670SOL     OW 8908   6.147   3.412   6.465
 2670SOL    HW1 8909   6.117   3.500   6.427
 2670SOL    HW2 8910   6.206   3.366   6.399
 2671SOL     OW 8911   4.459   5.488   5.752
 2671SOL    HW1 8912   4.422   5.499   5.844
 2671SOL    HW2 8913   4.539   5.547   5.741
 2672SOL     OW 8914   1.605   5.172   1.059
 2672SOL    HW1 8915   1.522   5.226   1.072
 2672SOL    HW2 8916   1.676   5.203   1.123
 2673SOL     OW 8917   6.112   0.694   3.525
 2673SOL    HW1 8918   6.073   0.619   3.579
 2673SOL    HW2 8919   6.043   0.727   3.460
 2674SOL     OW 8920   1.531   4.532   3.570
 2674SOL    HW1 8921   1.466   4.551   3.497
 2674SOL    HW2 8922   1.494   4.462   3.631
 2675SOL     OW 8923   6.714   5.428   3.492
 2675SOL    HW1 8924   6.705   5.525   3.512
 2675SOL    HW2 8925   6.629   5.394   3.451
 2676SOL     OW 8926   3.961   2.748   0.581
 2676SOL    HW1 8927   3.935   2.764   0.486
 2676SOL    HW2 8928   4.049   2.701   0.583
 2677SOL     OW 8929   3.005   3.425   0.336
 2677SOL    HW1 8930   3.086   3.446   0.390
 2677SOL    HW2 8931   2.974   3.332   0.357
 2678SOL     OW 8932   0.497   2.805   1.490
 2678SOL    HW1 8933   0.413   2.815   1.436
 2678SOL    HW2 8934   0.571   2.859   1.448
 2679SOL     OW 8935   3.450   4.745   0.934
 2679SOL    HW1 8936   3.482   4.839   0.936
 2679SOL    HW2 8937   3.477   4.703   0.847
 2680SOL     OW 8938   0.932   1.609   0.706
 2680SOL    HW1 8939   0.845   1.650   0.680
 2680SOL    HW2 8940   0.921   1.560   0.793
 2681SOL     OW 8941   1.352   2.618   4.101
 2681SOL    HW1 8942   1.398   2.552   4.042
 2681SOL    HW2 8943   1.282   2.666   4.049
 2682SOL     OW 8944   4.812   3.979   2.630
 2682SOL    HW1 8945   4.788   3.931   2.714
 2682SOL    HW2 8946   4.808   3.915   2.553
 2683SOL     OW 8947   2.698   4.997   1.535
 2683SOL    HW1 8948   2.723   4.906   1.501
 2683SOL    HW2 8949   2.713   5.001   1.633
 2684SOL     OW 8950   4.335   5.698   1.360
 2684SOL    HW1 8951   4.288   5.732   1.279
 2684SOL    HW2 8952   4.391   5.618   1.336
 2685SOL     OW 8953   6.243   6.440   6.502
 2685SOL    HW1 8954   6.165   6.500   6.519
 2685SOL    HW2 8955   6.278   6.455   6.410
 2686SOL     OW 8956   1.886   1.923   5.703
 2686SOL    HW1 8957   1.984   1.938   5.692
 2686SOL    HW2 8958   1.835   2.001   5.666
 2687SOL     OW 8959   4.926   4.417   2.220
 2687SOL    HW1 8960   4.859   4.346   2.199
 2687SOL    HW2 8961   4.884   4.488   2.276
 2688SOL     OW 8962   3.892   4.156   6.989
 2688SOL    HW1 8963   3.882   4.223   6.915
 2688SOL    HW2 8964   3.827   4.175   0.044
 2689SOL     OW 8965   1.729   4.075   3.279
 2689SOL    HW1 8966   1.644   4.035   3.311
 2689SOL    HW2 8967   1.795   4.003   3.261
 2690SOL     OW 8968   3.294   3.400   3.966
 2690SOL    HW1 8969   3.227   3.327   3.981
 2690SOL    HW2 8970   3.252   3.475   3.915
 2691SOL     OW 8971   1.516   5.444   2.310
 2691SOL    HW1 8972   1.582   5.508   2.349
 2691SOL    HW2 8973   1.507   5.461   2.212
 2692SOL     OW 8974   3.360   5.418   2.979
 2692SOL    HW1 8975   3.337   5.457   2.889
 2692SOL    HW2 8976   3.425   5.343   2.967
 2693SOL     OW 8977   2.286   5.375   2.960
 2693SOL    HW1 8978   2.385   5.393   2.952
 2693SOL    HW2 8979   2.256   5.393   3.053
 2694SOL     OW 8980   3.870   6.232   3.023
 2694SOL    HW1 8981   3.952   6.216   2.968
 2694SOL    HW2 8982   3.791   6.195   2.975
 2695SOL     OW 8983   5.421   0.419   2.688
 2695SOL    HW1 8984   5.413   0.365   2.604
 2695SOL    HW2 8985   5.454   0.510   2.666
 2696SOL     OW 8986   3.793   3.614   5.194
 2696SOL    HW1 8987   3.772   3.712   5.190
 2696SOL    HW2 8988   3.738   3.565   5.127
 2697SOL     OW 8989   3.171   1.713   2.734
 2697SOL    HW1 8990   3.087   1.681   2.691
 2697SOL    HW2 8991   3.149   1.780   2.805
 2698SOL     OW 8992   2.237   6.480   0.096
 2698SOL    HW1 8993   2.257   6.567   0.140
 2698SOL    HW2 8994   2.208   6.414   0.165
 2699SOL     OW 8995   2.856   6.888   0.375
 2699SOL    HW1 8996   2.768   6.854   0.409
 2699SOL    HW2 8997   2.928   6.822   0.396
 2700SOL     OW 8998   2.350   3.817   0.202
 2700SOL    HW1 8999   2.304   3.850   0.119
 2700SOL    HW2 9000   2.319   3.724   0.222
 2701SOL     OW 9001   5.471   1.494   5.946
 2701SOL    HW1 9002   5.502   1.560   5.877
 2701SOL    HW2 9003   5.480   1.401   5.909
 2702SOL     OW 9004   0.623   3.051   3.738
 2702SOL    HW1 9005   0.711   3.100   3.739
 2702SOL    HW2 9006   0.619   2.990   3.817
 2703SOL     OW 9007   1.480   0.088   1.208
 2703SOL    HW1 9008   1.555   0.030   1.177
 2703SOL    HW2 9009   1.428   0.041   1.278
 2704SOL     OW 9010   6.991   5.701   1.429
 2704SOL    HW1 9011   6.949   5.636   1.492
 2704SOL    HW2 9012   0.066   5.670   1.406
 2705SOL     OW 9013   6.852   5.653   4.564
 2705SOL    HW1 9014   6.858   5.717   4.641
 2705SOL    HW2 9015   6.914   5.682   4.491
 2706SOL     OW 9016   0.537   6.280   1.905
 2706SOL    HW1 9017   0.583   6.192   1.914
 2706SOL    HW2 9018   0.458   6.270   1.844
 2707SOL     OW 9019   3.957   6.762   4.119
 2707SOL    HW1 9020   3.917   6.683   4.073
 2707SOL    HW2 9021   3.911   6.846   4.089
 2708SOL     OW 9022   0.282   2.360   0.016
 2708SOL    HW1 9023   0.294   2.296   0.092
 2708SOL    HW2 9024   0.349   2.341   6.962
 2709SOL     OW 9025   6.206   7.007   0.073
 2709SOL    HW1 9026   6.145   0.058   0.113
 2709SOL    HW2 9027   6.190   6.919   0.116
 2710SOL     OW 9028   1.345   3.826   3.664
 2710SOL    HW1 9029   1.329   3.788   3.755
 2710SOL    HW2 9030   1.294   3.772   3.596
 2711SOL     OW 9031   2.521   0.777   3.563
 2711SOL    HW1 9032   2.580   0.854   3.538
 2711SOL    HW2 9033   2.569   0.718   3.628
 2712SOL     OW 9034   2.862   4.545   0.989
 2712SOL    HW1 9035   2.961   4.540   0.976
 2712SOL    HW2 9036   2.826   4.455   1.011
 2713SOL     OW 9037   2.593   2.489   4.651
 2713SOL    HW1 9038   2.506   2.528   4.623
 2713SOL    HW2 9039   2.605   2.501   4.749
 2714SOL     OW 9040   3.470   2.248   0.674
 2714SOL    HW1 9041   3.373   2.275   0.674
 2714SOL    HW2 9042   3.508   2.260   0.582
 2715SOL     OW 9043   4.897   1.915   0.987
 2715SOL    HW1 9044   4.994   1.890   0.977
 2715SOL    HW2 9045   4.856   1.858   1.058
 2716SOL     OW 9046   5.165   4.057   2.221
 2716SOL    HW1 9047   5.166   4.136   2.283
 2716SOL    HW2 9048   5.072   4.044   2.186
 2717SOL     OW 9049   0.967   6.373   2.619
 2717SOL    HW1 9050   0.912   6.303   2.667
 2717SOL    HW2 9051   0.936   6.464   2.647
 2718SOL     OW 9052   2.087   2.160   4.838
 2718SOL    HW1 9053   2.058   2.165   4.743
 2718SOL    HW2 9054   2.094   2.064   4.866
 2719SOL     OW 9055   6.970   5.418   1.057
 2719SOL    HW1 9056   6.902   5.480   1.096
 2719SOL    HW2 9057   6.923   5.338   1.018
 2720SOL     OW 9058   2.070   6.375   1.915
 2720SOL    HW1 9059   2.070   6.277   1.939
 2720SOL    HW2 9060   2.068   6.430   1.998
 2721SOL     OW 9061   2.531   0.134   3.253
 2721SOL    HW1 9062   2.584   0.217   3.270
 2721SOL    HW2 9063   2.575   0.081   3.181
 2722SOL     OW 9064   0.079   5.575   0.829
 2722SOL    HW1 9065   0.046   5.501   0.888
 2722SOL    HW2 9066   0.044   5.662   0.863
 2723SOL     OW 9067   0.499   6.875   6.272
 2723SOL    HW1 9068   0.531   6.893   6.365
 2723SOL    HW2 9069   0.572   6.896   6.207
 2724SOL     OW 9070   1.873   6.685   0.080
 2724SOL    HW1 9071   1.929   6.750   0.028
 2724SOL    HW2 9072   1.930   6.633   0.143
 2725SOL     OW 9073   5.181   5.455   4.394
 2725SOL    HW1 9074   5.223   5.462   4.484
 2725SOL    HW2 9075   5.214   5.530   4.336
 2726SOL     OW 9076   0.041   2.531   1.010
 2726SOL    HW1 9077   0.020   2.477   1.092
 2726SOL    HW2 9078   0.082   2.618   1.038
 2727SOL     OW 9079   0.303   5.203   2.976
 2727SOL    HW1 9080   0.364   5.189   2.898
 2727SOL    HW2 9081   0.342   5.158   3.057
 2728SOL     OW 9082   4.744   6.582   5.834
 2728SOL    HW1 9083   4.745   6.495   5.883
 2728SOL    HW2 9084   4.650   6.614   5.824
 2729SOL     OW 9085   7.010   5.839   0.922
 2729SOL    HW1 9086   0.002   5.911   0.854
 2729SOL    HW2 9087   6.918   5.842   0.962
 2730SOL     OW 9088   1.508   5.661   1.692
 2730SOL    HW1 9089   1.518   5.760   1.685
 2730SOL    HW2 9090   1.548   5.618   1.611
 2731SOL     OW 9091   3.906   3.732   3.126
 2731SOL    HW1 9092   3.894   3.830   3.142
 2731SOL    HW2 9093   4.001   3.714   3.099
 2732SOL     OW 9094   5.531   2.285   1.599
 2732SOL    HW1 9095   5.569   2.257   1.510
 2732SOL    HW2 9096   5.488   2.207   1.642
 2733SOL     OW 9097   6.753   0.751   4.791
 2733SOL    HW1 9098   6.835   0.802   4.815
 2733SOL    HW2 9099   6.686   0.759   4.865
 2734SOL     OW 9100   2.860   5.830   1.260
 2734SOL    HW1 9101   2.854   5.738   1.299
 2734SOL    HW2 9102   2.898   5.893   1.328
 2735SOL     OW 9103   1.321   3.444   2.531
 2735SOL    HW1 9104   1.339   3.348   2.554
 2735SOL    HW2 9105   1.393   3.502   2.570
 2736SOL     OW 9106   4.710   6.805   5.486
 2736SOL    HW1 9107   4.713   6.789   5.388
 2736SOL    HW2 9108   4.640   6.747   5.528
 2737SOL     OW 9109   3.383   3.804   6.257
 2737SOL    HW1 9110   3.346   3.823   6.348
 2737SOL    HW2 9111   3.373   3.706   6.237
 2738SOL     OW 9112   4.983   6.209   2.385
 2738SOL    HW1 9113   4.888   6.241   2.393
 2738SOL    HW2 9114   5.027   6.215   2.475
 2739SOL     OW 9115   6.753   5.292   1.538
 2739SOL    HW1 9116   6.654   5.299   1.545
 2739SOL    HW2 9117   6.783   5.203   1.573
 2740SOL     OW 9118   6.878   3.846   2.401
 2740SOL    HW1 9119   6.913   3.940   2.406
 2740SOL    HW2 9120   6.885   3.814   2.306
 2741SOL     OW 9121   6.364   0.325   4.774
 2741SOL    HW1 9122   6.290   0.363   4.829
 2741SOL    HW2 9123   6.432   0.397   4.756
 2742SOL     OW 9124   2.528   5.386   6.665
 2742SOL    HW1 9125   2.489   5.294   6.669
 2742SOL    HW2 9126   2.581   5.395   6.580
 2743SOL     OW 9127   6.836   5.078   1.918
 2743SOL    HW1 9128   6.881   5.024   1.989
 2743SOL    HW2 9129   6.837   5.175   1.944
 2744SOL     OW 9130   5.288   2.056   6.408
 2744SOL    HW1 9131   5.304   1.986   6.339
 2744SOL    HW2 9132   5.360   2.125   6.404
 2745SOL     OW 9133   6.929   6.802   5.915
 2745SOL    HW1 9134   6.890   6.779   5.826
 2745SOL    HW2 9135   6.921   6.724   5.977
 2746SOL     OW 9136   2.657   2.072   3.683
 2746SOL    HW1 9137   2.578   2.115   3.728
 2746SOL    HW2 9138   2.698   2.137   3.619
 2747SOL     OW 9139   6.252   3.814   6.493
 2747SOL    HW1 9140   6.336   3.760   6.499
 2747SOL    HW2 9141   6.275   3.909   6.471
 2748SOL     OW 9142   5.373   1.290   1.194
 2748SOL    HW1 9143   5.398   1.199   1.226
 2748SOL    HW2 9144   5.313   1.334   1.262
 2749SOL     OW 9145   6.761   5.082   2.425
 2749SOL    HW1 9146   6.860   5.090   2.428
 2749SOL    HW2 9147   6.726   5.064   2.517
 2750SOL     OW 9148   0.833   5.419   1.162
 2750SOL    HW1 9149   0.877   5.331   1.142
 2750SOL    HW2 9150   0.869   5.456   1.247
 2751SOL     OW 9151   1.109   5.724   1.680
 2751SOL    HW1 9152   1.155   5.681   1.602
 2751SOL    HW2 9153   1.170   5.722   1.759
 2752SOL     OW 9154   4.210   5.299   5.810
 2752SOL    HW1 9155   4.208   5.237   5.731
 2752SOL    HW2 9156   4.212   5.246   5.894
 2753SOL     OW 9157   0.359   6.323   5.392
 2753SOL    HW1 9158   0.425   6.379   5.342
 2753SOL    HW2 9159   0.403   6.280   5.471
 2754SOL     OW 9160   0.603   0.582   2.675
 2754SOL    HW1 9161   0.551   0.627   2.602
 2754SOL    HW2 9162   0.573   0.487   2.685
 2755SOL     OW 9163   2.343   6.847   3.169
 2755SOL    HW1 9164   2.382   6.784   3.236
 2755SOL    HW2 9165   2.413   6.910   3.137
 2756SOL     OW 9166   6.130   4.813   6.560
 2756SOL    HW1 9167   6.035   4.792   6.538
 2756SOL    HW2 9168   6.187   4.796   6.480
 2757SOL     OW 9169   2.664   0.548   6.681
 2757SOL    HW1 9170   2.665   0.637   6.637
 2757SOL    HW2 9171   2.750   0.534   6.730
 2758SOL     OW 9172   4.338   6.347   3.943
 2758SOL    HW1 9173   4.302   6.354   4.036
 2758SOL    HW2 9174   4.293   6.415   3.885
 2759SOL     OW 9175   5.126   5.983   5.237
 2759SOL    HW1 9176   5.068   5.973   5.156
 2759SOL    HW2 9177   5.171   5.896   5.256
 2760SOL     OW 9178   0.512   5.902   2.637
 2760SOL    HW1 9179   0.513   5.805   2.612
 2760SOL    HW2 9180   0.469   5.955   2.564
 2761SOL     OW 9181   1.626   4.683   4.951
 2761SOL    HW1 9182   1.679   4.614   5.000
 2761SOL    HW2 9183   1.605   4.651   4.859
 2762SOL     OW 9184   1.898   0.226   6.003
 2762SOL    HW1 9185   1.979   0.276   5.972
 2762SOL    HW2 9186   1.847   0.282   6.069
 2763SOL     OW 9187   4.821   2.423   4.070
 2763SOL    HW1 9188   4.864   2.388   4.153
 2763SOL    HW2 9189   4.869   2.386   3.990
 2764SOL     OW 9190   6.488   1.090   1.285
 2764SOL    HW1 9191   6.525   1.127   1.370
 2764SOL    HW2 9192   6.563   1.057   1.227
 2765SOL     OW 9193   6.643   0.072   0.204
 2765SOL    HW1 9194   6.735   0.033   0.210
 2765SOL    HW2 9195   6.648   0.165   0.170
 2766SOL     OW 9196   5.165   2.548   0.597
 2766SOL    HW1 9197   5.179   2.637   0.640
 2766SOL    HW2 9198   5.180   2.475   0.664
 2767SOL     OW 9199   6.488   4.906   0.434
 2767SOL    HW1 9200   6.514   4.997   0.465
 2767SOL    HW2 9201   6.564   4.842   0.449
 2768SOL     OW 9202   4.366   0.505   1.036
 2768SOL    HW1 9203   4.445   0.502   1.097
 2768SOL    HW2 9204   4.323   0.595   1.042
 2769SOL     OW 9205   1.877   4.891   5.705
 2769SOL    HW1 9206   1.893   4.807   5.654
 2769SOL    HW2 9207   1.926   4.967   5.662
 2770SOL     OW 9208   4.322   5.737   5.850
 2770SOL    HW1 9209   4.409   5.727   5.899
 2770SOL    HW2 9210   4.305   5.833   5.832
 2771SOL     OW 9211   6.308   0.760   3.697
 2771SOL    HW1 9212   6.290   0.723   3.788
 2771SOL    HW2 9213   6.234   0.734   3.636
 2772SOL     OW 9214   4.007   2.017   0.534
 2772SOL    HW1 9215   3.966   2.044   0.621
 2772SOL    HW2 9216   4.043   2.098   0.487
 2773SOL     OW 9217   6.068   1.704   4.640
 2773SOL    HW1 9218   6.159   1.739   4.662
 2773SOL    HW2 9219   6.074   1.607   4.618
 2774SOL     OW 9220   5.133   2.711   3.009
 2774SOL    HW1 9221   5.124   2.636   3.075
 2774SOL    HW2 9222   5.042   2.739   2.977
 2775SOL     OW 9223   6.569   3.985   5.138
 2775SOL    HW1 9224   6.647   4.011   5.195
 2775SOL    HW2 9225   6.530   3.899   5.172
 2776SOL     OW 9226   4.609   4.852   5.964
 2776SOL    HW1 9227   4.664   4.776   5.930
 2776SOL    HW2 9228   4.635   4.936   5.917
 2777SOL     OW 9229   2.788   1.765   1.341
 2777SOL    HW1 9230   2.786   1.781   1.440
 2777SOL    HW2 9231   2.871   1.805   1.302
 2778SOL     OW 9232   1.779   6.886   5.460
 2778SOL    HW1 9233   1.758   6.933   5.374
 2778SOL    HW2 9234   1.772   6.787   5.447
 2779SOL     OW 9235   5.188   6.539   2.107
 2779SOL    HW1 9236   5.263   6.604   2.092
 2779SOL    HW2 9237   5.136   6.529   2.022
 2780SOL     OW 9238   0.766   6.892   0.107
 2780SOL    HW1 9239   0.710   6.954   0.051
 2780SOL    HW2 9240   0.717   6.806   0.120
 2781SOL     OW 9241   6.040   0.504   1.987
 2781SOL    HW1 9242   6.102   0.428   1.968
 2781SOL    HW2 9243   6.079   0.589   1.950
 2782SOL     OW 9244   4.622   1.283   5.066
 2782SOL    HW1 9245   4.532   1.239   5.059
 2782SOL    HW2 9246   4.621   1.348   5.142
 2783SOL     OW 9247   5.045   4.038   2.947
 2783SOL    HW1 9248   5.029   4.122   3.000
 2783SOL    HW2 9249   5.106   4.059   2.870
 2784SOL     OW 9250   3.257   1.534   2.326
 2784SOL    HW1 9251   3.272   1.622   2.371
 2784SOL    HW2 9252   3.285   1.540   2.230
 2785SOL     OW 9253   5.360   2.495   0.862
 2785SOL    HW1 9254   5.378   2.579   0.914
 2785SOL    HW2 9255   5.381   2.511   0.766
 2786SOL     OW 9256   4.846   6.987   2.808
 2786SOL    HW1 9257   4.923   7.009   2.867
 2786SOL    HW2 9258   4.879   6.972   2.715
 2787SOL     OW 9259   5.610   0.243   6.062
 2787SOL    HW1 9260   5.536   0.213   6.123
 2787SOL    HW2 9261   5.651   0.326   6.098
 2788SOL     OW 9262   1.523   5.649   6.074
 2788SOL    HW1 9263   1.568   5.617   6.158
 2788SOL    HW2 9264   1.578   5.722   6.033
 2789SOL     OW 9265   1.217   2.204   4.001
 2789SOL    HW1 9266   1.161   2.276   4.042
 2789SOL    HW2 9267   1.232   2.224   3.905
 2790SOL     OW 9268   3.661   5.694   2.165
 2790SOL    HW1 9269   3.719   5.663   2.090
 2790SOL    HW2 9270   3.566   5.697   2.135
 2791SOL     OW 9271   0.705   2.451   2.917
 2791SOL    HW1 9272   0.730   2.542   2.884
 2791SOL    HW2 9273   0.606   2.439   2.910
 2792SOL     OW 9274   1.755   0.596   4.012
 2792SOL    HW1 9275   1.778   0.519   4.071
 2792SOL    HW2 9276   1.835   0.620   3.957
 2793SOL     OW 9277   5.243   3.981   1.652
 2793SOL    HW1 9278   5.294   3.989   1.566
 2793SOL    HW2 9279   5.199   4.069   1.673
 2794SOL     OW 9280   7.013   1.878   6.258
 2794SOL    HW1 9281   6.916   1.854   6.247
 2794SOL    HW2 9282   0.013   1.967   6.216
 2795SOL     OW 9283   0.640   3.318   0.660
 2795SOL    HW1 9284   0.692   3.403   0.670
 2795SOL    HW2 9285   0.701   3.240   0.674
 2796SOL     OW 9286   0.398   6.556   3.059
 2796SOL    HW1 9287   0.337   6.533   3.134
 2796SOL    HW2 9288   0.367   6.640   3.014
 2797SOL     OW 9289   4.919   5.564   4.770
 2797SOL    HW1 9290   4.908   5.561   4.671
 2797SOL    HW2 9291   4.877   5.483   4.811
 2798SOL     OW 9292   6.844   5.327   1.998
 2798SOL    HW1 9293   6.815   5.403   1.940
 2798SOL    HW2 9294   6.784   5.321   2.077
 2799SOL     OW 9295   5.991   5.453   5.575
 2799SOL    HW1 9296   5.957   5.418   5.662
 2799SOL    HW2 9297   6.079   5.498   5.589
 2800SOL     OW 9298   4.647   6.207   6.757
 2800SOL    HW1 9299   4.731   6.186   6.706
 2800SOL    HW2 9300   4.575   6.143   6.728
 2801SOL     OW 9301   6.769   5.639   5.706
 2801SOL    HW1 9302   6.791   5.587   5.624
 2801SOL    HW2 9303   6.713   5.718   5.682
 2802SOL     OW 9304   5.425   6.057   5.594
 2802SOL    HW1 9305   5.422   5.958   5.578
 2802SOL    HW2 9306   5.435   6.104   5.506
 2803SOL     OW 9307   4.277   5.439   6.258
 2803SOL    HW1 9308   4.269   5.342   6.282
 2803SOL    HW2 9309   4.347   5.450   6.187
 2804SOL     OW 9310   0.288   4.491   5.443
 2804SOL    HW1 9311   0.226   4.513   5.518
 2804SOL    HW2 9312   0.292   4.392   5.430
 2805SOL     OW 9313   5.938   3.698   2.262
 2805SOL    HW1 9314   5.925   3.627   2.193
 2805SOL    HW2 9315   5.987   3.661   2.340
 2806SOL     OW 9316   0.538   4.183   5.560
 2806SOL    HW1 9317   0.540   4.280   5.536
 2806SOL    HW2 9318   0.632   4.148   5.566
 2807SOL     OW 9319   3.311   6.847   4.389
 2807SOL    HW1 9320   3.400   6.843   4.344
 2807SOL    HW2 9321   3.318   6.809   4.481
 2808SOL     OW 9322   6.655   4.869   1.852
 2808SOL    HW1 9323   6.708   4.943   1.893
 2808SOL    HW2 9324   6.561   4.900   1.838
 2809SOL     OW 9325   5.419   2.742   0.968
 2809SOL    HW1 9326   5.479   2.792   0.905
 2809SOL    HW2 9327   5.427   2.781   1.060
 2810SOL     OW 9328   2.972   5.711   3.040
 2810SOL    HW1 9329   2.879   5.736   3.066
 2810SOL    HW2 9330   3.037   5.764   3.095
 2811SOL     OW 9331   1.162   2.162   4.360
 2811SOL    HW1 9332   1.201   2.242   4.316
 2811SOL    HW2 9333   1.181   2.165   4.458
 2812SOL     OW 9334   4.989   2.956   6.776
 2812SOL    HW1 9335   5.027   2.949   6.868
 2812SOL    HW2 9336   4.970   3.052   6.754
 2813SOL     OW 9337   0.738   0.562   6.399
 2813SOL    HW1 9338   0.749   0.471   6.360
 2813SOL    HW2 9339   0.671   0.559   6.473
 2814SOL     OW 9340   3.444   3.807   5.508
 2814SOL    HW1 9341   3.432   3.879   5.439
 2814SOL    HW2 9342   3.539   3.774   5.504
 2815SOL     OW 9343   6.686   5.889   6.472
 2815SOL    HW1 9344   6.670   5.854   6.380
 2815SOL    HW2 9345   6.659   5.821   6.540
 2816SOL     OW 9346   6.300   5.932   3.736
 2816SOL    HW1 9347   6.258   6.009   3.689
 2816SOL    HW2 9348   6.318   5.859   3.670
 2817SOL     OW 9349   3.281   0.034   1.862
 2817SOL    HW1 9350   3.200   0.088   1.884
 2817SOL    HW2 9351   3.266   6.957   1.892
 2818SOL     OW 9352   0.518   0.482   2.262
 2818SOL    HW1 9353   0.441   0.457   2.202
 2818SOL    HW2 9354   0.513   0.580   2.282
 2819SOL     OW 9355   2.147   0.804   1.696
 2819SOL    HW1 9356   2.132   0.875   1.765
 2819SOL    HW2 9357   2.139   0.844   1.605
 2820SOL     OW 9358   0.995   2.223   3.635
 2820SOL    HW1 9359   0.993   2.273   3.549
 2820SOL    HW2 9360   1.053   2.142   3.625
 2821SOL     OW 9361   3.587   4.492   6.175
 2821SOL    HW1 9362   3.571   4.546   6.093
 2821SOL    HW2 9363   3.618   4.401   6.149
 2822SOL     OW 9364   3.894   1.784   0.437
 2822SOL    HW1 9365   3.935   1.863   0.482
 2822SOL    HW2 9366   3.794   1.794   0.437
 2823SOL     OW 9367   5.394   0.888   1.010
 2823SOL    HW1 9368   5.355   0.901   1.101
 2823SOL    HW2 9369   5.350   0.952   0.946
 2824SOL     OW 9370   2.345   1.185   4.131
 2824SOL    HW1 9371   2.416   1.254   4.120
 2824SOL    HW2 9372   2.345   1.152   4.226
 2825SOL     OW 9373   4.857   6.153   6.612
 2825SOL    HW1 9374   4.907   6.094   6.549
 2825SOL    HW2 9375   4.894   6.246   6.608
 2826SOL     OW 9376   4.732   1.768   6.788
 2826SOL    HW1 9377   4.772   1.786   6.878
 2826SOL    HW2 9378   4.635   1.745   6.799
 2827SOL     OW 9379   0.516   1.497   6.619
 2827SOL    HW1 9380   0.478   1.535   6.703
 2827SOL    HW2 9381   0.595   1.552   6.592
 2828SOL     OW 9382   2.336   2.177   0.167
 2828SOL    HW1 9383   2.406   2.106   0.163
 2828SOL    HW2 9384   2.259   2.146   0.223
 2829SOL     OW 9385   2.991   3.116   4.359
 2829SOL    HW1 9386   3.034   3.059   4.429
 2829SOL    HW2 9387   2.931   3.059   4.302
 2830SOL     OW 9388   3.228   4.116   5.333
 2830SOL    HW1 9389   3.164   4.039   5.342
 2830SOL    HW2 9390   3.179   4.196   5.300
 2831SOL     OW 9391   0.831   4.190   3.383
 2831SOL    HW1 9392   0.827   4.219   3.478
 2831SOL    HW2 9393   0.874   4.100   3.377
 2832SOL     OW 9394   1.029   2.806   1.559
 2832SOL    HW1 9395   1.107   2.768   1.508
 2832SOL    HW2 9396   0.967   2.732   1.585
 2833SOL     OW 9397   2.624   1.580   2.439
 2833SOL    HW1 9398   2.552   1.649   2.432
 2833SOL    HW2 9399   2.709   1.624   2.470
 2834SOL     OW 9400   4.046   6.741   5.915
 2834SOL    HW1 9401   4.121   6.806   5.903
 2834SOL    HW2 9402   4.084   6.650   5.936
 2835SOL     OW 9403   0.708   6.226   1.488
 2835SOL    HW1 9404   0.694   6.298   1.556
 2835SOL    HW2 9405   0.701   6.265   1.396
 2836SOL     OW 9406   0.728   6.463   1.895
 2836SOL    HW1 9407   0.645   6.408   1.889
 2836SOL    HW2 9408   0.808   6.403   1.898
 2837SOL     OW 9409   4.723   4.199   2.474
 2837SOL    HW1 9410   4.729   4.280   2.533
 2837SOL    HW2 9411   4.730   4.116   2.530
 2838SOL     OW 9412   3.862   4.000   0.905
 2838SOL    HW1 9413   3.828   3.948   0.826
 2838SOL    HW2 9414   3.786   4.024   0.964
 2839SOL     OW 9415   0.042   2.178   3.103
 2839SOL    HW1 9416   6.967   2.185   3.140
 2839SOL    HW2 9417   0.094   2.111   3.156
 2840SOL     OW 9418   1.841   0.285   1.760
 2840SOL    HW1 9419   1.789   0.203   1.739
 2840SOL    HW2 9420   1.780   0.355   1.798
 2841SOL     OW 9421   6.655   1.323   5.999
 2841SOL    HW1 9422   6.674   1.226   6.010
 2841SOL    HW2 9423   6.615   1.339   5.909
 2842SOL     OW 9424   6.837   4.809   3.959
 2842SOL    HW1 9425   6.879   4.885   3.909
 2842SOL    HW2 9426   6.863   4.723   3.916
 2843SOL     OW 9427   2.109   2.112   3.198
 2843SOL    HW1 9428   2.034   2.177   3.195
 2843SOL    HW2 9429   2.152   2.107   3.108
 2844SOL     OW 9430   6.346   5.418   7.013
 2844SOL    HW1 9431   6.252   5.432   6.983
 2844SOL    HW2 9432   6.351   5.337   0.054
 2845SOL     OW 9433   5.917   3.242   2.373
 2845SOL    HW1 9434   5.949   3.250   2.278
 2845SOL    HW2 9435   5.851   3.315   2.392
 2846SOL     OW 9436   3.879   0.666   0.151
 2846SOL    HW1 9437   3.797   0.724   0.155
 2846SOL    HW2 9438   3.930   0.674   0.236
 2847SOL     OW 9439   5.366   4.146   3.059
 2847SOL    HW1 9440   5.337   4.212   2.990
 2847SOL    HW2 9441   5.448   4.180   3.105
 2848SOL     OW 9442   1.815   2.358   5.061
 2848SOL    HW1 9443   1.895   2.393   5.013
 2848SOL    HW2 9444   1.793   2.266   5.026
 2849SOL     OW 9445   4.120   0.454   0.665
 2849SOL    HW1 9446   4.045   0.433   0.728
 2849SOL    HW2 9447   4.189   0.508   0.713
 2850SOL     OW 9448   1.867   6.978   2.314
 2850SOL    HW1 9449   1.943   6.991   2.378
 2850SOL    HW2 9450   1.806   6.907   2.349
 2851SOL     OW 9451   5.415   2.173   5.823
 2851SOL    HW1 9452   5.320   2.150   5.802
 2851SOL    HW2 9453   5.423   2.201   5.919
 2852SOL     OW 9454   6.863   4.274   6.715
 2852SOL    HW1 9455   6.929   4.252   6.643
 2852SOL    HW2 9456   6.775   4.232   6.693
 2853SOL     OW 9457   2.100   2.090   6.047
 2853SOL    HW1 9458   2.057   2.173   6.013
 2853SOL    HW2 9459   2.197   2.091   6.025
 2854SOL     OW 9460   4.571   0.952   5.848
 2854SOL    HW1 9461   4.636   0.917   5.780
 2854SOL    HW2 9462   4.622   0.991   5.925
 2855SOL     OW 9463   1.956   1.678   5.848
 2855SOL    HW1 9464   1.925   1.773   5.843
 2855SOL    HW2 9465   2.051   1.673   5.817
 2856SOL     OW 9466   0.616   3.365   5.570
 2856SOL    HW1 9467   0.596   3.311   5.489
 2856SOL    HW2 9468   0.604   3.308   5.652
 2857SOL     OW 9469   1.606   2.769   1.561
 2857SOL    HW1 9470   1.648   2.859   1.568
 2857SOL    HW2 9471   1.662   2.702   1.609
 2858SOL     OW 9472   4.496   5.017   2.071
 2858SOL    HW1 9473   4.520   5.111   2.094
 2858SOL    HW2 9474   4.557   4.954   2.118
 2859SOL     OW 9475   6.148   6.760   0.214
 2859SOL    HW1 9476   6.136   6.801   0.305
 2859SOL    HW2 9477   6.060   6.725   0.182
 2860SOL     OW 9478   2.141   1.600   1.813
 2860SOL    HW1 9479   2.181   1.586   1.903
 2860SOL    HW2 9480   2.070   1.531   1.797
 2861SOL     OW 9481   3.217   5.239   6.002
 2861SOL    HW1 9482   3.208   5.156   5.947
 2861SOL    HW2 9483   3.127   5.270   6.031
 2862SOL     OW 9484   4.415   1.777   1.986
 2862SOL    HW1 9485   4.358   1.856   1.965
 2862SOL    HW2 9486   4.359   1.694   1.988
 2863SOL     OW 9487   4.465   1.704   6.920
 2863SOL    HW1 9488   4.460   1.645   7.000
 2863SOL    HW2 9489   4.470   1.800   6.950
 2864SOL     OW 9490   4.991   2.212   1.719
 2864SOL    HW1 9491   4.924   2.274   1.760
 2864SOL    HW2 9492   5.051   2.177   1.791
 2865SOL     OW 9493   4.181   6.346   4.564
 2865SOL    HW1 9494   4.150   6.441   4.562
 2865SOL    HW2 9495   4.193   6.317   4.659
 2866SOL     OW 9496   5.534   5.082   6.533
 2866SOL    HW1 9497   5.582   5.027   6.602
 2866SOL    HW2 9498   5.437   5.057   6.533
 2867SOL     OW 9499   5.969   6.445   2.730
 2867SOL    HW1 9500   6.065   6.466   2.747
 2867SOL    HW2 9501   5.916   6.463   2.812
 2868SOL     OW 9502   2.124   1.541   5.610
 2868SOL    HW1 9503   2.169   1.461   5.650
 2868SOL    HW2 9504   2.191   1.612   5.592
 2869SOL     OW 9505   0.070   0.941   2.844
 2869SOL    HW1 9506   0.080   1.011   2.914
 2869SOL    HW2 9507   0.001   0.874   2.873
 2870SOL     OW 9508   0.435   1.865   5.717
 2870SOL    HW1 9509   0.406   1.946   5.768
 2870SOL    HW2 9510   0.361   1.799   5.714
 2871SOL     OW 9511   6.440   0.950   6.954
 2871SOL    HW1 9512   6.530   0.927   6.917
 2871SOL    HW2 9513   6.428   1.049   6.953
 2872SOL     OW 9514   2.446   2.180   1.799
 2872SOL    HW1 9515   2.474   2.205   1.706
 2872SOL    HW2 9516   2.475   2.251   1.863
 2873SOL     OW 9517   7.007   5.870   2.100
 2873SOL    HW1 9518   6.954   5.925   2.035
 2873SOL    HW2 9519   0.024   5.930   2.173
 2874SOL     OW 9520   4.997   0.093   3.142
 2874SOL    HW1 9521   4.950   0.182   3.142
 2874SOL    HW2 9522   5.095   0.107   3.130
 2875SOL     OW 9523   5.330   0.477   1.937
 2875SOL    HW1 9524   5.290   0.514   2.021
 2875SOL    HW2 9525   5.291   0.387   1.918
 2876SOL     OW 9526   2.066   0.556   2.611
 2876SOL    HW1 9527   2.144   0.617   2.628
 2876SOL    HW2 9528   2.073   0.517   2.520
 2877SOL     OW 9529   2.574   1.227   5.287
 2877SOL    HW1 9530   2.546   1.319   5.256
 2877SOL    HW2 9531   2.593   1.229   5.385
 2878SOL     OW 9532   3.846   4.297   5.459
 2878SOL    HW1 9533   3.932   4.312   5.410
 2878SOL    HW2 9534   3.847   4.207   5.502
 2879SOL     OW 9535   4.850   4.784   6.337
 2879SOL    HW1 9536   4.886   4.706   6.388
 2879SOL    HW2 9537   4.842   4.863   6.398
 2880SOL     OW 9538   0.321   1.863   2.801
 2880SOL    HW1 9539   0.257   1.859   2.878
 2880SOL    HW2 9540   0.274   1.839   2.716
 2881SOL     OW 9541   4.287   6.062   6.603
 2881SOL    HW1 9542   4.252   5.993   6.540
 2881SOL    HW2 9543   4.235   6.058   6.689
 2882SOL     OW 9544   0.369   5.676   1.776
 2882SOL    HW1 9545   0.441   5.620   1.818
 2882SOL    HW2 9546   0.307   5.617   1.724
 2883SOL     OW 9547   6.057   0.273   3.541
 2883SOL    HW1 9548   6.125   0.260   3.469
 2883SOL    HW2 9549   6.083   0.352   3.598
 2884SOL     OW 9550   0.670   6.621   3.195
 2884SOL    HW1 9551   0.706   6.672   3.118
 2884SOL    HW2 9552   0.570   6.618   3.189
 2885SOL     OW 9553   1.931   3.971   3.618
 2885SOL    HW1 9554   1.936   4.058   3.569
 2885SOL    HW2 9555   2.021   3.927   3.615
 2886SOL     OW 9556   1.076   2.979   6.396
 2886SOL    HW1 9557   1.129   3.033   6.331
 2886SOL    HW2 9558   0.978   2.988   6.375
 2887SOL     OW 9559   0.258   6.630   5.548
 2887SOL    HW1 9560   0.263   6.713   5.493
 2887SOL    HW2 9561   0.213   6.650   5.634
 2888SOL     OW 9562   6.788   4.324   6.412
 2888SOL    HW1 9563   6.865   4.306   6.350
 2888SOL    HW2 9564   6.805   4.410   6.461
 2889SOL     OW 9565   3.009   6.317   2.483
 2889SOL    HW1 9566   3.105   6.338   2.501
 2889SOL    HW2 9567   2.978   6.245   2.545
 2890SOL     OW 9568   1.374   6.084   0.614
 2890SOL    HW1 9569   1.382   6.006   0.676
 2890SOL    HW2 9570   1.333   6.054   0.528
 2891SOL     OW 9571   0.688   4.829   3.233
 2891SOL    HW1 9572   0.764   4.765   3.241
 2891SOL    HW2 9573   0.602   4.781   3.252
 2892SOL     OW 9574   6.407   3.334   1.172
 2892SOL    HW1 9575   6.332   3.291   1.122
 2892SOL    HW2 9576   6.430   3.422   1.130
 2893SOL     OW 9577   0.258   5.767   4.611
 2893SOL    HW1 9578   0.254   5.835   4.538
 2893SOL    HW2 9579   0.216   5.682   4.579
 2894SOL     OW 9580   0.538   2.866   2.032
 2894SOL    HW1 9581   0.579   2.821   1.952
 2894SOL    HW2 9582   0.609   2.879   2.102
 2895SOL     OW 9583   5.124   1.303   5.451
 2895SOL    HW1 9584   5.197   1.364   5.482
 2895SOL    HW2 9585   5.159   1.241   5.381
 2896SOL     OW 9586   4.472   6.712   5.850
 2896SOL    HW1 9587   4.484   6.690   5.947
 2896SOL    HW2 9588   4.398   6.778   5.840
 2897SOL     OW 9589   3.815   5.143   2.749
 2897SOL    HW1 9590   3.825   5.200   2.831
 2897SOL    HW2 9591   3.763   5.061   2.772
 2898SOL     OW 9592   4.417   4.747   4.202
 2898SOL    HW1 9593   4.420   4.790   4.293
 2898SOL    HW2 9594   4.468   4.803   4.138
 2899SOL     OW 9595   0.566   1.990   0.224
 2899SOL    HW1 9596   0.572   1.904   0.276
 2899SOL    HW2 9597   0.653   2.007   0.178
 2900SOL     OW 9598   2.893   4.205   6.288
 2900SOL    HW1 9599   2.955   4.128   6.275
 2900SOL    HW2 9600   2.935   4.288   6.251
 2901SOL     OW 9601   2.076   4.675   3.080
 2901SOL    HW1 9602   2.088   4.746   3.150
 2901SOL    HW2 9603   1.979   4.653   3.071
 2902SOL     OW 9604   5.932   5.333   3.352
 2902SOL    HW1 9605   5.832   5.340   3.351
 2902SOL    HW2 9606   5.958   5.239   3.374
 2903SOL     OW 9607   3.589   0.292   0.621
 2903SOL    HW1 9608   3.558   0.338   0.538
 2903SOL    HW2 9609   3.572   0.350   0.701
 2904SOL     OW 9610   2.340   4.533   4.011
 2904SOL    HW1 9611   2.414   4.566   3.952
 2904SOL    HW2 9612   2.353   4.567   4.104
 2905SOL     OW 9613   1.692   3.215   4.776
 2905SOL    HW1 9614   1.601   3.194   4.740
 2905SOL    HW2 9615   1.686   3.298   4.833
 2906SOL     OW 9616   4.895   4.959   2.561
 2906SOL    HW1 9617   4.912   4.968   2.463
 2906SOL    HW2 9618   4.855   5.044   2.596
 2907SOL     OW 9619   0.345   1.430   3.686
 2907SOL    HW1 9620   0.328   1.341   3.644
 2907SOL    HW2 9621   0.260   1.484   3.684
 2908SOL     OW 9622   5.074   6.696   3.716
 2908SOL    HW1 9623   4.979   6.698   3.746
 2908SOL    HW2 9624   5.090   6.616   3.659
 2909SOL     OW 9625   1.549   5.430   3.828
 2909SOL    HW1 9626   1.567   5.415   3.926
 2909SOL    HW2 9627   1.576   5.522   3.803
 2910SOL     OW 9628   5.325   1.094   4.275
 2910SOL    HW1 9629   5.293   1.160   4.343
 2910SOL    HW2 9630   5.265   1.098   4.195
 2911SOL     OW 9631   1.599   5.998   3.609
 2911SOL    HW1 9632   1.651   5.944   3.543
 2911SOL    HW2 9633   1.502   5.975   3.602
 2912SOL     OW 9634   5.338   6.722   0.360
 2912SOL    HW1 9635   5.396   6.787   0.311
 2912SOL    HW2 9636   5.262   6.771   0.402
 2913SOL     OW 9637   2.987   5.153   2.044
 2913SOL    HW1 9638   3.074   5.201   2.029
 2913SOL    HW2 9639   2.996   5.059   2.011
 2914SOL     OW 9640   6.683   6.019   6.078
 2914SOL    HW1 9641   6.584   6.037   6.081
 2914SOL    HW2 9642   6.732   6.091   6.127
 2915SOL     OW 9643   3.472   1.855   3.864
 2915SOL    HW1 9644   3.532   1.820   3.936
 2915SOL    HW2 9645   3.378   1.854   3.896
 2916SOL     OW 9646   1.445   5.706   0.532
 2916SOL    HW1 9647   1.364   5.713   0.474
 2916SOL    HW2 9648   1.523   5.674   0.478
 2917SOL     OW 9649   2.396   0.563   2.943
 2917SOL    HW1 9650   2.364   0.469   2.938
 2917SOL    HW2 9651   2.412   0.589   3.038
 2918SOL     OW 9652   6.150   4.703   5.146
 2918SOL    HW1 9653   6.208   4.641   5.094
 2918SOL    HW2 9654   6.094   4.651   5.210
 2919SOL     OW 9655   5.709   0.622   2.399
 2919SOL    HW1 9656   5.777   0.560   2.438
 2919SOL    HW2 9657   5.716   0.711   2.444
 2920SOL     OW 9658   3.192   1.040   1.467
 2920SOL    HW1 9659   3.221   1.035   1.563
 2920SOL    HW2 9660   3.253   1.100   1.416
 2921SOL     OW 9661   0.594   6.722   4.574
 2921SOL    HW1 9662   0.574   6.666   4.493
 2921SOL    HW2 9663   0.690   6.750   4.572
 2922SOL     OW 9664   4.528   6.982   1.214
 2922SOL    HW1 9665   4.444   0.016   1.234
 2922SOL    HW2 9666   4.595   0.026   1.173
 2923SOL     OW 9667   5.981   4.813   2.907
 2923SOL    HW1 9668   6.002   4.892   2.850
 2923SOL    HW2 9669   6.026   4.823   2.995
 2924SOL     OW 9670   6.311   1.879   5.644
 2924SOL    HW1 9671   6.262   1.963   5.619
 2924SOL    HW2 9672   6.273   1.843   5.729
 2925SOL     OW 9673   4.936   1.954   1.954
 2925SOL    HW1 9674   4.847   1.952   2.000
 2925SOL    HW2 9675   4.976   2.045   1.963
 2926SOL     OW 9676   5.995   1.513   5.591
 2926SOL    HW1 9677   5.975   1.424   5.550
 2926SOL    HW2 9678   5.910   1.563   5.606
 2927SOL     OW 9679   1.430   3.870   1.524
 2927SOL    HW1 9680   1.379   3.956   1.528
 2927SOL    HW2 9681   1.496   3.867   1.599
 2928SOL     OW 9682   0.694   0.482   6.906
 2928SOL    HW1 9683   0.769   0.540   6.936
 2928SOL    HW2 9684   0.626   0.476   6.980
 2929SOL     OW 9685   1.493   1.995   6.392
 2929SOL    HW1 9686   1.473   2.093   6.396
 2929SOL    HW2 9687   1.409   1.945   6.370
 2930SOL     OW 9688   5.416   6.730   5.415
 2930SOL    HW1 9689   5.373   6.724   5.325
 2930SOL    HW2 9690   5.383   6.811   5.462
 2931SOL     OW 9691   5.468   4.660   6.850
 2931SOL    HW1 9692   5.519   4.573   6.850
 2931SOL    HW2 9693   5.526   4.732   6.813
 2932SOL     OW 9694   1.141   5.447   2.272
 2932SOL    HW1 9695   1.189   5.471   2.357
 2932SOL    HW2 9696   1.208   5.416   2.205
 2933SOL     OW 9697   0.759   5.619   2.842
 2933SOL    HW1 9698   0.779   5.697   2.902
 2933SOL    HW2 9699   0.817   5.542   2.867
 2934SOL     OW 9700   5.318   1.125   0.323
 2934SOL    HW1 9701   5.398   1.104   0.267
 2934SOL    HW2 9702   5.256   1.184   0.271
 2935SOL     OW 9703   0.325   2.708   6.727
 2935SOL    HW1 9704   0.369   2.677   6.812
 2935SOL    HW2 9705   0.297   2.629   6.673
 2936SOL     OW 9706   4.167   6.582   0.921
 2936SOL    HW1 9707   4.252   6.634   0.927
 2936SOL    HW2 9708   4.097   6.638   0.877
 2937SOL     OW 9709   5.353   4.488   1.325
 2937SOL    HW1 9710   5.366   4.561   1.392
 2937SOL    HW2 9711   5.356   4.399   1.371
 2938SOL     OW 9712   4.651   5.602   6.683
 2938SOL    HW1 9713   4.573   5.600   6.746
 2938SOL    HW2 9714   4.619   5.586   6.590
 2939SOL     OW 9715   2.257   0.990   2.406
 2939SOL    HW1 9716   2.294   0.906   2.446
 2939SOL    HW2 9717   2.273   0.989   2.307
 2940SOL     OW 9718   5.781   4.581   5.527
 2940SOL    HW1 9719   5.818   4.672   5.541
 2940SOL    HW2 9720   5.803   4.523   5.606
 2941SOL     OW 9721   1.052   2.402   4.582
 2941SOL    HW1 9722   1.136   2.438   4.541
 2941SOL    HW2 9723   1.070   2.310   4.618
 2942SOL     OW 9724   3.279   2.559   0.641
 2942SOL    HW1 9725   3.372   2.582   0.668
 2942SOL    HW2 9726   3.266   2.581   0.544
 2943SOL     OW 9727   5.696   4.101   3.596
 2943SOL    HW1 9728   5.771   4.098   3.529
 2943SOL    HW2 9729   5.703   4.021   3.656
 2944SOL     OW 9730   2.389   6.122   4.456
 2944SOL    HW1 9731   2.431   6.079   4.536
 2944SOL    HW2 9732   2.290   6.110   4.460
 2945SOL     OW 9733   3.197   3.324   3.200
 2945SOL    HW1 9734   3.199   3.253   3.129
 2945SOL    HW2 9735   3.286   3.367   3.207
 2946SOL     OW 9736   1.240   4.780   5.631
 2946SOL    HW1 9737   1.214   4.801   5.537
 2946SOL    HW2 9738   1.225   4.860   5.689
 2947SOL     OW 9739   0.446   4.318   1.430
 2947SOL    HW1 9740   0.485   4.391   1.374
 2947SOL    HW2 9741   0.358   4.349   1.468
 2948SOL     OW 9742   1.118   3.752   4.503
 2948SOL    HW1 9743   1.126   3.653   4.507
 2948SOL    HW2 9744   1.138   3.783   4.410
 2949SOL     OW 9745   2.429   5.109   0.805
 2949SOL    HW1 9746   2.335   5.100   0.773
 2949SOL    HW2 9747   2.449   5.035   0.870
 2950SOL     OW 9748   5.333   5.253   3.908
 2950SOL    HW1 9749   5.281   5.332   3.940
 2950SOL    HW2 9750   5.272   5.188   3.863
 2951SOL     OW 9751   5.485   1.315   2.143
 2951SOL    HW1 9752   5.451   1.385   2.079
 2951SOL    HW2 9753   5.429   1.233   2.134
 2952SOL     OW 9754   6.869   4.940   4.612
 2952SOL    HW1 9755   6.780   4.900   4.636
 2952SOL    HW2 9756   6.931   4.868   4.583
 2953SOL     OW 9757   5.708   3.736   2.442
 2953SOL    HW1 9758   5.803   3.707   2.429
 2953SOL    HW2 9759   5.702   3.836   2.436
 2954SOL     OW 9760   0.807   4.919   2.132
 2954SOL    HW1 9761   0.843   4.835   2.173
 2954SOL    HW2 9762   0.871   4.952   2.062
 2955SOL     OW 9763   0.537   3.813   1.534
 2955SOL    HW1 9764   0.495   3.900   1.507
 2955SOL    HW2 9765   0.500   3.784   1.622
 2956SOL     OW 9766   5.658   5.685   3.071
 2956SOL    HW1 9767   5.574   5.683   3.017
 2956SOL    HW2 9768   5.647   5.628   3.152
 2957SOL     OW 9769   5.784   4.048   1.707
 2957SOL    HW1 9770   5.863   4.016   1.655
 2957SOL    HW2 9771   5.784   4.148   1.710
 2958SOL     OW 9772   2.491   4.655   3.014
 2958SOL    HW1 9773   2.440   4.739   2.995
 2958SOL    HW2 9774   2.569   4.649   2.952
 2959SOL     OW 9775   4.868   3.485   0.672
 2959SOL    HW1 9776   4.883   3.417   0.744
 2959SOL    HW2 9777   4.936   3.559   0.682
 2960SOL     OW 9778   2.941   0.633   0.626
 2960SOL    HW1 9779   2.849   0.652   0.593
 2960SOL    HW2 9780   2.942   0.634   0.726
 2961SOL     OW 9781   5.678   3.924   2.996
 2961SOL    HW1 9782   5.749   3.855   2.978
 2961SOL    HW2 9783   5.588   3.886   2.972
 2962SOL     OW 9784   4.132   6.472   3.329
 2962SOL    HW1 9785   4.194   6.395   3.336
 2962SOL    HW2 9786   4.042   6.440   3.299
 2963SOL     OW 9787   2.006   1.003   5.698
 2963SOL    HW1 9788   2.046   1.062   5.768
 2963SOL    HW2 9789   1.906   1.006   5.705
 2964SOL     OW 9790   0.418   0.944   4.121
 2964SOL    HW1 9791   0.433   0.845   4.119
 2964SOL    HW2 9792   0.387   0.975   4.031
 2965SOL     OW 9793   0.180   0.827   4.471
 2965SOL    HW1 9794   0.270   0.818   4.427
 2965SOL    HW2 9795   0.155   0.740   4.513
 2966SOL     OW 9796   4.536   5.700   3.348
 2966SOL    HW1 9797   4.515   5.797   3.329
 2966SOL    HW2 9798   4.552   5.689   3.446
 2967SOL     OW 9799   6.191   0.705   4.805
 2967SOL    HW1 9800   6.145   0.681   4.720
 2967SOL    HW2 9801   6.196   0.625   4.865
 2968SOL     OW 9802   0.803   2.888   0.429
 2968SOL    HW1 9803   0.708   2.874   0.399
 2968SOL    HW2 9804   0.843   2.964   0.378
 2969SOL     OW 9805   4.986   2.390   4.289
 2969SOL    HW1 9806   5.033   2.302   4.293
 2969SOL    HW2 9807   4.936   2.406   4.374
 2970SOL     OW 9808   2.437   3.196   5.917
 2970SOL    HW1 9809   2.361   3.195   5.982
 2970SOL    HW2 9810   2.403   3.177   5.825
 2971SOL     OW 9811   5.211   4.694   6.938
 2971SOL    HW1 9812   5.251   4.675   0.011
 2971SOL    HW2 9813   5.283   4.692   6.869
 2972SOL     OW 9814   6.618   4.667   6.493
 2972SOL    HW1 9815   6.568   4.629   6.571
 2972SOL    HW2 9816   6.601   4.610   6.412
 2973SOL     OW 9817   5.346   6.272   2.183
 2973SOL    HW1 9818   5.424   6.325   2.216
 2973SOL    HW2 9819   5.266   6.331   2.173
 2974SOL     OW 9820   0.950   4.489   3.842
 2974SOL    HW1 9821   1.013   4.480   3.764
 2974SOL    HW2 9822   1.002   4.480   3.927
 2975SOL     OW 9823   5.195   3.571   3.739
 2975SOL    HW1 9824   5.185   3.649   3.801
 2975SOL    HW2 9825   5.288   3.569   3.703
 2976SOL     OW 9826   3.683   2.118   2.774
 2976SOL    HW1 9827   3.723   2.113   2.683
 2976SOL    HW2 9828   3.584   2.107   2.767
 2977SOL     OW 9829   2.292   7.001   2.491
 2977SOL    HW1 9830   2.358   6.989   2.566
 2977SOL    HW2 9831   2.293   6.920   2.432
 2978SOL     OW 9832   4.331   4.911   0.222
 2978SOL    HW1 9833   4.260   4.843   0.206
 2978SOL    HW2 9834   4.308   4.966   0.302
 2979SOL     OW 9835   3.472   0.854   4.008
 2979SOL    HW1 9836   3.542   0.853   3.937
 2979SOL    HW2 9837   3.493   0.784   4.077
 2980SOL     OW 9838   1.488   5.853   4.157
 2980SOL    HW1 9839   1.431   5.803   4.092
 2980SOL    HW2 9840   1.532   5.788   4.219
 2981SOL     OW 9841   2.580   1.456   6.274
 2981SOL    HW1 9842   2.591   1.424   6.180
 2981SOL    HW2 9843   2.483   1.465   6.296
 2982SOL     OW 9844   2.990   5.495   2.007
 2982SOL    HW1 9845   2.893   5.519   2.015
 2982SOL    HW2 9846   3.040   5.537   2.082
 2983SOL     OW 9847   6.726   1.949   2.720
 2983SOL    HW1 9848   6.743   2.023   2.785
 2983SOL    HW2 9849   6.760   1.975   2.630
 2984SOL     OW 9850   5.554   4.654   0.565
 2984SOL    HW1 9851   5.526   4.713   0.489
 2984SOL    HW2 9852   5.603   4.575   0.530
 2985SOL     OW 9853   1.534   2.627   5.229
 2985SOL    HW1 9854   1.597   2.679   5.172
 2985SOL    HW2 9855   1.573   2.616   5.321
 2986SOL     OW 9856   3.572   4.029   3.358
 2986SOL    HW1 9857   3.621   3.966   3.418
 2986SOL    HW2 9858   3.496   4.071   3.409
 2987SOL     OW 9859   0.386   1.766   3.818
 2987SOL    HW1 9860   0.459   1.711   3.777
 2987SOL    HW2 9861   0.299   1.744   3.775
 2988SOL     OW 9862   1.713   5.697   2.851
 2988SOL    HW1 9863   1.809   5.690   2.823
 2988SOL    HW2 9864   1.654   5.672   2.773
 2989SOL     OW 9865   5.291   5.738   5.732
 2989SOL    HW1 9866   5.234   5.693   5.801
 2989SOL    HW2 9867   5.240   5.746   5.646
 2990SOL     OW 9868   3.465   2.120   4.551
 2990SOL    HW1 9869   3.369   2.149   4.551
 2990SOL    HW2 9870   3.497   2.112   4.646
 2991SOL     OW 9871   6.673   3.540   5.103
 2991SOL    HW1 9872   6.588   3.492   5.078
 2991SOL    HW2 9873   6.675   3.552   5.203
 2992SOL     OW 9874   1.833   6.001   4.457
 2992SOL    HW1 9875   1.864   5.912   4.422
 2992SOL    HW2 9876   1.810   6.060   4.380
 2993SOL     OW 9877   1.018   4.778   1.032
 2993SOL    HW1 9878   1.054   4.856   0.981
 2993SOL    HW2 9879   0.932   4.748   0.991
 2994SOL     OW 9880   3.944   0.001   6.633
 2994SOL    HW1 9881   3.894   0.017   6.548
 2994SOL    HW2 9882   3.885   6.971   6.698
 2995SOL     OW 9883   2.778   1.678   6.373
 2995SOL    HW1 9884   2.727   1.604   6.330
 2995SOL    HW2 9885   2.739   1.766   6.345
 2996SOL     OW 9886   1.405   1.298   4.705
 2996SOL    HW1 9887   1.418   1.225   4.772
 2996SOL    HW2 9888   1.310   1.297   4.673
 2997SOL     OW 9889   5.721   0.087   3.143
 2997SOL    HW1 9890   5.661   0.019   3.101
 2997SOL    HW2 9891   5.758   0.051   3.228
 2998SOL     OW 9892   4.661   0.109   3.921
 2998SOL    HW1 9893   4.734   0.061   3.971
 2998SOL    HW2 9894   4.649   0.200   3.960
 2999SOL     OW 9895   2.595   5.248   5.150
 2999SOL    HW1 9896   2.626   5.180   5.083
 2999SOL    HW2 9897   2.505   5.282   5.123
 3000SOL     OW 9898   3.231   3.547   6.461
 3000SOL    HW1 9899   3.150   3.604   6.474
 3000SOL    HW2 9900   3.217   3.487   6.382
 3001SOL     OW 9901   0.055   0.437   6.161
 3001SOL    HW1 9902   0.040   0.531   6.129
 3001SOL    HW2 9903   0.069   0.376   6.084
 3002SOL     OW 9904   2.986   1.829   6.956
 3002SOL    HW1 9905   3.047   1.750   6.951
 3002SOL    HW2 9906   3.038   1.913   6.937
 3003SOL     OW 9907   1.365   6.760   0.689
 3003SOL    HW1 9908   1.328   6.824   0.622
 3003SOL    HW2 9909   1.360   6.800   0.781
 3004SOL     OW 9910   0.572   4.329   3.625
 3004SOL    HW1 9911   0.569   4.413   3.572
 3004SOL    HW2 9912   0.667   4.304   3.643
 3005SOL     OW 9913   1.965   1.787   0.518
 3005SOL    HW1 9914   1.971   1.835   0.430
 3005SOL    HW2 9915   2.027   1.709   0.518
 3006SOL     OW 9916   5.485   1.456   4.636
 3006SOL    HW1 9917   5.475   1.552   4.662
 3006SOL    HW2 9918   5.448   1.398   4.708
 3007SOL     OW 9919   5.249   4.359   0.441
 3007SOL    HW1 9920   5.160   4.315   0.450
 3007SOL    HW2 9921   5.321   4.289   0.441
 3008SOL     OW 9922   3.851   2.294   5.897
 3008SOL    HW1 9923   3.866   2.278   5.800
 3008SOL    HW2 9924   3.913   2.366   5.929
 3009SOL     OW 9925   0.023   1.705   2.718
 3009SOL    HW1 9926   0.024   1.612   2.756
 3009SOL    HW2 9927   6.954   1.750   2.741
 3010SOL     OW 9928   3.814   5.390   3.771
 3010SOL    HW1 9929   3.908   5.408   3.800
 3010SOL    HW2 9930   3.765   5.344   3.845
 3011SOL     OW 9931   6.285   1.568   2.494
 3011SOL    HW1 9932   6.356   1.638   2.482
 3011SOL    HW2 9933   6.197   1.606   2.466
 3012SOL     OW 9934   1.754   3.259   6.193
 3012SOL    HW1 9935   1.801   3.347   6.192
 3012SOL    HW2 9936   1.761   3.218   6.284
 3013SOL     OW 9937   5.170   5.548   3.762
 3013SOL    HW1 9938   5.153   5.525   3.858
 3013SOL    HW2 9939   5.261   5.517   3.736
 3014SOL     OW 9940   4.569   2.294   4.752
 3014SOL    HW1 9941   4.645   2.235   4.726
 3014SOL    HW2 9942   4.530   2.337   4.670
 3015SOL     OW 9943   3.044   1.962   0.264
 3015SOL    HW1 9944   3.128   1.911   0.247
 3015SOL    HW2 9945   3.030   2.029   0.190
 3016SOL     OW 9946   2.588   6.336   3.803
 3016SOL    HW1 9947   2.528   6.268   3.845
 3016SOL    HW2 9948   2.595   6.317   3.705
 3017SOL     OW 9949   5.857   5.400   2.225
 3017SOL    HW1 9950   5.850   5.347   2.141
 3017SOL    HW2 9951   5.785   5.373   2.288
 3018SOL     OW 9952   2.744   0.241   5.833
 3018SOL    HW1 9953   2.727   0.161   5.890
 3018SOL    HW2 9954   2.660   0.266   5.784
 3019SOL     OW 9955   0.608   6.658   0.148
 3019SOL    HW1 9956   0.524   6.604   0.137
 3019SOL    HW2 9957   0.687   6.603   0.123
 3020SOL     OW 9958   3.689   2.305   1.482
 3020SOL    HW1 9959   3.627   2.384   1.478
 3020SOL    HW2 9960   3.756   2.319   1.554
 3021SOL     OW 9961   2.750   7.014   5.998
 3021SOL    HW1 9962   2.699   7.003   6.083
 3021SOL    HW2 9963   2.736   6.935   5.939
 3022SOL     OW 9964   4.171   5.237   4.902
 3022SOL    HW1 9965   4.216   5.194   4.824
 3022SOL    HW2 9966   4.123   5.167   4.956
 3023SOL     OW 9967   4.133   6.673   2.752
 3023SOL    HW1 9968   4.170   6.730   2.825
 3023SOL    HW2 9969   4.078   6.729   2.690
 3024SOL     OW 9970   4.880   0.371   4.989
 3024SOL    HW1 9971   4.841   0.410   5.072
 3024SOL    HW2 9972   4.901   0.444   4.924
 3025SOL     OW 9973   4.145   6.669   0.508
 3025SOL    HW1 9974   4.088   6.691   0.587
 3025SOL    HW2 9975   4.096   6.605   0.448
 3026SOL     OW 9976   1.542   0.113   6.364
 3026SOL    HW1 9977   1.548   0.202   6.409
 3026SOL    HW2 9978   1.604   0.111   6.285
 3027SOL     OW 9979   3.989   1.298   2.930
 3027SOL    HW1 9980   4.071   1.250   2.900
 3027SOL    HW2 9981   3.990   1.391   2.894
 3028SOL     OW 9982   1.791   3.770   6.224
 3028SOL    HW1 9983   1.863   3.786   6.157
 3028SOL    HW2 9984   1.715   3.833   6.207
 3029SOL     OW 9985   0.245   2.273   5.284
 3029SOL    HW1 9986   0.197   2.277   5.371
 3029SOL    HW2 9987   0.327   2.217   5.293
 3030SOL     OW 9988   0.786   3.367   0.114
 3030SOL    HW1 9989   0.720   3.375   0.039
 3030SOL    HW2 9990   0.835   3.453   0.125
 3031SOL     OW 9991   6.992   4.363   1.525
 3031SOL    HW1 9992   6.994   4.304   1.445
 3031SOL    HW2 9993   0.055   4.422   1.526
 3032SOL     OW 9994   2.759   6.109   1.448
 3032SOL    HW1 9995   2.844   6.058   1.434
 3032SOL    HW2 9996   2.701   6.101   1.367
 3033SOL     OW 9997   5.463   1.867   1.467
 3033SOL    HW1 9998   5.548   1.839   1.510
 3033SOL    HW2 9999   5.385   1.835   1.522
 3034SOL     OW10000   1.560   6.527   2.505
 3034SOL    HW110001   1.556   6.454   2.436
 3034SOL    HW210002   1.511   6.497   2.587
 3035SOL     OW10003   0.226   2.964   6.741
 3035SOL    HW110004   0.230   2.995   6.836
 3035SOL    HW210005   0.252   2.867   6.737
 3036SOL     OW10006   2.402   1.950   6.207
 3036SOL    HW110007   2.462   2.030   6.212
 3036SOL    HW210008   2.326   1.961   6.271
 3037SOL     OW10009   6.109   5.746   5.926
 3037SOL    HW110010   6.021   5.717   5.963
 3037SOL    HW210011   6.176   5.751   6.000
 3038SOL     OW10012   4.828   5.892   5.743
 3038SOL    HW110013   4.768   5.823   5.702
 3038SOL    HW210014   4.810   5.896   5.842
 3039SOL     OW10015   0.167   3.458   0.865
 3039SOL    HW110016   0.098   3.424   0.930
 3039SOL    HW210017   0.183   3.390   0.794
 3040SOL     OW10018   3.605   3.785   5.954
 3040SOL    HW110019   3.530   3.755   5.896
 3040SOL    HW210020   3.580   3.870   6.000
 3041SOL     OW10021   2.249   3.074   4.600
 3041SOL    HW110022   2.223   3.168   4.619
 3041SOL    HW210023   2.185   3.035   4.533
 3042SOL     OW10024   5.518   5.702   2.458
 3042SOL    HW110025   5.556   5.788   2.493
 3042SOL    HW210026   5.429   5.719   2.416
 3043SOL     OW10027   2.778   4.156   1.710
 3043SOL    HW110028   2.807   4.091   1.639
 3043SOL    HW210029   2.792   4.249   1.678
 3044SOL     OW10030   3.451   4.603   5.608
 3044SOL    HW110031   3.532   4.557   5.572
 3044SOL    HW210032   3.475   4.695   5.639
 3045SOL     OW10033   5.077   6.878   3.478
 3045SOL    HW110034   4.992   6.834   3.453
 3045SOL    HW210035   5.116   6.832   3.558
 3046SOL     OW10036   2.424   1.051   5.634
 3046SOL    HW110037   2.404   1.058   5.732
 3046SOL    HW210038   2.339   1.035   5.584
 3047SOL     OW10039   5.546   0.333   2.025
 3047SOL    HW110040   5.633   0.375   2.001
 3047SOL    HW210041   5.471   0.395   1.999
 3048SOL     OW10042   3.894   2.326   1.678
 3048SOL    HW110043   3.841   2.306   1.760
 3048SOL    HW210044   3.986   2.355   1.705
 3049SOL     OW10045   1.421   0.102   2.569
 3049SOL    HW110046   1.484   0.180   2.578
 3049SOL    HW210047   1.448   0.046   2.491
 3050SOL     OW10048   3.453   1.488   2.104
 3050SOL    HW110049   3.434   1.504   2.007
 3050SOL    HW210050   3.478   1.392   2.118
 3051SOL     OW10051   1.598   5.543   6.310
 3051SOL    HW110052   1.509   5.504   6.335
 3051SOL    HW210053   1.671   5.489   6.353
 3052SOL     OW10054   5.181   5.345   2.434
 3052SOL    HW110055   5.109   5.346   2.364
 3052SOL    HW210056   5.156   5.282   2.507
 3053SOL     OW10057   6.739   2.208   0.565
 3053SOL    HW110058   6.839   2.209   0.568
 3053SOL    HW210059   6.705   2.301   0.560
 3054SOL     OW10060   6.420   2.298   1.208
 3054SOL    HW110061   6.364   2.380   1.195
 3054SOL    HW210062   6.386   2.246   1.286
 3055SOL     OW10063   4.705   0.752   4.902
 3055SOL    HW110064   4.740   0.846   4.909
 3055SOL    HW210065   4.620   0.752   4.850
 3056SOL     OW10066   6.618   0.473   5.595
 3056SOL    HW110067   6.687   0.520   5.540
 3056SOL    HW210068   6.610   0.378   5.565
 3057SOL     OW10069   4.634   5.942   2.610
 3057SOL    HW110070   4.575   5.887   2.669
 3057SOL    HW210071   4.596   6.034   2.601
 3058SOL     OW10072   6.918   4.841   1.179
 3058SOL    HW110073   6.923   4.783   1.261
 3058SOL    HW210074   6.858   4.919   1.198
 3059SOL     OW10075   2.942   2.202   3.907
 3059SOL    HW110076   2.933   2.229   4.002
 3059SOL    HW210077   3.040   2.192   3.885
 3060SOL     OW10078   1.510   5.045   0.559
 3060SOL    HW110079   1.412   5.064   0.556
 3060SOL    HW210080   1.545   5.064   0.651
 3061SOL     OW10081   0.386   6.465   6.001
 3061SOL    HW110082   0.448   6.389   6.021
 3061SOL    HW210083   0.388   6.484   5.903
 3062SOL     OW10084   2.232   6.995   0.520
 3062SOL    HW110085   2.182   0.059   0.551
 3062SOL    HW210086   2.287   6.959   0.596
 3063SOL     OW10087   1.858   4.750   2.239
 3063SOL    HW110088   1.841   4.816   2.312
 3063SOL    HW210089   1.898   4.667   2.277
 3064SOL     OW10090   4.882   3.712   1.901
 3064SOL    HW110091   4.799   3.752   1.863
 3064SOL    HW210092   4.951   3.783   1.915
 3065SOL     OW10093   1.900   1.537   0.022
 3065SOL    HW110094   1.996   1.551   0.046
 3065SOL    HW210095   1.868   1.613   6.983
 3066SOL     OW10096   4.884   4.695   0.702
 3066SOL    HW110097   4.972   4.698   0.751
 3066SOL    HW210098   4.827   4.771   0.732
 3067SOL     OW10099   3.879   0.780   5.945
 3067SOL    HW110100   3.883   0.811   5.850
 3067SOL    HW210101   3.930   0.695   5.954
 3068SOL     OW10102   6.643   6.717   0.781
 3068SOL    HW110103   6.653   6.796   0.841
 3068SOL    HW210104   6.734   6.679   0.761
 3069SOL     OW10105   6.557   5.790   1.397
 3069SOL    HW110106   6.615   5.856   1.350
 3069SOL    HW210107   6.588   5.780   1.492
 3070SOL     OW10108   3.002   1.424   0.267
 3070SOL    HW110109   3.045   1.356   0.327
 3070SOL    HW210110   3.045   1.513   0.281
 3071SOL     OW10111   6.686   6.413   2.940
 3071SOL    HW110112   6.607   6.461   2.901
 3071SOL    HW210113   6.768   6.467   2.925
 3072SOL     OW10114   2.236   5.921   6.175
 3072SOL    HW110115   2.253   5.928   6.273
 3072SOL    HW210116   2.287   5.993   6.127
 3073SOL     OW10117   6.292   3.516   4.642
 3073SOL    HW110118   6.237   3.475   4.570
 3073SOL    HW210119   6.275   3.615   4.646
 3074SOL     OW10120   6.242   3.768   1.265
 3074SOL    HW110121   6.166   3.823   1.231
 3074SOL    HW210122   6.213   3.717   1.346
 3075SOL     OW10123   2.977   5.391   1.575
 3075SOL    HW110124   2.982   5.301   1.532
 3075SOL    HW210125   2.916   5.451   1.522
 3076SOL     OW10126   6.596   0.456   3.459
 3076SOL    HW110127   6.658   0.467   3.382
 3076SOL    HW210128   6.561   0.545   3.488
 3077SOL     OW10129   6.173   4.769   1.262
 3077SOL    HW110130   6.140   4.828   1.337
 3077SOL    HW210131   6.128   4.796   1.177
 3078SOL     OW10132   0.456   2.737   2.963
 3078SOL    HW110133   0.554   2.731   2.944
 3078SOL    HW210134   0.440   2.722   3.061
 3079SOL     OW10135   2.496   2.568   2.625
 3079SOL    HW110136   2.475   2.653   2.674
 3079SOL    HW210137   2.460   2.574   2.532
 3080SOL     OW10138   5.258   4.960   2.481
 3080SOL    HW110139   5.247   4.985   2.385
 3080SOL    HW210140   5.282   4.863   2.488
 3081SOL     OW10141   1.040   2.492   5.817
 3081SOL    HW110142   1.060   2.495   5.915
 3081SOL    HW210143   0.942   2.476   5.803
 3082SOL     OW10144   2.168   5.683   3.970
 3082SOL    HW110145   2.195   5.623   4.046
 3082SOL    HW210146   2.188   5.637   3.884
 3083SOL     OW10147   2.824   6.463   3.940
 3083SOL    HW110148   2.764   6.393   3.901
 3083SOL    HW210149   2.827   6.451   4.040
 3084SOL     OW10150   6.544   3.883   4.423
 3084SOL    HW110151   6.559   3.910   4.327
 3084SOL    HW210152   6.556   3.784   4.432
 3085SOL     OW10153   5.572   4.700   0.094
 3085SOL    HW110154   5.529   4.689   0.005
 3085SOL    HW210155   5.659   4.748   0.083
 3086SOL     OW10156   5.135   1.224   1.386
 3086SOL    HW110157   5.161   1.130   1.406
 3086SOL    HW210158   5.068   1.224   1.311
 3087SOL     OW10159   1.682   6.055   4.105
 3087SOL    HW110160   1.615   5.981   4.111
 3087SOL    HW210161   1.734   6.046   4.020
 3088SOL     OW10162   2.250   4.889   5.203
 3088SOL    HW110163   2.200   4.823   5.147
 3088SOL    HW210164   2.345   4.895   5.171
 3089SOL     OW10165   2.268   2.430   5.531
 3089SOL    HW110166   2.169   2.446   5.529
 3089SOL    HW210167   2.306   2.472   5.614
 3090SOL     OW10168   2.341   1.931   1.547
 3090SOL    HW110169   2.259   1.883   1.577
 3090SOL    HW210170   2.422   1.888   1.585
 3091SOL     OW10171   2.037   0.394   1.338
 3091SOL    HW110172   2.085   0.396   1.425
 3091SOL    HW210173   1.943   0.425   1.350
 3092SOL     OW10174   5.415   1.378   7.007
 3092SOL    HW110175   5.453   1.432   0.065
 3092SOL    HW210176   5.467   1.398   6.923
 3093SOL     OW10177   5.352   6.381   6.469
 3093SOL    HW110178   5.299   6.363   6.551
 3093SOL    HW210179   5.301   6.351   6.389
 3094SOL     OW10180   2.321   0.088   4.341
 3094SOL    HW110181   2.413   0.050   4.332
 3094SOL    HW210182   2.257   0.033   4.288
 3095SOL     OW10183   2.505   5.041   5.463
 3095SOL    HW110184   2.525   4.954   5.508
 3095SOL    HW210185   2.491   5.026   5.365
 3096SOL     OW10186   0.594   5.161   5.484
 3096SOL    HW110187   0.500   5.194   5.480
 3096SOL    HW210188   0.594   5.061   5.496
 3097SOL     OW10189   5.532   2.265   6.764
 3097SOL    HW110190   5.475   2.335   6.720
 3097SOL    HW210191   5.622   2.263   6.719
 3098SOL     OW10192   2.175   2.419   1.300
 3098SOL    HW110193   2.244   2.459   1.360
 3098SOL    HW210194   2.123   2.492   1.256
 3099SOL     OW10195   0.475   0.182   3.722
 3099SOL    HW110196   0.447   0.186   3.626
 3099SOL    HW210197   0.563   0.136   3.730
 3100SOL     OW10198   6.729   6.558   3.477
 3100SOL    HW110199   6.697   6.558   3.383
 3100SOL    HW210200   6.828   6.573   3.478
 3101SOL     OW10201   5.962   5.882   0.078
 3101SOL    HW110202   6.059   5.907   0.079
 3101SOL    HW210203   5.920   5.909   0.165
 3102SOL     OW10204   6.502   5.462   2.354
 3102SOL    HW110205   6.492   5.399   2.431
 3102SOL    HW210206   6.577   5.525   2.373
 3103SOL     OW10207   4.384   0.951   2.238
 3103SOL    HW110208   4.320   0.886   2.198
 3103SOL    HW210209   4.477   0.916   2.229
 3104SOL     OW10210   5.188   0.879   5.177
 3104SOL    HW110211   5.160   0.783   5.183
 3104SOL    HW210212   5.152   0.929   5.254
 3105SOL     OW10213   5.393   4.329   1.061
 3105SOL    HW110214   5.299   4.310   1.031
 3105SOL    HW210215   5.450   4.249   1.045
 3106SOL     OW10216   4.771   0.752   3.891
 3106SOL    HW110217   4.814   0.837   3.861
 3106SOL    HW210218   4.725   0.768   3.979
 3107SOL     OW10219   4.562   1.687   5.027
 3107SOL    HW110220   4.493   1.720   5.091
 3107SOL    HW210221   4.518   1.639   4.951
 3108SOL     OW10222   1.850   6.209   4.275
 3108SOL    HW110223   1.800   6.172   4.198
 3108SOL    HW210224   1.946   6.222   4.250
 3109SOL     OW10225   5.531   6.183   3.997
 3109SOL    HW110226   5.606   6.205   3.935
 3109SOL    HW210227   5.448   6.165   3.945
 3110SOL     OW10228   1.061   3.307   2.628
 3110SOL    HW110229   1.073   3.354   2.541
 3110SOL    HW210230   0.964   3.292   2.645
 3111SOL     OW10231   0.483   4.901   3.698
 3111SOL    HW110232   0.459   4.812   3.659
 3111SOL    HW210233   0.426   4.919   3.778
 3112SOL     OW10234   3.989   3.063   0.017
 3112SOL    HW110235   3.922   3.137   0.019
 3112SOL    HW210236   4.015   3.044   6.940
 3113SOL     OW10237   2.513   4.515   3.596
 3113SOL    HW110238   2.503   4.544   3.501
 3113SOL    HW210239   2.438   4.453   3.620
 3114SOL     OW10240   3.879   2.088   0.760
 3114SOL    HW110241   3.830   2.026   0.821
 3114SOL    HW210242   3.912   2.167   0.811
 3115SOL     OW10243   4.031   4.874   6.065
 3115SOL    HW110244   4.095   4.825   6.124
 3115SOL    HW210245   3.988   4.810   6.002
 3116SOL     OW10246   6.818   2.958   0.372
 3116SOL    HW110247   6.825   2.973   0.471
 3116SOL    HW210248   6.799   2.861   0.355
 3117SOL     OW10249   4.928   3.788   5.141
 3117SOL    HW110250   4.871   3.719   5.097
 3117SOL    HW210251   4.876   3.833   5.214
 3118SOL     OW10252   0.564   5.791   2.182
 3118SOL    HW110253   0.559   5.695   2.154
 3118SOL    HW210254   0.628   5.799   2.259
 3119SOL     OW10255   2.452   2.737   6.414
 3119SOL    HW110256   2.429   2.763   6.508
 3119SOL    HW210257   2.425   2.642   6.397
 3120SOL     OW10258   3.057   0.098   5.738
 3120SOL    HW110259   2.962   0.094   5.767
 3120SOL    HW210260   3.116   0.113   5.818
 3121SOL     OW10261   0.135   0.905   3.514
 3121SOL    HW110262   0.192   0.899   3.432
 3121SOL    HW210263   0.100   0.815   3.538
 3122SOL     OW10264   3.980   5.460   6.173
 3122SOL    HW110265   3.940   5.463   6.082
 3122SOL    HW210266   4.080   5.453   6.166
 3123SOL     OW10267   1.911   1.951   3.357
 3123SOL    HW110268   1.944   1.886   3.425
 3123SOL    HW210269   1.987   1.984   3.302
 3124SOL     OW10270   4.987   0.023   4.676
 3124SOL    HW110271   4.907   0.069   4.639
 3124SOL    HW210272   4.959   6.973   4.745
 3125SOL     OW10273   0.993   3.021   4.936
 3125SOL    HW110274   0.967   2.999   4.842
 3125SOL    HW210275   0.948   3.107   4.964
 3126SOL     OW10276   5.657   3.816   5.723
 3126SOL    HW110277   5.590   3.803   5.651
 3126SOL    HW210278   5.745   3.776   5.695
 3127SOL     OW10279   1.127   2.720   5.712
 3127SOL    HW110280   1.072   2.646   5.751
 3127SOL    HW210281   1.122   2.717   5.612
 3128SOL     OW10282   3.306   0.696   6.688
 3128SOL    HW110283   3.298   0.596   6.686
 3128SOL    HW210284   3.402   0.722   6.697
 3129SOL     OW10285   6.259   3.560   6.970
 3129SOL    HW110286   6.183   3.548   6.905
 3129SOL    HW210287   6.316   3.636   6.939
 3130SOL     OW10288   1.750   4.125   1.761
 3130SOL    HW110289   1.726   4.220   1.740
 3130SOL    HW210290   1.668   4.068   1.756
 3131SOL     OW10291   0.473   3.470   2.247
 3131SOL    HW110292   0.555   3.499   2.197
 3131SOL    HW210293   0.491   3.473   2.345
 3132SOL     OW10294   3.886   5.832   6.585
 3132SOL    HW110295   3.909   5.735   6.576
 3132SOL    HW210296   3.807   5.852   6.528
 3133SOL     OW10297   2.994   1.647   3.225
 3133SOL    HW110298   3.017   1.699   3.143
 3133SOL    HW210299   2.954   1.559   3.199
 3134SOL     OW10300   4.736   4.308   1.518
 3134SOL    HW110301   4.777   4.261   1.597
 3134SOL    HW210302   4.655   4.258   1.489
 3135SOL     OW10303   4.465   1.045   4.917
 3135SOL    HW110304   4.428   1.031   4.826
 3135SOL    HW210305   4.559   1.010   4.921
 3136SOL     OW10306   5.270   0.572   2.198
 3136SOL    HW110307   5.202   0.643   2.181
 3136SOL    HW210308   5.252   0.529   2.286
 3137SOL     OW10309   6.543   0.523   2.211
 3137SOL    HW110310   6.479   0.551   2.139
 3137SOL    HW210311   6.508   0.440   2.256
 3138SOL     OW10312   6.225   4.794   3.743
 3138SOL    HW110313   6.181   4.709   3.714
 3138SOL    HW210314   6.319   4.797   3.708
 3139SOL     OW10315   4.832   5.993   0.771
 3139SOL    HW110316   4.817   6.091   0.765
 3139SOL    HW210317   4.923   5.975   0.809
 3140SOL     OW10318   6.494   6.946   0.405
 3140SOL    HW110319   6.398   6.953   0.380
 3140SOL    HW210320   6.548   6.925   0.324
 3141SOL     OW10321   0.649   6.833   6.532
 3141SOL    HW110322   0.554   6.837   6.562
 3141SOL    HW210323   0.704   6.895   6.589
 3142SOL     OW10324   3.662   6.972   2.468
 3142SOL    HW110325   3.724   6.958   2.390
 3142SOL    HW210326   3.654   6.886   2.519
 3143SOL     OW10327   6.302   2.003   0.305
 3143SOL    HW110328   6.347   1.984   0.392
 3143SOL    HW210329   6.331   2.093   0.271
 3144SOL     OW10330   3.489   3.663   1.652
 3144SOL    HW110331   3.565   3.632   1.710
 3144SOL    HW210332   3.403   3.655   1.703
 3145SOL     OW10333   2.303   5.768   1.380
 3145SOL    HW110334   2.379   5.718   1.341
 3145SOL    HW210335   2.337   5.847   1.432
 3146SOL     OW10336   1.218   1.204   4.250
 3146SOL    HW110337   1.126   1.226   4.280
 3146SOL    HW210338   1.276   1.186   4.329
 3147SOL     OW10339   3.206   5.407   1.155
 3147SOL    HW110340   3.111   5.375   1.151
 3147SOL    HW210341   3.214   5.494   1.108
 3148SOL     OW10342   6.194   6.774   3.842
 3148SOL    HW110343   6.205   6.797   3.939
 3148SOL    HW210344   6.105   6.805   3.810
 3149SOL     OW10345   2.833   0.861   5.459
 3149SOL    HW110346   2.799   0.922   5.388
 3149SOL    HW210347   2.845   0.769   5.421
 3150SOL     OW10348   6.088   5.372   4.529
 3150SOL    HW110349   6.132   5.292   4.568
 3150SOL    HW210350   5.997   5.384   4.570
 3151SOL     OW10351   6.782   1.058   5.355
 3151SOL    HW110352   6.715   1.004   5.405
 3151SOL    HW210353   6.752   1.069   5.260
 3152SOL     OW10354   1.122   5.310   1.262
 3152SOL    HW110355   1.220   5.302   1.243
 3152SOL    HW210356   1.108   5.375   1.337
 3153SOL     OW10357   5.962   5.012   0.465
 3153SOL    HW110358   5.924   4.941   0.406
 3153SOL    HW210359   5.892   5.041   0.531
 3154SOL     OW10360   6.605   1.612   6.900
 3154SOL    HW110361   6.555   1.632   6.984
 3154SOL    HW210362   6.546   1.562   6.837
 3155SOL     OW10363   6.401   4.491   0.444
 3155SOL    HW110364   6.496   4.471   0.422
 3155SOL    HW210365   6.380   4.461   0.537
 3156SOL     OW10366   3.499   3.120   3.285
 3156SOL    HW110367   3.583   3.078   3.319
 3156SOL    HW210368   3.421   3.064   3.312
 3157SOL     OW10369   2.912   1.868   5.238
 3157SOL    HW110370   2.896   1.859   5.336
 3157SOL    HW210371   2.978   1.942   5.222
 3158SOL     OW10372   3.541   1.514   3.145
 3158SOL    HW110373   3.544   1.479   3.239
 3158SOL    HW210374   3.499   1.445   3.085
 3159SOL     OW10375   6.038   1.320   0.254
 3159SOL    HW110376   6.113   1.309   0.189
 3159SOL    HW210377   6.044   1.249   0.324
 3160SOL     OW10378   0.414   5.800   5.469
 3160SOL    HW110379   0.345   5.801   5.541
 3160SOL    HW210380   0.446   5.894   5.453
 3161SOL     OW10381   2.225   3.022   2.951
 3161SOL    HW110382   2.205   3.008   3.048
 3161SOL    HW210383   2.309   3.075   2.941
 3162SOL     OW10384   1.593   6.057   2.338
 3162SOL    HW110385   1.693   6.060   2.349
 3162SOL    HW210386   1.550   6.105   2.414
 3163SOL     OW10387   4.788   2.980   5.912
 3163SOL    HW110388   4.881   2.968   5.877
 3163SOL    HW210389   4.791   3.033   5.997
 3164SOL     OW10390   4.488   5.514   1.215
 3164SOL    HW110391   4.585   5.498   1.229
 3164SOL    HW210392   4.475   5.588   1.149
 3165SOL     OW10393   0.770   6.348   0.670
 3165SOL    HW110394   0.757   6.418   0.600
 3165SOL    HW210395   0.854   6.296   0.650
 3166SOL     OW10396   4.161   1.760   4.155
 3166SOL    HW110397   4.140   1.716   4.243
 3166SOL    HW210398   4.256   1.792   4.157
 3167SOL     OW10399   6.477   4.896   0.993
 3167SOL    HW110400   6.574   4.922   0.986
 3167SOL    HW210401   6.456   4.829   0.921
 3168SOL     OW10402   4.937   2.676   6.761
 3168SOL    HW110403   4.967   2.771   6.752
 3168SOL    HW210404   4.896   2.662   6.851
 3169SOL     OW10405   2.192   3.937   4.304
 3169SOL    HW110406   2.183   3.880   4.223
 3169SOL    HW210407   2.204   3.879   4.384
 3170SOL     OW10408   4.553   6.537   1.314
 3170SOL    HW110409   4.575   6.484   1.232
 3170SOL    HW210410   4.500   6.618   1.289
 3171SOL     OW10411   0.286   0.429   2.135
 3171SOL    HW110412   0.209   0.464   2.189
 3171SOL    HW210413   0.261   0.340   2.095
 3172SOL     OW10414   6.615   5.100   0.560
 3172SOL    HW110415   6.678   5.038   0.608
 3172SOL    HW210416   6.635   5.194   0.586
 3173SOL     OW10417   2.477   1.784   0.597
 3173SOL    HW110418   2.454   1.740   0.684
 3173SOL    HW210419   2.400   1.839   0.566
 3174SOL     OW10420   2.683   2.389   0.839
 3174SOL    HW110421   2.688   2.409   0.937
 3174SOL    HW210422   2.626   2.309   0.824
 3175SOL     OW10423   6.248   1.229   1.686
 3175SOL    HW110424   6.291   1.223   1.776
 3175SOL    HW210425   6.199   1.316   1.679
 3176SOL     OW10426   1.641   4.149   5.314
 3176SOL    HW110427   1.593   4.133   5.228
 3176SOL    HW210428   1.586   4.115   5.390
 3177SOL     OW10429   4.893   3.681   4.030
 3177SOL    HW110430   4.888   3.583   4.052
 3177SOL    HW210431   4.802   3.715   4.007
 3178SOL     OW10432   6.502   2.131   1.001
 3178SOL    HW110433   6.482   2.182   1.084
 3178SOL    HW210434   6.421   2.078   0.975
 3179SOL     OW10435   1.029   3.260   2.273
 3179SOL    HW110436   0.994   3.286   2.183
 3179SOL    HW210437   0.999   3.328   2.340
 3180SOL     OW10438   4.881   1.234   0.075
 3180SOL    HW110439   4.828   1.239   7.008
 3180SOL    HW210440   4.945   1.157   0.070
 3181SOL     OW10441   6.753   1.643   3.729
 3181SOL    HW110442   6.835   1.695   3.752
 3181SOL    HW210443   6.691   1.643   3.808
 3182SOL     OW10444   3.200   0.233   5.972
 3182SOL    HW110445   3.218   0.150   6.025
 3182SOL    HW210446   3.281   0.292   5.975
 3183SOL     OW10447   4.045   4.015   1.789
 3183SOL    HW110448   4.023   4.012   1.887
 3183SOL    HW210449   4.143   3.998   1.777
 3184SOL     OW10450   0.737   3.788   2.733
 3184SOL    HW110451   0.671   3.731   2.683
 3184SOL    HW210452   0.759   3.869   2.680
 3185SOL     OW10453   5.405   5.836   6.921
 3185SOL    HW110454   5.332   5.772   6.898
 3185SOL    HW210455   5.491   5.805   6.880
 3186SOL     OW10456   3.646   1.879   1.435
 3186SOL    HW110457   3.652   1.938   1.354
 3186SOL    HW210458   3.556   1.889   1.477
 3187SOL     OW10459   4.630   4.580   0.515
 3187SOL    HW110460   4.543   4.534   0.533
 3187SOL    HW210461   4.696   4.514   0.480
 3188SOL     OW10462   2.279   0.411   4.094
 3188SOL    HW110463   2.299   0.359   4.012
 3188SOL    HW210464   2.334   0.376   4.171
 3189SOL     OW10465   1.143   1.011   1.279
 3189SOL    HW110466   1.188   1.099   1.267
 3189SOL    HW210467   1.191   0.941   1.225
 3190SOL     OW10468   7.008   5.707   0.501
 3190SOL    HW110469   0.059   5.775   0.527
 3190SOL    HW210470   6.934   5.708   0.568
 3191SOL     OW10471   5.096   6.241   0.700
 3191SOL    HW110472   5.054   6.268   0.614
 3191SOL    HW210473   5.162   6.168   0.683
 3192SOL     OW10474   6.660   2.425   1.115
 3192SOL    HW110475   6.715   2.402   1.196
 3192SOL    HW210476   6.567   2.391   1.127
 3193SOL     OW10477   3.399   1.611   6.564
 3193SOL    HW110478   3.310   1.589   6.604
 3193SOL    HW210479   3.469   1.551   6.603
 3194SOL     OW10480   1.942   2.412   6.333
 3194SOL    HW110481   2.012   2.406   6.262
 3194SOL    HW210482   1.889   2.327   6.334
 3195SOL     OW10483   3.009   2.252   3.165
 3195SOL    HW110484   3.074   2.261   3.241
 3195SOL    HW210485   2.916   2.249   3.202
 3196SOL     OW10486   0.233   1.343   6.461
 3196SOL    HW110487   0.193   1.434   6.446
 3196SOL    HW210488   0.187   1.298   6.537
 3197SOL     OW10489   2.541   6.532   3.525
 3197SOL    HW110490   2.636   6.516   3.501
 3197SOL    HW210491   2.484   6.459   3.487
 3198SOL     OW10492   5.582   2.891   4.799
 3198SOL    HW110493   5.676   2.867   4.776
 3198SOL    HW210494   5.563   2.866   4.894
 3199SOL     OW10495   5.412   3.476   2.524
 3199SOL    HW110496   5.368   3.445   2.608
 3199SOL    HW210497   5.372   3.428   2.446
 3200SOL     OW10498   6.124   3.065   1.567
 3200SOL    HW110499   6.118   2.990   1.500
 3200SOL    HW210500   6.220   3.087   1.583
 3201SOL     OW10501   5.650   4.740   4.228
 3201SOL    HW110502   5.702   4.663   4.193
 3201SOL    HW210503   5.671   4.755   4.324
 3202SOL     OW10504   6.956   4.780   1.654
 3202SOL    HW110505   0.014   4.757   1.717
 3202SOL    HW210506   6.931   4.876   1.665
 3203SOL     OW10507   6.338   2.385   0.505
 3203SOL    HW110508   6.437   2.393   0.501
 3203SOL    HW210509   6.297   2.432   0.427
 3204SOL     OW10510   4.767   6.541   2.244
 3204SOL    HW110511   4.748   6.444   2.257
 3204SOL    HW210512   4.764   6.588   2.332
 3205SOL     OW10513   6.809   3.087   6.306
 3205SOL    HW110514   6.781   3.029   6.382
 3205SOL    HW210515   6.874   3.038   6.248
 3206SOL     OW10516   1.041   5.652   6.297
 3206SOL    HW110517   0.954   5.698   6.281
 3206SOL    HW210518   1.085   5.633   6.209
 3207SOL     OW10519   0.958   0.403   5.829
 3207SOL    HW110520   1.048   0.437   5.803
 3207SOL    HW210521   0.916   0.466   5.895
 3208SOL     OW10522   5.053   5.883   5.630
 3208SOL    HW110523   5.107   5.945   5.687
 3208SOL    HW210524   4.957   5.888   5.658
 3209SOL     OW10525   4.493   5.967   3.344
 3209SOL    HW110526   4.444   6.013   3.419
 3209SOL    HW210527   4.562   6.029   3.307
 3210SOL     OW10528   0.911   4.313   1.645
 3210SOL    HW110529   0.873   4.398   1.681
 3210SOL    HW210530   0.865   4.290   1.559
 3211SOL     OW10531   1.432   4.234   0.930
 3211SOL    HW110532   1.343   4.278   0.933
 3211SOL    HW210533   1.475   4.239   1.020
 3212SOL     OW10534   3.378   0.713   0.877
 3212SOL    HW110535   3.389   0.710   0.777
 3212SOL    HW210536   3.284   0.687   0.901
 3213SOL     OW10537   0.704   5.817   1.659
 3213SOL    HW110538   0.651   5.799   1.742
 3213SOL    HW210539   0.655   5.882   1.602
 3214SOL     OW10540   5.065   5.348   0.503
 3214SOL    HW110541   5.085   5.436   0.546
 3214SOL    HW210542   5.142   5.286   0.517
 3215SOL     OW10543   6.803   3.285   0.739
 3215SOL    HW110544   6.751   3.353   0.687
 3215SOL    HW210545   6.807   3.313   0.835
 3216SOL     OW10546   5.740   5.077   0.625
 3216SOL    HW110547   5.725   5.018   0.704
 3216SOL    HW210548   5.676   5.054   0.553
 3217SOL     OW10549   0.057   5.425   2.392
 3217SOL    HW110550   0.019   5.501   2.338
 3217SOL    HW210551   0.131   5.459   2.450
 3218SOL     OW10552   4.221   1.342   3.308
 3218SOL    HW110553   4.141   1.401   3.294
 3218SOL    HW210554   4.258   1.314   3.220
 3219SOL     OW10555   0.114   1.596   3.750
 3219SOL    HW110556   0.041   1.533   3.778
 3219SOL    HW210557   0.077   1.664   3.686
 3220SOL     OW10558   6.356   5.899   6.740
 3220SOL    HW110559   6.280   5.834   6.747
 3220SOL    HW210560   6.360   5.935   6.646
 3221SOL     OW10561   3.898   0.643   1.604
 3221SOL    HW110562   3.842   0.578   1.553
 3221SOL    HW210563   3.990   0.644   1.566
 3222SOL     OW10564   3.945   1.517   2.302
 3222SOL    HW110565   3.927   1.452   2.375
 3222SOL    HW210566   3.862   1.568   2.281
 3223SOL     OW10567   1.753   5.759   6.337
 3223SOL    HW110568   1.729   5.799   6.425
 3223SOL    HW210569   1.672   5.720   6.294
 3224SOL     OW10570   4.405   3.571   6.550
 3224SOL    HW110571   4.422   3.514   6.630
 3224SOL    HW210572   4.366   3.659   6.578
 3225SOL     OW10573   4.685   3.570   6.438
 3225SOL    HW110574   4.590   3.588   6.462
 3225SOL    HW210575   4.690   3.525   6.349
 3226SOL     OW10576   1.842   1.317   3.807
 3226SOL    HW110577   1.760   1.372   3.821
 3226SOL    HW210578   1.890   1.348   3.725
 3227SOL     OW10579   3.898   2.566   0.032
 3227SOL    HW110580   3.883   2.540   6.954
 3227SOL    HW210581   3.982   2.618   0.041
 3228SOL     OW10582   6.601   3.927   3.014
 3228SOL    HW110583   6.600   4.001   3.081
 3228SOL    HW210584   6.694   3.914   2.981
 3229SOL     OW10585   4.129   0.546   5.191
 3229SOL    HW110586   4.080   0.515   5.110
 3229SOL    HW210587   4.090   0.502   5.272
 3230SOL     OW10588   1.921   3.062   4.874
 3230SOL    HW110589   1.974   2.986   4.837
 3230SOL    HW210590   1.842   3.080   4.815
 3231SOL     OW10591   2.279   0.505   1.072
 3231SOL    HW110592   2.377   0.501   1.056
 3231SOL    HW210593   2.261   0.563   1.152
 3232SOL     OW10594   4.839   5.331   4.911
 3232SOL    HW110595   4.765   5.277   4.870
 3232SOL    HW210596   4.810   5.365   5.001
 3233SOL     OW10597   1.211   2.692   1.398
 3233SOL    HW110598   1.137   2.657   1.342
 3233SOL    HW210599   1.289   2.630   1.393
 3234SOL     OW10600   6.753   1.754   6.735
 3234SOL    HW110601   6.705   1.695   6.799
 3234SOL    HW210602   6.817   1.814   6.784
 3235SOL     OW10603   5.750   0.956   1.754
 3235SOL    HW110604   5.765   0.999   1.665
 3235SOL    HW210605   5.683   1.010   1.805
 3236SOL     OW10606   1.476   3.110   0.973
 3236SOL    HW110607   1.551   3.046   0.990
 3236SOL    HW210608   1.513   3.196   0.937
 3237SOL     OW10609   4.845   1.507   4.176
 3237SOL    HW110610   4.784   1.505   4.096
 3237SOL    HW210611   4.850   1.601   4.211
 3238SOL     OW10612   0.472   4.988   0.875
 3238SOL    HW110613   0.546   5.031   0.927
 3238SOL    HW210614   0.478   5.016   0.779
 3239SOL     OW10615   6.291   1.815   1.969
 3239SOL    HW110616   6.319   1.874   2.045
 3239SOL    HW210617   6.194   1.830   1.949
 3240SOL     OW10618   1.024   6.910   6.493
 3240SOL    HW110619   0.953   6.925   6.562
 3240SOL    HW210620   1.049   6.997   6.451
 3241SOL     OW10621   4.496   1.900   5.471
 3241SOL    HW110622   4.452   1.874   5.385
 3241SOL    HW210623   4.426   1.910   5.542
 3242SOL     OW10624   3.365   4.173   6.903
 3242SOL    HW110625   3.382   4.265   6.940
 3242SOL    HW210626   3.280   4.137   6.942
 3243SOL     OW10627   4.489   4.847   0.507
 3243SOL    HW110628   4.523   4.794   0.586
 3243SOL    HW210629   4.562   4.857   0.440
 3244SOL     OW10630   5.131   5.551   0.670
 3244SOL    HW110631   5.094   5.644   0.675
 3244SOL    HW210632   5.120   5.505   0.758
 3245SOL     OW10633   4.998   2.967   5.144
 3245SOL    HW110634   4.997   2.964   5.044
 3245SOL    HW210635   4.926   3.027   5.177
 3246SOL     OW10636   5.957   0.496   2.495
 3246SOL    HW110637   6.051   0.463   2.494
 3246SOL    HW210638   5.946   0.567   2.566
 3247SOL     OW10639   6.022   4.498   2.538
 3247SOL    HW110640   5.956   4.430   2.571
 3247SOL    HW210641   6.069   4.540   2.616
 3248SOL     OW10642   6.624   3.553   0.776
 3248SOL    HW110643   6.543   3.612   0.773
 3248SOL    HW210644   6.628   3.508   0.866
 3249SOL     OW10645   4.049   3.159   4.127
 3249SOL    HW110646   4.034   3.147   4.029
 3249SOL    HW210647   4.033   3.254   4.152
 3250SOL     OW10648   6.121   6.539   2.082
 3250SOL    HW110649   6.069   6.453   2.090
 3250SOL    HW210650   6.213   6.518   2.050
 3251SOL     OW10651   2.871   1.169   3.001
 3251SOL    HW110652   2.864   1.084   3.052
 3251SOL    HW210653   2.806   1.235   3.038
 3252SOL     OW10654   2.196   1.962   2.896
 3252SOL    HW110655   2.230   1.937   2.805
 3252SOL    HW210656   2.227   2.054   2.919
 3253SOL     OW10657   5.498   3.274   1.878
 3253SOL    HW110658   5.420   3.283   1.816
 3253SOL    HW210659   5.474   3.311   1.968
 3254SOL     OW10660   5.276   5.526   4.989
 3254SOL    HW110661   5.257   5.432   5.016
 3254SOL    HW210662   5.282   5.531   4.889
 3255SOL     OW10663   5.306   5.919   0.459
 3255SOL    HW110664   5.220   5.963   0.434
 3255SOL    HW210665   5.323   5.843   0.396
 3256SOL     OW10666   3.283   1.261   6.908
 3256SOL    HW110667   3.213   1.270   6.838
 3256SOL    HW210668   3.314   1.166   6.913
 3257SOL     OW10669   1.945   1.389   1.532
 3257SOL    HW110670   1.975   1.347   1.447
 3257SOL    HW210671   1.973   1.331   1.609
 3258SOL     OW10672   4.218   4.672   2.032
 3258SOL    HW110673   4.302   4.627   2.061
 3258SOL    HW210674   4.181   4.624   1.952
 3259SOL     OW10675   4.671   5.314   3.473
 3259SOL    HW110676   4.595   5.308   3.408
 3259SOL    HW210677   4.754   5.279   3.431
 3260SOL     OW10678   2.047   1.954   0.856
 3260SOL    HW110679   2.026   2.010   0.776
 3260SOL    HW210680   2.012   1.998   0.938
 3261SOL     OW10681   5.028   6.846   1.087
 3261SOL    HW110682   4.984   6.760   1.062
 3261SOL    HW210683   5.062   6.840   1.180
 3262SOL     OW10684   3.069   1.874   2.056
 3262SOL    HW110685   2.996   1.814   2.023
 3262SOL    HW210686   3.039   1.918   2.141
 3263SOL     OW10687   2.368   0.669   3.223
 3263SOL    HW110688   2.436   0.618   3.274
 3263SOL    HW210689   2.276   0.634   3.245
 3264SOL     OW10690   1.687   4.516   0.873
 3264SOL    HW110691   1.735   4.530   0.787
 3264SOL    HW210692   1.733   4.443   0.925
 3265SOL     OW10693   4.947   0.864   6.661
 3265SOL    HW110694   4.927   0.797   6.732
 3265SOL    HW210695   5.032   0.839   6.614
 3266SOL     OW10696   1.350   3.533   0.918
 3266SOL    HW110697   1.282   3.463   0.937
 3266SOL    HW210698   1.437   3.490   0.895
 3267SOL     OW10699   3.765   0.625   0.536
 3267SOL    HW110700   3.723   0.630   0.445
 3267SOL    HW210701   3.860   0.595   0.526
 3268SOL     OW10702   1.478   3.834   0.614
 3268SOL    HW110703   1.389   3.880   0.610
 3268SOL    HW210704   1.549   3.896   0.581
 3269SOL     OW10705   4.320   5.331   2.286
 3269SOL    HW110706   4.378   5.379   2.352
 3269SOL    HW210707   4.275   5.254   2.330
 3270SOL     OW10708   0.525   4.380   5.312
 3270SOL    HW110709   0.455   4.451   5.321
 3270SOL    HW210710   0.545   4.365   5.215
 3271SOL     OW10711   6.080   3.624   2.485
 3271SOL    HW110712   6.172   3.624   2.525
 3271SOL    HW210713   6.014   3.599   2.556
 3272SOL     OW10714   3.683   4.247   6.101
 3272SOL    HW110715   3.751   4.296   6.048
 3272SOL    HW210716   3.634   4.182   6.043
 3273SOL     OW10717   0.652   6.389   1.264
 3273SOL    HW110718   0.659   6.471   1.321
 3273SOL    HW210719   0.663   6.414   1.168
 3274SOL     OW10720   4.768   1.458   1.411
 3274SOL    HW110721   4.858   1.461   1.367
 3274SOL    HW210722   4.702   1.508   1.356
 3275SOL     OW10723   6.415   1.509   6.715
 3275SOL    HW110724   6.325   1.468   6.731
 3275SOL    HW210725   6.473   1.444   6.666
 3276SOL     OW10726   1.963   6.169   0.172
 3276SOL    HW110727   1.886   6.232   0.170
 3276SOL    HW210728   1.950   6.102   0.245
 3277SOL     OW10729   4.404   6.912   0.187
 3277SOL    HW110730   4.308   6.939   0.176
 3277SOL    HW210731   4.463   6.991   0.170
 3278SOL     OW10732   0.995   0.954   6.163
 3278SOL    HW110733   1.049   1.004   6.231
 3278SOL    HW210734   0.920   1.012   6.132
 3279SOL     OW10735   5.482   0.671   6.681
 3279SOL    HW110736   5.579   0.646   6.688
 3279SOL    HW210737   5.463   0.747   6.742
 3280SOL     OW10738   3.668   5.709   4.282
 3280SOL    HW110739   3.581   5.756   4.296
 3280SOL    HW210740   3.653   5.623   4.234
 3281SOL     OW10741   2.223   5.922   1.771
 3281SOL    HW110742   2.232   5.998   1.706
 3281SOL    HW210743   2.312   5.903   1.812
 3282SOL     OW10744   0.543   4.894   5.516
 3282SOL    HW110745   0.619   4.834   5.541
 3282SOL    HW210746   0.482   4.845   5.453
 3283SOL     OW10747   4.478   0.998   1.308
 3283SOL    HW110748   4.481   1.097   1.301
 3283SOL    HW210749   4.549   0.966   1.372
 3284SOL     OW10750   6.799   5.257   6.985
 3284SOL    HW110751   6.722   5.254   0.031
 3284SOL    HW210752   6.875   5.305   0.011
 3285SOL     OW10753   5.101   2.827   3.822
 3285SOL    HW110754   5.073   2.736   3.851
 3285SOL    HW210755   5.044   2.895   3.868
 3286SOL     OW10756   4.093   3.515   2.456
 3286SOL    HW110757   3.994   3.525   2.459
 3286SOL    HW210758   4.124   3.515   2.361
 3287SOL     OW10759   1.094   6.528   0.130
 3287SOL    HW110760   1.159   6.574   0.070
 3287SOL    HW210761   1.001   6.547   0.098
 3288SOL     OW10762   0.235   5.365   6.373
 3288SOL    HW110763   0.244   5.447   6.429
 3288SOL    HW210764   0.325   5.330   6.348
 3289SOL     OW10765   2.656   6.777   5.799
 3289SOL    HW110766   2.594   6.739   5.731
 3289SOL    HW210767   2.747   6.736   5.787
 3290SOL     OW10768   0.415   0.151   1.772
 3290SOL    HW110769   0.428   0.136   1.674
 3290SOL    HW210770   0.332   0.105   1.802
 3291SOL     OW10771   2.103   6.552   0.978
 3291SOL    HW110772   2.169   6.628   0.979
 3291SOL    HW210773   2.062   6.544   0.886
 3292SOL     OW10774   0.431   0.787   0.970
 3292SOL    HW110775   0.444   0.757   0.876
 3292SOL    HW210776   0.430   0.887   0.974
 3293SOL     OW10777   0.556   3.979   3.308
 3293SOL    HW110778   0.510   4.024   3.385
 3293SOL    HW210779   0.568   4.044   3.233
 3294SOL     OW10780   6.578   1.728   6.001
 3294SOL    HW110781   6.626   1.663   5.941
 3294SOL    HW210782   6.488   1.747   5.963
 3295SOL     OW10783   1.276   3.152   1.950
 3295SOL    HW110784   1.196   3.192   1.996
 3295SOL    HW210785   1.248   3.069   1.902
 3296SOL     OW10786   1.670   6.741   2.142
 3296SOL    HW110787   1.575   6.739   2.110
 3296SOL    HW210788   1.717   6.659   2.110
 3297SOL     OW10789   3.198   0.641   4.667
 3297SOL    HW110790   3.136   0.616   4.593
 3297SOL    HW210791   3.158   0.614   4.755
 3298SOL     OW10792   5.768   1.465   4.648
 3298SOL    HW110793   5.674   1.453   4.616
 3298SOL    HW210794   5.775   1.548   4.703
 3299SOL     OW10795   2.682   5.444   3.934
 3299SOL    HW110796   2.720   5.352   3.939
 3299SOL    HW210797   2.753   5.509   3.905
 3300SOL     OW10798   0.363   0.710   5.430
 3300SOL    HW110799   0.416   0.786   5.468
 3300SOL    HW210800   0.296   0.745   5.365
 3301SOL     OW10801   2.132   3.252   3.661
 3301SOL    HW110802   2.160   3.255   3.564
 3301SOL    HW210803   2.056   3.188   3.672
 3302SOL     OW10804   0.172   4.948   5.023
 3302SOL    HW110805   0.209   5.041   5.032
 3302SOL    HW210806   0.142   4.915   5.112
 3303SOL     OW10807   3.448   3.334   1.899
 3303SOL    HW110808   3.507   3.310   1.977
 3303SOL    HW210809   3.503   3.337   1.816
 3304SOL     OW10810   1.023   5.778   4.048
 3304SOL    HW110811   1.103   5.729   4.084
 3304SOL    HW210812   0.955   5.712   4.016
 3305SOL     OW10813   1.954   1.624   3.151
 3305SOL    HW110814   1.901   1.578   3.079
 3305SOL    HW210815   2.002   1.702   3.111
 3306SOL     OW10816   1.826   5.532   4.797
 3306SOL    HW110817   1.811   5.499   4.890
 3306SOL    HW210818   1.761   5.487   4.735
 3307SOL     OW10819   6.734   5.590   0.419
 3307SOL    HW110820   6.638   5.616   0.411
 3307SOL    HW210821   6.790   5.671   0.432
 3308SOL     OW10822   3.706   6.262   7.016
 3308SOL    HW110823   3.742   6.240   0.089
 3308SOL    HW210824   3.633   6.197   6.992
 3309SOL     OW10825   6.717   5.564   2.688
 3309SOL    HW110826   6.779   5.633   2.650
 3309SOL    HW210827   6.722   5.481   2.632
 3310SOL     OW10828   0.188   3.594   5.794
 3310SOL    HW110829   0.107   3.623   5.844
 3310SOL    HW210830   0.183   3.626   5.700
 3311SOL     OW10831   2.614   3.826   1.613
 3311SOL    HW110832   2.622   3.839   1.514
 3311SOL    HW210833   2.690   3.871   1.659
 3312SOL     OW10834   4.409   4.746   5.747
 3312SOL    HW110835   4.491   4.799   5.725
 3312SOL    HW210836   4.429   4.648   5.738
 3313SOL     OW10837   0.446   5.110   3.534
 3313SOL    HW110838   0.518   5.088   3.468
 3313SOL    HW210839   0.451   5.046   3.610
 3314SOL     OW10840   2.604   1.519   3.401
 3314SOL    HW110841   2.545   1.540   3.322
 3314SOL    HW210842   2.666   1.595   3.418
 3315SOL     OW10843   6.394   3.181   4.953
 3315SOL    HW110844   6.484   3.157   4.988
 3315SOL    HW210845   6.403   3.249   4.880
 3316SOL     OW10846   4.926   1.972   5.832
 3316SOL    HW110847   4.874   2.048   5.871
 3316SOL    HW210848   4.864   1.908   5.787
 3317SOL     OW10849   4.374   3.076   1.688
 3317SOL    HW110850   4.339   3.165   1.716
 3317SOL    HW210851   4.429   3.037   1.762
 3318SOL     OW10852   2.931   0.950   0.343
 3318SOL    HW110853   2.857   0.950   0.275
 3318SOL    HW210854   3.002   0.886   0.314
 3319SOL     OW10855   6.357   0.762   4.085
 3319SOL    HW110856   6.452   0.741   4.064
 3319SOL    HW210857   6.333   0.850   4.044
 3320SOL     OW10858   5.834   0.351   4.959
 3320SOL    HW110859   5.851   0.288   5.035
 3320SOL    HW210860   5.738   0.379   4.961
 3321SOL     OW10861   4.219   2.260   0.501
 3321SOL    HW110862   4.289   2.197   0.534
 3321SOL    HW210863   4.152   2.276   0.573
 3322SOL     OW10864   5.711   3.615   0.685
 3322SOL    HW110865   5.705   3.527   0.733
 3322SOL    HW210866   5.752   3.601   0.595
 3323SOL     OW10867   2.863   3.012   0.612
 3323SOL    HW110868   2.939   3.046   0.668
 3323SOL    HW210869   2.791   3.082   0.608
 3324SOL     OW10870   2.393   4.320   6.271
 3324SOL    HW110871   2.485   4.300   6.302
 3324SOL    HW210872   2.361   4.406   6.311
 3325SOL     OW10873   1.764   3.252   6.864
 3325SOL    HW110874   1.706   3.230   6.785
 3325SOL    HW210875   1.717   3.227   6.948
 3326SOL     OW10876   5.137   2.360   2.228
 3326SOL    HW110877   5.070   2.378   2.299
 3326SOL    HW210878   5.193   2.442   2.213
 3327SOL     OW10879   2.500   5.905   1.780
 3327SOL    HW110880   2.472   5.887   1.685
 3327SOL    HW210881   2.574   5.843   1.805
 3328SOL     OW10882   4.306   1.718   1.114
 3328SOL    HW110883   4.349   1.692   1.028
 3328SOL    HW210884   4.308   1.641   1.178
 3329SOL     OW10885   5.106   0.237   4.871
 3329SOL    HW110886   5.032   0.286   4.917
 3329SOL    HW210887   5.069   0.159   4.820
 3330SOL     OW10888   6.368   5.131   1.054
 3330SOL    HW110889   6.339   5.116   1.149
 3330SOL    HW210890   6.407   5.047   1.017
 3331SOL     OW10891   1.158   3.871   1.248
 3331SOL    HW110892   1.194   3.950   1.298
 3331SOL    HW210893   1.225   3.797   1.249
 3332SOL     OW10894   6.798   5.059   0.265
 3332SOL    HW110895   6.811   5.057   0.364
 3332SOL    HW210896   6.799   5.154   0.234
 3333SOL     OW10897   3.248   3.856   6.496
 3333SOL    HW110898   3.188   3.796   6.549
 3333SOL    HW210899   3.249   3.947   6.537
 3334SOL     OW10900   2.350   4.141   1.411
 3334SOL    HW110901   2.317   4.114   1.321
 3334SOL    HW210902   2.337   4.239   1.424
 3335SOL     OW10903   4.996   0.264   5.832
 3335SOL    HW110904   5.087   0.251   5.795
 3335SOL    HW210905   5.001   0.272   5.932
 3336SOL     OW10906   1.599   6.550   4.149
 3336SOL    HW110907   1.519   6.492   4.135
 3336SOL    HW210908   1.661   6.506   4.214
 3337SOL     OW10909   3.240   4.013   1.480
 3337SOL    HW110910   3.148   3.976   1.485
 3337SOL    HW210911   3.302   3.945   1.440
 3338SOL     OW10912   6.089   3.237   2.167
 3338SOL    HW110913   6.103   3.329   2.130
 3338SOL    HW210914   6.158   3.175   2.129
 3339SOL     OW10915   0.812   6.829   6.272
 3339SOL    HW110916   0.754   6.833   6.354
 3339SOL    HW210917   0.826   6.734   6.245
 3340SOL     OW10918   3.414   1.785   3.073
 3340SOL    HW110919   3.430   1.878   3.104
 3340SOL    HW210920   3.447   1.721   3.142
 3341SOL     OW10921   0.792   4.683   3.743
 3341SOL    HW110922   0.764   4.739   3.821
 3341SOL    HW210923   0.842   4.603   3.775
 3342SOL     OW10924   1.524   6.228   3.703
 3342SOL    HW110925   1.571   6.150   3.661
 3342SOL    HW210926   1.459   6.196   3.771
 3343SOL     OW10927   4.849   3.711   0.016
 3343SOL    HW110928   4.808   3.800   7.009
 3343SOL    HW210929   4.948   3.720   0.016
 3344SOL     OW10930   6.201   2.999   3.470
 3344SOL    HW110931   6.103   3.010   3.454
 3344SOL    HW210932   6.223   2.902   3.478
 3345SOL     OW10933   1.539   3.044   6.350
 3345SOL    HW110934   1.482   2.982   6.406
 3345SOL    HW210935   1.568   2.997   6.267
 3346SOL     OW10936   0.847   0.884   6.839
 3346SOL    HW110937   0.938   0.923   6.855
 3346SOL    HW210938   0.789   0.954   6.797
 3347SOL     OW10939   1.236   3.087   5.083
 3347SOL    HW110940   1.229   3.187   5.087
 3347SOL    HW210941   1.146   3.048   5.063
 3348SOL     OW10942   3.904   3.535   4.575
 3348SOL    HW110943   3.987   3.521   4.628
 3348SOL    HW210944   3.911   3.487   4.487
 3349SOL     OW10945   1.817   5.001   3.182
 3349SOL    HW110946   1.758   4.960   3.251
 3349SOL    HW210947   1.778   4.985   3.091
 3350SOL     OW10948   0.056   2.309   5.847
 3350SOL    HW110949   6.976   2.286   5.842
 3350SOL    HW210950   0.067   2.408   5.846
 3351SOL     OW10951   5.177   0.627   2.839
 3351SOL    HW110952   5.186   0.544   2.785
 3351SOL    HW210953   5.126   0.607   2.923
 3352SOL     OW10954   6.543   3.166   0.559
 3352SOL    HW110955   6.585   3.077   0.576
 3352SOL    HW210956   6.611   3.227   0.518
 3353SOL     OW10957   3.019   5.814   1.904
 3353SOL    HW110958   3.036   5.725   1.861
 3353SOL    HW210959   3.051   5.887   1.843
 3354SOL     OW10960   4.699   2.551   5.725
 3354SOL    HW110961   4.798   2.547   5.712
 3354SOL    HW210962   4.668   2.646   5.716
 3355SOL     OW10963   2.591   2.139   6.210
 3355SOL    HW110964   2.614   2.214   6.271
 3355SOL    HW210965   2.672   2.083   6.192
 3356SOL     OW10966   0.207   5.209   5.824
 3356SOL    HW110967   0.159   5.282   5.775
 3356SOL    HW210968   0.233   5.137   5.760
 3357SOL     OW10969   2.140   3.802   2.085
 3357SOL    HW110970   2.202   3.856   2.027
 3357SOL    HW210971   2.169   3.706   2.085
 3358SOL     OW10972   4.598   1.873   1.325
 3358SOL    HW110973   4.631   1.907   1.413
 3358SOL    HW210974   4.498   1.863   1.329
 3359SOL     OW10975   0.669   6.754   2.759
 3359SOL    HW110976   0.628   6.670   2.795
 3359SOL    HW210977   0.649   6.762   2.662
 3360SOL     OW10978   1.790   1.282   0.086
 3360SOL    HW110979   1.862   1.352   0.081
 3360SOL    HW210980   1.831   1.191   0.090
 3361SOL     OW10981   0.304   5.395   4.634
 3361SOL    HW110982   0.394   5.438   4.644
 3361SOL    HW210983   0.250   5.444   4.566
 3362SOL     OW10984   3.328   1.739   2.500
 3362SOL    HW110985   3.354   1.836   2.495
 3362SOL    HW210986   3.273   1.724   2.582
 3363SOL     OW10987   6.718   0.731   2.249
 3363SOL    HW110988   6.644   0.664   2.246
 3363SOL    HW210989   6.790   0.705   2.185
 3364SOL     OW10990   1.578   5.017   3.616
 3364SOL    HW110991   1.590   5.069   3.700
 3364SOL    HW210992   1.522   5.069   3.552
 3365SOL     OW10993   0.086   2.119   5.083
 3365SOL    HW110994   0.028   2.054   5.132
 3365SOL    HW210995   0.138   2.173   5.149
 3366SOL     OW10996   5.865   5.372   4.731
 3366SOL    HW110997   5.792   5.427   4.690
 3366SOL    HW210998   5.921   5.429   4.790
 3367SOL     OW10999   3.741   2.937   2.600
 3367SOL    HW111000   3.827   2.891   2.580
 3367SOL    HW211001   3.704   2.905   2.687
 3368SOL     OW11002   0.264   5.790   6.828
 3368SOL    HW111003   0.338   5.768   6.764
 3368SOL    HW211004   0.182   5.740   6.802
 3369SOL     OW11005   3.451   1.831   0.948
 3369SOL    HW111006   3.423   1.813   1.043
 3369SOL    HW211007   3.431   1.926   0.925
 3370SOL     OW11008   6.826   6.148   0.595
 3370SOL    HW111009   6.734   6.135   0.558
 3370SOL    HW211010   6.886   6.184   0.524
 3371SOL     OW11011   2.162   2.466   1.750
 3371SOL    HW111012   2.196   2.505   1.665
 3371SOL    HW211013   2.100   2.530   1.795
 3372SOL     OW11014   6.588   1.849   0.374
 3372SOL    HW111015   6.586   1.749   0.379
 3372SOL    HW211016   6.680   1.881   0.398
 3373SOL     OW11017   0.560   1.596   3.703
 3373SOL    HW111018   0.481   1.535   3.707
 3373SOL    HW211019   0.625   1.562   3.636
 3374SOL     OW11020   1.319   6.485   4.445
 3374SOL    HW111021   1.253   6.435   4.388
 3374SOL    HW211022   1.358   6.561   4.392
 3375SOL     OW11023   0.307   4.854   6.986
 3375SOL    HW111024   0.255   4.902   0.039
 3375SOL    HW211025   0.244   4.808   6.924
 3376SOL     OW11026   4.025   3.394   4.306
 3376SOL    HW111027   4.093   3.459   4.273
 3376SOL    HW211028   4.069   3.327   4.367
 3377SOL     OW11029   6.294   5.805   6.124
 3377SOL    HW111030   6.312   5.902   6.107
 3377SOL    HW211031   6.373   5.751   6.097
 3378SOL     OW11032   1.009   0.951   0.990
 3378SOL    HW111033   1.015   0.852   0.978
 3378SOL    HW211034   0.914   0.979   0.983
 3379SOL     OW11035   0.821   0.950   5.895
 3379SOL    HW111036   0.761   0.989   5.965
 3379SOL    HW211037   0.913   0.940   5.931
 3380SOL     OW11038   5.545   6.417   4.794
 3380SOL    HW111039   5.472   6.409   4.862
 3380SOL    HW211040   5.617   6.351   4.814
 3381SOL     OW11041   0.561   2.513   1.251
 3381SOL    HW111042   0.610   2.587   1.295
 3381SOL    HW211043   0.528   2.449   1.320
 3382SOL     OW11044   0.544   2.899   0.330
 3382SOL    HW111045   0.465   2.908   0.390
 3382SOL    HW211046   0.583   2.989   0.312
 3383SOL     OW11047   4.252   5.817   1.561
 3383SOL    HW111048   4.295   5.748   1.502
 3383SOL    HW211049   4.269   5.793   1.656
 3384SOL     OW11050   3.135   2.976   0.054
 3384SOL    HW111051   3.157   2.987   6.975
 3384SOL    HW211052   3.105   2.881   0.070
 3385SOL     OW11053   6.993   3.352   5.024
 3385SOL    HW111054   0.048   3.421   5.017
 3385SOL    HW211055   6.945   3.345   4.936
 3386SOL     OW11056   5.499   4.812   0.359
 3386SOL    HW111057   5.524   4.763   0.276
 3386SOL    HW211058   5.441   4.891   0.336
 3387SOL     OW11059   2.236   0.742   2.750
 3387SOL    HW111060   2.224   0.836   2.783
 3387SOL    HW211061   2.291   0.690   2.816
 3388SOL     OW11062   5.447   3.134   2.388
 3388SOL    HW111063   5.391   3.217   2.397
 3388SOL    HW211064   5.477   3.104   2.478
 3389SOL     OW11065   5.933   5.589   6.648
 3389SOL    HW111066   5.920   5.615   6.552
 3389SOL    HW211067   5.921   5.490   6.657
 3390SOL     OW11068   5.812   6.752   6.433
 3390SOL    HW111069   5.772   6.662   6.451
 3390SOL    HW211070   5.746   6.809   6.385
 3391SOL     OW11071   4.848   2.415   4.518
 3391SOL    HW111072   4.809   2.324   4.532
 3391SOL    HW211073   4.784   2.470   4.464
 3392SOL     OW11074   2.243   0.194   3.593
 3392SOL    HW111075   2.256   0.266   3.525
 3392SOL    HW211076   2.254   0.233   3.685
 3393SOL     OW11077   0.028   6.056   0.753
 3393SOL    HW111078   6.987   6.088   0.677
 3393SOL    HW211079   0.074   6.135   0.794
 3394SOL     OW11080   5.731   3.165   1.207
 3394SOL    HW111081   5.698   3.233   1.141
 3394SOL    HW211082   5.742   3.077   1.161
 3395SOL     OW11083   5.542   3.216   3.292
 3395SOL    HW111084   5.566   3.231   3.388
 3395SOL    HW211085   5.456   3.264   3.271
 3396SOL     OW11086   5.170   1.588   3.095
 3396SOL    HW111087   5.188   1.684   3.075
 3396SOL    HW211088   5.123   1.580   3.183
 3397SOL     OW11089   3.108   6.005   5.717
 3397SOL    HW111090   3.200   6.024   5.684
 3397SOL    HW211091   3.084   5.910   5.697
 3398SOL     OW11092   0.606   6.722   5.018
 3398SOL    HW111093   0.534   6.711   5.086
 3398SOL    HW211094   0.645   6.814   5.025
 3399SOL     OW11095   5.652   4.389   3.462
 3399SOL    HW111096   5.674   4.483   3.485
 3399SOL    HW211097   5.570   4.360   3.511
 3400SOL     OW11098   4.648   3.262   6.430
 3400SOL    HW111099   4.716   3.317   6.479
 3400SOL    HW211100   4.677   3.166   6.430
 3401SOL     OW11101   0.329   2.963   0.514
 3401SOL    HW111102   0.361   3.018   0.592
 3401SOL    HW211103   0.234   2.988   0.493
 3402SOL     OW11104   4.324   5.813   6.773
 3402SOL    HW111105   4.373   5.899   6.758
 3402SOL    HW211106   4.384   5.748   6.819
 3403SOL     OW11107   3.346   5.481   5.893
 3403SOL    HW111108   3.404   5.449   5.818
 3403SOL    HW211109   3.303   5.402   5.938
 3404SOL     OW11110   5.095   1.652   0.427
 3404SOL    HW111111   5.119   1.589   0.353
 3404SOL    HW211112   5.161   1.645   0.501
 3405SOL     OW11113   6.497   4.220   5.842
 3405SOL    HW111114   6.553   4.267   5.909
 3405SOL    HW211115   6.520   4.253   5.750
 3406SOL     OW11116   0.983   3.150   1.959
 3406SOL    HW111117   0.989   3.244   1.924
 3406SOL    HW211118   0.970   3.087   1.883
 3407SOL     OW11119   1.515   4.452   6.428
 3407SOL    HW111120   1.595   4.434   6.371
 3407SOL    HW211121   1.502   4.550   6.438
 3408SOL     OW11122   5.168   3.654   4.621
 3408SOL    HW111123   5.094   3.672   4.685
 3408SOL    HW211124   5.180   3.555   4.610
 3409SOL     OW11125   3.453   6.322   6.196
 3409SOL    HW111126   3.527   6.390   6.197
 3409SOL    HW211127   3.488   6.234   6.227
 3410SOL     OW11128   6.435   6.990   1.170
 3410SOL    HW111129   6.403   6.948   1.254
 3410SOL    HW211130   6.360   6.995   1.104
 3411SOL     OW11131   0.694   2.963   1.355
 3411SOL    HW111132   0.677   3.061   1.365
 3411SOL    HW211133   0.681   2.937   1.259
 3412SOL     OW11134   4.595   2.721   0.780
 3412SOL    HW111135   4.636   2.680   0.699
 3412SOL    HW211136   4.639   2.684   0.862
 3413SOL     OW11137   6.018   1.526   0.599
 3413SOL    HW111138   5.932   1.507   0.647
 3413SOL    HW211139   6.000   1.544   0.503
 3414SOL     OW11140   3.698   1.736   6.507
 3414SOL    HW111141   3.636   1.807   6.541
 3414SOL    HW211142   3.659   1.646   6.527
 3415SOL     OW11143   1.699   3.322   3.931
 3415SOL    HW111144   1.715   3.291   3.837
 3415SOL    HW211145   1.662   3.414   3.930
 3416SOL     OW11146   6.362   6.207   1.017
 3416SOL    HW111147   6.426   6.283   1.029
 3416SOL    HW211148   6.273   6.232   1.053
 3417SOL     OW11149   6.986   6.653   3.400
 3417SOL    HW111150   7.009   6.600   3.319
 3417SOL    HW211151   0.032   6.730   3.408
 3418SOL     OW11152   3.364   5.770   3.352
 3418SOL    HW111153   3.399   5.716   3.275
 3418SOL    HW211154   3.275   5.734   3.379
 3419SOL     OW11155   3.056   5.727   5.679
 3419SOL    HW111156   3.055   5.646   5.738
 3419SOL    HW211157   2.962   5.754   5.657
 3420SOL     OW11158   5.997   2.992   4.028
 3420SOL    HW111159   5.998   3.035   3.938
 3420SOL    HW211160   6.033   3.056   4.096
 3421SOL     OW11161   4.850   1.767   4.285
 3421SOL    HW111162   4.752   1.781   4.299
 3421SOL    HW211163   4.901   1.813   4.358
 3422SOL     OW11164   2.126   0.212   0.132
 3422SOL    HW111165   2.149   0.164   0.047
 3422SOL    HW211166   2.060   0.284   0.113
 3423SOL     OW11167   0.327   4.780   6.607
 3423SOL    HW111168   0.288   4.844   6.541
 3423SOL    HW211169   0.312   4.686   6.575
 3424SOL     OW11170   2.404   6.396   0.750
 3424SOL    HW111171   2.451   6.415   0.664
 3424SOL    HW211172   2.314   6.357   0.732
 3425SOL     OW11173   5.141   5.166   2.638
 3425SOL    HW111174   5.081   5.126   2.708
 3425SOL    HW211175   5.188   5.093   2.589
 3426SOL     OW11176   4.659   2.719   0.486
 3426SOL    HW111177   4.748   2.764   0.480
 3426SOL    HW211178   4.650   2.652   0.413
 3427SOL     OW11179   0.174   1.082   0.932
 3427SOL    HW111180   0.106   1.101   1.003
 3427SOL    HW211181   0.150   0.998   0.884
 3428SOL     OW11182   2.413   5.582   6.826
 3428SOL    HW111183   2.478   5.531   6.770
 3428SOL    HW211184   2.386   5.526   6.905
 3429SOL     OW11185   0.478   1.508   0.583
 3429SOL    HW111186   0.394   1.558   0.602
 3429SOL    HW211187   0.472   1.463   0.494
 3430SOL     OW11188   1.779   6.607   5.461
 3430SOL    HW111189   1.797   6.624   5.558
 3430SOL    HW211190   1.683   6.584   5.448
 3431SOL     OW11191   1.775   0.035   1.282
 3431SOL    HW111192   1.803   6.970   1.331
 3431SOL    HW211193   1.754   0.012   1.187
 3432SOL     OW11194   1.394   3.515   6.116
 3432SOL    HW111195   1.316   3.508   6.053
 3432SOL    HW211196   1.364   3.489   6.208
 3433SOL     OW11197   1.420   6.333   5.244
 3433SOL    HW111198   1.509   6.368   5.213
 3433SOL    HW211199   1.431   6.292   5.335
 3434SOL     OW11200   4.413   1.153   2.423
 3434SOL    HW111201   4.328   1.190   2.460
 3434SOL    HW211202   4.394   1.099   2.341
 3435SOL     OW11203   2.011   0.700   0.773
 3435SOL    HW111204   2.043   0.795   0.777
 3435SOL    HW211205   1.973   0.682   0.682
 3436SOL     OW11206   3.752   6.637   6.963
 3436SOL    HW111207   3.813   6.578   6.910
 3436SOL    HW211208   3.787   6.648   0.038
 3437SOL     OW11209   2.261   0.044   5.440
 3437SOL    HW111210   2.337   0.060   5.503
 3437SOL    HW211211   2.280   0.088   5.353
 3438SOL     OW11212   1.484   3.275   0.296
 3438SOL    HW111213   1.541   3.313   0.223
 3438SOL    HW211214   1.467   3.178   0.277
 3439SOL     OW11215   2.333   6.134   4.759
 3439SOL    HW111216   2.251   6.134   4.701
 3439SOL    HW211217   2.359   6.229   4.780
 3440SOL     OW11218   2.958   3.310   1.060
 3440SOL    HW111219   2.928   3.285   1.152
 3440SOL    HW211220   2.949   3.408   1.047
 3441SOL     OW11221   6.201   5.040   5.574
 3441SOL    HW111222   6.262   5.118   5.564
 3441SOL    HW211223   6.182   5.000   5.484
 3442SOL     OW11224   2.112   4.608   2.009
 3442SOL    HW111225   2.144   4.702   2.019
 3442SOL    HW211226   2.119   4.581   1.913
 3443SOL     OW11227   3.842   6.435   1.780
 3443SOL    HW111228   3.771   6.499   1.754
 3443SOL    HW211229   3.926   6.485   1.803
 3444SOL     OW11230   5.255   5.807   6.404
 3444SOL    HW111231   5.263   5.734   6.337
 3444SOL    HW211232   5.328   5.798   6.472
 3445SOL     OW11233   5.814   5.352   2.854
 3445SOL    HW111234   5.771   5.265   2.877
 3445SOL    HW211235   5.746   5.413   2.815
 3446SOL     OW11236   6.533   1.668   1.832
 3446SOL    HW111237   6.469   1.709   1.897
 3446SOL    HW211238   6.523   1.712   1.743
 3447SOL     OW11239   5.196   5.669   1.003
 3447SOL    HW111240   5.174   5.740   0.937
 3447SOL    HW211241   5.294   5.672   1.024
 3448SOL     OW11242   4.242   1.050   6.789
 3448SOL    HW111243   4.256   1.149   6.777
 3448SOL    HW211244   4.201   1.012   6.706
 3449SOL     OW11245   5.779   5.794   4.449
 3449SOL    HW111246   5.809   5.851   4.373
 3449SOL    HW211247   5.682   5.812   4.469
 3450SOL     OW11248   6.887   2.557   6.881
 3450SOL    HW111249   6.872   2.605   6.795
 3450SOL    HW211250   6.851   2.464   6.874
 3451SOL     OW11251   2.442   6.221   0.161
 3451SOL    HW111252   2.374   6.199   0.231
 3451SOL    HW211253   2.407   6.197   0.071
 3452SOL     OW11254   5.674   0.907   6.574
 3452SOL    HW111255   5.701   0.981   6.512
 3452SOL    HW211256   5.755   0.875   6.623
 3453SOL     OW11257   6.361   5.770   6.445
 3453SOL    HW111258   6.276   5.723   6.422
 3453SOL    HW211259   6.416   5.782   6.362
 3454SOL     OW11260   1.007   3.297   4.785
 3454SOL    HW111261   0.979   3.347   4.703
 3454SOL    HW211262   1.033   3.204   4.760
 3455SOL     OW11263   2.582   2.109   4.083
 3455SOL    HW111264   2.528   2.039   4.035
 3455SOL    HW211265   2.584   2.193   4.029
 3456SOL     OW11266   5.443   5.012   1.545
 3456SOL    HW111267   5.384   4.977   1.472
 3456SOL    HW211268   5.392   5.011   1.632
 3457SOL     OW11269   2.800   5.325   3.665
 3457SOL    HW111270   2.723   5.389   3.663
 3457SOL    HW211271   2.797   5.272   3.749
 3458SOL     OW11272   5.020   0.846   2.345
 3458SOL    HW111273   4.944   0.908   2.324
 3458SOL    HW211274   5.048   0.860   2.440
 3459SOL     OW11275   5.529   2.997   2.823
 3459SOL    HW111276   5.496   2.971   2.914
 3459SOL    HW211277   5.456   2.984   2.756
 3460SOL     OW11278   2.537   2.354   7.015
 3460SOL    HW111279   2.463   2.333   0.061
 3460SOL    HW211280   2.612   2.288   0.010
 3461SOL     OW11281   5.367   4.125   5.918
 3461SOL    HW111282   5.462   4.095   5.922
 3461SOL    HW211283   5.364   4.218   5.881
 3462SOL     OW11284   0.457   4.000   4.424
 3462SOL    HW111285   0.494   4.020   4.515
 3462SOL    HW211286   0.494   3.913   4.392
 3463SOL     OW11287   1.003   4.172   2.169
 3463SOL    HW111288   0.988   4.086   2.217
 3463SOL    HW211289   1.079   4.162   2.106
 3464SOL     OW11290   6.870   4.223   4.913
 3464SOL    HW111291   6.785   4.203   4.864
 3464SOL    HW211292   6.924   4.289   4.861
 3465SOL     OW11293   1.216   1.843   1.743
 3465SOL    HW111294   1.314   1.828   1.751
 3465SOL    HW211295   1.169   1.754   1.737
 3466SOL     OW11296   6.710   4.871   6.637
 3466SOL    HW111297   6.700   4.797   6.570
 3466SOL    HW211298   6.802   4.909   6.631
 3467SOL     OW11299   2.027   2.778   7.002
 3467SOL    HW111300   1.968   2.845   6.957
 3467SOL    HW211301   1.993   2.761   0.077
 3468SOL     OW11302   4.533   6.297   3.362
 3468SOL    HW111303   4.494   6.302   3.270
 3468SOL    HW211304   4.617   6.351   3.365
 3469SOL     OW11305   5.203   0.241   3.395
 3469SOL    HW111306   5.158   0.305   3.332
 3469SOL    HW211307   5.138   0.211   3.464
 3470SOL     OW11308   6.418   3.619   1.093
 3470SOL    HW111309   6.355   3.682   1.138
 3470SOL    HW211310   6.370   3.573   1.017
 3471SOL     OW11311   4.025   5.508   4.003
 3471SOL    HW111312   4.102   5.499   4.066
 3471SOL    HW211313   3.941   5.520   4.055
 3472SOL     OW11314   2.262   0.965   2.106
 3472SOL    HW111315   2.294   0.887   2.053
 3472SOL    HW211316   2.328   1.040   2.099
 3473SOL     OW11317   0.139   2.284   0.929
 3473SOL    HW111318   0.136   2.227   1.011
 3473SOL    HW211319   0.109   2.377   0.952
 3474SOL     OW11320   1.660   4.931   2.610
 3474SOL    HW111321   1.599   4.854   2.591
 3474SOL    HW211322   1.731   4.934   2.539
 3475SOL     OW11323   0.857   5.362   4.714
 3475SOL    HW111324   0.930   5.358   4.646
 3475SOL    HW211325   0.787   5.294   4.691
 3476SOL     OW11326   3.133   2.142   2.881
 3476SOL    HW111327   3.068   2.202   2.926
 3476SOL    HW211328   3.126   2.050   2.919
 3477SOL     OW11329   3.127   4.871   1.181
 3477SOL    HW111330   3.083   4.960   1.179
 3477SOL    HW211331   3.176   4.860   1.268
 3478SOL     OW11332   2.318   5.876   4.705
 3478SOL    HW111333   2.334   5.975   4.697
 3478SOL    HW211334   2.405   5.829   4.718
 3479SOL     OW11335   1.692   0.798   2.889
 3479SOL    HW111336   1.693   0.753   2.799
 3479SOL    HW211337   1.651   0.889   2.881
 3480SOL     OW11338   0.294   6.890   5.317
 3480SOL    HW111339   0.392   6.875   5.331
 3480SOL    HW211340   0.279   6.985   5.290
 3481SOL     OW11341   4.902   6.943   0.303
 3481SOL    HW111342   4.942   0.006   0.258
 3481SOL    HW211343   4.811   6.966   0.338
 3482SOL     OW11344   5.775   1.781   1.429
 3482SOL    HW111345   5.731   1.853   1.375
 3482SOL    HW211346   5.874   1.796   1.431
 3483SOL     OW11347   4.870   1.453   1.828
 3483SOL    HW111348   4.819   1.538   1.839
 3483SOL    HW211349   4.811   1.376   1.854
 3484SOL     OW11350   2.539   3.873   1.081
 3484SOL    HW111351   2.471   3.925   1.029
 3484SOL    HW211352   2.623   3.864   1.027
 3485SOL     OW11353   1.481   0.591   3.684
 3485SOL    HW111354   1.426   0.633   3.612
 3485SOL    HW211355   1.429   0.591   3.770
 3486SOL     OW11356   3.055   1.388   2.735
 3486SOL    HW111357   2.961   1.356   2.723
 3486SOL    HW211358   3.059   1.487   2.721
 3487SOL     OW11359   5.814   2.928   6.086
 3487SOL    HW111360   5.818   3.011   6.141
 3487SOL    HW211361   5.852   2.851   6.138
 3488SOL     OW11362   6.384   1.910   5.081
 3488SOL    HW111363   6.285   1.897   5.080
 3488SOL    HW211364   6.429   1.821   5.085
 3489SOL     OW11365   3.286   6.949   0.508
 3489SOL    HW111366   3.193   6.940   0.545
 3489SOL    HW211367   3.344   6.996   0.574
 3490SOL     OW11368   4.195   4.667   0.181
 3490SOL    HW111369   4.206   4.605   0.104
 3490SOL    HW211370   4.098   4.672   0.206
 3491SOL     OW11371   5.645   2.688   5.381
 3491SOL    HW111372   5.553   2.681   5.418
 3491SOL    HW211373   5.643   2.731   5.291
 3492SOL     OW11374   1.276   5.904   1.150
 3492SOL    HW111375   1.267   5.966   1.071
 3492SOL    HW211376   1.263   5.810   1.120
 3493SOL     OW11377   5.832   4.769   6.213
 3493SOL    HW111378   5.790   4.840   6.157
 3493SOL    HW211379   5.910   4.730   6.164
 3494SOL     OW11380   3.982   0.922   1.999
 3494SOL    HW111381   3.948   0.843   1.949
 3494SOL    HW211382   3.908   0.988   2.012
 3495SOL     OW11383   4.450   5.496   1.961
 3495SOL    HW111384   4.392   5.426   2.003
 3495SOL    HW211385   4.490   5.553   2.033
 3496SOL     OW11386   6.902   4.063   0.436
 3496SOL    HW111387   6.948   3.998   0.497
 3496SOL    HW211388   6.969   4.099   0.370
 3497SOL     OW11389   3.119   0.554   3.709
 3497SOL    HW111390   3.150   0.496   3.634
 3497SOL    HW211391   3.195   0.571   3.772
 3498SOL     OW11392   2.129   2.366   0.946
 3498SOL    HW111393   2.064   2.376   0.871
 3498SOL    HW211394   2.148   2.269   0.961
 3499SOL     OW11395   4.839   2.897   4.586
 3499SOL    HW111396   4.833   2.975   4.523
 3499SOL    HW211397   4.934   2.865   4.590
 3500SOL     OW11398   1.442   3.752   5.165
 3500SOL    HW111399   1.358   3.795   5.200
 3500SOL    HW211400   1.478   3.807   5.090
 3501SOL     OW11401   2.258   5.559   4.194
 3501SOL    HW111402   2.341   5.531   4.147
 3501SOL    HW211403   2.272   5.552   4.293
 3502SOL     OW11404   6.026   2.672   2.359
 3502SOL    HW111405   6.004   2.609   2.285
 3502SOL    HW211406   5.977   2.758   2.347
 3503SOL     OW11407   6.322   6.104   5.007
 3503SOL    HW111408   6.402   6.081   4.952
 3503SOL    HW211409   6.245   6.122   4.947
 3504SOL     OW11410   2.126   1.547   1.048
 3504SOL    HW111411   2.065   1.579   1.121
 3504SOL    HW211412   2.103   1.593   0.963
 3505SOL     OW11413   5.268   5.145   4.763
 3505SOL    HW111414   5.244   5.157   4.859
 3505SOL    HW211415   5.363   5.113   4.756
 3506SOL     OW11416   4.745   5.865   6.009
 3506SOL    HW111417   4.731   5.956   6.048
 3506SOL    HW211418   4.819   5.820   6.058
 3507SOL     OW11419   2.614   0.564   6.997
 3507SOL    HW111420   2.538   0.599   6.941
 3507SOL    HW211421   2.625   0.466   6.980
 3508SOL     OW11422   3.097   2.166   6.244
 3508SOL    HW111423   3.142   2.140   6.330
 3508SOL    HW211424   3.156   2.230   6.195
 3509SOL     OW11425   5.754   7.008   5.997
 3509SOL    HW111426   5.696   6.940   5.952
 3509SOL    HW211427   5.700   0.070   6.021
 3510SOL     OW11428   1.669   2.310   1.178
 3510SOL    HW111429   1.740   2.378   1.196
 3510SOL    HW211430   1.703   2.220   1.204
 3511SOL     OW11431   1.990   4.902   0.523
 3511SOL    HW111432   1.982   4.969   0.449
 3511SOL    HW211433   2.025   4.816   0.486
 3512SOL     OW11434   6.968   4.378   0.272
 3512SOL    HW111435   6.953   4.355   0.368
 3512SOL    HW211436   7.011   4.301   0.226
 3513SOL     OW11437   6.132   3.770   0.367
 3513SOL    HW111438   6.053   3.743   0.312
 3513SOL    HW211439   6.180   3.689   0.400
 3514SOL     OW11440   0.020   1.378   1.372
 3514SOL    HW111441   0.068   1.317   1.435
 3514SOL    HW211442   0.082   1.447   1.338
 3515SOL     OW11443   4.643   6.583   3.564
 3515SOL    HW111444   4.716   6.514   3.570
 3515SOL    HW211445   4.648   6.629   3.476
 3516SOL     OW11446   4.380   6.734   0.951
 3516SOL    HW111447   4.360   6.825   0.914
 3516SOL    HW211448   4.457   6.694   0.901
 3517SOL     OW11449   0.694   2.080   0.612
 3517SOL    HW111450   0.782   2.082   0.660
 3517SOL    HW211451   0.673   2.171   0.576
 3518SOL     OW11452   5.691   4.152   4.844
 3518SOL    HW111453   5.741   4.155   4.931
 3518SOL    HW211454   5.707   4.064   4.799
 3519SOL     OW11455   1.548   0.695   6.274
 3519SOL    HW111456   1.583   0.637   6.199
 3519SOL    HW211457   1.495   0.638   6.337
 3520SOL     OW11458   3.051   4.757   6.393
 3520SOL    HW111459   3.101   4.832   6.349
 3520SOL    HW211460   3.028   4.783   6.487
 3521SOL     OW11461   5.409   3.548   0.692
 3521SOL    HW111462   5.359   3.504   0.767
 3521SOL    HW211463   5.468   3.481   0.647
 3522SOL     OW11464   5.776   5.165   2.022
 3522SOL    HW111465   5.774   5.165   1.922
 3522SOL    HW211466   5.857   5.116   2.054
 3523SOL     OW11467   3.031   5.128   5.558
 3523SOL    HW111468   2.932   5.136   5.557
 3523SOL    HW211469   3.065   5.127   5.464
 3524SOL     OW11470   3.142   1.104   0.981
 3524SOL    HW111471   3.092   1.042   0.921
 3524SOL    HW211472   3.078   1.145   1.047
 3525SOL     OW11473   0.475   4.067   1.705
 3525SOL    HW111474   0.478   3.972   1.736
 3525SOL    HW211475   0.381   4.100   1.704
 3526SOL     OW11476   2.819   6.486   3.501
 3526SOL    HW111477   2.897   6.428   3.480
 3526SOL    HW211478   2.841   6.544   3.580
 3527SOL     OW11479   6.333   3.585   6.177
 3527SOL    HW111480   6.295   3.634   6.255
 3527SOL    HW211481   6.432   3.574   6.189
 3528SOL     OW11482   1.121   5.270   3.672
 3528SOL    HW111483   1.149   5.256   3.578
 3528SOL    HW211484   1.201   5.284   3.730
 3529SOL     OW11485   4.888   6.627   6.079
 3529SOL    HW111486   4.914   6.681   5.999
 3529SOL    HW211487   4.866   6.534   6.050
 3530SOL     OW11488   1.797   4.617   3.114
 3530SOL    HW111489   1.786   4.519   3.124
 3530SOL    HW211490   1.731   4.652   3.047
 3531SOL     OW11491   4.674   4.141   1.170
 3531SOL    HW111492   4.704   4.168   1.078
 3531SOL    HW211493   4.621   4.057   1.164
 3532SOL     OW11494   2.730   0.645   0.222
 3532SOL    HW111495   2.676   0.620   0.142
 3532SOL    HW211496   2.822   0.606   0.214
 3533SOL     OW11497   1.065   2.129   2.608
 3533SOL    HW111498   1.157   2.092   2.590
 3533SOL    HW211499   1.018   2.071   2.674
 3534SOL     OW11500   5.860   1.258   5.232
 3534SOL    HW111501   5.954   1.224   5.238
 3534SOL    HW211502   5.824   1.237   5.142
 3535SOL     OW11503   0.392   6.008   0.857
 3535SOL    HW111504   0.371   5.918   0.819
 3535SOL    HW211505   0.491   6.018   0.868
 3536SOL     OW11506   1.886   2.513   3.983
 3536SOL    HW111507   1.836   2.572   4.047
 3536SOL    HW211508   1.909   2.564   3.901
 3537SOL     OW11509   2.322   4.986   6.980
 3537SOL    HW111510   2.399   5.032   0.006
 3537SOL    HW211511   2.340   4.888   6.974
 3538SOL     OW11512   2.176   0.423   4.559
 3538SOL    HW111513   2.244   0.486   4.523
 3538SOL    HW211514   2.124   0.383   4.483
 3539SOL     OW11515   5.473   3.528   6.475
 3539SOL    HW111516   5.463   3.431   6.454
 3539SOL    HW211517   5.399   3.558   6.535
 3540SOL     OW11518   2.181   1.861   4.907
 3540SOL    HW111519   2.163   1.778   4.853
 3540SOL    HW211520   2.165   1.841   5.004
 3541SOL     OW11521   2.656   2.565   6.684
 3541SOL    HW111522   2.561   2.574   6.715
 3541SOL    HW211523   2.692   2.476   6.714
 3542SOL     OW11524   0.690   3.505   1.550
 3542SOL    HW111525   0.619   3.549   1.495
 3542SOL    HW211526   0.689   3.406   1.533
 3543SOL     OW11527   0.858   3.058   5.497
 3543SOL    HW111528   0.945   3.106   5.506
 3543SOL    HW211529   0.816   3.081   5.408
 3544SOL     OW11530   2.401   4.776   6.194
 3544SOL    HW111531   2.487   4.740   6.158
 3544SOL    HW211532   2.361   4.711   6.258
 3545SOL     OW11533   3.711   5.014   6.866
 3545SOL    HW111534   3.618   5.016   6.829
 3545SOL    HW211535   3.708   5.036   6.964
 3546SOL     OW11536   6.956   4.417   3.059
 3546SOL    HW111537   6.864   4.426   3.098
 3546SOL    HW211538   7.017   4.484   3.102
 3547SOL     OW11539   5.767   3.976   4.171
 3547SOL    HW111540   5.747   4.036   4.093
 3547SOL    HW211541   5.863   3.987   4.198
 3548SOL     OW11542   5.264   0.254   5.735
 3548SOL    HW111543   5.325   0.332   5.722
 3548SOL    HW211544   5.295   0.200   5.813
 3549SOL     OW11545   0.752   5.040   6.438
 3549SOL    HW111546   0.842   5.084   6.437
 3549SOL    HW211547   0.716   5.040   6.532
 3550SOL     OW11548   5.662   2.523   4.905
 3550SOL    HW111549   5.664   2.475   4.817
 3550SOL    HW211550   5.690   2.618   4.891
 3551SOL     OW11551   3.767   1.806   3.881
 3551SOL    HW111552   3.855   1.842   3.853
 3551SOL    HW211553   3.706   1.802   3.801
 3552SOL     OW11554   5.883   0.008   1.979
 3552SOL    HW111555   5.788   0.014   1.950
 3552SOL    HW211556   5.941   7.005   1.900
 3553SOL     OW11557   3.654   5.658   0.336
 3553SOL    HW111558   3.691   5.566   0.321
 3553SOL    HW211559   3.723   5.726   0.314
 3554SOL     OW11560   4.217   2.560   0.718
 3554SOL    HW111561   4.276   2.577   0.640
 3554SOL    HW211562   4.271   2.522   0.794
 3555SOL     OW11563   0.913   3.384   4.523
 3555SOL    HW111564   0.850   3.382   4.444
 3555SOL    HW211565   1.007   3.383   4.490
 3556SOL     OW11566   3.610   0.350   4.355
 3556SOL    HW111567   3.510   0.347   4.367
 3556SOL    HW211568   3.632   0.380   4.262
 3557SOL     OW11569   1.257   0.506   3.904
 3557SOL    HW111570   1.323   0.507   3.980
 3557SOL    HW211571   1.165   0.513   3.941
 3558SOL     OW11572   1.514   5.023   2.237
 3558SOL    HW111573   1.571   5.070   2.170
 3558SOL    HW211574   1.512   5.075   2.322
 3559SOL     OW11575   0.522   6.060   5.302
 3559SOL    HW111576   0.533   6.095   5.394
 3559SOL    HW211577   0.599   6.089   5.246
 3560SOL     OW11578   2.283   5.013   2.735
 3560SOL    HW111579   2.239   4.931   2.772
 3560SOL    HW211580   2.226   5.093   2.752
 3561SOL     OW11581   5.078   4.106   5.163
 3561SOL    HW111582   5.085   4.047   5.243
 3561SOL    HW211583   5.043   4.196   5.189
 3562SOL     OW11584   3.162   1.054   2.931
 3562SOL    HW111585   3.085   1.101   2.973
 3562SOL    HW211586   3.157   0.956   2.951
 3563SOL     OW11587   6.638   2.049   6.764
 3563SOL    HW111588   6.640   2.041   6.665
 3563SOL    HW211589   6.623   1.959   6.805
 3564SOL     OW11590   0.775   4.564   2.354
 3564SOL    HW111591   0.810   4.491   2.413
 3564SOL    HW211592   0.742   4.639   2.410
 3565SOL     OW11593   2.766   6.223   4.340
 3565SOL    HW111594   2.673   6.259   4.332
 3565SOL    HW211595   2.829   6.279   4.287
 3566SOL     OW11596   6.254   2.962   6.792
 3566SOL    HW111597   6.180   2.896   6.799
 3566SOL    HW211598   6.321   2.945   6.865
 3567SOL     OW11599   0.742   2.337   6.732
 3567SOL    HW111600   0.831   2.364   6.770
 3567SOL    HW211601   0.695   2.418   6.697
 3568SOL     OW11602   5.474   4.464   4.535
 3568SOL    HW111603   5.514   4.407   4.464
 3568SOL    HW211604   5.375   4.469   4.522
 3569SOL     OW11605   2.640   2.503   6.094
 3569SOL    HW111606   2.685   2.587   6.062
 3569SOL    HW211607   2.705   2.450   6.150
 3570SOL     OW11608   4.817   0.549   5.878
 3570SOL    HW111609   4.862   0.486   5.814
 3570SOL    HW211610   4.726   0.571   5.843
 3571SOL     OW11611   0.445   5.268   6.165
 3571SOL    HW111612   0.412   5.188   6.115
 3571SOL    HW211613   0.483   5.334   6.100
 3572SOL     OW11614   6.117   4.071   3.028
 3572SOL    HW111615   6.158   4.085   2.938
 3572SOL    HW211616   6.054   3.993   3.024
 3573SOL     OW11617   0.242   5.165   3.881
 3573SOL    HW111618   0.302   5.107   3.936
 3573SOL    HW211619   0.261   5.261   3.902
 3574SOL     OW11620   0.101   3.990   0.882
 3574SOL    HW111621   0.143   3.943   0.959
 3574SOL    HW211622   0.151   4.075   0.863
 3575SOL     OW11623   5.269   4.874   2.795
 3575SOL    HW111624   5.223   4.895   2.881
 3575SOL    HW211625   5.201   4.843   2.728
 3576SOL     OW11626   0.275   1.504   6.116
 3576SOL    HW111627   0.371   1.498   6.143
 3576SOL    HW211628   0.246   1.417   6.076
 3577SOL     OW11629   1.593   2.525   6.449
 3577SOL    HW111630   1.679   2.576   6.444
 3577SOL    HW211631   1.532   2.555   6.376
 3578SOL     OW11632   2.682   2.424   1.118
 3578SOL    HW111633   2.776   2.392   1.100
 3578SOL    HW211634   2.643   2.373   1.194
 3579SOL     OW11635   5.827   3.262   4.752
 3579SOL    HW111636   5.869   3.332   4.811
 3579SOL    HW211637   5.828   3.174   4.800
 3580SOL     OW11638   5.944   3.226   1.390
 3580SOL    HW111639   5.881   3.218   1.313
 3580SOL    HW211640   5.940   3.143   1.445
 3581SOL     OW11641   0.595   6.223   3.618
 3581SOL    HW111642   0.677   6.274   3.644
 3581SOL    HW211643   0.589   6.216   3.519
 3582SOL     OW11644   0.833   2.343   5.589
 3582SOL    HW111645   0.899   2.275   5.620
 3582SOL    HW211646   0.757   2.348   5.654
 3583SOL     OW11647   1.564   3.722   6.721
 3583SOL    HW111648   1.545   3.817   6.746
 3583SOL    HW211649   1.594   3.718   6.626
 3584SOL     OW11650   5.868   5.100   6.422
 3584SOL    HW111651   5.806   5.058   6.356
 3584SOL    HW211652   5.850   5.198   6.426
 3585SOL     OW11653   4.149   6.957   4.620
 3585SOL    HW111654   4.188   6.907   4.542
 3585SOL    HW211655   4.128   0.033   4.592
 3586SOL     OW11656   0.179   1.570   5.228
 3586SOL    HW111657   0.102   1.624   5.263
 3586SOL    HW211658   0.188   1.487   5.282
 3587SOL     OW11659   3.255   5.576   6.350
 3587SOL    HW111660   3.328   5.561   6.283
 3587SOL    HW211661   3.275   5.524   6.432
 3588SOL     OW11662   1.648   2.610   5.870
 3588SOL    HW111663   1.666   2.702   5.902
 3588SOL    HW211664   1.611   2.613   5.777
 3589SOL     OW11665   3.638   1.460   5.003
 3589SOL    HW111666   3.699   1.502   4.936
 3589SOL    HW211667   3.543   1.473   4.974
 3590SOL     OW11668   1.198   2.568   0.009
 3590SOL    HW111669   1.237   2.653   0.045
 3590SOL    HW211670   1.267   2.496   0.012
 3591SOL     OW11671   5.259   3.493   6.643
 3591SOL    HW111672   5.190   3.520   6.710
 3591SOL    HW211673   5.227   3.412   6.593
 3592SOL     OW11674   6.765   4.290   1.667
 3592SOL    HW111675   6.678   4.285   1.618
 3592SOL    HW211676   6.835   4.327   1.605
 3593SOL     OW11677   0.974   5.559   5.102
 3593SOL    HW111678   1.007   5.653   5.099
 3593SOL    HW211679   0.916   5.541   5.023
 3594SOL     OW11680   4.478   0.765   3.227
 3594SOL    HW111681   4.528   0.682   3.251
 3594SOL    HW211682   4.445   0.757   3.133
 3595SOL     OW11683   2.661   6.064   0.170
 3595SOL    HW111684   2.582   6.105   0.214
 3595SOL    HW211685   2.642   5.968   0.148
 3596SOL     OW11686   6.989   2.690   3.512
 3596SOL    HW111687   6.989   2.789   3.499
 3596SOL    HW211688   6.895   2.658   3.522
 3597SOL     OW11689   1.704   1.425   4.329
 3597SOL    HW111690   1.627   1.394   4.273
 3597SOL    HW211691   1.787   1.377   4.300
 3598SOL     OW11692   0.617   5.317   5.717
 3598SOL    HW111693   0.619   5.254   5.640
 3598SOL    HW211694   0.606   5.411   5.683
 3599SOL     OW11695   0.269   1.240   5.999
 3599SOL    HW111696   0.190   1.199   5.954
 3599SOL    HW211697   0.324   1.169   6.042
 3600SOL     OW11698   0.816   3.579   0.642
 3600SOL    HW111699   0.834   3.656   0.580
 3600SOL    HW211700   0.896   3.519   0.645
 3601SOL     OW11701   5.285   4.625   5.955
 3601SOL    HW111702   5.206   4.642   6.013
 3601SOL    HW211703   5.270   4.668   5.866
 3602SOL     OW11704   1.440   2.037   0.903
 3602SOL    HW111705   1.392   2.009   0.820
 3602SOL    HW211706   1.394   1.996   0.983
 3603SOL     OW11707   3.401   0.161   3.430
 3603SOL    HW111708   3.387   0.081   3.488
 3603SOL    HW211709   3.448   0.134   3.346
 3604SOL     OW11710   0.056   4.629   3.197
 3604SOL    HW111711   0.007   4.717   3.192
 3604SOL    HW211712   0.114   4.628   3.279
 3605SOL     OW11713   6.293   3.888   5.374
 3605SOL    HW111714   6.327   3.982   5.376
 3605SOL    HW211715   6.364   3.827   5.340
 3606SOL     OW11716   6.701   6.885   5.101
 3606SOL    HW111717   6.708   6.826   5.021
 3606SOL    HW211718   6.605   6.891   5.130
 3607SOL     OW11719   5.501   5.865   2.195
 3607SOL    HW111720   5.437   5.908   2.259
 3607SOL    HW211721   5.454   5.792   2.145
 3608SOL     OW11722   5.560   1.906   3.651
 3608SOL    HW111723   5.509   1.989   3.631
 3608SOL    HW211724   5.658   1.924   3.640
 3609SOL     OW11725   1.114   6.950   4.106
 3609SOL    HW111726   1.196   6.950   4.048
 3609SOL    HW211727   1.122   0.004   4.175
 3610SOL     OW11728   1.373   6.950   5.493
 3610SOL    HW111729   1.433   7.014   5.541
 3610SOL    HW211730   1.291   6.934   5.548
 3611SOL     OW11731   4.727   6.183   5.716
 3611SOL    HW111732   4.653   6.208   5.653
 3611SOL    HW211733   4.751   6.087   5.703
 3612SOL     OW11734   6.476   0.014   6.956
 3612SOL    HW111735   6.454   6.971   0.016
 3612SOL    HW211736   6.568   7.009   6.922
 3613SOL     OW11737   4.803   4.959   1.931
 3613SOL    HW111738   4.826   4.865   1.955
 3613SOL    HW211739   4.705   4.974   1.942
 3614SOL     OW11740   3.844   3.130   1.618
 3614SOL    HW111741   3.866   3.032   1.620
 3614SOL    HW211742   3.855   3.168   1.710
 3615SOL     OW11743   4.995   5.778   0.096
 3615SOL    HW111744   5.000   5.758   7.016
 3615SOL    HW211745   5.073   5.835   0.123
 3616SOL     OW11746   0.650   2.579   6.644
 3616SOL    HW111747   0.659   2.658   6.705
 3616SOL    HW211748   0.581   2.598   6.575
 3617SOL     OW11749   4.181   1.844   0.001
 3617SOL    HW111750   4.162   1.782   6.941
 3617SOL    HW211751   4.100   1.850   0.059
 3618SOL     OW11752   2.470   1.957   5.555
 3618SOL    HW111753   2.435   2.050   5.567
 3618SOL    HW211754   2.554   1.961   5.502
 3619SOL     OW11755   5.443   2.729   4.622
 3619SOL    HW111756   5.473   2.810   4.674
 3619SOL    HW211757   5.387   2.758   4.544
 3620SOL     OW11758   6.106   6.299   6.125
 3620SOL    HW111759   6.058   6.285   6.039
 3620SOL    HW211760   6.112   6.213   6.175
 3621SOL     OW11761   3.299   2.958   5.125
 3621SOL    HW111762   3.280   2.943   5.223
 3621SOL    HW211763   3.349   2.880   5.089
 3622SOL     OW11764   2.423   1.774   5.198
 3622SOL    HW111765   2.442   1.868   5.229
 3622SOL    HW211766   2.326   1.764   5.180
 3623SOL     OW11767   6.145   6.181   4.109
 3623SOL    HW111768   6.092   6.180   4.024
 3623SOL    HW211769   6.162   6.087   4.139
 3624SOL     OW11770   1.755   6.526   2.038
 3624SOL    HW111771   1.808   6.463   2.095
 3624SOL    HW211772   1.713   6.475   1.962
 3625SOL     OW11773   6.246   2.848   0.191
 3625SOL    HW111774   6.266   2.767   0.245
 3625SOL    HW211775   6.154   2.841   0.152
 3626SOL     OW11776   1.408   2.529   5.978
 3626SOL    HW111777   1.508   2.528   5.968
 3626SOL    HW211778   1.366   2.484   5.899
 3627SOL     OW11779   3.592   2.900   3.104
 3627SOL    HW111780   3.626   2.862   3.189
 3627SOL    HW211781   3.523   2.970   3.124
 3628SOL     OW11782   1.577   0.986   1.512
 3628SOL    HW111783   1.574   0.999   1.611
 3628SOL    HW211784   1.671   1.001   1.479
 3629SOL     OW11785   0.072   1.365   5.358
 3629SOL    HW111786   7.001   1.339   5.397
 3629SOL    HW211787   0.140   1.295   5.380
 3630SOL     OW11788   5.530   2.706   4.064
 3630SOL    HW111789   5.543   2.802   4.038
 3630SOL    HW211790   5.618   2.667   4.092
 3631SOL     OW11791   1.819   0.298   3.682
 3631SOL    HW111792   1.803   0.396   3.671
 3631SOL    HW211793   1.747   0.260   3.741
 3632SOL     OW11794   5.158   5.768   1.606
 3632SOL    HW111795   5.184   5.683   1.651
 3632SOL    HW211796   5.234   5.802   1.551
 3633SOL     OW11797   4.122   1.765   6.021
 3633SOL    HW111798   4.203   1.762   5.962
 3633SOL    HW211799   4.060   1.691   5.996
 3634SOL     OW11800   1.059   4.438   4.712
 3634SOL    HW111801   1.055   4.428   4.812
 3634SOL    HW211802   0.969   4.424   4.673
 3635SOL     OW11803   3.474   0.180   6.285
 3635SOL    HW111804   3.431   0.263   6.320
 3635SOL    HW211805   3.517   0.130   6.360
 3636SOL     OW11806   0.498   5.477   0.498
 3636SOL    HW111807   0.504   5.576   0.510
 3636SOL    HW211808   0.473   5.434   0.584
 3637SOL     OW11809   6.779   1.376   2.078
 3637SOL    HW111810   6.739   1.418   2.159
 3637SOL    HW211811   6.783   1.443   2.004
 3638SOL     OW11812   0.417   4.083   3.856
 3638SOL    HW111813   0.516   4.083   3.870
 3638SOL    HW211814   0.373   4.049   3.939
 3639SOL     OW11815   3.125   4.573   0.932
 3639SOL    HW111816   3.224   4.565   0.920
 3639SOL    HW211817   3.101   4.669   0.946
 3640SOL     OW11818   4.016   1.183   1.040
 3640SOL    HW111819   4.012   1.103   0.980
 3640SOL    HW211820   4.099   1.235   1.021
 3641SOL     OW11821   5.510   3.553   3.104
 3641SOL    HW111822   5.584   3.486   3.115
 3641SOL    HW211823   5.521   3.601   3.017
 3642SOL     OW11824   5.519   0.839   6.895
 3642SOL    HW111825   5.552   0.931   6.870
 3642SOL    HW211826   5.454   0.847   6.971
 3643SOL     OW11827   2.815   5.497   4.733
 3643SOL    HW111828   2.800   5.593   4.707
 3643SOL    HW211829   2.762   5.476   4.814
 3644SOL     OW11830   6.791   1.566   1.450
 3644SOL    HW111831   6.863   1.497   1.456
 3644SOL    HW211832   6.719   1.544   1.515
 3645SOL     OW11833   0.561   2.505   3.204
 3645SOL    HW111834   0.658   2.497   3.180
 3645SOL    HW211835   0.521   2.414   3.213
 3646SOL     OW11836   0.805   3.850   6.267
 3646SOL    HW111837   0.736   3.887   6.204
 3646SOL    HW211838   0.762   3.827   6.354
 3647SOL     OW11839   2.444   5.360   5.855
 3647SOL    HW111840   2.538   5.351   5.820
 3647SOL    HW211841   2.418   5.456   5.855
 3648SOL     OW11842   3.912   4.913   2.098
 3648SOL    HW111843   3.836   4.848   2.088
 3648SOL    HW211844   3.877   5.006   2.097
 3649SOL     OW11845   5.333   2.945   1.897
 3649SOL    HW111846   5.282   3.028   1.922
 3649SOL    HW211847   5.268   2.871   1.879
 3650SOL     OW11848   0.232   5.619   1.403
 3650SOL    HW111849   0.224   5.533   1.352
 3650SOL    HW211850   0.201   5.605   1.497
 3651SOL     OW11851   0.436   6.383   5.055
 3651SOL    HW111852   0.446   6.292   5.096
 3651SOL    HW211853   0.437   6.375   4.955
 3652SOL     OW11854   5.604   6.479   3.400
 3652SOL    HW111855   5.514   6.481   3.444
 3652SOL    HW211856   5.608   6.549   3.329
 3653SOL     OW11857   0.718   1.317   3.886
 3653SOL    HW111858   0.641   1.371   3.922
 3653SOL    HW211859   0.765   1.271   3.961
 3654SOL     OW11860   3.185   4.068   0.944
 3654SOL    HW111861   3.209   4.064   0.847
 3654SOL    HW211862   3.088   4.046   0.956
 3655SOL     OW11863   1.803   5.555   4.327
 3655SOL    HW111864   1.857   5.548   4.243
 3655SOL    HW211865   1.857   5.600   4.398
 3656SOL     OW11866   0.391   4.037   1.415
 3656SOL    HW111867   0.295   4.031   1.441
 3656SOL    HW211868   0.419   4.133   1.412
 3657SOL     OW11869   5.179   5.265   5.415
 3657SOL    HW111870   5.231   5.278   5.331
 3657SOL    HW211871   5.210   5.330   5.484
 3658SOL     OW11872   1.733   5.069   5.834
 3658SOL    HW111873   1.810   5.119   5.874
 3658SOL    HW211874   1.766   5.009   5.762
 3659SOL     OW11875   1.885   3.434   5.579
 3659SOL    HW111876   1.957   3.408   5.644
 3659SOL    HW211877   1.895   3.380   5.495
 3660SOL     OW11878   5.772   6.688   3.966
 3660SOL    HW111879   5.708   6.632   3.914
 3660SOL    HW211880   5.739   6.700   4.059
 3661SOL     OW11881   5.565   0.656   5.177
 3661SOL    HW111882   5.569   0.642   5.276
 3661SOL    HW211883   5.514   0.740   5.158
 3662SOL     OW11884   3.314   0.320   3.799
 3662SOL    HW111885   3.341   0.412   3.829
 3662SOL    HW211886   3.301   0.320   3.700
 3663SOL     OW11887   2.163   1.329   0.130
 3663SOL    HW111888   2.213   1.285   0.055
 3663SOL    HW211889   2.120   1.258   0.186
 3664SOL     OW11890   4.493   2.734   1.479
 3664SOL    HW111891   4.538   2.814   1.519
 3664SOL    HW211892   4.463   2.673   1.552
 3665SOL     OW11893   1.451   6.543   4.915
 3665SOL    HW111894   1.405   6.528   4.827
 3665SOL    HW211895   1.508   6.464   4.937
 3666SOL     OW11896   1.088   3.700   2.897
 3666SOL    HW111897   1.119   3.607   2.915
 3666SOL    HW211898   1.137   3.763   2.956
 3667SOL     OW11899   1.395   1.297   2.750
 3667SOL    HW111900   1.356   1.261   2.665
 3667SOL    HW211901   1.457   1.372   2.729
 3668SOL     OW11902   1.524   0.746   1.246
 3668SOL    HW111903   1.508   0.770   1.150
 3668SOL    HW211904   1.454   0.788   1.303
 3669SOL     OW11905   4.750   1.245   3.635
 3669SOL    HW111906   4.837   1.200   3.616
 3669SOL    HW211907   4.718   1.292   3.553
 3670SOL     OW11908   2.092   5.041   0.107
 3670SOL    HW111909   2.161   5.010   0.041
 3670SOL    HW211910   2.053   5.128   0.077
 3671SOL     OW11911   6.598   1.819   4.302
 3671SOL    HW111912   6.669   1.765   4.257
 3671SOL    HW211913   6.554   1.878   4.235
 3672SOL     OW11914   5.497   1.774   1.214
 3672SOL    HW111915   5.496   1.798   1.311
 3672SOL    HW211916   5.461   1.851   1.160
 3673SOL     OW11917   3.799   6.342   6.764
 3673SOL    HW111918   3.780   6.261   6.709
 3673SOL    HW211919   3.752   6.334   6.852
 3674SOL     OW11920   1.144   5.351   6.064
 3674SOL    HW111921   1.201   5.348   6.146
 3674SOL    HW211922   1.124   5.258   6.034
 3675SOL     OW11923   2.163   3.252   3.941
 3675SOL    HW111924   2.145   3.260   3.843
 3675SOL    HW211925   2.190   3.158   3.962
 3676SOL     OW11926   5.115   4.567   2.896
 3676SOL    HW111927   5.140   4.642   2.835
 3676SOL    HW211928   5.154   4.582   2.986
 3677SOL     OW11929   2.174   6.184   3.562
 3677SOL    HW111930   2.088   6.234   3.579
 3677SOL    HW211931   2.169   6.095   3.606
 3678SOL     OW11932   0.103   1.857   4.874
 3678SOL    HW111933   0.166   1.919   4.920
 3678SOL    HW211934   0.149   1.815   4.796
 3679SOL     OW11935   0.971   1.043   3.504
 3679SOL    HW111936   0.889   1.090   3.473
 3679SOL    HW211937   0.954   0.944   3.506
 3680SOL     OW11938   5.080   3.324   3.885
 3680SOL    HW111939   5.034   3.343   3.972
 3680SOL    HW211940   5.136   3.403   3.859
 3681SOL     OW11941   0.537   0.739   6.333
 3681SOL    HW111942   0.613   0.677   6.350
 3681SOL    HW211943   0.571   0.832   6.325
 3682SOL     OW11944   5.194   2.081   0.152
 3682SOL    HW111945   5.179   2.175   0.122
 3682SOL    HW211946   5.197   2.021   0.073
 3683SOL     OW11947   6.862   0.815   2.973
 3683SOL    HW111948   6.799   0.872   2.921
 3683SOL    HW211949   6.886   0.861   3.059
 3684SOL     OW11950   1.814   4.895   0.736
 3684SOL    HW111951   1.824   4.809   0.786
 3684SOL    HW211952   1.874   4.893   0.655
 3685SOL     OW11953   1.005   6.194   6.897
 3685SOL    HW111954   1.057   6.279   6.884
 3685SOL    HW211955   1.044   6.122   6.839
 3686SOL     OW11956   4.858   5.936   4.097
 3686SOL    HW111957   4.830   6.020   4.050
 3686SOL    HW211958   4.791   5.864   4.078
 3687SOL     OW11959   3.394   5.983   5.016
 3687SOL    HW111960   3.403   5.986   4.917
 3687SOL    HW211961   3.383   5.888   5.046
 3688SOL     OW11962   0.352   4.292   6.585
 3688SOL    HW111963   0.439   4.259   6.623
 3688SOL    HW211964   0.280   4.225   6.605
 3689SOL     OW11965   2.069   6.851   5.494
 3689SOL    HW111966   1.971   6.866   5.499
 3689SOL    HW211967   2.116   6.939   5.498
 3690SOL     OW11968   4.321   5.942   0.849
 3690SOL    HW111969   4.326   6.028   0.799
 3690SOL    HW211970   4.334   5.866   0.786
 3691SOL     OW11971   2.362   2.010   6.908
 3691SOL    HW111972   2.452   1.967   6.915
 3691SOL    HW211973   2.343   2.031   6.812
 3692SOL     OW11974   6.536   5.747   5.099
 3692SOL    HW111975   6.485   5.713   5.178
 3692SOL    HW211976   6.473   5.767   5.024
 3693SOL     OW11977   1.952   3.529   3.230
 3693SOL    HW111978   1.902   3.604   3.188
 3693SOL    HW211979   2.013   3.487   3.161
 3694SOL     OW11980   1.747   6.585   3.199
 3694SOL    HW111981   1.724   6.577   3.102
 3694SOL    HW211982   1.681   6.645   3.244
 3695SOL     OW11983   6.564   3.036   1.683
 3695SOL    HW111984   6.546   3.116   1.741
 3695SOL    HW211985   6.642   2.986   1.719
 3696SOL     OW11986   3.629   6.499   4.991
 3696SOL    HW111987   3.725   6.515   4.970
 3696SOL    HW211988   3.618   6.407   5.029
 3697SOL     OW11989   0.372   6.425   2.613
 3697SOL    HW111990   0.467   6.394   2.606
 3697SOL    HW211991   0.369   6.511   2.664
 3698SOL     OW11992   2.726   0.830   3.949
 3698SOL    HW111993   2.801   0.802   4.009
 3698SOL    HW211994   2.646   0.852   4.005
 3699SOL     OW11995   0.952   2.056   3.951
 3699SOL    HW111996   0.927   2.052   3.854
 3699SOL    HW211997   1.035   2.110   3.962
 3700SOL     OW11998   0.472   5.693   4.751
 3700SOL    HW111999   0.393   5.735   4.707
 3700SOL    HW212000   0.451   5.673   4.846
 3701SOL     OW12001   1.243   1.068   3.996
 3701SOL    HW112002   1.230   1.133   4.071
 3701SOL    HW212003   1.285   1.114   3.918
 3702SOL     OW12004   5.844   6.360   2.991
 3702SOL    HW112005   5.762   6.412   3.011
 3702SOL    HW212006   5.833   6.266   3.023
 3703SOL     OW12007   5.442   1.064   5.489
 3703SOL    HW112008   5.505   1.007   5.435
 3703SOL    HW212009   5.451   1.040   5.585
 3704SOL     OW12010   3.451   1.697   1.304
 3704SOL    HW112011   3.539   1.740   1.323
 3704SOL    HW212012   3.388   1.764   1.266
 3705SOL     OW12013   4.197   4.749   4.013
 3705SOL    HW112014   4.106   4.774   4.046
 3705SOL    HW212015   4.257   4.730   4.091
 3706SOL     OW12016   1.727   3.458   0.353
 3706SOL    HW112017   1.663   3.507   0.411
 3706SOL    HW212018   1.787   3.523   0.306
 3707SOL     OW12019   5.544   4.581   3.796
 3707SOL    HW112020   5.589   4.669   3.785
 3707SOL    HW212021   5.463   4.591   3.854
 3708SOL     OW12022   0.003   0.542   6.808
 3708SOL    HW112023   7.001   0.457   6.759
 3708SOL    HW212024   6.971   0.617   6.764
 3709SOL     OW12025   3.621   0.505   0.824
 3709SOL    HW112026   3.556   0.515   0.899
 3709SOL    HW212027   3.586   0.553   0.743
 3710SOL     OW12028   6.042   5.283   5.031
 3710SOL    HW112029   6.020   5.226   4.952
 3710SOL    HW212030   5.974   5.356   5.039
 3711SOL     OW12031   0.755   6.667   4.078
 3711SOL    HW112032   0.703   6.721   4.144
 3711SOL    HW212033   0.844   6.643   4.118
 3712SOL     OW12034   0.146   4.884   6.409
 3712SOL    HW112035   0.149   4.791   6.371
 3712SOL    HW212036   0.096   4.943   6.346
 3713SOL     OW12037   0.982   6.325   6.039
 3713SOL    HW112038   1.010   6.386   5.964
 3713SOL    HW212039   1.046   6.334   6.115
 3714SOL     OW12040   5.396   6.305   6.017
 3714SOL    HW112041   5.389   6.207   5.998
 3714SOL    HW212042   5.328   6.354   5.963
 3715SOL     OW12043   0.390   4.012   2.661
 3715SOL    HW112044   0.442   4.002   2.576
 3715SOL    HW212045   0.426   3.949   2.729
 3716SOL     OW12046   6.581   6.802   4.620
 3716SOL    HW112047   6.669   6.845   4.601
 3716SOL    HW212048   6.556   6.819   4.715
 3717SOL     OW12049   6.691   6.572   6.998
 3717SOL    HW112050   6.605   6.536   0.016
 3717SOL    HW212051   6.689   6.672   7.002
 3718SOL     OW12052   1.090   0.563   6.840
 3718SOL    HW112053   1.013   0.593   6.784
 3718SOL    HW212054   1.068   0.575   6.937
 3719SOL     OW12055   5.169   3.786   1.835
 3719SOL    HW112056   5.195   3.690   1.832
 3719SOL    HW212057   5.171   3.824   1.742
 3720SOL     OW12058   6.193   2.660   6.769
 3720SOL    HW112059   6.211   2.706   6.682
 3720SOL    HW212060   6.268   2.676   6.832
 3721SOL     OW12061   6.573   4.521   1.912
 3721SOL    HW112062   6.571   4.588   1.837
 3721SOL    HW212063   6.651   4.460   1.899
 3722SOL     OW12064   6.213   6.052   0.783
 3722SOL    HW112065   6.304   6.047   0.823
 3722SOL    HW212066   6.208   6.131   0.721
 3723SOL     OW12067   6.084   5.413   1.422
 3723SOL    HW112068   6.103   5.350   1.497
 3723SOL    HW212069   6.106   5.506   1.449
 3724SOL     OW12070   1.983   4.168   4.750
 3724SOL    HW112071   1.886   4.160   4.727
 3724SOL    HW212072   2.025   4.238   4.693
 3725SOL     OW12073   6.716   5.397   0.632
 3725SOL    HW112074   6.626   5.392   0.674
 3725SOL    HW212075   6.711   5.455   0.550
 3726SOL     OW12076   5.963   3.299   0.557
 3726SOL    HW112077   6.020   3.293   0.475
 3726SOL    HW212078   5.957   3.209   0.600
 3727SOL     OW12079   6.574   1.049   5.138
 3727SOL    HW112080   6.638   1.084   5.070
 3727SOL    HW212081   6.480   1.076   5.113
 3728SOL     OW12082   1.631   4.035   0.093
 3728SOL    HW112083   1.691   3.960   0.120
 3728SOL    HW212084   1.648   4.059   7.014
 3729SOL     OW12085   1.262   2.303   3.757
 3729SOL    HW112086   1.167   2.326   3.739
 3729SOL    HW212087   1.321   2.347   3.690
 3730SOL     OW12088   2.330   5.616   5.792
 3730SOL    HW112089   2.354   5.644   5.885
 3730SOL    HW212090   2.244   5.660   5.765
 3731SOL     OW12091   0.002   1.353   0.647
 3731SOL    HW112092   0.018   1.447   0.675
 3731SOL    HW212093   0.012   1.346   0.548
 3732SOL     OW12094   3.240   1.596   0.289
 3732SOL    HW112095   3.200   1.618   0.378
 3732SOL    HW212096   3.268   1.680   0.243
 3733SOL     OW12097   1.388   3.544   2.929
 3733SOL    HW112098   1.388   3.511   3.023
 3733SOL    HW212099   1.299   3.526   2.887
 3734SOL     OW12100   4.906   0.345   1.621
 3734SOL    HW112101   4.894   0.420   1.556
 3734SOL    HW212102   4.875   0.259   1.580
 3735SOL     OW12103   2.133   1.508   3.329
 3735SOL    HW112104   2.053   1.549   3.284
 3735SOL    HW212105   2.144   1.414   3.298
 3736SOL     OW12106   6.837   1.795   0.676
 3736SOL    HW112107   6.772   1.851   0.728
 3736SOL    HW212108   6.891   1.853   0.617
 3737SOL     OW12109   5.492   1.525   3.683
 3737SOL    HW112110   5.549   1.553   3.760
 3737SOL    HW212111   5.421   1.594   3.667
 3738SOL     OW12112   0.507   0.335   2.651
 3738SOL    HW112113   0.536   0.257   2.707
 3738SOL    HW212114   0.410   0.326   2.630
 3739SOL     OW12115   2.469   4.921   1.040
 3739SOL    HW112116   2.551   4.863   1.040
 3739SOL    HW212117   2.395   4.876   1.089
 3740SOL     OW12118   5.806   1.384   1.519
 3740SOL    HW112119   5.807   1.316   1.445
 3740SOL    HW212120   5.849   1.346   1.600
 3741SOL     OW12121   5.397   2.996   6.780
 3741SOL    HW112122   5.342   2.985   6.862
 3741SOL    HW212123   5.385   2.915   6.721
 3742SOL     OW12124   2.160   2.239   6.984
 3742SOL    HW112125   2.214   2.216   0.048
 3742SOL    HW212126   2.174   2.168   6.915
 3743SOL     OW12127   5.704   4.061   0.500
 3743SOL    HW112128   5.790   4.054   0.449
 3743SOL    HW212129   5.718   4.032   0.595
 3744SOL     OW12130   1.507   6.024   2.083
 3744SOL    HW112131   1.524   6.111   2.036
 3744SOL    HW212132   1.537   6.031   2.178
 3745SOL     OW12133   4.231   5.085   1.871
 3745SOL    HW112134   4.201   5.111   1.779
 3745SOL    HW212135   4.314   5.029   1.864
 3746SOL     OW12136   5.641   0.735   3.359
 3746SOL    HW112137   5.698   0.703   3.434
 3746SOL    HW212138   5.623   0.660   3.296
 3747SOL     OW12139   2.328   6.396   4.958
 3747SOL    HW112140   2.376   6.480   4.932
 3747SOL    HW212141   2.233   6.401   4.928
 3748SOL     OW12142   5.615   1.367   1.868
 3748SOL    HW112143   5.527   1.323   1.883
 3748SOL    HW212144   5.671   1.358   1.950
 3749SOL     OW12145   1.915   5.532   4.074
 3749SOL    HW112146   1.919   5.437   4.106
 3749SOL    HW212147   1.994   5.551   4.016
 3750SOL     OW12148   0.154   4.808   1.095
 3750SOL    HW112149   0.068   4.854   1.115
 3750SOL    HW212150   0.158   4.722   1.147
 3751SOL     OW12151   6.648   3.490   1.619
 3751SOL    HW112152   6.578   3.497   1.548
 3751SOL    HW212153   6.644   3.571   1.678
 3752SOL     OW12154   5.756   0.193   1.140
 3752SOL    HW112155   5.801   0.253   1.073
 3752SOL    HW212156   5.694   0.131   1.092
 3753SOL     OW12157   6.592   0.127   3.959
 3753SOL    HW112158   6.505   0.092   3.994
 3753SOL    HW212159   6.597   0.108   3.860
 3754SOL     OW12160   3.464   0.849   1.096
 3754SOL    HW112161   3.561   0.861   1.075
 3754SOL    HW212162   3.422   0.792   1.026
 3755SOL     OW12163   4.707   5.256   3.921
 3755SOL    HW112164   4.613   5.261   3.955
 3755SOL    HW212165   4.769   5.240   3.998
 3756SOL     OW12166   3.125   5.208   6.788
 3756SOL    HW112167   3.051   5.275   6.797
 3756SOL    HW212168   3.172   5.222   6.701
 3757SOL     OW12169   5.103   6.144   6.913
 3757SOL    HW112170   5.102   6.212   6.841
 3757SOL    HW212171   5.179   6.081   6.900
 3758SOL     OW12172   2.186   1.126   4.795
 3758SOL    HW112173   2.165   1.193   4.723
 3758SOL    HW212174   2.257   1.163   4.855
 3759SOL     OW12175   4.772   6.634   6.417
 3759SOL    HW112176   4.713   6.665   6.491
 3759SOL    HW212177   4.744   6.678   6.331
 3760SOL     OW12178   2.046   1.286   4.621
 3760SOL    HW112179   1.988   1.238   4.555
 3760SOL    HW212180   2.081   1.370   4.580
 3761SOL     OW12181   1.047   1.029   4.818
 3761SOL    HW112182   0.994   1.112   4.803
 3761SOL    HW212183   1.082   0.995   4.731
 3762SOL     OW12184   1.621   4.829   1.116
 3762SOL    HW112185   1.590   4.921   1.139
 3762SOL    HW212186   1.715   4.833   1.082
 3763SOL     OW12187   6.924   4.176   0.909
 3763SOL    HW112188   6.891   4.243   0.843
 3763SOL    HW212189   6.984   4.110   0.863
 3764SOL     OW12190   1.741   0.405   2.605
 3764SOL    HW112191   1.709   0.364   2.520
 3764SOL    HW212192   1.800   0.339   2.654
 3765SOL     OW12193   4.979   1.479   1.227
 3765SOL    HW112194   5.069   1.524   1.227
 3765SOL    HW212195   4.934   1.495   1.139
 3766SOL     OW12196   2.004   1.505   4.355
 3766SOL    HW112197   2.081   1.567   4.341
 3766SOL    HW212198   2.013   1.425   4.296
 3767SOL     OW12199   2.173   4.595   6.974
 3767SOL    HW112200   2.236   4.602   0.035
 3767SOL    HW212201   2.115   4.677   6.971
 3768SOL     OW12202   0.954   6.580   3.562
 3768SOL    HW112203   1.004   6.605   3.644
 3768SOL    HW212204   0.924   6.485   3.568
 3769SOL     OW12205   6.170   6.402   4.436
 3769SOL    HW112206   6.147   6.419   4.340
 3769SOL    HW212207   6.087   6.381   4.487
 3770SOL     OW12208   1.383   0.907   6.308
 3770SOL    HW112209   1.325   0.930   6.229
 3770SOL    HW212210   1.466   0.862   6.276
 3771SOL     OW12211   5.323   2.837   0.126
 3771SOL    HW112212   5.318   2.818   0.224
 3771SOL    HW212213   5.379   2.768   0.081
 3772SOL     OW12214   0.052   1.602   6.748
 3772SOL    HW112215   0.053   1.514   6.795
 3772SOL    HW212216   6.994   1.604   6.682
 3773SOL     OW12217   5.858   3.168   6.248
 3773SOL    HW112218   5.843   3.259   6.210
 3773SOL    HW212219   5.851   3.172   6.348
 3774SOL     OW12220   6.493   6.014   0.891
 3774SOL    HW112221   6.434   6.070   0.949
 3774SOL    HW212222   6.583   6.056   0.885
 3775SOL     OW12223   4.243   5.112   2.450
 3775SOL    HW112224   4.295   5.066   2.522
 3775SOL    HW212225   4.157   5.145   2.487
 3776SOL     OW12226   4.517   1.992   6.758
 3776SOL    HW112227   4.543   1.981   6.854
 3776SOL    HW212228   4.476   2.083   6.745
 3777SOL     OW12229   3.512   6.096   3.932
 3777SOL    HW112230   3.573   6.175   3.923
 3777SOL    HW212231   3.533   6.028   3.862
 3778SOL     OW12232   3.357   4.867   2.697
 3778SOL    HW112233   3.346   4.818   2.783
 3778SOL    HW212234   3.347   4.965   2.713
 3779SOL     OW12235   1.532   4.484   0.210
 3779SOL    HW112236   1.441   4.525   0.216
 3779SOL    HW212237   1.595   4.534   0.270
 3780SOL     OW12238   5.790   4.978   4.865
 3780SOL    HW112239   5.839   5.010   4.784
 3780SOL    HW212240   5.841   5.005   4.947
 3781SOL     OW12241   0.401   6.404   4.429
 3781SOL    HW112242   0.350   6.490   4.428
 3781SOL    HW212243   0.458   6.400   4.510
 3782SOL     OW12244   2.260   0.199   3.176
 3782SOL    HW112245   2.352   0.164   3.155
 3782SOL    HW212246   2.261   0.244   3.265
 3783SOL     OW12247   5.649   5.270   3.486
 3783SOL    HW112248   5.616   5.243   3.577
 3783SOL    HW212249   5.658   5.190   3.428
 3784SOL     OW12250   4.564   2.587   3.475
 3784SOL    HW112251   4.543   2.553   3.383
 3784SOL    HW212252   4.576   2.686   3.473
 3785SOL     OW12253   1.539   3.249   6.040
 3785SOL    HW112254   1.630   3.237   6.081
 3785SOL    HW212255   1.489   3.319   6.091
 3786SOL     OW12256   2.228   5.469   3.464
 3786SOL    HW112257   2.227   5.479   3.364
 3786SOL    HW212258   2.146   5.421   3.494
 3787SOL     OW12259   5.759   1.551   2.836
 3787SOL    HW112260   5.696   1.628   2.831
 3787SOL    HW212261   5.850   1.579   2.806
 3788SOL     OW12262   0.288   5.132   4.562
 3788SOL    HW112263   0.322   5.222   4.590
 3788SOL    HW212264   0.195   5.142   4.526
 3789SOL     OW12265   6.676   2.828   4.764
 3789SOL    HW112266   6.678   2.921   4.728
 3789SOL    HW212267   6.621   2.825   4.847
 3790SOL     OW12268   1.105   4.326   5.648
 3790SOL    HW112269   1.050   4.294   5.725
 3790SOL    HW212270   1.047   4.374   5.582
 3791SOL     OW12271   5.436   1.447   6.464
 3791SOL    HW112272   5.348   1.485   6.491
 3791SOL    HW212273   5.439   1.350   6.490
 3792SOL     OW12274   0.963   2.582   4.268
 3792SOL    HW112275   0.977   2.584   4.368
 3792SOL    HW212276   1.000   2.665   4.228
 3793SOL     OW12277   5.080   6.165   1.860
 3793SOL    HW112278   5.105   6.181   1.956
 3793SOL    HW212279   5.038   6.248   1.823
 3794SOL     OW12280   2.319   3.174   0.848
 3794SOL    HW112281   2.290   3.188   0.943
 3794SOL    HW212282   2.329   3.263   0.803
 3795SOL     OW12283   4.239   6.120   0.617
 3795SOL    HW112284   4.194   6.204   0.649
 3795SOL    HW212285   4.209   6.100   0.524
 3796SOL     OW12286   3.277   2.034   1.969
 3796SOL    HW112287   3.356   2.060   2.026
 3796SOL    HW212288   3.227   1.960   2.013
 3797SOL     OW12289   0.015   2.894   1.676
 3797SOL    HW112290   0.018   2.815   1.614
 3797SOL    HW212291   0.046   2.866   1.767
 3798SOL     OW12292   2.660   5.555   3.445
 3798SOL    HW112293   2.646   5.558   3.346
 3798SOL    HW212294   2.606   5.481   3.484
 3799SOL     OW12295   7.013   2.432   4.160
 3799SOL    HW112296   0.002   2.399   4.065
 3799SOL    HW212297   6.926   2.478   4.173
 3800SOL     OW12298   5.889   3.393   3.896
 3800SOL    HW112299   5.963   3.379   3.962
 3800SOL    HW212300   5.865   3.490   3.893
 3801SOL     OW12301   6.040   0.158   2.116
 3801SOL    HW112302   5.967   0.110   2.068
 3801SOL    HW212303   6.097   0.208   2.051
 3802SOL     OW12304   1.282   2.364   2.063
 3802SOL    HW112305   1.309   2.281   2.013
 3802SOL    HW212306   1.193   2.396   2.030
 3803SOL     OW12307   3.788   3.021   2.042
 3803SOL    HW112308   3.693   2.990   2.039
 3803SOL    HW212309   3.822   3.015   2.136
 3804SOL     OW12310   4.693   1.881   3.743
 3804SOL    HW112311   4.645   1.929   3.816
 3804SOL    HW212312   4.638   1.803   3.712
 3805SOL     OW12313   2.725   2.492   1.719
 3805SOL    HW112314   2.637   2.472   1.763
 3805SOL    HW212315   2.799   2.467   1.781
 3806SOL     OW12316   3.464   3.477   6.628
 3806SOL    HW112317   3.386   3.491   6.567
 3806SOL    HW212318   3.540   3.535   6.597
 3807SOL     OW12319   1.203   6.248   2.898
 3807SOL    HW112320   1.222   6.263   2.801
 3807SOL    HW212321   1.277   6.286   2.953
 3808SOL     OW12322   4.897   1.207   1.167
 3808SOL    HW112323   4.903   1.190   1.069
 3808SOL    HW212324   4.924   1.300   1.187
 3809SOL     OW12325   5.553   2.902   1.495
 3809SOL    HW112326   5.478   2.968   1.491
 3809SOL    HW212327   5.609   2.919   1.576
 3810SOL     OW12328   4.480   2.342   3.933
 3810SOL    HW112329   4.538   2.261   3.939
 3810SOL    HW212330   4.538   2.424   3.939
 3811SOL     OW12331   1.355   5.070   4.651
 3811SOL    HW112332   1.365   5.141   4.581
 3811SOL    HW212333   1.258   5.046   4.660
 3812SOL     OW12334   5.061   5.699   4.973
 3812SOL    HW112335   5.140   5.644   4.998
 3812SOL    HW212336   5.020   5.664   4.889
 3813SOL     OW12337   4.638   3.577   0.799
 3813SOL    HW112338   4.578   3.586   0.720
 3813SOL    HW212339   4.720   3.526   0.774
 3814SOL     OW12340   0.397   6.861   6.576
 3814SOL    HW112341   0.350   6.942   6.610
 3814SOL    HW212342   0.331   6.796   6.539
 3815SOL     OW12343   4.354   2.684   0.495
 3815SOL    HW112344   4.454   2.688   0.495
 3815SOL    HW212345   4.318   2.770   0.529
 3816SOL     OW12346   1.242   5.689   0.332
 3816SOL    HW112347   1.203   5.597   0.324
 3816SOL    HW212348   1.283   5.715   0.245
 3817SOL     OW12349   5.088   3.595   2.814
 3817SOL    HW112350   5.076   3.607   2.716
 3817SOL    HW212351   5.081   3.683   2.860
 3818SOL     OW12352   6.412   0.998   6.509
 3818SOL    HW112353   6.336   1.063   6.506
 3818SOL    HW212354   6.380   0.908   6.482
 3819SOL     OW12355   5.044   5.025   2.062
 3819SOL    HW112356   4.967   4.981   2.016
 3819SOL    HW212357   5.084   5.094   2.002
 3820SOL     OW12358   4.687   0.053   4.284
 3820SOL    HW112359   4.594   0.037   4.251
 3820SOL    HW212360   4.752   0.013   4.220
 3821SOL     OW12361   2.390   1.527   1.169
 3821SOL    HW112362   2.440   1.613   1.160
 3821SOL    HW212363   2.309   1.530   1.111
 3822SOL     OW12364   2.168   0.100   0.977
 3822SOL    HW112365   2.266   0.118   0.971
 3822SOL    HW212366   2.123   0.175   1.026
 3823SOL     OW12367   3.554   3.127   5.938
 3823SOL    HW112368   3.623   3.133   5.866
 3823SOL    HW212369   3.488   3.055   5.915
 3824SOL     OW12370   6.643   2.195   0.305
 3824SOL    HW112371   6.659   2.221   0.400
 3824SOL    HW212372   6.725   2.153   0.267
 3825SOL     OW12373   0.830   5.819   0.861
 3825SOL    HW112374   0.912   5.853   0.909
 3825SOL    HW212375   0.800   5.734   0.904
 3826SOL     OW12376   1.104   2.858   6.706
 3826SOL    HW112377   1.162   2.882   6.784
 3826SOL    HW212378   1.157   2.868   6.621
 3827SOL     OW12379   1.505   1.790   1.749
 3827SOL    HW112380   1.517   1.719   1.680
 3827SOL    HW212381   1.593   1.809   1.792
 3828SOL     OW12382   3.671   3.251   2.598
 3828SOL    HW112383   3.577   3.262   2.630
 3828SOL    HW212384   3.680   3.164   2.550
 3829SOL     OW12385   1.905   4.718   3.344
 3829SOL    HW112386   1.851   4.772   3.408
 3829SOL    HW212387   1.848   4.690   3.267
 3830SOL     OW12388   0.523   1.391   4.897
 3830SOL    HW112389   0.535   1.307   4.844
 3830SOL    HW212390   0.427   1.417   4.896
 3831SOL     OW12391   4.749   2.651   2.402
 3831SOL    HW112392   4.778   2.742   2.373
 3831SOL    HW212393   4.686   2.613   2.334
 3832SOL     OW12394   5.781   0.840   2.880
 3832SOL    HW112395   5.739   0.865   2.792
 3832SOL    HW212396   5.714   0.855   2.953
 3833SOL     OW12397   0.335   6.129   6.374
 3833SOL    HW112398   0.289   6.218   6.371
 3833SOL    HW212399   0.288   6.068   6.437
 3834SOL     OW12400   4.564   4.700   1.829
 3834SOL    HW112401   4.572   4.651   1.743
 3834SOL    HW212402   4.491   4.768   1.823
 3835SOL     OW12403   3.434   5.359   4.318
 3835SOL    HW112404   3.519   5.390   4.360
 3835SOL    HW212405   3.359   5.369   4.383
 3836SOL     OW12406   2.024   3.794   6.040
 3836SOL    HW112407   2.085   3.715   6.048
 3836SOL    HW212408   1.943   3.768   5.987
 3837SOL     OW12409   4.707   5.262   6.512
 3837SOL    HW112410   4.647   5.244   6.590
 3837SOL    HW212411   4.699   5.358   6.486
 3838SOL     OW12412   0.569   3.803   4.880
 3838SOL    HW112413   0.479   3.794   4.839
 3838SOL    HW212414   0.638   3.810   4.808
 3839SOL     OW12415   4.933   0.994   3.773
 3839SOL    HW112416   4.965   1.011   3.680
 3839SOL    HW212417   5.004   0.946   3.825
 3840SOL     OW12418   2.159   0.491   6.293
 3840SOL    HW112419   2.093   0.545   6.241
 3840SOL    HW212420   2.159   0.397   6.258
 3841SOL     OW12421   0.055   2.992   4.870
 3841SOL    HW112422   0.079   3.040   4.786
 3841SOL    HW212423   7.002   2.923   4.850
 3842SOL     OW12424   1.975   3.287   0.172
 3842SOL    HW112425   2.011   3.373   0.136
 3842SOL    HW212426   1.973   3.291   0.272
 3843SOL     OW12427   5.893   4.121   2.470
 3843SOL    HW112428   5.893   4.125   2.570
 3843SOL    HW212429   5.960   4.054   2.439
 3844SOL     OW12430   0.628   2.321   6.225
 3844SOL    HW112431   0.546   2.267   6.204
 3844SOL    HW212432   0.609   2.418   6.206
 3845SOL     OW12433   3.547   3.067   5.131
 3845SOL    HW112434   3.581   3.079   5.225
 3845SOL    HW212435   3.455   3.027   5.134
 3846SOL     OW12436   0.874   5.413   3.608
 3846SOL    HW112437   0.870   5.470   3.526
 3846SOL    HW212438   0.964   5.371   3.615
 3847SOL     OW12439   5.931   1.006   4.822
 3847SOL    HW112440   5.841   0.972   4.848
 3847SOL    HW212441   5.923   1.068   4.744
 3848SOL     OW12442   4.183   5.640   3.039
 3848SOL    HW112443   4.264   5.690   3.068
 3848SOL    HW212444   4.101   5.694   3.061
 3849SOL     OW12445   1.411   1.500   5.390
 3849SOL    HW112446   1.356   1.572   5.431
 3849SOL    HW212447   1.483   1.542   5.334
 3850SOL     OW12448   2.616   3.222   0.870
 3850SOL    HW112449   2.517   3.207   0.871
 3850SOL    HW212450   2.659   3.172   0.945
 3851SOL     OW12451   1.146   4.448   2.204
 3851SOL    HW112452   1.235   4.420   2.166
 3851SOL    HW212453   1.088   4.367   2.215
 3852SOL     OW12454   4.061   6.892   3.773
 3852SOL    HW112455   3.988   6.825   3.754
 3852SOL    HW212456   4.023   6.968   3.826
 3853SOL     OW12457   1.062   4.060   3.488
 3853SOL    HW112458   1.083   4.135   3.426
 3853SOL    HW212459   1.129   4.059   3.563
 3854SOL     OW12460   1.555   3.166   2.005
 3854SOL    HW112461   1.463   3.142   1.975
 3854SOL    HW212462   1.557   3.178   2.104
 3855SOL     OW12463   5.172   6.334   6.683
 3855SOL    HW112464   5.094   6.389   6.655
 3855SOL    HW212465   5.244   6.394   6.719
 3856SOL     OW12466   6.923   6.723   5.620
 3856SOL    HW112467   6.988   6.798   5.608
 3856SOL    HW212468   6.868   6.714   5.537
 3857SOL     OW12469   0.330   5.752   6.371
 3857SOL    HW112470   0.270   5.675   6.394
 3857SOL    HW212471   0.303   5.832   6.424
 3858SOL     OW12472   1.491   6.549   5.460
 3858SOL    HW112473   1.472   6.456   5.430
 3858SOL    HW212474   1.432   6.572   5.538
 3859SOL     OW12475   6.550   2.165   3.275
 3859SOL    HW112476   6.547   2.106   3.356
 3859SOL    HW212477   6.463   2.213   3.265
 3860SOL     OW12478   2.428   0.315   5.805
 3860SOL    HW112479   2.427   0.255   5.885
 3860SOL    HW212480   2.335   0.349   5.787
 3861SOL     OW12481   4.484   4.529   3.208
 3861SOL    HW112482   4.530   4.596   3.266
 3861SOL    HW212483   4.551   4.470   3.165
 3862SOL     OW12484   1.420   0.072   5.074
 3862SOL    HW112485   1.351   0.123   5.022
 3862SOL    HW212486   1.417   6.993   5.047
 3863SOL     OW12487   4.462   3.053   6.133
 3863SOL    HW112488   4.382   3.095   6.175
 3863SOL    HW212489   4.545   3.091   6.175
 3864SOL     OW12490   2.510   0.696   5.847
 3864SOL    HW112491   2.570   0.776   5.844
 3864SOL    HW212492   2.416   0.724   5.829
 3865SOL     OW12493   3.475   6.693   6.935
 3865SOL    HW112494   3.574   6.678   6.944
 3865SOL    HW212495   3.450   6.776   6.985
 3866SOL     OW12496   3.695   1.009   2.010
 3866SOL    HW112497   3.636   1.082   2.045
 3866SOL    HW212498   3.739   1.038   1.925
 3867SOL     OW12499   1.404   4.334   4.274
 3867SOL    HW112500   1.402   4.409   4.340
 3867SOL    HW212501   1.463   4.260   4.308
 3868SOL     OW12502   3.447   6.867   0.296
 3868SOL    HW112503   3.401   6.917   0.370
 3868SOL    HW212504   3.545   6.885   0.299
 3869SOL     OW12505   6.104   3.288   5.361
 3869SOL    HW112506   6.122   3.257   5.268
 3869SOL    HW212507   6.007   3.309   5.371
 3870SOL     OW12508   4.098   5.639   6.861
 3870SOL    HW112509   4.128   5.560   6.807
 3870SOL    HW212510   4.144   5.721   6.828
 3871SOL     OW12511   3.793   0.371   2.834
 3871SOL    HW112512   3.874   0.341   2.783
 3871SOL    HW212513   3.793   0.327   2.924
 3872SOL     OW12514   3.886   3.303   2.770
 3872SOL    HW112515   3.936   3.229   2.816
 3872SOL    HW212516   3.807   3.264   2.722
 3873SOL     OW12517   6.259   3.285   1.825
 3873SOL    HW112518   6.179   3.291   1.766
 3873SOL    HW212519   6.232   3.248   1.914
 3874SOL     OW12520   4.016   6.144   6.466
 3874SOL    HW112521   4.037   6.049   6.489
 3874SOL    HW212522   3.947   6.146   6.393
 3875SOL     OW12523   1.924   2.657   1.846
 3875SOL    HW112524   1.922   2.757   1.834
 3875SOL    HW212525   1.893   2.635   1.939
 3876SOL     OW12526   5.213   5.066   0.515
 3876SOL    HW112527   5.251   5.056   0.423
 3876SOL    HW212528   5.147   4.994   0.532
 3877SOL     OW12529   6.830   3.160   0.200
 3877SOL    HW112530   6.821   3.085   0.265
 3877SOL    HW212531   6.807   3.128   0.108
 3878SOL     OW12532   2.598   6.392   4.684
 3878SOL    HW112533   2.579   6.436   4.771
 3878SOL    HW212534   2.696   6.400   4.663
 3879SOL     OW12535   5.020   6.345   1.458
 3879SOL    HW112536   4.920   6.349   1.461
 3879SOL    HW212537   5.052   6.386   1.372
 3880SOL     OW12538   6.396   5.161   3.600
 3880SOL    HW112539   6.366   5.252   3.569
 3880SOL    HW212540   6.316   5.106   3.622
 3881SOL     OW12541   1.235   4.431   1.034
 3881SOL    HW112542   1.323   4.476   1.046
 3881SOL    HW212543   1.183   4.435   1.119
 3882SOL     OW12544   0.382   1.720   4.961
 3882SOL    HW112545   0.423   1.693   5.048
 3882SOL    HW212546   0.298   1.667   4.946
 3883SOL     OW12547   4.210   0.899   3.079
 3883SOL    HW112548   4.252   0.870   3.166
 3883SOL    HW212549   4.135   0.962   3.098
 3884SOL     OW12550   1.033   5.485   3.352
 3884SOL    HW112551   1.107   5.550   3.369
 3884SOL    HW212552   0.974   5.519   3.279
 3885SOL     OW12553   6.393   7.007   2.754
 3885SOL    HW112554   6.340   0.044   2.689
 3885SOL    HW212555   6.350   6.918   2.766
 3886SOL     OW12556   6.375   5.820   4.908
 3886SOL    HW112557   6.297   5.882   4.902
 3886SOL    HW212558   6.386   5.772   4.821
 3887SOL     OW12559   6.747   0.927   5.684
 3887SOL    HW112560   6.846   0.916   5.672
 3887SOL    HW212561   6.701   0.912   5.597
 3888SOL     OW12562   0.949   0.244   6.673
 3888SOL    HW112563   0.969   0.211   6.581
 3888SOL    HW212564   1.035   0.264   6.720
 3889SOL     OW12565   6.367   3.058   6.557
 3889SOL    HW112566   6.402   3.149   6.535
 3889SOL    HW212567   6.346   3.052   6.654
 3890SOL     OW12568   5.818   5.768   2.577
 3890SOL    HW112569   5.869   5.832   2.635
 3890SOL    HW212570   5.806   5.809   2.486
 3891SOL     OW12571   5.431   4.834   4.097
 3891SOL    HW112572   5.453   4.927   4.067
 3891SOL    HW212573   5.507   4.798   4.150
 3892SOL     OW12574   7.014   2.335   1.589
 3892SOL    HW112575   6.983   2.386   1.669
 3892SOL    HW212576   6.991   2.385   1.506
 3893SOL     OW12577   3.225   5.290   1.546
 3893SOL    HW112578   3.184   5.351   1.614
 3893SOL    HW212579   3.188   5.311   1.456
 3894SOL     OW12580   2.543   1.803   1.224
 3894SOL    HW112581   2.616   1.806   1.292
 3894SOL    HW212582   2.568   1.860   1.146
 3895SOL     OW12583   1.666   0.106   5.294
 3895SOL    HW112584   1.607   0.091   5.215
 3895SOL    HW212585   1.757   0.133   5.262
 3896SOL     OW12586   0.419   1.929   6.359
 3896SOL    HW112587   0.372   1.907   6.273
 3896SOL    HW212588   0.505   1.879   6.363
 3897SOL     OW12589   3.742   6.893   1.995
 3897SOL    HW112590   3.720   6.796   2.008
 3897SOL    HW212591   3.671   6.936   1.939
 3898SOL     OW12592   3.470   3.896   4.006
 3898SOL    HW112593   3.460   3.959   4.083
 3898SOL    HW212594   3.441   3.804   4.034
 3899SOL     OW12595   4.794   0.774   4.231
 3899SOL    HW112596   4.865   0.840   4.256
 3899SOL    HW212597   4.721   0.821   4.181
 3900SOL     OW12598   5.338   2.815   3.672
 3900SOL    HW112599   5.245   2.824   3.708
 3900SOL    HW212600   5.372   2.905   3.645
 3901SOL     OW12601   3.364   6.299   5.771
 3901SOL    HW112602   3.277   6.323   5.813
 3901SOL    HW212603   3.369   6.201   5.757
 3902SOL     OW12604   6.041   3.919   1.594
 3902SOL    HW112605   6.108   3.920   1.668
 3902SOL    HW212606   5.974   3.847   1.610
 3903SOL     OW12607   4.807   4.418   6.956
 3903SOL    HW112608   4.843   4.509   6.976
 3903SOL    HW212609   4.881   4.360   6.921
 3904SOL     OW12610   2.306   6.633   5.826
 3904SOL    HW112611   2.252   6.625   5.742
 3904SOL    HW212612   2.249   6.671   5.899
 3905SOL     OW12613   5.645   6.850   6.238
 3905SOL    HW112614   5.577   6.781   6.216
 3905SOL    HW212615   5.693   6.877   6.154
 3906SOL     OW12616   1.768   5.250   5.574
 3906SOL    HW112617   1.723   5.257   5.484
 3906SOL    HW212618   1.699   5.252   5.646
 3907SOL     OW12619   6.214   0.190   3.914
 3907SOL    HW112620   6.153   0.136   3.855
 3907SOL    HW212621   6.235   0.138   3.997
 3908SOL     OW12622   1.768   0.967   6.804
 3908SOL    HW112623   1.850   1.009   6.767
 3908SOL    HW212624   1.688   0.998   6.752
 3909SOL     OW12625   0.003   4.734   6.689
 3909SOL    HW112626   7.010   4.832   6.702
 3909SOL    HW212627   0.039   4.692   6.773
 3910SOL     OW12628   3.408   3.768   2.042
 3910SOL    HW112629   3.480   3.702   2.019
 3910SOL    HW212630   3.447   3.859   2.048
 3911SOL     OW12631   5.164   1.615   0.000
 3911SOL    HW112632   5.244   1.554   7.017
 3911SOL    HW212633   5.081   1.561   0.013
 3912SOL     OW12634   4.072   1.552   6.241
 3912SOL    HW112635   4.078   1.502   6.154
 3912SOL    HW212636   4.101   1.646   6.227
 3913SOL     OW12637   2.963   6.803   6.593
 3913SOL    HW112638   2.949   6.894   6.631
 3913SOL    HW212639   3.032   6.807   6.520
 3914SOL     OW12640   5.222   0.790   1.328
 3914SOL    HW112641   5.250   0.696   1.346
 3914SOL    HW212642   5.168   0.825   1.404
 3915SOL     OW12643   4.500   6.163   0.508
 3915SOL    HW112644   4.415   6.147   0.558
 3915SOL    HW212645   4.480   6.213   0.424
 3916SOL     OW12646   2.443   6.778   2.650
 3916SOL    HW112647   2.423   6.773   2.552
 3916SOL    HW212648   2.360   6.799   2.701
 3917SOL     OW12649   1.256   4.180   1.296
 3917SOL    HW112650   1.338   4.215   1.250
 3917SOL    HW212651   1.277   4.165   1.393
 3918SOL     OW12652   4.242   6.284   1.894
 3918SOL    HW112653   4.294   6.282   1.809
 3918SOL    HW212654   4.295   6.241   1.967
 3919SOL     OW12655   3.385   0.450   6.615
 3919SOL    HW112656   3.354   0.412   6.528
 3919SOL    HW212657   3.390   0.377   6.683
 3920SOL     OW12658   2.930   1.889   6.466
 3920SOL    HW112659   2.874   1.811   6.436
 3920SOL    HW212660   3.001   1.856   6.528
 3921SOL     OW12661   6.786   2.685   0.302
 3921SOL    HW112662   6.853   2.650   0.237
 3921SOL    HW212663   6.693   2.668   0.268
 3922SOL     OW12664   4.193   5.551   0.981
 3922SOL    HW112665   4.162   5.512   0.894
 3922SOL    HW212666   4.146   5.506   1.056
 3923SOL     OW12667   5.868   2.000   0.111
 3923SOL    HW112668   5.904   2.014   0.203
 3923SOL    HW212669   5.939   1.959   0.053
 3924SOL     OW12670   0.625   4.971   2.990
 3924SOL    HW112671   0.666   4.920   3.066
 3924SOL    HW212672   0.541   5.016   3.022
 3925SOL     OW12673   4.027   4.405   0.909
 3925SOL    HW112674   4.020   4.336   0.981
 3925SOL    HW212675   4.062   4.362   0.825
 3926SOL     OW12676   0.352   0.300   4.738
 3926SOL    HW112677   0.303   0.238   4.677
 3926SOL    HW212678   0.376   0.384   4.688
 3927SOL     OW12679   6.944   2.341   4.876
 3927SOL    HW112680   6.985   2.399   4.946
 3927SOL    HW212681   7.015   2.288   4.830
 3928SOL     OW12682   3.538   5.522   4.059
 3928SOL    HW112683   3.502   5.546   3.969
 3928SOL    HW212684   3.477   5.456   4.103
 3929SOL     OW12685   6.787   1.812   6.460
 3929SOL    HW112686   6.759   1.766   6.544
 3929SOL    HW212687   6.733   1.776   6.383
 3930SOL     OW12688   1.124   1.961   3.669
 3930SOL    HW112689   1.035   1.926   3.641
 3930SOL    HW212690   1.183   1.884   3.696
 3931SOL     OW12691   1.677   1.895   1.916
 3931SOL    HW112692   1.761   1.942   1.888
 3931SOL    HW212693   1.701   1.809   1.961
 3932SOL     OW12694   1.806   4.523   3.657
 3932SOL    HW112695   1.865   4.457   3.609
 3932SOL    HW212696   1.713   4.517   3.621
 3933SOL     OW12697   1.469   6.748   0.218
 3933SOL    HW112698   1.545   6.810   0.241
 3933SOL    HW212699   1.481   6.662   0.266
 3934SOL     OW12700   6.966   0.799   2.416
 3934SOL    HW112701   6.888   0.774   2.358
 3934SOL    HW212702   6.968   0.898   2.427
 3935SOL     OW12703   1.342   1.171   5.571
 3935SOL    HW112704   1.282   1.219   5.635
 3935SOL    HW212705   1.437   1.193   5.592
 3936SOL     OW12706   6.699   5.950   5.087
 3936SOL    HW112707   6.734   5.965   5.179
 3936SOL    HW212708   6.630   5.877   5.089
 3937SOL     OW12709   6.864   6.350   2.064
 3937SOL    HW112710   6.936   6.414   2.092
 3937SOL    HW212711   6.849   6.359   1.966
 3938SOL     OW12712   5.936   3.689   4.359
 3938SOL    HW112713   5.995   3.745   4.302
 3938SOL    HW212714   5.936   3.595   4.326
 3939SOL     OW12715   2.313   1.836   3.327
 3939SOL    HW112716   2.352   1.745   3.314
 3939SOL    HW212717   2.286   1.848   3.423
 3940SOL     OW12718   2.891   4.816   1.857
 3940SOL    HW112719   2.968   4.837   1.916
 3940SOL    HW212720   2.855   4.725   1.881
 3941SOL     OW12721   5.961   0.405   4.728
 3941SOL    HW112722   5.915   0.362   4.806
 3941SOL    HW212723   6.013   0.335   4.678
 3942SOL     OW12724   1.054   6.332   5.423
 3942SOL    HW112725   1.120   6.334   5.498
 3942SOL    HW212726   1.048   6.422   5.381
 3943SOL     OW12727   0.463   3.670   3.062
 3943SOL    HW112728   0.525   3.679   3.140
 3943SOL    HW212729   0.440   3.761   3.027
 3944SOL     OW12730   5.809   3.636   6.289
 3944SOL    HW112731   5.753   3.656   6.208
 3944SOL    HW212732   5.834   3.539   6.289
 3945SOL     OW12733   1.087   2.482   2.975
 3945SOL    HW112734   1.041   2.420   2.911
 3945SOL    HW212735   1.185   2.463   2.976
 3946SOL     OW12736   0.111   3.954   6.215
 3946SOL    HW112737   0.047   3.880   6.238
 3946SOL    HW212738   0.188   3.916   6.164
 3947SOL     OW12739   5.457   5.332   0.767
 3947SOL    HW112740   5.441   5.361   0.862
 3947SOL    HW212741   5.443   5.233   0.760
 3948SOL     OW12742   1.361   4.350   6.852
 3948SOL    HW112743   1.291   4.280   6.864
 3948SOL    HW212744   1.427   4.320   6.783
 3949SOL     OW12745   6.207   6.794   2.832
 3949SOL    HW112746   6.107   6.792   2.823
 3949SOL    HW212747   6.232   6.817   2.926
 3950SOL     OW12748   3.601   3.857   1.506
 3950SOL    HW112749   3.694   3.823   1.493
 3950SOL    HW212750   3.556   3.804   1.578
 3951SOL     OW12751   0.500   1.003   0.076
 3951SOL    HW112752   0.425   1.001   0.142
 3951SOL    HW212753   0.504   1.092   0.031
 3952SOL     OW12754   6.016   3.439   4.950
 3952SOL    HW112755   6.022   3.359   5.009
 3952SOL    HW212756   6.086   3.505   4.976
 3953SOL     OW12757   3.830   4.347   6.793
 3953SOL    HW112758   3.745   4.383   6.753
 3953SOL    HW212759   3.899   4.337   6.721
 3954SOL     OW12760   5.584   4.911   5.187
 3954SOL    HW112761   5.557   4.895   5.282
 3954SOL    HW212762   5.652   4.843   5.160
 3955SOL     OW12763   4.659   6.574   6.785
 3955SOL    HW112764   4.647   6.660   6.735
 3955SOL    HW212765   4.579   6.516   6.771
 3956SOL     OW12766   0.709   1.907   4.490
 3956SOL    HW112767   0.717   2.007   4.484
 3956SOL    HW212768   0.784   1.865   4.438
 3957SOL     OW12769   4.363   6.499   3.696
 3957SOL    HW112770   4.327   6.565   3.631
 3957SOL    HW212771   4.458   6.478   3.674
 3958SOL     OW12772   6.059   6.649   6.529
 3958SOL    HW112773   5.975   6.703   6.531
 3958SOL    HW212774   6.138   6.709   6.515
 3959SOL     OW12775   3.124   6.265   1.420
 3959SOL    HW112776   3.208   6.292   1.374
 3959SOL    HW212777   3.046   6.310   1.377
 3960SOL     OW12778   5.973   2.346   6.406
 3960SOL    HW112779   6.053   2.397   6.436
 3960SOL    HW212780   5.921   2.314   6.486
 3961SOL     OW12781   5.579   2.319   2.076
 3961SOL    HW112782   5.505   2.358   2.022
 3961SOL    HW212783   5.648   2.279   2.016
 3962SOL     OW12784   1.021   5.848   0.268
 3962SOL    HW112785   1.096   5.784   0.284
 3962SOL    HW212786   1.016   5.870   0.171
 3963SOL     OW12787   5.366   4.441   3.574
 3963SOL    HW112788   5.297   4.493   3.523
 3963SOL    HW212789   5.424   4.505   3.625
 3964SOL     OW12790   4.339   4.788   4.869
 3964SOL    HW112791   4.348   4.693   4.900
 3964SOL    HW212792   4.252   4.825   4.901
 3965SOL     OW12793   3.881   4.559   6.178
 3965SOL    HW112794   3.894   4.482   6.116
 3965SOL    HW212795   3.792   4.602   6.160
 3966SOL     OW12796   6.880   4.881   0.048
 3966SOL    HW112797   6.846   4.933   0.125
 3966SOL    HW212798   6.810   4.818   0.016
 3967SOL     OW12799   1.035   4.350   2.775
 3967SOL    HW112800   1.004   4.423   2.715
 3967SOL    HW212801   1.009   4.261   2.736
 3968SOL     OW12802   6.448   0.545   1.331
 3968SOL    HW112803   6.416   0.639   1.329
 3968SOL    HW212804   6.409   0.498   1.410
 3969SOL     OW12805   0.271   3.884   2.990
 3969SOL    HW112806   0.357   3.924   2.961
 3969SOL    HW212807   0.228   3.942   3.058
 3970SOL     OW12808   4.849   5.177   3.329
 3970SOL    HW112809   4.884   5.164   3.236
 3970SOL    HW212810   4.901   5.119   3.392
 3971SOL     OW12811   2.172   4.985   2.455
 3971SOL    HW112812   2.257   4.970   2.506
 3971SOL    HW212813   2.190   4.976   2.357
 3972SOL     OW12814   1.294   5.707   1.858
 3972SOL    HW112815   1.381   5.681   1.815
 3972SOL    HW212816   1.312   5.747   1.948
 3973SOL     OW12817   2.596   3.593   5.333
 3973SOL    HW112818   2.660   3.641   5.393
 3973SOL    HW212819   2.626   3.498   5.323
 3974SOL     OW12820   1.441   0.674   5.368
 3974SOL    HW112821   1.357   0.641   5.326
 3974SOL    HW212822   1.453   0.771   5.345
 3975SOL     OW12823   5.953   6.997   6.457
 3975SOL    HW112824   5.983   6.997   6.362
 3975SOL    HW212825   5.905   6.912   6.478
 3976SOL     OW12826   2.151   4.767   0.971
 3976SOL    HW112827   2.156   4.826   1.051
 3976SOL    HW212828   2.223   4.697   0.976
 3977SOL     OW12829   3.249   4.606   5.796
 3977SOL    HW112830   3.296   4.617   5.884
 3977SOL    HW212831   3.317   4.590   5.724
 3978SOL     OW12832   5.636   0.557   4.656
 3978SOL    HW112833   5.646   0.500   4.574
 3978SOL    HW212834   5.675   0.509   4.734
 3979SOL     OW12835   2.460   5.958   1.505
 3979SOL    HW112836   2.520   5.928   1.431
 3979SOL    HW212837   2.468   6.056   1.517
 3980SOL     OW12838   0.162   4.592   5.665
 3980SOL    HW112839   0.121   4.519   5.720
 3980SOL    HW212840   0.205   4.659   5.725
 3981SOL     OW12841   1.735   2.191   6.356
 3981SOL    HW112842   1.643   2.221   6.383
 3981SOL    HW212843   1.753   2.100   6.392
 3982SOL     OW12844   2.718   0.419   4.080
 3982SOL    HW112845   2.662   0.498   4.103
 3982SOL    HW212846   2.771   0.439   3.997
 3983SOL     OW12847   2.809   5.976   4.441
 3983SOL    HW112848   2.797   6.067   4.402
 3983SOL    HW212849   2.870   5.981   4.520
 3984SOL     OW12850   1.942   0.680   1.905
 3984SOL    HW112851   1.893   0.759   1.944
 3984SOL    HW212852   2.025   0.663   1.958
 3985SOL     OW12853   2.710   4.258   0.106
 3985SOL    HW112854   2.614   4.245   0.083
 3985SOL    HW212855   2.754   4.169   0.116
 3986SOL     OW12856   0.118   1.493   3.370
 3986SOL    HW112857   0.121   1.551   3.452
 3986SOL    HW212858   0.044   1.427   3.378
 3987SOL     OW12859   1.217   5.432   4.707
 3987SOL    HW112860   1.182   5.403   4.796
 3987SOL    HW212861   1.218   5.532   4.702
 3988SOL     OW12862   3.483   2.668   5.329
 3988SOL    HW112863   3.519   2.754   5.364
 3988SOL    HW212864   3.541   2.592   5.360
 3989SOL     OW12865   6.239   0.768   6.957
 3989SOL    HW112866   6.308   0.834   6.928
 3989SOL    HW212867   6.232   0.768   0.039
 3990SOL     OW12868   6.227   1.631   3.819
 3990SOL    HW112869   6.152   1.698   3.820
 3990SOL    HW212870   6.225   1.579   3.904
 3991SOL     OW12871   6.822   2.158   3.451
 3991SOL    HW112872   6.818   2.222   3.374
 3991SOL    HW212873   6.729   2.131   3.476
 3992SOL     OW12874   4.282   2.113   6.010
 3992SOL    HW112875   4.358   2.109   5.945
 3992SOL    HW212876   4.317   2.117   6.104
 3993SOL     OW12877   1.544   2.028   3.479
 3993SOL    HW112878   1.598   2.111   3.484
 3993SOL    HW212879   1.575   1.972   3.403
 3994SOL     OW12880   1.280   2.630   5.112
 3994SOL    HW112881   1.352   2.637   5.180
 3994SOL    HW212882   1.190   2.633   5.157
 3995SOL     OW12883   2.207   4.069   3.921
 3995SOL    HW112884   2.191   3.974   3.947
 3995SOL    HW212885   2.242   4.074   3.828
 3996SOL     OW12886   1.283   0.922   4.974
 3996SOL    HW112887   1.361   0.979   4.947
 3996SOL    HW212888   1.204   0.944   4.917
 3997SOL     OW12889   4.940   3.339   3.257
 3997SOL    HW112890   4.969   3.306   3.347
 3997SOL    HW212891   4.939   3.439   3.256
 3998SOL     OW12892   5.113   1.580   1.940
 3998SOL    HW112893   5.034   1.519   1.941
 3998SOL    HW212894   5.100   1.651   1.870
 3999SOL     OW12895   5.895   3.602   3.630
 3999SOL    HW112896   5.918   3.511   3.596
 3999SOL    HW212897   5.950   3.623   3.711
 4000SOL     OW12898   3.068   5.662   2.779
 4000SOL    HW112899   3.160   5.701   2.771
 4000SOL    HW212900   3.029   5.689   2.867
 4001SOL     OW12901   2.195   2.625   4.723
 4001SOL    HW112902   2.164   2.594   4.813
 4001SOL    HW212903   2.258   2.702   4.733
 4002SOL     OW12904   3.365   3.573   6.091
 4002SOL    HW112905   3.441   3.511   6.109
 4002SOL    HW212906   3.391   3.637   6.019
 4003SOL     OW12907   2.507   0.188   6.042
 4003SOL    HW112908   2.492   0.089   6.036
 4003SOL    HW212909   2.531   0.213   6.136
 4004SOL     OW12910   6.042   2.789   4.188
 4004SOL    HW112911   6.053   2.861   4.118
 4004SOL    HW212912   5.969   2.815   4.251
 4005SOL     OW12913   5.180   4.801   1.187
 4005SOL    HW112914   5.275   4.792   1.214
 4005SOL    HW212915   5.140   4.710   1.173
 4006SOL     OW12916   4.686   4.810   2.165
 4006SOL    HW112917   4.648   4.763   2.245
 4006SOL    HW212918   4.726   4.743   2.103
 4007SOL     OW12919   0.723   2.584   2.021
 4007SOL    HW112920   0.735   2.498   1.972
 4007SOL    HW212921   0.735   2.661   1.957
 4008SOL     OW12922   4.023   1.492   5.444
 4008SOL    HW112923   3.962   1.420   5.477
 4008SOL    HW212924   4.117   1.472   5.470
 4009SOL     OW12925   4.925   2.802   0.451
 4009SOL    HW112926   5.000   2.841   0.503
 4009SOL    HW212927   4.961   2.752   0.372
 4010SOL     OW12928   2.261   3.343   1.449
 4010SOL    HW112929   2.349   3.358   1.404
 4010SOL    HW212930   2.191   3.325   1.380
 4011SOL     OW12931   1.353   6.514   2.106
 4011SOL    HW112932   1.327   6.441   2.043
 4011SOL    HW212933   1.285   6.521   2.178
 4012SOL     OW12934   4.964   4.893   1.608
 4012SOL    HW112935   4.945   4.795   1.613
 4012SOL    HW212936   5.030   4.917   1.680
 4013SOL     OW12937   3.150   0.600   0.973
 4013SOL    HW112938   3.133   0.503   0.992
 4013SOL    HW212939   3.191   0.642   1.054
 4014SOL     OW12940   4.095   5.673   3.521
 4014SOL    HW112941   4.064   5.627   3.604
 4014SOL    HW212942   4.016   5.694   3.463
 4015SOL     OW12943   4.383   5.052   6.575
 4015SOL    HW112944   4.357   4.958   6.553
 4015SOL    HW212945   4.306   5.113   6.557
 4016SOL     OW12946   1.167   5.520   6.586
 4016SOL    HW112947   1.242   5.579   6.616
 4016SOL    HW212948   1.135   5.551   6.496
 4017SOL     OW12949   0.566   6.390   6.920
 4017SOL    HW112950   0.616   6.471   6.891
 4017SOL    HW212951   0.629   6.313   6.931
 4018SOL     OW12952   5.872   6.532   1.756
 4018SOL    HW112953   5.868   6.463   1.684
 4018SOL    HW212954   5.960   6.580   1.751
 4019SOL     OW12955   6.183   3.918   2.092
 4019SOL    HW112956   6.213   3.824   2.103
 4019SOL    HW212957   6.253   3.980   2.127
 4020SOL     OW12958   6.845   2.284   5.688
 4020SOL    HW112959   6.837   2.190   5.653
 4020SOL    HW212960   6.756   2.329   5.684
 4021SOL     OW12961   3.161   3.714   5.195
 4021SOL    HW112962   3.149   3.668   5.107
 4021SOL    HW212963   3.191   3.647   5.264
 4022SOL     OW12964   4.894   0.421   6.500
 4022SOL    HW112965   4.969   0.359   6.477
 4022SOL    HW212966   4.875   0.415   6.598
 4023SOL     OW12967   6.894   0.459   4.288
 4023SOL    HW112968   6.873   0.533   4.352
 4023SOL    HW212969   6.810   0.409   4.267
 4024SOL     OW12970   2.608   5.056   4.313
 4024SOL    HW112971   2.521   5.090   4.347
 4024SOL    HW212972   2.667   5.032   4.390
 4025SOL     OW12973   0.012   6.109   4.540
 4025SOL    HW112974   6.954   6.050   4.510
 4025SOL    HW212975   7.005   6.152   4.627
 4026SOL     OW12976   6.090   0.205   2.967
 4026SOL    HW112977   6.062   0.170   2.877
 4026SOL    HW212978   6.009   0.236   3.017
 4027SOL     OW12979   2.592   2.844   1.276
 4027SOL    HW112980   2.617   2.776   1.208
 4027SOL    HW212981   2.657   2.841   1.352
 4028SOL     OW12982   2.344   2.368   2.801
 4028SOL    HW112983   2.292   2.307   2.742
 4028SOL    HW212984   2.362   2.454   2.752
 4029SOL     OW12985   3.032   4.835   6.010
 4029SOL    HW112986   3.010   4.741   6.036
 4029SOL    HW212987   3.065   4.885   6.091
 4030SOL     OW12988   1.210   1.579   1.111
 4030SOL    HW112989   1.115   1.548   1.105
 4030SOL    HW212990   1.223   1.656   1.049
 4031SOL     OW12991   5.035   6.415   3.305
 4031SOL    HW112992   5.087   6.334   3.275
 4031SOL    HW212993   4.981   6.391   3.386
 4032SOL     OW12994   6.523   0.263   2.316
 4032SOL    HW112995   6.593   0.251   2.387
 4032SOL    HW212996   6.559   0.229   2.229
 4033SOL     OW12997   2.890   3.749   1.530
 4033SOL    HW112998   2.866   3.668   1.583
 4033SOL    HW212999   2.980   3.736   1.488
 4034SOL     OW13000   0.016   1.419   4.851
 4034SOL    HW113001   7.016   1.340   4.792
 4034SOL    HW213002   6.966   1.490   4.832
 4035SOL     OW13003   6.165   2.331   0.988
 4035SOL    HW113004   6.212   2.374   0.911
 4035SOL    HW213005   6.183   2.382   1.072
 4036SOL     OW13006   4.677   6.291   2.659
 4036SOL    HW113007   4.717   6.248   2.740
 4036SOL    HW213008   4.591   6.336   2.683
 4037SOL     OW13009   2.514   1.324   0.634
 4037SOL    HW113010   2.475   1.319   0.542
 4037SOL    HW213011   2.597   1.380   0.632
 4038SOL     OW13012   4.314   4.029   1.710
 4038SOL    HW113013   4.282   4.067   1.623
 4038SOL    HW213014   4.367   4.098   1.759
 4039SOL     OW13015   4.594   4.501   1.628
 4039SOL    HW113016   4.534   4.460   1.697
 4039SOL    HW213017   4.654   4.431   1.590
 4040SOL     OW13018   3.792   6.754   5.860
 4040SOL    HW113019   3.800   6.773   5.762
 4040SOL    HW213020   3.883   6.761   5.902
 4041SOL     OW13021   1.840   5.084   1.584
 4041SOL    HW113022   1.848   5.167   1.639
 4041SOL    HW213023   1.874   5.102   1.491
 4042SOL     OW13024   6.361   5.423   3.088
 4042SOL    HW113025   6.380   5.488   3.015
 4042SOL    HW213026   6.269   5.385   3.076
 4043SOL     OW13027   5.226   1.452   4.084
 4043SOL    HW113028   5.242   1.529   4.022
 4043SOL    HW213029   5.228   1.485   4.179
 4044SOL     OW13030   4.848   0.328   3.098
 4044SOL    HW113031   4.784   0.317   3.174
 4044SOL    HW213032   4.800   0.365   3.019
 4045SOL     OW13033   2.755   5.423   5.712
 4045SOL    HW113034   2.671   5.446   5.662
 4045SOL    HW213035   2.795   5.340   5.672
 4046SOL     OW13036   0.840   1.621   3.725
 4046SOL    HW113037   0.847   1.525   3.697
 4046SOL    HW213038   0.797   1.626   3.815
 4047SOL     OW13039   1.354   1.669   0.768
 4047SOL    HW113040   1.276   1.685   0.828
 4047SOL    HW213041   1.411   1.596   0.805
 4048SOL     OW13042   5.331   2.412   1.919
 4048SOL    HW113043   5.288   2.322   1.911
 4048SOL    HW213044   5.261   2.481   1.939
 4049SOL     OW13045   6.162   5.324   5.977
 4049SOL    HW113046   6.099   5.365   5.911
 4049SOL    HW213047   6.255   5.325   5.938
 4050SOL     OW13048   1.748   6.617   1.089
 4050SOL    HW113049   1.711   6.710   1.083
 4050SOL    HW213050   1.828   6.617   1.149
 4051SOL     OW13051   3.874   2.546   6.577
 4051SOL    HW113052   3.939   2.577   6.508
 4051SOL    HW213053   3.825   2.625   6.615
 4052SOL     OW13054   6.795   0.616   2.545
 4052SOL    HW113055   6.792   0.532   2.491
 4052SOL    HW213056   6.873   0.672   2.516
 4053SOL     OW13057   3.090   4.898   4.270
 4053SOL    HW113058   3.019   4.880   4.339
 4053SOL    HW213059   3.046   4.911   4.181
 4054SOL     OW13060   6.810   3.573   2.068
 4054SOL    HW113061   6.746   3.543   2.138
 4054SOL    HW213062   6.831   3.496   2.007
 4055SOL     OW13063   3.248   3.374   6.823
 4055SOL    HW113064   3.321   3.389   6.757
 4055SOL    HW213065   3.179   3.313   6.784
 4056SOL     OW13066   3.655   4.165   0.977
 4056SOL    HW113067   3.635   4.249   1.028
 4056SOL    HW213068   3.667   4.187   0.881
 4057SOL     OW13069   5.377   2.703   1.510
 4057SOL    HW113070   5.459   2.759   1.497
 4057SOL    HW213071   5.395   2.635   1.581
 4058SOL     OW13072   1.730   0.386   4.185
 4058SOL    HW113073   1.630   0.382   4.189
 4058SOL    HW213074   1.766   0.296   4.161
 4059SOL     OW13075   0.973   2.495   3.847
 4059SOL    HW113076   1.015   2.508   3.757
 4059SOL    HW213077   0.905   2.422   3.842
 4060SOL     OW13078   4.764   5.608   4.294
 4060SOL    HW113079   4.749   5.690   4.350
 4060SOL    HW213080   4.692   5.541   4.312
 4061SOL     OW13081   3.021   4.854   1.610
 4061SOL    HW113082   2.990   4.882   1.700
 4061SOL    HW213083   2.956   4.788   1.572
 4062SOL     OW13084   2.148   2.332   2.295
 4062SOL    HW113085   2.112   2.256   2.242
 4062SOL    HW213086   2.241   2.310   2.326
 4063SOL     OW13087   5.987   6.259   5.184
 4063SOL    HW113088   6.021   6.318   5.257
 4063SOL    HW213089   5.986   6.164   5.215
 4064SOL     OW13090   1.434   6.931   3.522
 4064SOL    HW113091   1.530   6.942   3.546
 4064SOL    HW213092   1.417   6.837   3.494
 4065SOL     OW13093   6.917   7.003   0.882
 4065SOL    HW113094   6.828   6.991   0.925
 4065SOL    HW213095   6.908   6.994   0.783
 4066SOL     OW13096   5.414   6.073   2.851
 4066SOL    HW113097   5.421   6.078   2.752
 4066SOL    HW213098   5.318   6.088   2.878
 4067SOL     OW13099   6.623   3.201   3.233
 4067SOL    HW113100   6.681   3.199   3.314
 4067SOL    HW213101   6.550   3.133   3.242
 4068SOL     OW13102   3.059   0.498   4.872
 4068SOL    HW113103   3.053   0.421   4.809
 4068SOL    HW213104   3.006   0.575   4.838
 4069SOL     OW13105   3.597   5.028   6.085
 4069SOL    HW113106   3.583   4.934   6.118
 4069SOL    HW213107   3.695   5.050   6.091
 4070SOL     OW13108   0.752   3.240   2.090
 4070SOL    HW113109   0.818   3.179   2.047
 4070SOL    HW213110   0.758   3.231   2.189
 4071SOL     OW13111   1.413   1.232   5.290
 4071SOL    HW113112   1.418   1.168   5.367
 4071SOL    HW213113   1.415   1.326   5.325
 4072SOL     OW13114   0.410   6.071   3.896
 4072SOL    HW113115   0.340   6.042   3.831
 4072SOL    HW213116   0.422   6.170   3.890
 4073SOL     OW13117   2.384   6.068   6.659
 4073SOL    HW113118   2.365   6.034   6.567
 4073SOL    HW213119   2.410   5.992   6.718
 4074SOL     OW13120   6.919   2.735   2.210
 4074SOL    HW113121   6.932   2.748   2.112
 4074SOL    HW213122   6.984   2.666   2.243
 4075SOL     OW13123   3.940   2.153   2.565
 4075SOL    HW113124   3.868   2.111   2.509
 4075SOL    HW213125   4.028   2.142   2.519
 4076SOL     OW13126   3.018   3.615   5.538
 4076SOL    HW113127   3.008   3.641   5.634
 4076SOL    HW213128   2.947   3.660   5.484
 4077SOL     OW13129   3.509   0.541   0.108
 4077SOL    HW113130   3.583   0.504   0.051
 4077SOL    HW213131   3.436   0.473   0.114
 4078SOL     OW13132   6.387   5.541   2.127
 4078SOL    HW113133   6.422   5.498   2.210
 4078SOL    HW213134   6.298   5.503   2.104
 4079SOL     OW13135   0.629   2.008   3.829
 4079SOL    HW113136   0.619   1.909   3.817
 4079SOL    HW213137   0.598   2.033   3.921
 4080SOL     OW13138   2.911   3.682   6.847
 4080SOL    HW113139   2.816   3.687   6.815
 4080SOL    HW213140   2.913   3.633   6.934
 4081SOL     OW13141   2.237   1.774   4.016
 4081SOL    HW113142   2.203   1.704   3.952
 4081SOL    HW213143   2.164   1.841   4.034
 4082SOL     OW13144   1.286   2.642   0.637
 4082SOL    HW113145   1.311   2.679   0.727
 4082SOL    HW213146   1.203   2.687   0.604
 4083SOL     OW13147   6.648   4.729   2.093
 4083SOL    HW113148   6.711   4.654   2.115
 4083SOL    HW213149   6.656   4.751   1.996
 4084SOL     OW13150   4.406   2.311   3.089
 4084SOL    HW113151   4.443   2.390   3.139
 4084SOL    HW213152   4.445   2.227   3.127
 4085SOL     OW13153   2.743   5.566   0.518
 4085SOL    HW113154   2.779   5.549   0.609
 4085SOL    HW213155   2.796   5.639   0.474
 4086SOL     OW13156   0.425   4.607   1.303
 4086SOL    HW113157   0.325   4.614   1.296
 4086SOL    HW213158   0.467   4.687   1.260
 4087SOL     OW13159   1.593   1.642   3.509
 4087SOL    HW113160   1.680   1.599   3.487
 4087SOL    HW213161   1.565   1.701   3.433
 4088SOL     OW13162   6.595   0.955   6.716
 4088SOL    HW113163   6.536   0.961   6.636
 4088SOL    HW213164   6.682   1.000   6.697
 4089SOL     OW13165   6.279   4.775   4.006
 4089SOL    HW113166   6.360   4.720   4.025
 4089SOL    HW213167   6.250   4.760   3.911
 4090SOL     OW13168   1.271   5.512   5.014
 4090SOL    HW113169   1.185   5.464   5.028
 4090SOL    HW213170   1.263   5.606   5.048
 4091SOL     OW13171   0.740   6.201   6.988
 4091SOL    HW113172   0.835   6.191   0.001
 4091SOL    HW213173   0.688   6.119   7.014
 4092SOL     OW13174   5.798   2.770   4.346
 4092SOL    HW113175   5.797   2.737   4.440
 4092SOL    HW213176   5.816   2.694   4.284
 4093SOL     OW13177   5.109   6.474   1.836
 4093SOL    HW113178   5.021   6.501   1.796
 4093SOL    HW213179   5.179   6.541   1.811
 4094SOL     OW13180   1.739   4.792   5.980
 4094SOL    HW113181   1.765   4.781   5.884
 4094SOL    HW213182   1.788   4.870   6.019
 4095SOL     OW13183   0.699   4.079   0.565
 4095SOL    HW113184   0.651   3.992   0.583
 4095SOL    HW213185   0.702   4.133   0.649
 4096SOL     OW13186   5.120   1.037   0.016
 4096SOL    HW113187   5.045   0.977   7.007
 4096SOL    HW213188   5.200   1.018   6.976
 4097SOL     OW13189   4.632   4.887   4.544
 4097SOL    HW113190   4.659   4.866   4.638
 4097SOL    HW213191   4.543   4.846   4.525
 4098SOL     OW13192   0.804   1.662   2.276
 4098SOL    HW113193   0.843   1.596   2.212
 4098SOL    HW213194   0.858   1.747   2.272
 4099SOL     OW13195   4.023   5.169   1.332
 4099SOL    HW113196   3.927   5.190   1.314
 4099SOL    HW213197   4.050   5.087   1.281
 4100SOL     OW13198   0.386   6.300   4.143
 4100SOL    HW113199   0.331   6.360   4.085
 4100SOL    HW213200   0.364   6.319   4.239
 4101SOL     OW13201   0.062   0.819   0.434
 4101SOL    HW113202   6.984   0.794   0.450
 4101SOL    HW213203   0.108   0.834   0.521
 4102SOL     OW13204   1.152   0.649   0.921
 4102SOL    HW113205   1.213   0.682   0.849
 4102SOL    HW213206   1.076   0.598   0.881
 4103SOL     OW13207   0.425   6.952   0.694
 4103SOL    HW113208   0.499   6.970   0.628
 4103SOL    HW213209   0.397   0.020   0.738
 4104SOL     OW13210   6.994   4.870   3.141
 4104SOL    HW113211   6.998   4.956   3.091
 4104SOL    HW213212   6.913   4.818   3.112
 4105SOL     OW13213   5.756   0.314   2.532
 4105SOL    HW113214   5.831   0.381   2.536
 4105SOL    HW213215   5.750   0.276   2.439
 4106SOL     OW13216   6.742   2.852   3.246
 4106SOL    HW113217   6.786   2.764   3.230
 4106SOL    HW213218   6.715   2.860   3.342
 4107SOL     OW13219   1.515   5.640   1.278
 4107SOL    HW113220   1.432   5.630   1.223
 4107SOL    HW213221   1.534   5.553   1.324
 4108SOL     OW13222   6.910   5.126   4.848
 4108SOL    HW113223   6.895   5.040   4.800
 4108SOL    HW213224   6.904   5.202   4.783
 4109SOL     OW13225   6.818   0.102   4.494
 4109SOL    HW113226   6.789   0.012   4.461
 4109SOL    HW213227   6.877   0.144   4.425
 4110SOL     OW13228   4.158   3.796   5.697
 4110SOL    HW113229   4.133   3.825   5.605
 4110SOL    HW213230   4.198   3.874   5.746
 4111SOL     OW13231   5.389   4.861   6.295
 4111SOL    HW113232   5.401   4.798   6.372
 4111SOL    HW213233   5.309   4.832   6.241
 4112SOL     OW13234   4.759   6.528   4.906
 4112SOL    HW113235   4.786   6.525   5.002
 4112SOL    HW213236   4.822   6.473   4.852
 4113SOL     OW13237   5.722   5.701   4.837
 4113SOL    HW113238   5.644   5.639   4.824
 4113SOL    HW213239   5.786   5.690   4.761
 4114SOL     OW13240   4.142   2.324   4.044
 4114SOL    HW113241   4.088   2.247   4.078
 4114SOL    HW213242   4.236   2.316   4.078
 4115SOL     OW13243   2.863   5.318   2.298
 4115SOL    HW113244   2.944   5.325   2.356
 4115SOL    HW213245   2.890   5.284   2.208
 4116SOL     OW13246   3.783   1.407   2.595
 4116SOL    HW113247   3.708   1.473   2.592
 4116SOL    HW213248   3.773   1.347   2.674
 4117SOL     OW13249   1.126   3.660   2.612
 4117SOL    HW113250   1.115   3.683   2.709
 4117SOL    HW213251   1.169   3.570   2.603
 4118SOL     OW13252   5.336   6.486   0.648
 4118SOL    HW113253   5.268   6.454   0.583
 4118SOL    HW213254   5.370   6.577   0.620
 4119SOL     OW13255   3.199   1.890   3.930
 4119SOL    HW113256   3.196   1.987   3.905
 4119SOL    HW213257   3.126   1.870   3.996
 4120SOL     OW13258   4.260   0.709   6.038
 4120SOL    HW113259   4.235   0.765   6.117
 4120SOL    HW213260   4.354   0.677   6.049
 4121SOL     OW13261   6.428   6.983   3.377
 4121SOL    HW113262   6.388   0.015   3.454
 4121SOL    HW213263   6.357   6.929   3.331
 4122SOL     OW13264   1.270   6.554   4.707
 4122SOL    HW113265   1.182   6.599   4.722
 4122SOL    HW213266   1.272   6.515   4.615
 4123SOL     OW13267   4.416   4.651   5.356
 4123SOL    HW113268   4.471   4.716   5.409
 4123SOL    HW213269   4.326   4.691   5.337
 4124SOL     OW13270   6.247   6.261   0.594
 4124SOL    HW113271   6.265   6.359   0.603
 4124SOL    HW213272   6.209   6.243   0.503
 4125SOL     OW13273   4.601   1.776   2.498
 4125SOL    HW113274   4.574   1.682   2.477
 4125SOL    HW213275   4.687   1.797   2.452
 4126SOL     OW13276   1.932   3.382   3.461
 4126SOL    HW113277   1.905   3.431   3.379
 4126SOL    HW213278   1.891   3.426   3.541
 4127SOL     OW13279   5.529   3.380   5.398
 4127SOL    HW113280   5.490   3.471   5.394
 4127SOL    HW213281   5.555   3.358   5.492
 4128SOL     OW13282   0.989   3.115   1.228
 4128SOL    HW113283   1.080   3.094   1.193
 4128SOL    HW213284   0.985   3.092   1.326
 4129SOL     OW13285   3.507   1.298   6.775
 4129SOL    HW113286   3.427   1.284   6.832
 4129SOL    HW213287   3.534   1.211   6.733
 4130SOL     OW13288   6.586   3.149   0.949
 4130SOL    HW113289   6.501   3.174   0.902
 4130SOL    HW213290   6.632   3.077   0.898
 4131SOL     OW13291   6.983   1.268   3.545
 4131SOL    HW113292   0.058   1.231   3.554
 4131SOL    HW213293   6.965   1.329   3.622
 4132SOL     OW13294   4.820   4.025   3.297
 4132SOL    HW113295   4.769   3.942   3.272
 4132SOL    HW213296   4.841   4.077   3.214
 4133SOL     OW13297   3.344   5.908   1.655
 4133SOL    HW113298   3.431   5.915   1.704
 4133SOL    HW213299   3.333   5.815   1.621
 4134SOL     OW13300   2.631   3.889   1.359
 4134SOL    HW113301   2.719   3.878   1.314
 4134SOL    HW213302   2.558   3.879   1.292
 4135SOL     OW13303   0.410   2.259   2.124
 4135SOL    HW113304   0.401   2.337   2.063
 4135SOL    HW213305   0.495   2.210   2.104
 4136SOL     OW13306   1.161   3.192   3.150
 4136SOL    HW113307   1.076   3.221   3.105
 4136SOL    HW213308   1.239   3.221   3.095
 4137SOL     OW13309   0.961   3.394   1.851
 4137SOL    HW113310   1.026   3.449   1.902
 4137SOL    HW213311   0.885   3.451   1.821
 4138SOL     OW13312   4.021   5.778   2.571
 4138SOL    HW113313   3.961   5.787   2.492
 4138SOL    HW213314   3.974   5.727   2.643
 4139SOL     OW13315   2.153   1.730   5.152
 4139SOL    HW113316   2.100   1.749   5.234
 4139SOL    HW213317   2.143   1.633   5.128
 4140SOL     OW13318   3.204   0.533   5.576
 4140SOL    HW113319   3.254   0.618   5.561
 4140SOL    HW213320   3.107   0.548   5.562
 4141SOL     OW13321   5.122   6.508   1.254
 4141SOL    HW113322   5.122   6.606   1.274
 4141SOL    HW213323   5.172   6.492   1.169
 4142SOL     OW13324   6.711   4.964   0.850
 4142SOL    HW113325   6.664   4.886   0.809
 4142SOL    HW213326   6.810   4.947   0.849
 4143SOL     OW13327   5.329   1.688   0.640
 4143SOL    HW113328   5.338   1.773   0.588
 4143SOL    HW213329   5.368   1.701   0.732
 4144SOL     OW13330   5.624   1.338   6.790
 4144SOL    HW113331   5.597   1.267   6.724
 4144SOL    HW213332   5.612   1.428   6.747
 4145SOL     OW13333   0.563   6.431   1.608
 4145SOL    HW113334   0.466   6.406   1.609
 4145SOL    HW213335   0.571   6.531   1.601
 4146SOL     OW13336   6.636   0.471   2.817
 4146SOL    HW113337   6.555   0.465   2.875
 4146SOL    HW213338   6.608   0.499   2.725
 4147SOL     OW13339   4.961   4.970   5.927
 4147SOL    HW113340   4.911   5.041   5.877
 4147SOL    HW213341   5.003   4.907   5.861
 4148SOL     OW13342   1.821   0.404   4.571
 4148SOL    HW113343   1.906   0.351   4.574
 4148SOL    HW213344   1.836   0.487   4.518
 4149SOL     OW13345   0.127   4.365   1.109
 4149SOL    HW113346   0.062   4.364   1.033
 4149SOL    HW213347   0.219   4.383   1.075
 4150SOL     OW13348   1.213   0.018   6.117
 4150SOL    HW113349   1.139   0.081   6.092
 4150SOL    HW213350   1.192   6.945   6.081
 4151SOL     OW13351   3.451   6.456   5.534
 4151SOL    HW113352   3.434   6.408   5.620
 4151SOL    HW213353   3.409   6.406   5.459
 4152SOL     OW13354   4.576   5.900   1.433
 4152SOL    HW113355   4.536   5.847   1.358
 4152SOL    HW213356   4.557   5.997   1.418
 4153SOL     OW13357   5.371   5.047   0.732
 4153SOL    HW113358   5.312   5.045   0.813
 4153SOL    HW213359   5.315   5.063   0.650
 4154SOL     OW13360   0.150   5.138   3.459
 4154SOL    HW113361   0.240   5.108   3.427
 4154SOL    HW213362   0.131   5.230   3.423
 4155SOL     OW13363   0.069   1.272   2.255
 4155SOL    HW113364   0.114   1.185   2.272
 4155SOL    HW213365   0.138   1.343   2.241
 4156SOL     OW13366   5.965   6.402   4.896
 4156SOL    HW113367   5.907   6.482   4.884
 4156SOL    HW213368   5.921   6.338   4.959
 4157SOL     OW13369   4.639   5.750   4.032
 4157SOL    HW113370   4.625   5.780   4.127
 4157SOL    HW213371   4.603   5.658   4.021
 4158SOL     OW13372   0.084   3.167   1.576
 4158SOL    HW113373   0.020   3.242   1.594
 4158SOL    HW213374   0.039   3.080   1.599
 4159SOL     OW13375   1.909   3.125   3.112
 4159SOL    HW113376   1.858   3.076   3.041
 4159SOL    HW213377   1.871   3.216   3.124
 4160SOL     OW13378   5.889   1.087   0.376
 4160SOL    HW113379   5.956   1.019   0.404
 4160SOL    HW213380   5.819   1.097   0.447
 4161SOL     OW13381   0.930   2.097   0.758
 4161SOL    HW113382   1.019   2.139   0.772
 4161SOL    HW213383   0.937   1.998   0.774
 4162SOL     OW13384   6.458   5.631   0.235
 4162SOL    HW113385   6.518   5.694   0.187
 4162SOL    HW213386   6.363   5.659   0.223
 4163SOL     OW13387   4.681   0.417   2.902
 4163SOL    HW113388   4.596   0.364   2.898
 4163SOL    HW213389   4.683   0.483   2.827
 4164SOL     OW13390   1.816   6.557   5.730
 4164SOL    HW113391   1.874   6.511   5.798
 4164SOL    HW213392   1.726   6.515   5.729
 4165SOL     OW13393   4.533   0.650   6.071
 4165SOL    HW113394   4.557   0.554   6.059
 4165SOL    HW213395   4.616   0.705   6.078
 4166SOL     OW13396   5.486   1.965   0.354
 4166SOL    HW113397   5.526   2.031   0.291
 4166SOL    HW213398   5.457   1.884   0.304
 4167SOL     OW13399   2.116   4.368   0.733
 4167SOL    HW113400   2.162   4.327   0.654
 4167SOL    HW213401   2.024   4.330   0.741
 4168SOL     OW13402   0.156   4.586   1.289
 4168SOL    HW113403   0.140   4.503   1.236
 4168SOL    HW213404   0.069   4.620   1.325
 4169SOL     OW13405   5.743   4.739   5.043
 4169SOL    HW113406   5.756   4.658   4.985
 4169SOL    HW213407   5.754   4.822   4.987
 4170SOL     OW13408   4.337   3.532   5.900
 4170SOL    HW113409   4.417   3.575   5.858
 4170SOL    HW213410   4.365   3.477   5.978
 4171SOL     OW13411   6.762   5.884   1.040
 4171SOL    HW113412   6.709   5.833   0.972
 4171SOL    HW213413   6.793   5.823   1.112
 4172SOL     OW13414   1.505   1.613   6.238
 4172SOL    HW113415   1.549   1.669   6.168
 4172SOL    HW213416   1.439   1.668   6.289
 4173SOL     OW13417   5.221   4.365   4.689
 4173SOL    HW113418   5.240   4.326   4.598
 4173SOL    HW213419   5.183   4.293   4.748
 4174SOL     OW13420   5.089   1.533   2.682
 4174SOL    HW113421   5.034   1.479   2.746
 4174SOL    HW213422   5.173   1.484   2.661
 4175SOL     OW13423   1.951   5.163   4.695
 4175SOL    HW113424   1.856   5.184   4.718
 4175SOL    HW213425   1.957   5.070   4.658
 4176SOL     OW13426   3.578   5.946   1.841
 4176SOL    HW113427   3.643   6.011   1.878
 4176SOL    HW213428   3.625   5.860   1.819
 4177SOL     OW13429   5.945   4.995   5.105
 4177SOL    HW113430   5.986   4.912   5.144
 4177SOL    HW213431   6.002   5.074   5.127
 4178SOL     OW13432   4.553   6.831   4.399
 4178SOL    HW113433   4.650   6.839   4.423
 4178SOL    HW213434   4.520   6.919   4.366
 4179SOL     OW13435   6.014   3.371   3.468
 4179SOL    HW113436   6.018   3.358   3.369
 4179SOL    HW213437   5.951   3.303   3.507
 4180SOL     OW13438   4.902   4.336   1.261
 4180SOL    HW113439   4.837   4.351   1.336
 4180SOL    HW213440   4.979   4.281   1.293
 4181SOL     OW13441   3.501   0.935   0.506
 4181SOL    HW113442   3.486   1.002   0.433
 4181SOL    HW213443   3.594   0.945   0.542
 4182SOL     OW13444   0.989   0.173   3.703
 4182SOL    HW113445   0.950   0.137   3.618
 4182SOL    HW213446   1.023   0.098   3.759
 4183SOL     OW13447   2.954   1.509   0.007
 4183SOL    HW113448   2.867   1.506   6.974
 4183SOL    HW213449   2.944   1.458   0.092
 4184SOL     OW13450   4.444   6.152   2.027
 4184SOL    HW113451   4.485   6.152   1.936
 4184SOL    HW213452   4.436   6.058   2.060
 4185SOL     OW13453   0.530   4.866   2.211
 4185SOL    HW113454   0.617   4.895   2.252
 4185SOL    HW213455   0.501   4.780   2.253
 4186SOL     OW13456   2.831   4.855   7.008
 4186SOL    HW113457   2.764   4.834   0.062
 4186SOL    HW213458   2.783   4.890   6.927
 4187SOL     OW13459   3.641   2.879   5.681
 4187SOL    HW113460   3.582   2.888   5.600
 4187SOL    HW213461   3.712   2.950   5.678
 4188SOL     OW13462   4.806   0.476   5.221
 4188SOL    HW113463   4.770   0.568   5.205
 4188SOL    HW213464   4.870   0.478   5.298
 4189SOL     OW13465   3.375   5.052   5.444
 4189SOL    HW113466   3.330   4.978   5.495
 4189SOL    HW213467   3.310   5.090   5.377
 4190SOL     OW13468   0.977   0.579   0.288
 4190SOL    HW113469   0.891   0.588   0.338
 4190SOL    HW213470   0.994   0.483   0.267
 4191SOL     OW13471   4.734   4.371   3.172
 4191SOL    HW113472   4.719   4.274   3.153
 4191SOL    HW213473   4.801   4.408   3.108
 4192SOL     OW13474   0.631   1.067   4.236
 4192SOL    HW113475   0.659   1.034   4.327
 4192SOL    HW213476   0.544   1.025   4.211
 4193SOL     OW13477   0.449   0.936   1.668
 4193SOL    HW113478   0.429   1.006   1.599
 4193SOL    HW213479   0.515   0.972   1.734
 4194SOL     OW13480   5.774   0.662   4.262
 4194SOL    HW113481   5.852   0.725   4.263
 4194SOL    HW213482   5.803   0.573   4.227
 4195SOL     OW13483   3.924   6.266   2.054
 4195SOL    HW113484   3.958   6.355   2.023
 4195SOL    HW213485   3.900   6.210   1.975
 4196SOL     OW13486   5.877   2.106   3.118
 4196SOL    HW113487   5.974   2.113   3.093
 4196SOL    HW213488   5.833   2.035   3.062
 4197SOL     OW13489   4.742   5.629   5.689
 4197SOL    HW113490   4.772   5.553   5.746
 4197SOL    HW213491   4.718   5.594   5.598
 4198SOL     OW13492   5.782   2.230   7.017
 4198SOL    HW113493   5.857   2.226   6.951
 4198SOL    HW213494   5.783   2.147   0.055
 4199SOL     OW13495   2.147   2.537   6.035
 4199SOL    HW113496   2.237   2.497   6.048
 4199SOL    HW213497   2.154   2.617   5.975
 4200SOL     OW13498   3.941   0.041   5.862
 4200SOL    HW113499   4.009   0.040   5.935
 4200SOL    HW213500   3.851   0.022   5.900
 4201SOL     OW13501   5.962   6.464   3.426
 4201SOL    HW113502   6.011   6.379   3.404
 4201SOL    HW213503   6.000   6.503   3.510
 4202SOL     OW13504   3.923   5.591   5.652
 4202SOL    HW113505   3.920   5.625   5.746
 4202SOL    HW213506   4.017   5.599   5.617
 4203SOL     OW13507   4.149   5.367   0.577
 4203SOL    HW113508   4.085   5.357   0.653
 4203SOL    HW213509   4.203   5.450   0.589
 4204SOL     OW13510   3.893   3.923   2.807
 4204SOL    HW113511   3.893   3.996   2.874
 4204SOL    HW213512   3.985   3.911   2.770
 4205SOL     OW13513   4.062   5.498   3.718
 4205SOL    HW113514   4.125   5.424   3.694
 4205SOL    HW213515   4.066   5.514   3.816
 4206SOL     OW13516   6.917   0.053   5.975
 4206SOL    HW113517   6.987   0.077   5.908
 4206SOL    HW213518   6.891   6.975   5.964
 4207SOL     OW13519   1.533   1.423   0.879
 4207SOL    HW113520   1.531   1.325   0.860
 4207SOL    HW213521   1.613   1.464   0.835
 4208SOL     OW13522   0.229   2.764   5.843
 4208SOL    HW113523   0.237   2.772   5.943
 4208SOL    HW213524   0.286   2.834   5.800
 4209SOL     OW13525   0.315   0.361   4.398
 4209SOL    HW113526   0.307   0.332   4.303
 4209SOL    HW213527   0.257   0.303   4.456
 4210SOL     OW13528   3.210   3.548   2.324
 4210SOL    HW113529   3.261   3.631   2.346
 4210SOL    HW213530   3.177   3.553   2.229
 4211SOL     OW13531   4.318   5.996   5.826
 4211SOL    HW113532   4.363   6.019   5.912
 4211SOL    HW213533   4.241   6.058   5.811
 4212SOL     OW13534   5.990   1.925   2.745
 4212SOL    HW113535   5.971   1.890   2.653
 4212SOL    HW213536   6.088   1.917   2.764
 4213SOL     OW13537   1.823   1.053   1.381
 4213SOL    HW113538   1.839   1.003   1.296
 4213SOL    HW213539   1.818   1.151   1.362
 4214SOL     OW13540   1.388   4.897   5.386
 4214SOL    HW113541   1.465   4.902   5.449
 4214SOL    HW213542   1.420   4.862   5.298
 4215SOL     OW13543   5.859   6.509   5.627
 4215SOL    HW113544   5.881   6.411   5.625
 4215SOL    HW213545   5.855   6.540   5.721
 4216SOL     OW13546   0.848   1.473   2.921
 4216SOL    HW113547   0.802   1.394   2.961
 4216SOL    HW213548   0.867   1.541   2.993
 4217SOL     OW13549   1.101   0.303   2.016
 4217SOL    HW113550   1.136   0.267   2.102
 4217SOL    HW213551   1.025   0.246   1.984
 4218SOL     OW13552   4.450   0.966   1.796
 4218SOL    HW113553   4.354   0.958   1.823
 4218SOL    HW213554   4.482   1.059   1.812
 4219SOL     OW13555   3.027   5.266   4.242
 4219SOL    HW113556   2.964   5.343   4.236
 4219SOL    HW213557   3.056   5.239   4.150
 4220SOL     OW13558   5.317   2.926   4.048
 4220SOL    HW113559   5.319   2.989   3.970
 4220SOL    HW213560   5.299   2.833   4.015
 4221SOL     OW13561   6.169   5.184   6.428
 4221SOL    HW113562   6.239   5.122   6.464
 4221SOL    HW213563   6.088   5.132   6.401
 4222SOL     OW13564   6.224   2.350   2.909
 4222SOL    HW113565   6.257   2.326   2.817
 4222SOL    HW213566   6.132   2.389   2.902
 4223SOL     OW13567   3.518   3.325   6.106
 4223SOL    HW113568   3.611   3.312   6.143
 4223SOL    HW213569   3.507   3.269   6.024
 4224SOL     OW13570   5.144   3.751   3.944
 4224SOL    HW113571   5.133   3.834   3.890
 4224SOL    HW213572   5.056   3.727   3.986
 4225SOL     OW13573   4.173   0.873   6.259
 4225SOL    HW113574   4.105   0.944   6.240
 4225SOL    HW213575   4.152   0.829   6.346
 4226SOL     OW13576   0.878   0.233   2.212
 4226SOL    HW113577   0.801   0.260   2.270
 4226SOL    HW213578   0.843   0.185   2.131
 4227SOL     OW13579   3.715   4.658   1.116
 4227SOL    HW113580   3.635   4.622   1.164
 4227SOL    HW213581   3.782   4.691   1.182
 4228SOL     OW13582   0.522   4.078   4.998
 4228SOL    HW113583   0.430   4.070   5.039
 4228SOL    HW213584   0.537   4.001   4.937
 4229SOL     OW13585   5.241   5.441   5.632
 4229SOL    HW113586   5.325   5.440   5.685
 4229SOL    HW213587   5.229   5.531   5.589
 4230SOL     OW13588   1.394   6.872   2.712
 4230SOL    HW113589   1.413   6.960   2.670
 4230SOL    HW213590   1.467   6.848   2.775
 4231SOL     OW13591   5.337   6.489   5.451
 4231SOL    HW113592   5.380   6.468   5.538
 4231SOL    HW213593   5.345   6.587   5.433
 4232SOL     OW13594   6.784   4.590   2.636
 4232SOL    HW113595   6.843   4.547   2.704
 4232SOL    HW213596   6.812   4.685   2.623
 4233SOL     OW13597   0.056   0.713   6.340
 4233SOL    HW113598   0.036   0.772   6.419
 4233SOL    HW213599   0.113   0.637   6.369
 4234SOL     OW13600   2.514   6.669   5.595
 4234SOL    HW113601   2.415   6.670   5.615
 4234SOL    HW213602   2.528   6.680   5.497
 4235SOL     OW13603   5.921   3.775   5.911
 4235SOL    HW113604   5.971   3.689   5.898
 4235SOL    HW213605   5.829   3.766   5.874
 4236SOL     OW13606   0.103   3.261   3.082
 4236SOL    HW113607   0.006   3.256   3.058
 4236SOL    HW213608   0.139   3.352   3.059
 4237SOL     OW13609   5.591   5.421   2.450
 4237SOL    HW113610   5.515   5.357   2.465
 4237SOL    HW213611   5.561   5.513   2.473
 4238SOL     OW13612   3.049   5.075   2.979
 4238SOL    HW113613   3.091   5.148   3.032
 4238SOL    HW213614   3.018   5.111   2.891
 4239SOL     OW13615   5.548   1.755   2.929
 4239SOL    HW113616   5.500   1.800   2.854
 4239SOL    HW213617   5.496   1.769   3.014
 4240SOL     OW13618   2.529   0.173   0.127
 4240SOL    HW113619   2.592   0.140   0.198
 4240SOL    HW213620   2.578   0.236   0.067
 4241SOL     OW13621   6.189   1.042   0.155
 4241SOL    HW113622   6.221   0.951   0.180
 4241SOL    HW213623   6.106   1.034   0.100
 4242SOL     OW13624   2.141   1.022   3.387
 4242SOL    HW113625   2.055   0.980   3.355
 4242SOL    HW213626   2.122   1.082   3.465
 4243SOL     OW13627   6.621   2.909   3.531
 4243SOL    HW113628   6.681   2.987   3.550
 4243SOL    HW213629   6.526   2.936   3.546
 4244SOL     OW13630   4.715   4.595   1.372
 4244SOL    HW113631   4.645   4.619   1.304
 4244SOL    HW213632   4.674   4.591   1.463
 4245SOL     OW13633   6.869   0.898   5.960
 4245SOL    HW113634   6.825   0.884   5.871
 4245SOL    HW213635   6.808   0.951   6.019
 4246SOL     OW13636   6.572   3.416   2.731
 4246SOL    HW113637   6.575   3.416   2.631
 4246SOL    HW213638   6.665   3.401   2.767
 4247SOL     OW13639   2.479   5.164   3.275
 4247SOL    HW113640   2.423   5.088   3.308
 4247SOL    HW213641   2.573   5.153   3.308
 4248SOL     OW13642   1.954   1.546   4.019
 4248SOL    HW113643   2.014   1.568   3.942
 4248SOL    HW213644   2.007   1.501   4.091
 4249SOL     OW13645   5.809   2.593   4.126
 4249SOL    HW113646   5.836   2.498   4.110
 4249SOL    HW213647   5.868   2.654   4.073
 4250SOL     OW13648   6.850   5.795   3.400
 4250SOL    HW113649   6.781   5.768   3.467
 4250SOL    HW213650   6.927   5.837   3.446
 4251SOL     OW13651   5.514   4.082   1.008
 4251SOL    HW113652   5.450   4.005   1.017
 4251SOL    HW213653   5.576   4.082   1.087
 4252SOL     OW13654   6.290   6.827   6.565
 4252SOL    HW113655   6.299   6.907   6.625
 4252SOL    HW213656   6.338   6.750   6.606
 4253SOL     OW13657   3.121   6.475   1.012
 4253SOL    HW113658   3.063   6.413   1.064
 4253SOL    HW213659   3.156   6.429   0.931
 4254SOL     OW13660   1.320   3.344   2.280
 4254SOL    HW113661   1.318   3.401   2.361
 4254SOL    HW213662   1.274   3.257   2.299
 4255SOL     OW13663   7.016   4.143   4.175
 4255SOL    HW113664   0.092   4.164   4.203
 4255SOL    HW213665   6.960   4.226   4.179
 4256SOL     OW13666   1.882   6.368   1.013
 4256SOL    HW113667   1.974   6.401   1.036
 4256SOL    HW213668   1.814   6.433   1.046
 4257SOL     OW13669   3.317   0.393   4.312
 4257SOL    HW113670   3.260   0.474   4.319
 4257SOL    HW213671   3.313   0.356   4.219
 4258SOL     OW13672   3.531   5.788   1.144
 4258SOL    HW113673   3.483   5.813   1.228
 4258SOL    HW213674   3.516   5.858   1.075
 4259SOL     OW13675   2.248   0.455   0.671
 4259SOL    HW113676   2.218   0.493   0.759
 4259SOL    HW213677   2.169   0.419   0.622
 4260SOL     OW13678   5.838   0.693   1.757
 4260SOL    HW113679   5.790   0.642   1.828
 4260SOL    HW213680   5.817   0.791   1.767
 4261SOL     OW13681   2.382   0.298   2.337
 4261SOL    HW113682   2.402   0.253   2.424
 4261SOL    HW213683   2.423   0.246   2.262
 4262SOL     OW13684   0.637   4.151   6.622
 4262SOL    HW113685   0.643   4.117   6.528
 4262SOL    HW213686   0.730   4.167   6.657
 4263SOL     OW13687   2.990   0.537   2.488
 4263SOL    HW113688   3.079   0.568   2.521
 4263SOL    HW213689   2.917   0.590   2.532
 4264SOL     OW13690   6.212   1.582   3.561
 4264SOL    HW113691   6.200   1.605   3.657
 4264SOL    HW213692   6.261   1.495   3.553
 4265SOL     OW13693   4.233   1.263   0.360
 4265SOL    HW113694   4.179   1.182   0.384
 4265SOL    HW213695   4.208   1.339   0.420
 4266SOL     OW13696   1.552   6.184   6.579
 4266SOL    HW113697   1.618   6.115   6.611
 4266SOL    HW213698   1.601   6.268   6.556
 4267SOL     OW13699   2.171   3.842   3.601
 4267SOL    HW113700   2.163   3.805   3.508
 4267SOL    HW213701   2.179   3.767   3.666
 4268SOL     OW13702   0.841   5.674   6.624
 4268SOL    HW113703   0.884   5.685   6.534
 4268SOL    HW213704   0.758   5.619   6.614
 4269SOL     OW13705   2.833   0.452   2.257
 4269SOL    HW113706   2.888   0.479   2.336
 4269SOL    HW213707   2.843   0.520   2.184
 4270SOL     OW13708   4.141   3.541   3.333
 4270SOL    HW113709   4.131   3.445   3.357
 4270SOL    HW213710   4.167   3.549   3.237
 4271SOL     OW13711   6.425   1.209   6.865
 4271SOL    HW113712   6.488   1.209   6.787
 4271SOL    HW213713   6.331   1.205   6.831
 4272SOL     OW13714   6.471   2.035   4.608
 4272SOL    HW113715   6.543   2.093   4.570
 4272SOL    HW213716   6.453   2.061   4.702
 4273SOL     OW13717   4.232   6.534   5.197
 4273SOL    HW113718   4.308   6.493   5.147
 4273SOL    HW213719   4.197   6.613   5.147
 4274SOL     OW13720   1.047   0.614   1.675
 4274SOL    HW113721   0.955   0.579   1.655
 4274SOL    HW213722   1.039   0.698   1.729
 4275SOL     OW13723   6.087   2.074   4.679
 4275SOL    HW113724   6.144   2.082   4.761
 4275SOL    HW213725   6.144   2.052   4.600
 4276SOL     OW13726   2.412   5.174   4.025
 4276SOL    HW113727   2.463   5.194   3.941
 4276SOL    HW213728   2.449   5.092   4.068
 4277SOL     OW13729   6.146   4.623   3.291
 4277SOL    HW113730   6.200   4.616   3.206
 4277SOL    HW213731   6.153   4.537   3.341
 4278SOL     OW13732   0.009   6.915   4.993
 4278SOL    HW113733   0.083   6.848   4.999
 4278SOL    HW213734   6.953   6.889   5.056
 4279SOL     OW13735   3.489   1.237   3.714
 4279SOL    HW113736   3.570   1.216   3.768
 4279SOL    HW213737   3.411   1.185   3.750
 4280SOL     OW13738   5.256   0.448   6.217
 4280SOL    HW113739   5.282   0.540   6.188
 4280SOL    HW213740   5.158   0.436   6.203
 4281SOL     OW13741   6.728   4.513   3.739
 4281SOL    HW113742   6.820   4.552   3.748
 4281SOL    HW213743   6.660   4.583   3.760
 4282SOL     OW13744   3.750   4.756   6.546
 4282SOL    HW113745   3.848   4.778   6.551
 4282SOL    HW213746   3.738   4.674   6.489
 4283SOL     OW13747   1.573   0.790   3.226
 4283SOL    HW113748   1.477   0.810   3.244
 4283SOL    HW213749   1.581   0.698   3.187
 4284SOL     OW13750   3.716   4.451   0.932
 4284SOL    HW113751   3.726   4.518   1.006
 4284SOL    HW213752   3.787   4.468   0.863
 4285SOL     OW13753   1.619   0.476   6.105
 4285SOL    HW113754   1.602   0.420   6.024
 4285SOL    HW213755   1.696   0.437   6.157
 4286SOL     OW13756   5.058   6.429   5.462
 4286SOL    HW113757   4.995   6.506   5.461
 4286SOL    HW213758   5.151   6.462   5.445
 4287SOL     OW13759   5.729   0.962   6.011
 4287SOL    HW113760   5.753   1.014   5.930
 4287SOL    HW213761   5.809   0.911   6.044
 4288SOL     OW13762   0.770   5.890   3.069
 4288SOL    HW113763   0.705   5.819   3.097
 4288SOL    HW213764   0.725   5.953   3.006
 4289SOL     OW13765   6.952   2.932   6.102
 4289SOL    HW113766   6.916   2.988   6.028
 4289SOL    HW213767   6.900   2.847   6.110
 4290SOL     OW13768   1.332   6.669   3.474
 4290SOL    HW113769   1.373   6.584   3.442
 4290SOL    HW213770   1.234   6.669   3.453
 4291SOL     OW13771   4.748   3.847   0.409
 4291SOL    HW113772   4.829   3.858   0.351
 4291SOL    HW213773   4.725   3.750   0.416
 4292SOL     OW13774   5.179   3.061   0.321
 4292SOL    HW113775   5.248   2.995   0.351
 4292SOL    HW213776   5.202   3.152   0.358
 4293SOL     OW13777   2.542   2.641   0.107
 4293SOL    HW113778   2.582   2.556   0.072
 4293SOL    HW213779   2.490   2.622   0.190
 4294SOL     OW13780   2.185   2.269   6.677
 4294SOL    HW113781   2.102   2.300   6.631
 4294SOL    HW213782   2.214   2.338   6.744
 4295SOL     OW13783   3.851   5.537   4.872
 4295SOL    HW113784   3.864   5.591   4.956
 4295SOL    HW213785   3.938   5.528   4.824
 4296SOL     OW13786   3.514   6.781   0.602
 4296SOL    HW113787   3.438   6.749   0.545
 4296SOL    HW213788   3.503   6.879   0.619
 4297SOL     OW13789   4.934   0.076   1.003
 4297SOL    HW113790   4.912   0.085   0.906
 4297SOL    HW213791   4.926   6.998   1.031
 4298SOL     OW13792   3.875   5.194   0.296
 4298SOL    HW113793   3.947   5.262   0.304
 4298SOL    HW213794   3.902   5.111   0.345
 4299SOL     OW13795   1.287   3.166   6.652
 4299SOL    HW113796   1.193   3.200   6.638
 4299SOL    HW213797   1.310   3.173   6.749
 4300SOL     OW13798   3.224   6.787   0.142
 4300SOL    HW113799   3.257   6.743   0.058
 4300SOL    HW213800   3.297   6.845   0.180
 4301SOL     OW13801   4.175   1.056   1.862
 4301SOL    HW113802   4.111   1.009   1.922
 4301SOL    HW213803   4.165   1.155   1.874
 4302SOL     OW13804   0.765   0.227   5.880
 4302SOL    HW113805   0.734   0.193   5.791
 4302SOL    HW213806   0.839   0.293   5.867
 4303SOL     OW13807   6.959   5.068   3.934
 4303SOL    HW113808   6.997   5.058   3.842
 4303SOL    HW213809   7.017   5.130   3.987
 4304SOL     OW13810   3.223   3.669   2.742
 4304SOL    HW113811   3.291   3.622   2.798
 4304SOL    HW213812   3.173   3.601   2.688
 4305SOL     OW13813   0.682   6.797   5.939
 4305SOL    HW113814   0.698   6.720   5.878
 4305SOL    HW213815   0.715   6.773   6.031
 4306SOL     OW13816   4.938   4.716   5.190
 4306SOL    HW113817   5.007   4.776   5.149
 4306SOL    HW213818   4.965   4.693   5.283
 4307SOL     OW13819   5.618   3.821   6.096
 4307SOL    HW113820   5.642   3.917   6.113
 4307SOL    HW213821   5.576   3.782   6.178
 4308SOL     OW13822   5.845   4.452   1.131
 4308SOL    HW113823   5.802   4.411   1.050
 4308SOL    HW213824   5.890   4.537   1.105
 4309SOL     OW13825   1.049   1.052   0.101
 4309SOL    HW113826   1.054   1.043   0.002
 4309SOL    HW213827   0.972   1.112   0.125
 4310SOL     OW13828   2.139   2.590   2.135
 4310SOL    HW113829   2.042   2.613   2.128
 4310SOL    HW213830   2.149   2.500   2.178
 4311SOL     OW13831   1.773   6.043   2.559
 4311SOL    HW113832   1.815   6.129   2.531
 4311SOL    HW213833   1.832   5.967   2.533
 4312SOL     OW13834   2.019   5.832   1.937
 4312SOL    HW113835   2.089   5.863   1.873
 4312SOL    HW213836   2.016   5.732   1.939
 4313SOL     OW13837   4.464   1.321   1.311
 4313SOL    HW113838   4.439   1.417   1.302
 4313SOL    HW213839   4.415   1.281   1.389
 4314SOL     OW13840   5.799   1.456   4.371
 4314SOL    HW113841   5.807   1.478   4.468
 4314SOL    HW213842   5.843   1.368   4.353
 4315SOL     OW13843   2.883   6.521   2.764
 4315SOL    HW113844   2.954   6.531   2.695
 4315SOL    HW213845   2.848   6.611   2.790
 4316SOL     OW13846   5.285   0.892   1.949
 4316SOL    HW113847   5.367   0.839   1.927
 4316SOL    HW213848   5.241   0.923   1.864
 4317SOL     OW13849   5.222   2.359   4.986
 4317SOL    HW113850   5.258   2.338   4.895
 4317SOL    HW213851   5.208   2.274   5.037
 4318SOL     OW13852   7.002   2.662   4.908
 4318SOL    HW113853   0.075   2.698   4.885
 4318SOL    HW213854   7.011   2.583   4.968
 4319SOL     OW13855   1.903   1.375   0.572
 4319SOL    HW113856   1.938   1.314   0.501
 4319SOL    HW213857   1.804   1.365   0.579
 4320SOL     OW13858   4.788   4.963   0.743
 4320SOL    HW113859   4.791   4.971   0.843
 4320SOL    HW213860   4.744   5.044   0.704
 4321SOL     OW13861   0.205   5.730   5.284
 4321SOL    HW113862   0.275   5.731   5.356
 4321SOL    HW213863   0.181   5.636   5.263
 4322SOL     OW13864   6.010   2.798   0.081
 4322SOL    HW113865   5.955   2.873   0.043
 4322SOL    HW213866   5.980   2.712   0.040
 4323SOL     OW13867   4.478   4.246   0.387
 4323SOL    HW113868   4.505   4.262   0.292
 4323SOL    HW213869   4.400   4.184   0.390
 4324SOL     OW13870   5.722   4.039   6.751
 4324SOL    HW113871   5.771   4.121   6.720
 4324SOL    HW213872   5.786   3.962   6.756
 4325SOL     OW13873   2.288   1.080   1.434
 4325SOL    HW113874   2.326   1.153   1.378
 4325SOL    HW213875   2.303   1.101   1.531
 4326SOL     OW13876   4.593   4.744   3.352
 4326SOL    HW113877   4.565   4.729   3.447
 4326SOL    HW213878   4.683   4.787   3.350
 4327SOL     OW13879   5.606   6.249   1.810
 4327SOL    HW113880   5.566   6.191   1.739
 4327SOL    HW213881   5.570   6.223   1.899
 4328SOL     OW13882   4.303   3.987   5.846
 4328SOL    HW113883   4.388   4.038   5.854
 4328SOL    HW213884   4.286   3.937   5.931
 4329SOL     OW13885   4.863   2.071   5.279
 4329SOL    HW113886   4.849   2.168   5.263
 4329SOL    HW213887   4.847   2.050   5.376
 4330SOL     OW13888   2.137   6.079   4.542
 4330SOL    HW113889   2.080   6.090   4.461
 4330SOL    HW213890   2.109   5.996   4.591
 4331SOL     OW13891   6.303   1.521   2.051
 4331SOL    HW113892   6.309   1.613   2.012
 4331SOL    HW213893   6.211   1.485   2.034
 4332SOL     OW13894   4.867   3.242   2.652
 4332SOL    HW113895   4.840   3.146   2.662
 4332SOL    HW213896   4.786   3.298   2.632
 4333SOL     OW13897   4.421   1.351   6.023
 4333SOL    HW113898   4.415   1.380   6.119
 4333SOL    HW213899   4.499   1.290   6.012
 4334SOL     OW13900   1.612   1.919   2.795
 4334SOL    HW113901   1.586   1.879   2.883
 4334SOL    HW213902   1.529   1.948   2.747
 4335SOL     OW13903   3.289   4.064   2.723
 4335SOL    HW113904   3.299   4.123   2.643
 4335SOL    HW213905   3.202   4.014   2.717
 4336SOL     OW13906   3.608   6.604   6.018
 4336SOL    HW113907   3.522   6.632   5.976
 4336SOL    HW213908   3.681   6.664   5.985
 4337SOL     OW13909   1.086   4.432   0.356
 4337SOL    HW113910   1.108   4.462   0.448
 4337SOL    HW213911   1.167   4.392   0.313
 4338SOL     OW13912   6.173   6.783   6.121
 4338SOL    HW113913   6.095   6.728   6.153
 4338SOL    HW213914   6.184   6.771   6.022
 4339SOL     OW13915   4.667   3.343   5.782
 4339SOL    HW113916   4.662   3.244   5.773
 4339SOL    HW213917   4.762   3.373   5.776
 4340SOL     OW13918   6.119   3.250   1.100
 4340SOL    HW113919   6.034   3.242   1.047
 4340SOL    HW213920   6.123   3.340   1.143
 4341SOL     OW13921   0.955   5.021   1.945
 4341SOL    HW113922   0.934   5.112   1.909
 4341SOL    HW213923   0.944   4.954   1.872
 4342SOL     OW13924   5.342   3.676   3.381
 4342SOL    HW113925   5.363   3.764   3.337
 4342SOL    HW213926   5.285   3.621   3.319
 4343SOL     OW13927   2.863   5.817   4.953
 4343SOL    HW113928   2.855   5.790   4.857
 4343SOL    HW213929   2.817   5.905   4.967
 4344SOL     OW13930   0.386   3.984   1.960
 4344SOL    HW113931   0.304   3.974   1.903
 4344SOL    HW213932   0.411   3.894   1.997
 4345SOL     OW13933   3.622   4.269   5.728
 4345SOL    HW113934   3.683   4.191   5.711
 4345SOL    HW213935   3.612   4.322   5.644
 4346SOL     OW13936   1.808   3.627   2.822
 4346SOL    HW113937   1.747   3.572   2.879
 4346SOL    HW213938   1.901   3.622   2.860
 4347SOL     OW13939   6.251   6.898   2.167
 4347SOL    HW113940   6.158   6.861   2.161
 4347SOL    HW213941   6.315   6.833   2.126
 4348SOL     OW13942   0.386   5.477   3.268
 4348SOL    HW113943   0.371   5.575   3.253
 4348SOL    HW213944   0.380   5.457   3.365
 4349SOL     OW13945   5.406   1.923   2.758
 4349SOL    HW113946   5.402   2.022   2.744
 4349SOL    HW213947   5.411   1.877   2.670
 4350SOL     OW13948   3.505   1.866   3.603
 4350SOL    HW113949   3.510   1.891   3.700
 4350SOL    HW213950   3.440   1.791   3.591
 4351SOL     OW13951   1.825   6.078   1.219
 4351SOL    HW113952   1.770   5.996   1.235
 4351SOL    HW213953   1.771   6.145   1.169
 4352SOL     OW13954   6.342   3.690   2.609
 4352SOL    HW113955   6.387   3.670   2.697
 4352SOL    HW213956   6.411   3.694   2.537
 4353SOL     OW13957   4.034   2.879   6.828
 4353SOL    HW113958   4.105   2.827   6.875
 4353SOL    HW213959   3.965   2.816   6.791
 4354SOL     OW13960   2.001   0.745   5.897
 4354SOL    HW113961   1.983   0.669   5.835
 4354SOL    HW213962   1.926   0.811   5.892
 4355SOL     OW13963   2.543   0.079   2.753
 4355SOL    HW113964   2.512   0.169   2.724
 4355SOL    HW213965   2.638   0.066   2.725
 4356SOL     OW13966   5.354   3.796   0.118
 4356SOL    HW113967   5.313   3.862   0.181
 4356SOL    HW213968   5.446   3.773   0.149
 4357SOL     OW13969   6.256   1.129   1.438
 4357SOL    HW113970   6.273   1.141   1.536
 4357SOL    HW213971   6.333   1.080   1.397
 4358SOL     OW13972   0.169   0.611   0.703
 4358SOL    HW113973   0.161   0.711   0.696
 4358SOL    HW213974   0.215   0.587   0.788
 4359SOL     OW13975   1.744   0.828   5.901
 4359SOL    HW113976   1.662   0.771   5.895
 4359SOL    HW213977   1.765   0.847   5.997
 4360SOL     OW13978   0.860   3.210   3.657
 4360SOL    HW113979   0.931   3.220   3.588
 4360SOL    HW213980   0.782   3.269   3.635
 4361SOL     OW13981   2.593   3.552   1.496
 4361SOL    HW113982   2.690   3.573   1.483
 4361SOL    HW213983   2.554   3.615   1.563
 4362SOL     OW13984   6.521   5.371   3.286
 4362SOL    HW113985   6.456   5.400   3.215
 4362SOL    HW213986   6.558   5.280   3.262
 4363SOL     OW13987   5.221   2.027   1.221
 4363SOL    HW113988   5.176   1.963   1.159
 4363SOL    HW213989   5.161   2.047   1.298
 4364SOL     OW13990   3.139   3.979   4.316
 4364SOL    HW113991   3.225   3.929   4.300
 4364SOL    HW213992   3.081   3.926   4.378
 4365SOL     OW13993   2.588   0.735   1.586
 4365SOL    HW113994   2.664   0.670   1.585
 4365SOL    HW213995   2.595   0.796   1.508
 4366SOL     OW13996   6.334   0.050   6.702
 4366SOL    HW113997   6.363   0.035   6.796
 4366SOL    HW213998   6.344   0.147   6.679
 4367SOL     OW13999   2.366   4.337   4.405
 4367SOL    HW114000   2.373   4.333   4.305
 4367SOL    HW214001   2.333   4.250   4.440
 4368SOL     OW14002   3.631   5.563   1.018
 4368SOL    HW114003   3.608   5.624   1.094
 4368SOL    HW214004   3.658   5.618   0.939
 4369SOL     OW14005   4.478   5.723   2.852
 4369SOL    HW114006   4.523   5.642   2.890
 4369SOL    HW214007   4.417   5.696   2.778
 4370SOL     OW14008   3.794   4.868   1.733
 4370SOL    HW114009   3.732   4.891   1.658
 4370SOL    HW214010   3.743   4.824   1.807
 4371SOL     OW14011   0.731   2.131   2.240
 4371SOL    HW114012   0.823   2.109   2.209
 4371SOL    HW214013   0.734   2.168   2.333
 4372SOL     OW14014   2.284   2.459   3.727
 4372SOL    HW114015   2.261   2.372   3.770
 4372SOL    HW214016   2.379   2.457   3.696
 4373SOL     OW14017   5.617   1.105   6.928
 4373SOL    HW114018   5.567   1.109   7.014
 4373SOL    HW214019   5.646   1.198   6.902
 4374SOL     OW14020   0.622   1.309   0.703
 4374SOL    HW114021   0.557   1.379   0.673
 4374SOL    HW214022   0.699   1.305   0.639
 4375SOL     OW14023   4.273   6.654   3.492
 4375SOL    HW114024   4.302   6.729   3.434
 4375SOL    HW214025   4.218   6.589   3.438
 4376SOL     OW14026   6.236   6.510   2.738
 4376SOL    HW114027   6.248   6.595   2.790
 4376SOL    HW214028   6.235   6.532   2.640
 4377SOL     OW14029   5.768   5.281   6.951
 4377SOL    HW114030   5.720   5.272   0.021
 4377SOL    HW214031   5.860   5.317   6.967
 4378SOL     OW14032   2.216   2.995   2.574
 4378SOL    HW114033   2.154   3.045   2.635
 4378SOL    HW214034   2.260   2.921   2.625
 4379SOL     OW14035   2.157   2.276   2.613
 4379SOL    HW114036   2.099   2.299   2.691
 4379SOL    HW214037   2.114   2.308   2.529
 4380SOL     OW14038   1.001   6.912   3.085
 4380SOL    HW114039   1.038   6.972   3.157
 4380SOL    HW214040   1.068   6.903   3.012
 4381SOL     OW14041   1.974   3.974   5.538
 4381SOL    HW114042   1.936   3.893   5.495
 4381SOL    HW214043   2.032   4.023   5.472
 4382SOL     OW14044   5.905   3.252   6.516
 4382SOL    HW114045   6.000   3.283   6.513
 4382SOL    HW214046   5.848   3.323   6.558
 4383SOL     OW14047   0.697   1.835   5.903
 4383SOL    HW114048   0.685   1.825   5.805
 4383SOL    HW214049   0.693   1.932   5.928
 4384SOL     OW14050   5.952   1.964   5.812
 4384SOL    HW114051   5.949   1.918   5.900
 4384SOL    HW214052   5.962   2.063   5.825
 4385SOL     OW14053   6.097   2.739   5.319
 4385SOL    HW114054   6.026   2.806   5.295
 4385SOL    HW214055   6.089   2.716   5.416
 4386SOL     OW14056   2.303   3.554   0.243
 4386SOL    HW114057   2.299   3.504   0.330
 4386SOL    HW214058   2.247   3.505   0.175
 4387SOL     OW14059   6.846   1.209   1.305
 4387SOL    HW114060   6.791   1.215   1.389
 4387SOL    HW214061   6.922   1.273   1.310
 4388SOL     OW14062   5.283   1.871   6.610
 4388SOL    HW114063   5.283   1.939   6.536
 4388SOL    HW214064   5.245   1.785   6.576
 4389SOL     OW14065   0.497   3.903   0.691
 4389SOL    HW114066   0.484   3.804   0.705
 4389SOL    HW214067   0.451   3.931   0.607
 4390SOL     OW14068   3.909   0.688   1.048
 4390SOL    HW114069   3.840   0.635   1.099
 4390SOL    HW214070   3.996   0.685   1.098
 4391SOL     OW14071   1.725   5.650   0.161
 4391SOL    HW114072   1.644   5.607   0.120
 4391SOL    HW214073   1.787   5.679   0.089
 4392SOL     OW14074   0.249   3.262   6.176
 4392SOL    HW114075   0.185   3.222   6.110
 4392SOL    HW214076   0.343   3.247   6.144
 4393SOL     OW14077   5.971   0.717   2.222
 4393SOL    HW114078   5.885   0.735   2.269
 4393SOL    HW214079   6.020   0.644   2.268
 4394SOL     OW14080   5.752   5.847   2.310
 4394SOL    HW114081   5.658   5.863   2.278
 4394SOL    HW214082   5.801   5.934   2.315
 4395SOL     OW14083   3.051   6.887   1.761
 4395SOL    HW114084   3.092   6.946   1.692
 4395SOL    HW214085   2.978   6.936   1.808
 4396SOL     OW14086   2.216   2.129   3.976
 4396SOL    HW114087   2.187   2.217   4.014
 4396SOL    HW214088   2.140   2.088   3.926
 4397SOL     OW14089   0.217   1.058   4.643
 4397SOL    HW114090   0.200   0.975   4.591
 4397SOL    HW214091   0.262   1.035   4.729
 4398SOL     OW14092   0.710   4.561   5.463
 4398SOL    HW114093   0.725   4.635   5.397
 4398SOL    HW214094   0.651   4.492   5.423
 4399SOL     OW14095   1.861   0.694   1.606
 4399SOL    HW114096   1.896   0.736   1.523
 4399SOL    HW214097   1.926   0.708   1.681
 4400SOL     OW14098   3.868   6.599   5.434
 4400SOL    HW114099   3.918   6.550   5.505
 4400SOL    HW214100   3.809   6.535   5.385
 4401SOL     OW14101   4.653   6.829   6.628
 4401SOL    HW114102   4.723   6.886   6.671
 4401SOL    HW214103   4.564   6.849   6.670
 4402SOL     OW14104   2.729   6.969   1.338
 4402SOL    HW114105   2.811   6.926   1.376
 4402SOL    HW214106   2.653   6.905   1.345
 4403SOL     OW14107   0.576   0.385   3.360
 4403SOL    HW114108   0.656   0.325   3.353
 4403SOL    HW214109   0.587   0.448   3.437
 4404SOL     OW14110   0.244   4.775   5.850
 4404SOL    HW114111   0.330   4.726   5.864
 4404SOL    HW214112   0.260   4.853   5.789
 4405SOL     OW14113   1.767   4.606   1.523
 4405SOL    HW114114   1.760   4.699   1.559
 4405SOL    HW214115   1.863   4.583   1.509
 4406SOL     OW14116   0.219   4.247   0.804
 4406SOL    HW114117   0.169   4.333   0.795
 4406SOL    HW214118   0.311   4.265   0.838
 4407SOL     OW14119   6.575   4.745   0.773
 4407SOL    HW114120   6.612   4.754   0.681
 4407SOL    HW214121   6.561   4.648   0.794
 4408SOL     OW14122   3.251   0.831   1.813
 4408SOL    HW114123   3.279   0.854   1.906
 4408SOL    HW214124   3.152   0.835   1.806
 4409SOL     OW14125   4.959   0.369   2.776
 4409SOL    HW114126   4.994   0.276   2.792
 4409SOL    HW214127   4.917   0.404   2.860
 4410SOL     OW14128   1.426   5.614   6.860
 4410SOL    HW114129   1.407   5.676   6.936
 4410SOL    HW214130   1.372   5.643   6.780
 4411SOL     OW14131   3.532   4.122   4.409
 4411SOL    HW114132   3.486   4.194   4.356
 4411SOL    HW214133   3.520   4.140   4.507
 4412SOL     OW14134   4.250   6.319   4.888
 4412SOL    HW114135   4.324   6.346   4.949
 4412SOL    HW214136   4.216   6.229   4.914
 4413SOL     OW14137   6.360   5.406   4.370
 4413SOL    HW114138   6.367   5.460   4.286
 4413SOL    HW214139   6.332   5.313   4.346
 4414SOL     OW14140   3.621   4.460   1.314
 4414SOL    HW114141   3.610   4.531   1.384
 4414SOL    HW214142   3.531   4.432   1.280
 4415SOL     OW14143   3.916   3.607   0.438
 4415SOL    HW114144   3.857   3.624   0.359
 4415SOL    HW214145   3.991   3.547   0.412
 4416SOL     OW14146   2.659   0.616   3.775
 4416SOL    HW114147   2.649   0.673   3.856
 4416SOL    HW214148   2.740   0.557   3.785
 4417SOL     OW14149   5.898   4.276   3.350
 4417SOL    HW114150   5.808   4.318   3.366
 4417SOL    HW214151   5.897   4.182   3.386
 4418SOL     OW14152   5.784   1.863   2.195
 4418SOL    HW114153   5.736   1.775   2.199
 4418SOL    HW214154   5.728   1.933   2.240
 4419SOL     OW14155   6.065   6.204   6.660
 4419SOL    HW114156   6.119   6.154   6.728
 4419SOL    HW214157   6.126   6.251   6.596
 4420SOL     OW14158   5.487   1.687   1.833
 4420SOL    HW114159   5.412   1.702   1.769
 4420SOL    HW214160   5.567   1.653   1.784
 4421SOL     OW14161   1.588   0.436   5.307
 4421SOL    HW114162   1.554   0.525   5.337
 4421SOL    HW214163   1.569   0.425   5.209
 4422SOL     OW14164   2.606   3.741   6.715
 4422SOL    HW114165   2.557   3.689   6.645
 4422SOL    HW214166   2.629   3.832   6.679
 4423SOL     OW14167   1.153   2.994   5.982
 4423SOL    HW114168   1.239   2.947   5.963
 4423SOL    HW214169   1.119   3.036   5.897
 4424SOL     OW14170   5.947   0.877   4.423
 4424SOL    HW114171   5.959   0.810   4.497
 4424SOL    HW214172   5.852   0.908   4.422
 4425SOL     OW14173   3.111   4.779   0.148
 4425SOL    HW114174   3.134   4.843   0.075
 4425SOL    HW214175   3.013   4.759   0.144
 4426SOL     OW14176   0.113   0.718   4.780
 4426SOL    HW114177   0.193   0.706   4.838
 4426SOL    HW214178   0.105   0.640   4.718
 4427SOL     OW14179   0.661   6.137   2.415
 4427SOL    HW114180   0.708   6.058   2.452
 4427SOL    HW214181   0.720   6.182   2.348
 4428SOL     OW14182   3.186   0.050   2.639
 4428SOL    HW114183   3.260   0.025   2.576
 4428SOL    HW214184   3.141   0.134   2.606
 4429SOL     OW14185   2.712   6.803   2.724
 4429SOL    HW114186   2.618   6.785   2.693
 4429SOL    HW214187   2.713   6.811   2.823
 4430SOL     OW14188   5.174   3.823   5.026
 4430SOL    HW114189   5.171   3.875   4.941
 4430SOL    HW214190   5.087   3.835   5.075
 4431SOL     OW14191   1.775   1.264   1.962
 4431SOL    HW114192   1.862   1.301   1.996
 4431SOL    HW214193   1.699   1.301   2.015
 4432SOL     OW14194   3.560   3.435   4.752
 4432SOL    HW114195   3.599   3.381   4.827
 4432SOL    HW214196   3.463   3.450   4.770
 4433SOL     OW14197   4.438   1.507   4.523
 4433SOL    HW114198   4.351   1.483   4.481
 4433SOL    HW214199   4.427   1.510   4.623
 4434SOL     OW14200   5.253   1.956   4.043
 4434SOL    HW114201   5.289   1.863   4.054
 4434SOL    HW214202   5.234   1.995   4.133
 4435SOL     OW14203   4.537   3.357   1.621
 4435SOL    HW114204   4.443   3.374   1.652
 4435SOL    HW214205   4.586   3.303   1.689
 4436SOL     OW14206   4.585   0.923   1.047
 4436SOL    HW114207   4.676   0.893   1.021
 4436SOL    HW214208   4.574   0.912   1.146
 4437SOL     OW14209   6.163   2.098   3.023
 4437SOL    HW114210   6.156   2.193   2.993
 4437SOL    HW214211   6.183   2.039   2.945
 4438SOL     OW14212   5.652   6.840   0.038
 4438SOL    HW114213   5.726   6.865   6.993
 4438SOL    HW214214   5.640   6.741   0.037
 4439SOL     OW14215   0.106   5.293   1.940
 4439SOL    HW114216   0.008   5.308   1.957
 4439SOL    HW214217   0.158   5.369   1.977
 4440SOL     OW14218   2.586   5.285   0.312
 4440SOL    HW114219   2.637   5.338   0.379
 4440SOL    HW214220   2.572   5.192   0.347
 4441SOL     OW14221   7.014   1.480   2.843
 4441SOL    HW114222   6.962   1.461   2.927
 4441SOL    HW214223   0.027   1.394   2.803
 4442SOL     OW14224   2.613   5.650   4.494
 4442SOL    HW114225   2.598   5.562   4.450
 4442SOL    HW214226   2.670   5.708   4.435
 4443SOL     OW14227   0.173   3.235   0.705
 4443SOL    HW114228   0.247   3.182   0.747
 4443SOL    HW214229   0.130   3.179   0.633
 4444SOL     OW14230   3.227   4.825   5.525
 4444SOL    HW114231   3.170   4.768   5.585
 4444SOL    HW214232   3.196   4.815   5.430
 4445SOL     OW14233   0.856   0.203   0.957
 4445SOL    HW114234   0.944   0.202   1.004
 4445SOL    HW214235   0.787   0.157   1.014
 4446SOL     OW14236   5.579   1.044   1.976
 4446SOL    HW114237   5.663   1.081   2.015
 4446SOL    HW214238   5.501   1.096   2.012
 4447SOL     OW14239   5.487   3.707   6.276
 4447SOL    HW114240   5.513   3.645   6.350
 4447SOL    HW214241   5.388   3.706   6.265
 4448SOL     OW14242   2.917   4.028   1.510
 4448SOL    HW114243   2.875   3.941   1.536
 4448SOL    HW214244   2.936   4.027   1.411
 4449SOL     OW14245   4.994   0.432   6.126
 4449SOL    HW114246   4.997   0.334   6.149
 4449SOL    HW214247   4.905   0.454   6.088
 4450SOL     OW14248   3.766   3.430   4.338
 4450SOL    HW114249   3.861   3.411   4.312
 4450SOL    HW214250   3.742   3.376   4.418
 4451SOL     OW14251   5.882   4.632   3.298
 4451SOL    HW114252   5.902   4.572   3.220
 4451SOL    HW214253   5.966   4.678   3.327
 4452SOL     OW14254   5.215   6.540   4.807
 4452SOL    HW114255   5.229   6.509   4.713
 4452SOL    HW214256   5.299   6.584   4.840
 4453SOL     OW14257   0.480   2.555   1.622
 4453SOL    HW114258   0.488   2.628   1.554
 4453SOL    HW214259   0.399   2.500   1.601
 4454SOL     OW14260   1.452   2.271   0.283
 4454SOL    HW114261   1.508   2.226   0.214
 4454SOL    HW214262   1.375   2.213   0.308
 4455SOL     OW14263   4.178   6.527   5.997
 4455SOL    HW114264   4.264   6.481   5.974
 4455SOL    HW214265   4.194   6.589   6.074
 4456SOL     OW14266   3.664   6.164   2.085
 4456SOL    HW114267   3.671   6.099   2.160
 4456SOL    HW214268   3.740   6.229   2.088
 4457SOL     OW14269   4.748   1.537   2.167
 4457SOL    HW114270   4.834   1.544   2.217
 4457SOL    HW214271   4.672   1.555   2.228
 4458SOL     OW14272   1.523   2.900   6.686
 4458SOL    HW114273   1.439   2.882   6.635
 4458SOL    HW214274   1.567   2.813   6.710
 4459SOL     OW14275   3.598   0.888   5.033
 4459SOL    HW114276   3.628   0.976   4.996
 4459SOL    HW214277   3.664   0.856   5.101
 4460SOL     OW14278   2.792   2.675   5.881
 4460SOL    HW114279   2.757   2.602   5.823
 4460SOL    HW214280   2.744   2.760   5.860
 4461SOL     OW14281   1.170   0.620   1.434
 4461SOL    HW114282   1.121   0.607   1.521
 4461SOL    HW214283   1.236   0.695   1.444
 4462SOL     OW14284   5.939   4.839   1.977
 4462SOL    HW114285   6.016   4.780   2.002
 4462SOL    HW214286   5.951   4.929   2.020
 4463SOL     OW14287   5.467   2.089   6.935
 4463SOL    HW114288   5.495   2.166   6.878
 4463SOL    HW214289   5.381   2.052   6.902
 4464SOL     OW14290   6.289   5.092   0.643
 4464SOL    HW114291   6.229   5.095   0.722
 4464SOL    HW214292   6.320   4.998   0.629
 4465SOL     OW14293   2.956   5.539   1.145
 4465SOL    HW114294   2.879   5.489   1.184
 4465SOL    HW214295   2.933   5.568   1.052
 4466SOL     OW14296   1.429   1.827   3.289
 4466SOL    HW114297   1.336   1.793   3.295
 4466SOL    HW214298   1.464   1.815   3.196
 4467SOL     OW14299   1.828   6.388   2.706
 4467SOL    HW114300   1.837   6.390   2.606
 4467SOL    HW214301   1.819   6.481   2.740
 4468SOL     OW14302   2.053   2.488   0.382
 4468SOL    HW114303   1.965   2.506   0.425
 4468SOL    HW214304   2.041   2.478   0.284
 4469SOL     OW14305   3.766   0.896   1.694
 4469SOL    HW114306   3.682   0.852   1.725
 4469SOL    HW214307   3.834   0.826   1.673
 4470SOL     OW14308   5.876   2.316   2.524
 4470SOL    HW114309   5.879   2.413   2.549
 4470SOL    HW214310   5.898   2.306   2.427
 4471SOL     OW14311   0.464   2.006   6.693
 4471SOL    HW114312   0.554   1.982   6.657
 4471SOL    HW214313   0.398   1.935   6.669
 4472SOL     OW14314   1.395   3.194   2.858
 4472SOL    HW114315   1.452   3.128   2.908
 4472SOL    HW214316   1.348   3.148   2.783
 4473SOL     OW14317   6.329   2.925   4.819
 4473SOL    HW114318   6.345   2.848   4.880
 4473SOL    HW214319   6.337   3.011   4.869
 4474SOL     OW14320   2.475   0.884   1.818
 4474SOL    HW114321   2.524   0.824   1.754
 4474SOL    HW214322   2.412   0.829   1.874
 4475SOL     OW14323   1.924   3.882   2.722
 4475SOL    HW114324   1.914   3.858   2.625
 4475SOL    HW214325   1.879   3.812   2.778
 4476SOL     OW14326   3.952   6.979   3.394
 4476SOL    HW114327   4.016   0.013   3.451
 4476SOL    HW214328   3.858   7.007   3.415
 4477SOL     OW14329   1.977   6.794   5.107
 4477SOL    HW114330   1.967   6.711   5.052
 4477SOL    HW214331   1.888   6.823   5.140
 4478SOL     OW14332   3.899   6.950   2.923
 4478SOL    HW114333   3.884   7.016   2.850
 4478SOL    HW214334   3.834   6.874   2.914
 4479SOL     OW14335   0.886   1.204   1.853
 4479SOL    HW114336   0.969   1.249   1.823
 4479SOL    HW214337   0.843   1.158   1.775
 4480SOL     OW14338   1.891   3.724   5.430
 4480SOL    HW114339   1.970   3.672   5.462
 4480SOL    HW214340   1.838   3.669   5.366
 4481SOL     OW14341   3.007   5.987   5.113
 4481SOL    HW114342   3.018   5.908   5.052
 4481SOL    HW214343   2.910   6.012   5.117
 4482SOL     OW14344   1.223   3.425   4.477
 4482SOL    HW114345   1.249   3.331   4.498
 4482SOL    HW214346   1.272   3.488   4.537
 4483SOL     OW14347   5.665   3.138   2.217
 4483SOL    HW114348   5.691   3.230   2.188
 4483SOL    HW214349   5.580   3.142   2.269
 4484SOL     OW14350   2.928   2.973   6.050
 4484SOL    HW114351   2.948   3.002   5.957
 4484SOL    HW214352   2.859   2.901   6.049
 4485SOL     OW14353   5.595   1.686   5.356
 4485SOL    HW114354   5.695   1.688   5.359
 4485SOL    HW214355   5.561   1.780   5.361
 4486SOL     OW14356   5.263   4.356   5.261
 4486SOL    HW114357   5.320   4.298   5.203
 4486SOL    HW214358   5.313   4.439   5.286
 4487SOL     OW14359   1.967   3.179   5.970
 4487SOL    HW114360   1.946   3.086   5.939
 4487SOL    HW214361   1.916   3.200   6.053
 4488SOL     OW14362   0.197   3.365   6.442
 4488SOL    HW114363   0.203   3.303   6.364
 4488SOL    HW214364   0.273   3.347   6.504
 4489SOL     OW14365   5.524   5.623   4.310
 4489SOL    HW114366   5.580   5.691   4.262
 4489SOL    HW214367   5.576   5.538   4.318
 4490SOL     OW14368   6.368   2.993   2.869
 4490SOL    HW114369   6.349   2.903   2.909
 4490SOL    HW214370   6.291   3.055   2.888
 4491SOL     OW14371   6.764   2.576   4.688
 4491SOL    HW114372   6.752   2.671   4.717
 4491SOL    HW214373   6.799   2.522   4.764
 4492SOL     OW14374   5.675   4.079   1.240
 4492SOL    HW114375   5.719   4.005   1.291
 4492SOL    HW214376   5.678   4.163   1.294
 4493SOL     OW14377   4.463   5.278   4.773
 4493SOL    HW114378   4.399   5.217   4.727
 4493SOL    HW214379   4.531   5.310   4.707
 4494SOL     OW14380   6.819   1.229   6.318
 4494SOL    HW114381   6.771   1.145   6.294
 4494SOL    HW214382   6.821   1.290   6.239
 4495SOL     OW14383   3.511   6.604   4.434
 4495SOL    HW114384   3.437   6.626   4.498
 4495SOL    HW214385   3.561   6.688   4.412
 4496SOL     OW14386   5.624   5.901   1.349
 4496SOL    HW114387   5.579   5.882   1.262
 4496SOL    HW214388   5.703   5.960   1.333
 4497SOL     OW14389   5.193   1.291   0.110
 4497SOL    HW114390   5.167   1.195   0.099
 4497SOL    HW214391   5.278   1.308   0.060
 4498SOL     OW14392   0.137   3.870   0.227
 4498SOL    HW114393   0.098   3.870   0.135
 4498SOL    HW214394   0.112   3.786   0.274
 4499SOL     OW14395   6.533   3.770   5.347
 4499SOL    HW114396   6.568   3.836   5.413
 4499SOL    HW214397   6.588   3.686   5.351
 4500SOL     OW14398   2.969   3.351   4.236
 4500SOL    HW114399   2.969   3.267   4.291
 4500SOL    HW214400   3.051   3.404   4.255
 4501SOL     OW14401   0.319   3.418   3.585
 4501SOL    HW114402   0.353   3.325   3.596
 4501SOL    HW214403   0.232   3.417   3.536
 4502SOL     OW14404   0.994   2.731   0.090
 4502SOL    HW114405   1.061   2.690   0.028
 4502SOL    HW214406   0.920   2.666   0.107
 4503SOL     OW14407   3.550   7.001   1.837
 4503SOL    HW114408   3.532   6.956   1.749
 4503SOL    HW214409   3.464   0.003   1.883
 4504SOL     OW14410   6.688   0.779   5.063
 4504SOL    HW114411   6.651   0.867   5.094
 4504SOL    HW214412   6.633   0.705   5.102
 4505SOL     OW14413   5.315   4.706   2.053
 4505SOL    HW114414   5.395   4.674   2.103
 4505SOL    HW214415   5.242   4.638   2.061
 4506SOL     OW14416   4.927   1.879   3.601
 4506SOL    HW114417   4.833   1.877   3.633
 4506SOL    HW214418   4.986   1.914   3.674
 4507SOL     OW14419   5.413   4.331   2.259
 4507SOL    HW114420   5.510   4.327   2.284
 4507SOL    HW214421   5.390   4.251   2.203
 4508SOL     OW14422   1.389   5.349   6.775
 4508SOL    HW114423   1.444   5.423   6.814
 4508SOL    HW214424   1.314   5.327   6.838
 4509SOL     OW14425   4.316   2.270   2.849
 4509SOL    HW114426   4.217   2.277   2.841
 4509SOL    HW214427   4.343   2.284   2.944
 4510SOL     OW14428   3.710   1.166   3.880
 4510SOL    HW114429   3.797   1.202   3.846
 4510SOL    HW214430   3.675   1.225   3.952
 4511SOL     OW14431   6.517   3.062   0.241
 4511SOL    HW114432   6.435   3.009   0.262
 4511SOL    HW214433   6.562   3.088   0.326
 4512SOL     OW14434   3.110   1.585   5.707
 4512SOL    HW114435   3.182   1.546   5.650
 4512SOL    HW214436   3.123   1.683   5.717
 4513SOL     OW14437   6.071   5.336   0.424
 4513SOL    HW114438   6.122   5.408   0.378
 4513SOL    HW214439   6.123   5.251   0.422
 4514SOL     OW14440   4.290   1.706   6.392
 4514SOL    HW114441   4.359   1.737   6.457
 4514SOL    HW214442   4.272   1.778   6.325
 4515SOL     OW14443   6.600   1.356   5.737
 4515SOL    HW114444   6.652   1.370   5.652
 4515SOL    HW214445   6.559   1.265   5.737
 4516SOL     OW14446   2.041   0.295   6.699
 4516SOL    HW114447   2.057   0.256   6.789
 4516SOL    HW214448   2.115   0.359   6.677
 4517SOL     OW14449   4.121   1.076   0.114
 4517SOL    HW114450   4.157   1.068   0.021
 4517SOL    HW214451   4.197   1.077   0.179
 4518SOL     OW14452   6.886   0.575   2.837
 4518SOL    HW114453   6.796   0.530   2.831
 4518SOL    HW214454   6.881   0.649   2.905
 4519SOL     OW14455   6.734   0.796   1.605
 4519SOL    HW114456   6.715   0.775   1.509
 4519SOL    HW214457   6.651   0.832   1.648
 4520SOL     OW14458   4.569   6.334   4.689
 4520SOL    HW114459   4.566   6.269   4.613
 4520SOL    HW214460   4.570   6.427   4.652
 4521SOL     OW14461   6.180   1.757   4.203
 4521SOL    HW114462   6.086   1.776   4.232
 4521SOL    HW214463   6.223   1.841   4.170
 4522SOL     OW14464   6.068   6.058   3.183
 4522SOL    HW114465   6.122   6.052   3.100
 4522SOL    HW214466   5.971   6.045   3.161
 4523SOL     OW14467   1.034   4.441   6.866
 4523SOL    HW114468   0.958   4.395   6.912
 4523SOL    HW214469   1.072   4.380   6.796
 4524SOL     OW14470   6.353   2.759   3.351
 4524SOL    HW114471   6.401   2.677   3.322
 4524SOL    HW214472   6.263   2.762   3.307
 4525SOL     OW14473   4.854   1.145   5.168
 4525SOL    HW114474   4.886   1.155   5.262
 4525SOL    HW214475   4.770   1.198   5.156
 4526SOL     OW14476   6.711   0.540   1.189
 4526SOL    HW114477   6.734   0.571   1.097
 4526SOL    HW214478   6.713   0.440   1.192
 4527SOL     OW14479   4.996   1.134   3.543
 4527SOL    HW114480   5.086   1.169   3.568
 4527SOL    HW214481   4.989   1.131   3.443
 4528SOL     OW14482   5.335   0.290   0.423
 4528SOL    HW114483   5.332   0.191   0.406
 4528SOL    HW214484   5.361   0.306   0.519
 4529SOL     OW14485   2.966   0.552   5.423
 4529SOL    HW114486   2.894   0.546   5.354
 4529SOL    HW214487   3.036   0.483   5.405
 4530SOL     OW14488   2.023   4.771   5.349
 4530SOL    HW114489   2.019   4.685   5.298
 4530SOL    HW214490   2.099   4.826   5.315
 4531SOL     OW14491   0.221   3.018   5.290
 4531SOL    HW114492   0.298   3.064   5.335
 4531SOL    HW214493   0.135   3.058   5.322
 4532SOL     OW14494   6.456   1.893   3.142
 4532SOL    HW114495   6.547   1.891   3.101
 4532SOL    HW214496   6.450   1.969   3.206
 4533SOL     OW14497   1.039   1.473   1.518
 4533SOL    HW114498   1.050   1.572   1.522
 4533SOL    HW214499   1.085   1.438   1.437
 4534SOL     OW14500   4.827   3.977   3.975
 4534SOL    HW114501   4.793   3.996   4.067
 4534SOL    HW214502   4.907   4.035   3.957
 4535SOL     OW14503   3.745   0.781   2.868
 4535SOL    HW114504   3.757   0.729   2.783
 4535SOL    HW214505   3.685   0.859   2.851
 4536SOL     OW14506   3.626   1.564   4.220
 4536SOL    HW114507   3.710   1.617   4.230
 4536SOL    HW214508   3.547   1.626   4.215
 4537SOL     OW14509   4.448   3.200   6.715
 4537SOL    HW114510   4.420   3.181   6.809
 4537SOL    HW214511   4.533   3.151   6.696
 4538SOL     OW14512   1.836   0.217   3.247
 4538SOL    HW114513   1.782   0.281   3.302
 4538SOL    HW214514   1.844   0.130   3.295
 4539SOL     OW14515   2.583   0.211   4.821
 4539SOL    HW114516   2.538   0.192   4.908
 4539SOL    HW214517   2.592   0.126   4.770
 4540SOL     OW14518   3.152   2.506   5.572
 4540SOL    HW114519   3.151   2.541   5.478
 4540SOL    HW214520   3.115   2.576   5.634
 4541SOL     OW14521   5.851   2.135   0.866
 4541SOL    HW114522   5.932   2.107   0.918
 4541SOL    HW214523   5.836   2.233   0.878
 4542SOL     OW14524   6.821   1.259   2.362
 4542SOL    HW114525   6.865   1.240   2.450
 4542SOL    HW214526   6.891   1.278   2.293
 4543SOL     OW14527   4.316   2.139   1.681
 4543SOL    HW114528   4.342   2.204   1.609
 4543SOL    HW214529   4.217   2.125   1.680
 4544SOL     OW14530   3.126   6.417   5.965
 4544SOL    HW114531   3.043   6.454   6.007
 4544SOL    HW214532   3.138   6.322   5.993
 4545SOL     OW14533   5.147   3.910   4.513
 4545SOL    HW114534   5.047   3.915   4.520
 4545SOL    HW214535   5.176   3.816   4.533
 4546SOL     OW14536   1.501   0.913   5.313
 4546SOL    HW114537   1.533   0.896   5.219
 4546SOL    HW214538   1.535   1.003   5.343
 4547SOL     OW14539   5.612   2.273   2.526
 4547SOL    HW114540   5.573   2.354   2.482
 4547SOL    HW214541   5.711   2.281   2.530
 4548SOL     OW14542   0.882   3.359   4.077
 4548SOL    HW114543   0.916   3.285   4.021
 4548SOL    HW214544   0.796   3.394   4.039
 4549SOL     OW14545   6.987   4.225   1.288
 4549SOL    HW114546   0.024   4.255   1.209
 4549SOL    HW214547   6.895   4.200   1.258
 4550SOL     OW14548   0.883   5.073   2.938
 4550SOL    HW114549   0.908   5.027   2.853
 4550SOL    HW214550   0.796   5.036   2.972
 4551SOL     OW14551   0.435   2.067   5.385
 4551SOL    HW114552   0.534   2.051   5.386
 4551SOL    HW214553   0.392   2.009   5.316
 4552SOL     OW14554   6.414   3.808   1.503
 4552SOL    HW114555   6.434   3.905   1.517
 4552SOL    HW214556   6.453   3.779   1.415
 4553SOL     OW14557   3.326   4.427   6.783
 4553SOL    HW114558   3.366   4.519   6.787
 4553SOL    HW214559   3.253   4.420   6.851
 4554SOL     OW14560   5.799   0.168   1.706
 4554SOL    HW114561   5.812   0.135   1.612
 4554SOL    HW214562   5.852   0.252   1.719
 4555SOL     OW14563   2.851   2.239   5.846
 4555SOL    HW114564   2.843   2.289   5.760
 4555SOL    HW214565   2.850   2.303   5.923
 4556SOL     OW14566   5.449   3.326   3.981
 4556SOL    HW114567   5.522   3.286   3.925
 4556SOL    HW214568   5.415   3.257   4.045
 4557SOL     OW14569   4.740   6.311   5.974
 4557SOL    HW114570   4.664   6.298   6.038
 4557SOL    HW214571   4.727   6.254   5.894
 4558SOL     OW14572   0.686   3.988   5.179
 4558SOL    HW114573   0.680   3.889   5.167
 4558SOL    HW214574   0.621   4.033   5.117
 4559SOL     OW14575   0.108   4.052   1.438
 4559SOL    HW114576   0.038   4.102   1.387
 4559SOL    HW214577   0.126   4.099   1.525
 4560SOL     OW14578   5.136   4.211   1.745
 4560SOL    HW114579   5.103   4.301   1.718
 4560SOL    HW214580   5.205   4.221   1.816
 4561SOL     OW14581   1.823   1.980   2.575
 4561SOL    HW114582   1.762   1.938   2.508
 4561SOL    HW214583   1.786   1.967   2.667
 4562SOL     OW14584   2.651   6.275   5.436
 4562SOL    HW114585   2.698   6.201   5.485
 4562SOL    HW214586   2.553   6.268   5.453
 4563SOL     OW14587   0.378   2.937   1.127
 4563SOL    HW114588   0.345   2.882   1.204
 4563SOL    HW214589   0.303   2.950   1.061
 4564SOL     OW14590   6.686   6.092   1.197
 4564SOL    HW114591   6.689   6.024   1.124
 4564SOL    HW214592   6.750   6.066   1.269
 4565SOL     OW14593   0.799   1.203   5.156
 4565SOL    HW114594   0.892   1.220   5.190
 4565SOL    HW214595   0.755   1.133   5.212
 4566SOL     OW14596   6.571   2.827   0.583
 4566SOL    HW114597   6.493   2.825   0.646
 4566SOL    HW214598   6.652   2.792   0.631
 4567SOL     OW14599   6.311   0.288   6.931
 4567SOL    HW114600   6.272   0.309   0.003
 4567SOL    HW214601   6.358   0.200   6.935
 4568SOL     OW14602   2.561   3.939   5.707
 4568SOL    HW114603   2.590   3.859   5.654
 4568SOL    HW214604   2.637   4.004   5.714
 4569SOL     OW14605   1.893   1.907   2.936
 4569SOL    HW114606   1.849   1.829   2.893
 4569SOL    HW214607   1.992   1.902   2.921
 4570SOL     OW14608   0.391   6.486   3.436
 4570SOL    HW114609   0.398   6.393   3.400
 4570SOL    HW214610   0.475   6.509   3.486
 4571SOL     OW14611   4.009   4.307   6.569
 4571SOL    HW114612   4.108   4.314   6.570
 4571SOL    HW214613   3.981   4.240   6.500
 4572SOL     OW14614   1.497   0.419   6.943
 4572SOL    HW114615   1.501   0.379   0.017
 4572SOL    HW214616   1.404   0.411   6.907
 4573SOL     OW14617   6.240   0.517   0.467
 4573SOL    HW114618   6.295   0.529   0.385
 4573SOL    HW214619   6.272   0.579   0.538
 4574SOL     OW14620   5.973   3.866   0.582
 4574SOL    HW114621   6.021   3.827   0.504
 4574SOL    HW214622   6.037   3.922   0.636
 4575SOL     OW14623   5.968   0.768   6.325
 4575SOL    HW114624   5.896   0.701   6.345
 4575SOL    HW214625   6.046   0.752   6.386
 4576SOL     OW14626   2.721   6.307   5.946
 4576SOL    HW114627   2.730   6.219   5.992
 4576SOL    HW214628   2.802   6.324   5.891
 4577SOL     OW14629   1.250   2.651   4.727
 4577SOL    HW114630   1.175   2.689   4.780
 4577SOL    HW214631   1.300   2.585   4.783
 4578SOL     OW14632   0.793   3.093   5.229
 4578SOL    HW114633   0.783   3.009   5.175
 4578SOL    HW214634   0.826   3.166   5.169
 4579SOL     OW14635   4.146   0.619   3.184
 4579SOL    HW114636   4.056   0.589   3.213
 4579SOL    HW214637   4.139   0.707   3.137
 4580SOL     OW14638   5.627   5.237   0.239
 4580SOL    HW114639   5.710   5.292   0.242
 4580SOL    HW214640   5.645   5.147   0.278
 4581SOL     OW14641   2.168   4.637   2.606
 4581SOL    HW114642   2.194   4.710   2.669
 4581SOL    HW214643   2.101   4.673   2.540
 4582SOL     OW14644   5.379   0.201   5.289
 4582SOL    HW114645   5.336   0.139   5.224
 4582SOL    HW214646   5.329   0.200   5.375
 4583SOL     OW14647   2.993   2.645   6.179
 4583SOL    HW114648   2.921   2.708   6.208
 4583SOL    HW214649   3.074   2.697   6.153
 4584SOL     OW14650   0.771   4.784   6.112
 4584SOL    HW114651   0.683   4.830   6.119
 4584SOL    HW214652   0.842   4.844   6.150
 4585SOL     OW14653   3.170   5.877   3.172
 4585SOL    HW114654   3.249   5.885   3.111
 4585SOL    HW214655   3.200   5.883   3.267
 4586SOL     OW14656   3.523   5.364   0.731
 4586SOL    HW114657   3.543   5.462   0.722
 4586SOL    HW214658   3.584   5.312   0.671
 4587SOL     OW14659   3.657   3.719   2.973
 4587SOL    HW114660   3.587   3.730   3.044
 4587SOL    HW214661   3.747   3.712   3.016
 4588SOL     OW14662   3.289   3.226   4.920
 4588SOL    HW114663   3.340   3.165   4.860
 4588SOL    HW214664   3.199   3.188   4.938
 4589SOL     OW14665   6.102   1.107   2.530
 4589SOL    HW114666   6.037   1.143   2.597
 4589SOL    HW214667   6.095   1.008   2.526
 4590SOL     OW14668   5.210   6.154   1.585
 4590SOL    HW114669   5.194   6.145   1.683
 4590SOL    HW214670   5.153   6.228   1.548
 4591SOL     OW14671   0.807   6.375   4.648
 4591SOL    HW114672   0.776   6.453   4.702
 4591SOL    HW214673   0.775   6.385   4.554
 4592SOL     OW14674   2.796   1.338   2.176
 4592SOL    HW114675   2.854   1.336   2.094
 4592SOL    HW214676   2.835   1.401   2.243
 4593SOL     OW14677   4.855   5.441   2.808
 4593SOL    HW114678   4.922   5.515   2.797
 4593SOL    HW214679   4.830   5.433   2.904
 4594SOL     OW14680   2.474   1.638   3.193
 4594SOL    HW114681   2.563   1.681   3.175
 4594SOL    HW214682   2.446   1.584   3.113
 4595SOL     OW14683   3.979   2.982   6.511
 4595SOL    HW114684   3.946   2.952   6.600
 4595SOL    HW214685   3.990   2.903   6.451
 4596SOL     OW14686   5.903   6.910   2.360
 4596SOL    HW114687   5.992   6.883   2.322
 4596SOL    HW214688   5.859   6.831   2.402
 4597SOL     OW14689   4.117   5.534   5.867
 4597SOL    HW114690   4.151   5.445   5.836
 4597SOL    HW214691   4.190   5.602   5.857
 4598SOL     OW14692   2.381   6.379   6.596
 4598SOL    HW114693   2.386   6.279   6.599
 4598SOL    HW214694   2.459   6.414   6.544
 4599SOL     OW14695   1.335   4.943   0.892
 4599SOL    HW114696   1.434   4.953   0.877
 4599SOL    HW214697   1.285   4.982   0.816
 4600SOL     OW14698   1.054   5.243   5.600
 4600SOL    HW114699   1.001   5.251   5.516
 4600SOL    HW214700   0.993   5.248   5.679
 4601SOL     OW14701   2.249   0.823   5.545
 4601SOL    HW114702   2.164   0.771   5.536
 4601SOL    HW214703   2.317   0.787   5.481
 4602SOL     OW14704   2.051   6.318   1.386
 4602SOL    HW114705   2.001   6.247   1.435
 4602SOL    HW214706   2.137   6.281   1.351
 4603SOL     OW14707   3.241   6.354   0.793
 4603SOL    HW114708   3.244   6.255   0.780
 4603SOL    HW214709   3.332   6.387   0.815
 4604SOL     OW14710   4.362   0.630   0.740
 4604SOL    HW114711   4.402   0.620   0.831
 4604SOL    HW214712   4.359   0.726   0.714
 4605SOL     OW14713   2.654   0.612   2.842
 4605SOL    HW114714   2.706   0.531   2.868
 4605SOL    HW214715   2.562   0.607   2.879
 4606SOL     OW14716   1.062   6.240   2.215
 4606SOL    HW114717   1.098   6.170   2.152
 4606SOL    HW214718   1.055   6.202   2.307
 4607SOL     OW14719   1.917   2.815   1.536
 4607SOL    HW114720   1.977   2.752   1.487
 4607SOL    HW214721   1.967   2.855   1.614
 4608SOL     OW14722   0.282   6.279   3.615
 4608SOL    HW114723   0.281   6.192   3.566
 4608SOL    HW214724   0.371   6.323   3.601
 4609SOL     OW14725   4.195   5.447   6.681
 4609SOL    HW114726   4.246   5.510   6.623
 4609SOL    HW214727   4.190   5.357   6.638
 4610SOL     OW14728   5.034   2.944   0.679
 4610SOL    HW114729   4.948   2.942   0.729
 4610SOL    HW214730   5.063   3.039   0.666
 4611SOL     OW14731   0.548   5.582   6.236
 4611SOL    HW114732   0.589   5.501   6.278
 4611SOL    HW214733   0.457   5.597   6.275
 4612SOL     OW14734   1.438   6.032   0.140
 4612SOL    HW114735   1.425   6.128   0.118
 4612SOL    HW214736   1.522   5.999   0.097
 4613SOL     OW14737   2.504   6.161   1.876
 4613SOL    HW114738   2.508   6.067   1.841
 4613SOL    HW214739   2.571   6.218   1.828
 4614SOL     OW14740   6.778   3.089   4.746
 4614SOL    HW114741   6.763   3.129   4.837
 4614SOL    HW214742   6.871   3.108   4.716
 4615SOL     OW14743   1.796   0.027   6.957
 4615SOL    HW114744   1.760   0.003   0.029
 4615SOL    HW214745   1.776   0.124   6.938
 4616SOL     OW14746   6.521   0.214   5.184
 4616SOL    HW114747   6.436   0.265   5.197
 4616SOL    HW214748   6.511   0.151   5.107
 4617SOL     OW14749   0.306   2.298   2.354
 4617SOL    HW114750   0.348   2.263   2.270
 4617SOL    HW214751   0.333   2.393   2.368
 4618SOL     OW14752   2.369   2.845   4.689
 4618SOL    HW114753   2.413   2.841   4.778
 4618SOL    HW214754   2.337   2.938   4.671
 4619SOL     OW14755   3.267   6.239   3.201
 4619SOL    HW114756   3.239   6.277   3.112
 4619SOL    HW214757   3.185   6.218   3.255
 4620SOL     OW14758   2.670   4.595   0.605
 4620SOL    HW114759   2.763   4.614   0.574
 4620SOL    HW214760   2.640   4.668   0.667
 4621SOL     OW14761   5.494   0.912   2.279
 4621SOL    HW114762   5.504   0.823   2.235
 4621SOL    HW214763   5.584   0.955   2.290
 4622SOL     OW14764   2.525   4.750   0.766
 4622SOL    HW114765   2.512   4.727   0.862
 4622SOL    HW214766   2.437   4.748   0.719
 4623SOL     OW14767   4.939   6.581   0.400
 4623SOL    HW114768   4.850   6.538   0.387
 4623SOL    HW214769   4.945   6.663   0.344
 4624SOL     OW14770   4.652   6.998   3.276
 4624SOL    HW114771   4.657   7.000   3.176
 4624SOL    HW214772   4.672   0.072   3.312
 4625SOL     OW14773   2.348   4.605   1.001
 4625SOL    HW114774   2.394   4.564   1.080
 4625SOL    HW214775   2.387   4.568   0.917
 4626SOL     OW14776   5.152   4.473   2.106
 4626SOL    HW114777   5.189   4.397   2.053
 4626SOL    HW214778   5.060   4.451   2.137
 4627SOL     OW14779   2.467   4.456   4.628
 4627SOL    HW114780   2.445   4.382   4.563
 4627SOL    HW214781   2.387   4.474   4.685
 4628SOL     OW14782   6.314   4.187   3.849
 4628SOL    HW114783   6.272   4.186   3.940
 4628SOL    HW214784   6.385   4.257   3.845
 4629SOL     OW14785   2.416   5.275   5.547
 4629SOL    HW114786   2.352   5.324   5.489
 4629SOL    HW214787   2.457   5.199   5.496
 4630SOL     OW14788   3.271   5.167   2.746
 4630SOL    HW114789   3.363   5.205   2.737
 4630SOL    HW214790   3.213   5.229   2.798
 4631SOL     OW14791   1.576   6.133   3.082
 4631SOL    HW114792   1.616   6.069   3.016
 4631SOL    HW214793   1.645   6.201   3.108
 4632SOL     OW14794   3.407   4.884   2.407
 4632SOL    HW114795   3.394   4.972   2.453
 4632SOL    HW214796   3.429   4.814   2.475
 4633SOL     OW14797   5.171   0.343   4.562
 4633SOL    HW114798   5.076   0.320   4.586
 4633SOL    HW214799   5.233   0.296   4.625
 4634SOL     OW14800   3.583   4.537   5.871
 4634SOL    HW114801   3.622   4.449   5.842
 4634SOL    HW214802   3.552   4.588   5.790
 4635SOL     OW14803   4.747   3.809   1.329
 4635SOL    HW114804   4.675   3.839   1.267
 4635SOL    HW214805   4.708   3.748   1.398
 4636SOL     OW14806   2.043   4.385   6.817
 4636SOL    HW114807   2.035   4.448   6.894
 4636SOL    HW214808   2.005   4.426   6.735
 4637SOL     OW14809   0.962   6.562   0.831
 4637SOL    HW114810   1.044   6.556   0.774
 4637SOL    HW214811   0.950   6.477   0.881
 4638SOL     OW14812   4.579   4.555   6.591
 4638SOL    HW114813   4.597   4.572   6.494
 4638SOL    HW214814   4.505   4.615   6.621
 4639SOL     OW14815   3.034   4.444   5.881
 4639SOL    HW114816   3.103   4.512   5.854
 4639SOL    HW214817   3.032   4.370   5.814
 4640SOL     OW14818   5.097   4.059   3.800
 4640SOL    HW114819   5.031   4.050   3.725
 4640SOL    HW214820   5.186   4.084   3.762
 4641SOL     OW14821   2.407   0.044   5.085
 4641SOL    HW114822   2.364   0.130   5.058
 4641SOL    HW214823   2.501   0.063   5.116
 4642SOL     OW14824   1.072   5.349   4.495
 4642SOL    HW114825   1.140   5.357   4.568
 4642SOL    HW214826   1.105   5.394   4.413
 4643SOL     OW14827   6.199   2.503   1.222
 4643SOL    HW114828   6.248   2.516   1.308
 4643SOL    HW214829   6.144   2.584   1.202
 4644SOL     OW14830   6.632   4.988   4.993
 4644SOL    HW114831   6.681   4.906   4.963
 4644SOL    HW214832   6.696   5.064   5.003
 4645SOL     OW14833   0.566   0.439   4.198
 4645SOL    HW114834   0.524   0.368   4.141
 4645SOL    HW214835   0.647   0.401   4.244
 4646SOL     OW14836   1.913   6.114   3.940
 4646SOL    HW114837   1.961   6.045   3.993
 4646SOL    HW214838   1.892   6.078   3.849
 4647SOL     OW14839   1.620   0.577   3.034
 4647SOL    HW114840   1.644   0.652   2.973
 4647SOL    HW214841   1.644   0.489   2.991
 4648SOL     OW14842   3.401   1.020   2.484
 4648SOL    HW114843   3.465   1.086   2.445
 4648SOL    HW214844   3.340   1.067   2.548
 4649SOL     OW14845   5.712   0.127   0.077
 4649SOL    HW114846   5.620   0.111   0.041
 4649SOL    HW214847   5.707   0.197   0.149
 4650SOL     OW14848   4.617   5.289   2.818
 4650SOL    HW114849   4.696   5.350   2.822
 4650SOL    HW214850   4.535   5.339   2.845
 4651SOL     OW14851   6.837   3.032   0.639
 4651SOL    HW114852   6.831   3.121   0.684
 4651SOL    HW214853   6.775   2.968   0.685
 4652SOL     OW14854   6.335   6.754   3.621
 4652SOL    HW114855   6.270   6.737   3.695
 4652SOL    HW214856   6.352   6.852   3.614
 4653SOL     OW14857   5.289   5.009   0.991
 4653SOL    HW114858   5.234   5.061   1.057
 4653SOL    HW214859   5.346   4.942   1.039
 4654SOL     OW14860   1.040   7.001   0.705
 4654SOL    HW114861   0.990   6.914   0.710
 4654SOL    HW214862   0.975   0.059   0.697
 4655SOL     OW14863   4.922   4.008   1.285
 4655SOL    HW114864   4.879   4.080   1.231
 4655SOL    HW214865   4.860   3.930   1.291
 4656SOL     OW14866   1.333   0.645   2.260
 4656SOL    HW114867   1.246   0.614   2.220
 4656SOL    HW214868   1.360   0.731   2.218
 4657SOL     OW14869   4.689   6.745   1.489
 4657SOL    HW114870   4.695   6.677   1.416
 4657SOL    HW214871   4.595   6.781   1.492
 4658SOL     OW14872   3.489   1.276   2.959
 4658SOL    HW114873   3.431   1.262   3.039
 4658SOL    HW214874   3.477   1.369   2.925
 4659SOL     OW14875   3.644   4.935   5.076
 4659SOL    HW114876   3.578   4.877   5.123
 4659SOL    HW214877   3.610   4.959   4.985
 4660SOL     OW14878   1.380   4.061   6.008
 4660SOL    HW114879   1.301   4.004   5.986
 4660SOL    HW214880   1.419   4.098   5.923
 4661SOL     OW14881   2.857   4.495   5.615
 4661SOL    HW114882   2.787   4.527   5.679
 4661SOL    HW214883   2.939   4.551   5.624
 4662SOL     OW14884   3.308   6.944   5.595
 4662SOL    HW114885   3.216   6.919   5.567
 4662SOL    HW214886   3.369   6.865   5.584
 4663SOL     OW14887   0.336   2.131   1.775
 4663SOL    HW114888   0.361   2.104   1.868
 4663SOL    HW214889   0.266   2.068   1.740
 4664SOL     OW14890   1.584   1.158   0.807
 4664SOL    HW114891   1.533   1.150   0.893
 4664SOL    HW214892   1.530   1.121   0.732
 4665SOL     OW14893   3.549   0.026   6.520
 4665SOL    HW114894   3.460   7.010   6.551
 4665SOL    HW214895   3.598   0.068   6.597
 4666SOL     OW14896   1.595   2.411   0.505
 4666SOL    HW114897   1.554   2.359   0.430
 4666SOL    HW214898   1.526   2.425   0.576
 4667SOL     OW14899   6.582   3.515   2.209
 4667SOL    HW114900   6.595   3.433   2.154
 4667SOL    HW214901   6.592   3.492   2.306
 4668SOL     OW14902   4.391   2.298   2.411
 4668SOL    HW114903   4.327   2.232   2.451
 4668SOL    HW214904   4.453   2.330   2.483
 4669SOL     OW14905   4.832   6.388   6.291
 4669SOL    HW114906   4.761   6.331   6.332
 4669SOL    HW214907   4.816   6.484   6.315
 4670SOL     OW14908   2.600   2.329   5.417
 4670SOL    HW114909   2.540   2.363   5.344
 4670SOL    HW214910   2.565   2.360   5.505
 4671SOL     OW14911   6.819   2.769   1.263
 4671SOL    HW114912   6.840   2.727   1.174
 4671SOL    HW214913   6.754   2.843   1.250
 4672SOL     OW14914   2.643   4.533   5.810
 4672SOL    HW114915   2.641   4.580   5.898
 4672SOL    HW214916   2.623   4.436   5.824
 4673SOL     OW14917   5.071   0.260   2.082
 4673SOL    HW114918   5.021   0.337   2.042
 4673SOL    HW214919   5.058   0.260   2.181
 4674SOL     OW14920   5.276   0.472   6.567
 4674SOL    HW114921   5.334   0.546   6.604
 4674SOL    HW214922   5.233   0.504   6.482
 4675SOL     OW14923   1.845   1.541   6.298
 4675SOL    HW114924   1.861   1.523   6.201
 4675SOL    HW214925   1.917   1.601   6.333
 4676SOL     OW14926   6.737   6.377   3.686
 4676SOL    HW114927   6.715   6.437   3.609
 4676SOL    HW214928   6.769   6.289   3.650
 4677SOL     OW14929   2.520   1.569   6.822
 4677SOL    HW114930   2.482   1.513   6.748
 4677SOL    HW214931   2.597   1.521   6.864
 4678SOL     OW14932   2.115   4.404   2.969
 4678SOL    HW114933   2.050   4.401   2.893
 4678SOL    HW214934   2.132   4.498   2.995
 4679SOL     OW14935   4.166   0.909   0.654
 4679SOL    HW114936   4.256   0.952   0.667
 4679SOL    HW214937   4.121   0.949   0.575
 4680SOL     OW14938   3.306   1.387   0.535
 4680SOL    HW114939   3.305   1.486   0.521
 4680SOL    HW214940   3.223   1.347   0.498
 4681SOL     OW14941   5.346   5.627   6.203
 4681SOL    HW114942   5.355   5.707   6.143
 4681SOL    HW214943   5.437   5.597   6.232
 4682SOL     OW14944   4.446   4.481   5.638
 4682SOL    HW114945   4.422   4.462   5.543
 4682SOL    HW214946   4.540   4.449   5.655
 4683SOL     OW14947   4.356   4.980   2.675
 4683SOL    HW114948   4.260   4.951   2.672
 4683SOL    HW214949   4.403   4.933   2.749
 4684SOL     OW14950   6.311   1.136   5.066
 4684SOL    HW114951   6.297   1.065   4.996
 4684SOL    HW214952   6.255   1.216   5.043
 4685SOL     OW14953   0.505   6.169   5.572
 4685SOL    HW114954   0.507   6.118   5.658
 4685SOL    HW214955   0.579   6.236   5.572
 4686SOL     OW14956   4.034   5.224   6.972
 4686SOL    HW114957   3.979   5.194   6.894
 4686SOL    HW214958   3.975   5.272   0.020
 4687SOL     OW14959   6.266   3.888   4.961
 4687SOL    HW114960   6.363   3.912   4.956
 4687SOL    HW214961   6.210   3.971   4.953
 4688SOL     OW14962   6.031   4.237   4.739
 4688SOL    HW114963   6.087   4.314   4.767
 4688SOL    HW214964   5.939   4.269   4.716
 4689SOL     OW14965   5.590   1.077   0.224
 4689SOL    HW114966   5.646   0.999   0.197
 4689SOL    HW214967   5.649   1.154   0.249
 4690SOL     OW14968   1.035   6.894   6.961
 4690SOL    HW114969   0.976   6.889   0.025
 4690SOL    HW214970   1.124   6.853   6.982
 4691SOL     OW14971   2.605   5.317   1.753
 4691SOL    HW114972   2.538   5.391   1.752
 4691SOL    HW214973   2.603   5.271   1.841
 4692SOL     OW14974   5.628   5.545   1.878
 4692SOL    HW114975   5.608   5.550   1.976
 4692SOL    HW214976   5.594   5.459   1.841
 4693SOL     OW14977   0.890   1.628   3.373
 4693SOL    HW114978   0.933   1.686   3.304
 4693SOL    HW214979   0.883   1.678   3.459
 4694SOL     OW14980   1.720   0.582   6.870
 4694SOL    HW114981   1.636   0.537   6.900
 4694SOL    HW214982   1.799   0.530   6.902
 4695SOL     OW14983   1.329   3.449   1.797
 4695SOL    HW114984   1.284   3.361   1.807
 4695SOL    HW214985   1.371   3.455   1.707
 4696SOL     OW14986   0.289   4.343   0.051
 4696SOL    HW114987   0.295   4.245   0.031
 4696SOL    HW214988   0.277   4.394   6.983
 4697SOL     OW14989   1.517   2.900   0.524
 4697SOL    HW114990   1.547   2.840   0.598
 4697SOL    HW214991   1.514   2.994   0.556
 4698SOL     OW14992   4.643   5.104   2.620
 4698SOL    HW114993   4.553   5.071   2.594
 4698SOL    HW214994   4.636   5.161   2.703
 4699SOL     OW14995   2.041   6.757   2.248
 4699SOL    HW114996   1.986   6.817   2.190
 4699SOL    HW214997   1.996   6.747   2.337
 4700SOL     OW14998   6.872   1.410   3.069
 4700SOL    HW114999   6.912   1.353   3.140
 4700SOL    HW215000   6.872   1.506   3.099
 4701SOL     OW15001   2.721   2.130   6.966
 4701SOL    HW115002   2.675   2.058   7.017
 4701SOL    HW215003   2.812   2.145   7.004
 4702SOL     OW15004   4.110   5.361   0.299
 4702SOL    HW115005   4.151   5.364   0.390
 4702SOL    HW215006   4.161   5.297   0.242
 4703SOL     OW15007   0.810   1.303   1.516
 4703SOL    HW115008   0.760   1.337   1.436
 4703SOL    HW215009   0.883   1.367   1.539
 4704SOL     OW15010   0.521   6.118   0.324
 4704SOL    HW115011   0.477   6.086   0.240
 4704SOL    HW215012   0.516   6.047   0.394
 4705SOL     OW15013   3.569   3.330   2.160
 4705SOL    HW115014   3.601   3.409   2.213
 4705SOL    HW215015   3.474   3.310   2.183
 4706SOL     OW15016   3.319   0.354   0.082
 4706SOL    HW115017   3.235   0.342   0.133
 4706SOL    HW215018   3.337   0.272   0.028
 4707SOL     OW15019   1.979   6.569   1.245
 4707SOL    HW115020   2.032   6.593   1.163
 4707SOL    HW215021   2.029   6.501   1.298
 4708SOL     OW15022   1.067   1.438   6.536
 4708SOL    HW115023   1.043   1.531   6.563
 4708SOL    HW215024   1.149   1.409   6.585
 4709SOL     OW15025   4.867   5.732   5.254
 4709SOL    HW115026   4.786   5.760   5.306
 4709SOL    HW215027   4.914   5.814   5.219
 4710SOL     OW15028   4.446   0.781   5.478
 4710SOL    HW115029   4.496   0.828   5.406
 4710SOL    HW215030   4.401   0.848   5.537
 4711SOL     OW15031   6.122   1.577   1.443
 4711SOL    HW115032   6.222   1.572   1.446
 4711SOL    HW215033   6.089   1.531   1.360
 4712SOL     OW15034   2.799   4.508   0.190
 4712SOL    HW115035   2.898   4.503   0.177
 4712SOL    HW215036   2.753   4.438   0.136
 4713SOL     OW15037   3.712   4.506   0.526
 4713SOL    HW115038   3.674   4.479   0.438
 4713SOL    HW215039   3.775   4.436   0.559
 4714SOL     OW15040   0.748   2.085   6.642
 4714SOL    HW115041   0.760   2.170   6.693
 4714SOL    HW215042   0.833   2.063   6.593
 4715SOL     OW15043   5.501   2.501   2.444
 4715SOL    HW115044   5.418   2.553   2.466
 4715SOL    HW215045   5.566   2.561   2.397
 4716SOL     OW15046   4.545   5.963   6.638
 4716SOL    HW115047   4.457   6.000   6.608
 4716SOL    HW215048   4.594   5.925   6.560
 4717SOL     OW15049   0.027   0.382   4.040
 4717SOL    HW115050   7.003   0.387   4.131
 4717SOL    HW215051   7.000   0.447   3.979
 4718SOL     OW15052   5.324   3.046   1.604
 4718SOL    HW115053   5.225   3.057   1.609
 4718SOL    HW215054   5.358   3.014   1.693
 4719SOL     OW15055   4.828   3.307   1.685
 4719SOL    HW115056   4.814   3.348   1.595
 4719SOL    HW215057   4.840   3.208   1.675
 4720SOL     OW15058   1.910   5.551   5.887
 4720SOL    HW115059   1.947   5.610   5.959
 4720SOL    HW215060   1.908   5.600   5.800
 4721SOL     OW15061   6.418   2.330   2.267
 4721SOL    HW115062   6.480   2.378   2.206
 4721SOL    HW215063   6.457   2.328   2.359
 4722SOL     OW15064   0.796   5.741   6.289
 4722SOL    HW115065   0.790   5.834   6.253
 4722SOL    HW215066   0.706   5.698   6.284
 4723SOL     OW15067   2.437   3.673   5.998
 4723SOL    HW115068   2.407   3.764   5.968
 4723SOL    HW215069   2.358   3.612   6.005
 4724SOL     OW15070   6.247   6.304   2.349
 4724SOL    HW115071   6.284   6.397   2.341
 4724SOL    HW215072   6.147   6.309   2.345
 4725SOL     OW15073   6.218   5.231   2.034
 4725SOL    HW115074   6.262   5.206   2.120
 4725SOL    HW215075   6.189   5.326   2.037
 4726SOL     OW15076   1.834   2.417   5.791
 4726SOL    HW115077   1.747   2.368   5.782
 4726SOL    HW215078   1.819   2.504   5.836
 4727SOL     OW15079   1.696   5.811   1.182
 4727SOL    HW115080   1.784   5.778   1.215
 4727SOL    HW215081   1.623   5.754   1.219
 4728SOL     OW15082   6.394   1.249   1.949
 4728SOL    HW115083   6.397   1.319   2.020
 4728SOL    HW215084   6.483   1.204   1.943
 4729SOL     OW15085   3.098   1.635   0.520
 4729SOL    HW115086   3.104   1.691   0.602
 4729SOL    HW215087   3.075   1.541   0.544
 4730SOL     OW15088   3.347   6.325   5.328
 4730SOL    HW115089   3.341   6.230   5.296
 4730SOL    HW215090   3.334   6.387   5.251
 4731SOL     OW15091   4.346   0.365   6.972
 4731SOL    HW115092   4.345   0.267   6.951
 4731SOL    HW215093   4.271   0.410   6.923
 4732SOL     OW15094   1.182   3.682   5.707
 4732SOL    HW115095   1.279   3.658   5.700
 4732SOL    HW215096   1.170   3.750   5.780
 4733SOL     OW15097   1.268   4.087   3.699
 4733SOL    HW115098   1.352   4.141   3.691
 4733SOL    HW215099   1.291   3.990   3.705
 4734SOL     OW15100   4.221   2.671   6.898
 4734SOL    HW115101   4.317   2.699   6.888
 4734SOL    HW215102   4.196   2.672   6.995
 4735SOL     OW15103   6.463   5.644   4.134
 4735SOL    HW115104   6.562   5.629   4.134
 4735SOL    HW215105   6.422   5.592   4.059
 4736SOL     OW15106   6.971   1.400   5.747
 4736SOL    HW115107   6.973   1.300   5.746
 4736SOL    HW215108   7.001   1.433   5.837
 4737SOL     OW15109   2.535   4.567   2.061
 4737SOL    HW115110   2.631   4.554   2.037
 4737SOL    HW215111   2.520   4.662   2.091
 4738SOL     OW15112   0.328   6.237   2.847
 4738SOL    HW115113   0.336   6.287   2.762
 4738SOL    HW215114   0.284   6.149   2.830
 4739SOL     OW15115   3.835   0.666   3.391
 4739SOL    HW115116   3.841   0.687   3.293
 4739SOL    HW215117   3.893   0.729   3.442
 4740SOL     OW15118   1.055   1.346   1.271
 4740SOL    HW115119   1.040   1.351   1.172
 4740SOL    HW215120   1.138   1.294   1.289
 4741SOL     OW15121   3.993   3.397   1.132
 4741SOL    HW115122   4.082   3.414   1.176
 4741SOL    HW215123   3.921   3.402   1.200
 4742SOL     OW15124   3.334   6.793   6.466
 4742SOL    HW115125   3.394   6.714   6.459
 4742SOL    HW215126   3.259   6.784   6.399
 4743SOL     OW15127   1.481   3.109   3.564
 4743SOL    HW115128   1.530   3.083   3.647
 4743SOL    HW215129   1.543   3.104   3.486
 4744SOL     OW15130   1.873   4.252   0.720
 4744SOL    HW115131   1.834   4.302   0.642
 4744SOL    HW215132   1.831   4.162   0.726
 4745SOL     OW15133   2.956   4.515   6.115
 4745SOL    HW115134   3.031   4.508   6.181
 4745SOL    HW215135   2.992   4.498   6.023
 4746SOL     OW15136   5.260   5.618   2.310
 4746SOL    HW115137   5.217   5.604   2.221
 4746SOL    HW215138   5.248   5.535   2.366
 4747SOL     OW15139   1.922   3.624   0.242
 4747SOL    HW115140   1.971   3.636   0.328
 4747SOL    HW215141   1.983   3.582   0.175
 4748SOL     OW15142   2.038   5.304   0.894
 4748SOL    HW115143   2.005   5.313   0.800
 4748SOL    HW215144   1.969   5.338   0.957
 4749SOL     OW15145   1.967   6.475   5.946
 4749SOL    HW115146   2.061   6.488   5.980
 4749SOL    HW215147   1.938   6.381   5.965
 4750SOL     OW15148   0.856   3.980   4.186
 4750SOL    HW115149   0.897   4.035   4.259
 4750SOL    HW215150   0.893   3.887   4.190
 4751SOL     OW15151   4.032   1.765   2.001
 4751SOL    HW115152   4.085   1.749   2.084
 4751SOL    HW215153   3.937   1.739   2.017
 4752SOL     OW15154   4.554   1.412   6.626
 4752SOL    HW115155   4.587   1.331   6.579
 4752SOL    HW215156   4.600   1.493   6.590
 4753SOL     OW15157   5.639   0.225   3.941
 4753SOL    HW115158   5.611   0.260   3.852
 4753SOL    HW215159   5.601   0.134   3.955
 4754SOL     OW15160   5.949   6.314   4.566
 4754SOL    HW115161   5.890   6.327   4.486
 4754SOL    HW215162   5.961   6.216   4.583
 4755SOL     OW15163   3.126   0.423   0.632
 4755SOL    HW115164   3.176   0.421   0.546
 4755SOL    HW215165   3.064   0.502   0.632
 4756SOL     OW15166   5.472   2.577   0.244
 4756SOL    HW115167   5.527   2.633   0.305
 4756SOL    HW215168   5.408   2.522   0.299
 4757SOL     OW15169   2.864   1.636   0.870
 4757SOL    HW115170   2.824   1.692   0.798
 4757SOL    HW215171   2.843   1.540   0.853
 4758SOL     OW15172   1.751   6.461   3.653
 4758SOL    HW115173   1.706   6.382   3.611
 4758SOL    HW215174   1.786   6.436   3.743
 4759SOL     OW15175   6.398   4.343   5.241
 4759SOL    HW115176   6.317   4.373   5.191
 4759SOL    HW215177   6.464   4.304   5.177
 4760SOL     OW15178   2.305   1.906   1.003
 4760SOL    HW115179   2.249   1.957   0.938
 4760SOL    HW215180   2.249   1.877   1.080
 4761SOL     OW15181   0.813   5.623   0.285
 4761SOL    HW115182   0.744   5.653   0.352
 4761SOL    HW215183   0.888   5.689   0.283
 4762SOL     OW15184   1.325   5.887   2.643
 4762SOL    HW115185   1.389   5.914   2.715
 4762SOL    HW215186   1.234   5.924   2.664
 4763SOL     OW15187   5.958   6.818   3.129
 4763SOL    HW115188   5.964   6.718   3.134
 4763SOL    HW215189   5.919   6.853   3.214
 4764SOL     OW15190   4.857   3.847   4.538
 4764SOL    HW115191   4.870   3.774   4.605
 4764SOL    HW215192   4.835   3.932   4.585
 4765SOL     OW15193   4.806   1.375   4.446
 4765SOL    HW115194   4.892   1.377   4.498
 4765SOL    HW215195   4.819   1.422   4.359
 4766SOL     OW15196   5.418   5.979   4.244
 4766SOL    HW115197   5.338   5.923   4.223
 4766SOL    HW215198   5.486   5.969   4.171
 4767SOL     OW15199   3.232   5.388   5.071
 4767SOL    HW115200   3.305   5.328   5.038
 4767SOL    HW215201   3.273   5.469   5.114
 4768SOL     OW15202   4.490   2.341   6.098
 4768SOL    HW115203   4.419   2.404   6.131
 4768SOL    HW215204   4.490   2.342   5.998
 4769SOL     OW15205   4.570   4.805   6.945
 4769SOL    HW115206   4.506   4.728   6.942
 4769SOL    HW215207   4.609   4.813   0.019
 4770SOL     OW15208   0.589   1.359   4.163
 4770SOL    HW115209   0.591   1.261   4.180
 4770SOL    HW215210   0.559   1.376   4.069
 4771SOL     OW15211   2.824   5.766   5.326
 4771SOL    HW115212   2.906   5.714   5.303
 4771SOL    HW215213   2.849   5.856   5.359
 4772SOL     OW15214   4.169   5.004   1.152
 4772SOL    HW115215   4.222   5.082   1.117
 4772SOL    HW215216   4.231   4.939   1.197
 4773SOL     OW15217   6.726   5.159   3.828
 4773SOL    HW115218   6.729   5.164   3.728
 4773SOL    HW215219   6.820   5.155   3.863
 4774SOL     OW15220   1.518   3.173   1.457
 4774SOL    HW115221   1.530   3.265   1.494
 4774SOL    HW215222   1.607   3.128   1.451
 4775SOL     OW15223   5.319   6.514   2.814
 4775SOL    HW115224   5.339   6.487   2.720
 4775SOL    HW215225   5.221   6.518   2.828
 4776SOL     OW15226   1.226   6.218   5.702
 4776SOL    HW115227   1.271   6.168   5.777
 4776SOL    HW215228   1.206   6.155   5.627
 4777SOL     OW15229   2.088   5.041   1.084
 4777SOL    HW115230   2.185   5.054   1.063
 4777SOL    HW215231   2.038   5.024   1.000
 4778SOL     OW15232   6.577   2.654   4.147
 4778SOL    HW115233   6.538   2.677   4.058
 4778SOL    HW215234   6.514   2.682   4.219
 4779SOL     OW15235   6.101   5.478   2.606
 4779SOL    HW115236   6.004   5.498   2.613
 4779SOL    HW215237   6.126   5.469   2.509
 4780SOL     OW15238   5.831   1.398   0.035
 4780SOL    HW115239   5.835   1.335   6.974
 4780SOL    HW215240   5.852   1.349   0.119
 4781SOL     OW15241   2.400   6.121   2.504
 4781SOL    HW115242   2.482   6.155   2.457
 4781SOL    HW215243   2.341   6.198   2.526
 4782SOL     OW15244   6.170   5.559   0.287
 4782SOL    HW115245   6.100   5.607   0.340
 4782SOL    HW215246   6.152   5.572   0.189
 4783SOL     OW15247   4.869   4.176   0.294
 4783SOL    HW115248   4.770   4.171   0.309
 4783SOL    HW215249   4.893   4.124   0.212
 4784SOL     OW15250   5.973   3.533   6.807
 4784SOL    HW115251   5.895   3.487   6.765
 4784SOL    HW215252   6.057   3.485   6.784
 4785SOL     OW15253   1.546   6.600   2.898
 4785SOL    HW115254   1.613   6.670   2.873
 4785SOL    HW215255   1.460   6.644   2.922
 4786SOL     OW15256   2.597   0.845   0.328
 4786SOL    HW115257   2.507   0.811   0.301
 4786SOL    HW215258   2.668   0.797   0.275
 4787SOL     OW15259   4.034   1.909   2.769
 4787SOL    HW115260   4.040   1.861   2.681
 4787SOL    HW215261   3.995   2.000   2.754
 4788SOL     OW15262   6.759   6.253   6.305
 4788SOL    HW115263   6.761   6.339   6.253
 4788SOL    HW215264   6.841   6.199   6.283
 4789SOL     OW15265   4.460   2.248   1.490
 4789SOL    HW115266   4.440   2.181   1.418
 4789SOL    HW215267   4.556   2.239   1.517
 4790SOL     OW15268   6.460   1.942   5.384
 4790SOL    HW115269   6.418   1.913   5.470
 4790SOL    HW215270   6.394   1.929   5.309
 4791SOL     OW15271   0.041   2.952   1.281
 4791SOL    HW115272   6.962   2.928   1.296
 4791SOL    HW215273   0.054   3.048   1.304
 4792SOL     OW15274   2.502   4.602   3.314
 4792SOL    HW115275   2.409   4.569   3.329
 4792SOL    HW215276   2.515   4.621   3.216
 4793SOL     OW15277   2.146   2.573   5.032
 4793SOL    HW115278   2.108   2.493   4.986
 4793SOL    HW215279   2.078   2.612   5.094
 4794SOL     OW15280   4.907   0.405   4.551
 4794SOL    HW115281   4.956   0.492   4.560
 4794SOL    HW215282   4.810   0.420   4.567
 4795SOL     OW15283   6.147   2.122   4.230
 4795SOL    HW115284   6.172   2.086   4.319
 4795SOL    HW215285   6.161   2.221   4.229
 4796SOL     OW15286   4.749   1.794   4.677
 4796SOL    HW115287   4.839   1.784   4.634
 4796SOL    HW215288   4.712   1.704   4.701
 4797SOL     OW15289   0.639   6.413   5.296
 4797SOL    HW115290   0.625   6.399   5.198
 4797SOL    HW215291   0.710   6.351   5.328
 4798SOL     OW15292   0.304   3.982   5.656
 4798SOL    HW115293   0.381   4.004   5.596
 4798SOL    HW215294   0.221   4.025   5.620
 4799SOL     OW15295   4.695   1.621   0.682
 4799SOL    HW115296   4.641   1.548   0.724
 4799SOL    HW215297   4.652   1.650   0.596
 4800SOL     OW15298   2.856   2.540   6.462
 4800SOL    HW115299   2.788   2.569   6.529
 4800SOL    HW215300   2.884   2.619   6.407
 4801SOL     OW15301   3.262   2.188   6.719
 4801SOL    HW115302   3.182   2.244   6.701
 4801SOL    HW215303   3.343   2.247   6.722
 4802SOL     OW15304   1.070   6.600   1.766
 4802SOL    HW115305   1.058   6.516   1.818
 4802SOL    HW215306   1.086   6.677   1.828
 4803SOL     OW15307   0.120   4.994   0.483
 4803SOL    HW115308   0.122   5.018   0.580
 4803SOL    HW215309   0.120   5.077   0.428
 4804SOL     OW15310   6.585   6.291   1.545
 4804SOL    HW115311   6.567   6.280   1.643
 4804SOL    HW215312   6.534   6.222   1.494
 4805SOL     OW15313   6.508   1.971   2.567
 4805SOL    HW115314   6.537   1.950   2.474
 4805SOL    HW215315   6.570   1.927   2.632
 4806SOL     OW15316   0.720   4.256   2.896
 4806SOL    HW115317   0.725   4.353   2.921
 4806SOL    HW215318   0.789   4.236   2.826
 4807SOL     OW15319   0.874   5.069   0.165
 4807SOL    HW115320   0.848   5.098   0.257
 4807SOL    HW215321   0.974   5.063   0.159
 4808SOL     OW15322   4.790   5.037   0.453
 4808SOL    HW115323   4.862   4.997   0.510
 4808SOL    HW215324   4.799   5.003   0.360
 4809SOL     OW15325   3.394   4.744   0.105
 4809SOL    HW115326   3.303   4.774   0.134
 4809SOL    HW215327   3.462   4.777   0.170
 4810SOL     OW15328   1.804   4.661   2.636
 4810SOL    HW115329   1.839   4.662   2.542
 4810SOL    HW215330   1.705   4.647   2.634
 4811SOL     OW15331   2.516   4.222   1.644
 4811SOL    HW115332   2.606   4.180   1.656
 4811SOL    HW215333   2.446   4.151   1.636
 4812SOL     OW15334   0.206   5.546   2.076
 4812SOL    HW115335   0.291   5.520   2.123
 4812SOL    HW215336   0.150   5.601   2.137
 4813SOL     OW15337   6.244   2.033   6.680
 4813SOL    HW115338   6.208   2.037   6.586
 4813SOL    HW215339   6.249   1.937   6.709
 4814SOL     OW15340   0.087   3.232   1.307
 4814SOL    HW115341   0.099   3.188   1.396
 4814SOL    HW215342   0.099   3.331   1.317
 4815SOL     OW15343   5.367   3.842   2.453
 4815SOL    HW115344   5.437   3.774   2.432
 4815SOL    HW215345   5.405   3.934   2.446
 4816SOL     OW15346   2.282   4.848   1.282
 4816SOL    HW115347   2.243   4.870   1.371
 4816SOL    HW215348   2.304   4.750   1.279
 4817SOL     OW15349   1.639   1.568   6.456
 4817SOL    HW115350   1.561   1.581   6.395
 4817SOL    HW215351   1.719   1.540   6.402
 4818SOL     OW15352   0.904   6.659   4.424
 4818SOL    HW115353   0.998   6.671   4.392
 4818SOL    HW215354   0.866   6.575   4.385
 4819SOL     OW15355   1.625   1.561   0.429
 4819SOL    HW115356   1.677   1.623   0.487
 4819SOL    HW215357   1.626   1.469   0.469
 4820SOL     OW15358   6.349   2.713   2.667
 4820SOL    HW115359   6.356   2.801   2.621
 4820SOL    HW215360   6.309   2.725   2.758
 4821SOL     OW15361   0.657   6.516   2.363
 4821SOL    HW115362   0.720   6.593   2.367
 4821SOL    HW215363   0.698   6.443   2.307
 4822SOL     OW15364   2.095   3.519   4.590
 4822SOL    HW115365   2.155   3.458   4.642
 4822SOL    HW215366   2.000   3.489   4.600
 4823SOL     OW15367   1.917   0.550   4.312
 4823SOL    HW115368   1.855   0.483   4.272
 4823SOL    HW215369   1.951   0.611   4.241
 4824SOL     OW15370   5.250   2.142   4.473
 4824SOL    HW115371   5.250   2.108   4.567
 4824SOL    HW215372   5.343   2.135   4.436
 4825SOL     OW15373   1.448   2.432   3.922
 4825SOL    HW115374   1.536   2.385   3.911
 4825SOL    HW215375   1.379   2.385   3.867
 4826SOL     OW15376   6.334   1.482   6.415
 4826SOL    HW115377   6.278   1.440   6.344
 4826SOL    HW215378   6.274   1.530   6.480
 4827SOL     OW15379   6.353   1.508   0.987
 4827SOL    HW115380   6.397   1.575   1.046
 4827SOL    HW215381   6.254   1.517   0.994
 4828SOL     OW15382   5.319   2.847   0.426
 4828SOL    HW115383   5.388   2.916   0.446
 4828SOL    HW215384   5.307   2.788   0.506
 4829SOL     OW15385   4.222   6.992   6.697
 4829SOL    HW115386   4.281   0.032   6.640
 4829SOL    HW215387   4.128   7.000   6.667
 4830SOL     OW15388   4.397   6.891   3.695
 4830SOL    HW115389   4.394   6.847   3.605
 4830SOL    HW215390   4.350   6.832   3.761
 4831SOL     OW15391   0.057   4.521   6.307
 4831SOL    HW115392   0.005   4.553   6.386
 4831SOL    HW215393   0.084   4.599   6.251
 4832SOL     OW15394   3.657   3.243   4.536
 4832SOL    HW115395   3.596   3.165   4.521
 4832SOL    HW215396   3.614   3.306   4.601
 4833SOL     OW15397   4.710   2.220   3.258
 4833SOL    HW115398   4.710   2.182   3.165
 4833SOL    HW215399   4.668   2.155   3.320
 4834SOL     OW15400   3.636   6.323   1.009
 4834SOL    HW115401   3.708   6.384   0.976
 4834SOL    HW215402   3.674   6.259   1.076
 4835SOL     OW15403   6.116   1.594   6.579
 4835SOL    HW115404   6.162   1.559   6.661
 4835SOL    HW215405   6.021   1.616   6.601
 4836SOL     OW15406   5.479   3.065   4.452
 4836SOL    HW115407   5.458   3.017   4.537
 4836SOL    HW215408   5.453   3.162   4.461
 4837SOL     OW15409   6.150   3.781   2.794
 4837SOL    HW115410   6.203   3.758   2.712
 4837SOL    HW215411   6.212   3.788   2.872
 4838SOL     OW15412   1.167   5.267   6.967
 4838SOL    HW115413   1.109   5.328   6.914
 4838SOL    HW215414   1.131   5.174   6.964
 4839SOL     OW15415   2.103   3.718   6.840
 4839SOL    HW115416   2.190   3.673   6.860
 4839SOL    HW215417   2.087   3.717   6.741
 4840SOL     OW15418   6.881   4.772   6.060
 4840SOL    HW115419   6.979   4.768   6.040
 4840SOL    HW215420   6.830   4.745   5.979
 4841SOL     OW15421   2.718   5.526   1.956
 4841SOL    HW115422   2.677   5.481   2.036
 4841SOL    HW215423   2.727   5.459   1.882
 4842SOL     OW15424   3.558   5.205   2.976
 4842SOL    HW115425   3.519   5.120   3.012
 4842SOL    HW215426   3.650   5.218   3.014
 4843SOL     OW15427   7.008   3.338   1.040
 4843SOL    HW115428   6.912   3.367   1.035
 4843SOL    HW215429   0.008   3.297   1.129
 4844SOL     OW15430   1.207   3.142   6.248
 4844SOL    HW115431   1.298   3.185   6.244
 4844SOL    HW215432   1.184   3.105   6.158
 4845SOL     OW15433   5.120   5.568   6.058
 4845SOL    HW115434   5.215   5.566   6.089
 4845SOL    HW215435   5.096   5.478   6.021
 4846SOL     OW15436   0.053   2.796   4.153
 4846SOL    HW115437   0.134   2.743   4.179
 4846SOL    HW215438   6.988   2.752   4.190
 4847SOL     OW15439   2.742   0.878   6.345
 4847SOL    HW115440   2.782   0.819   6.275
 4847SOL    HW215441   2.814   0.935   6.385
 4848SOL     OW15442   1.408   0.847   4.016
 4848SOL    HW115443   1.480   0.834   3.948
 4848SOL    HW215444   1.371   0.940   4.008
 4849SOL     OW15445   1.351   5.783   0.059
 4849SOL    HW115446   1.386   5.870   0.093
 4849SOL    HW215447   1.255   5.793   0.033
 4850SOL     OW15448   3.843   1.344   2.109
 4850SOL    HW115449   3.858   1.326   2.012
 4850SOL    HW215450   3.912   1.410   2.142
 4851SOL     OW15451   4.210   0.327   5.665
 4851SOL    HW115452   4.290   0.327   5.725
 4851SOL    HW215453   4.183   0.233   5.645
 4852SOL     OW15454   1.483   5.877   4.989
 4852SOL    HW115455   1.484   5.977   4.990
 4852SOL    HW215456   1.485   5.844   4.895
 4853SOL     OW15457   3.368   1.112   3.133
 4853SOL    HW115458   3.326   1.082   3.047
 4853SOL    HW215459   3.309   1.180   3.177
 4854SOL     OW15460   4.407   6.737   1.218
 4854SOL    HW115461   4.379   6.736   1.122
 4854SOL    HW215462   4.444   6.827   1.242
 4855SOL     OW15463   6.300   2.722   3.609
 4855SOL    HW115464   6.213   2.673   3.610
 4855SOL    HW215465   6.330   2.735   3.514
 4856SOL     OW15466   1.118   3.414   2.893
 4856SOL    HW115467   1.090   3.411   2.797
 4856SOL    HW215468   1.050   3.366   2.949
 4857SOL     OW15469   2.830   1.717   4.863
 4857SOL    HW115470   2.790   1.628   4.882
 4857SOL    HW215471   2.793   1.785   4.926
 4858SOL     OW15472   1.124   0.413   4.309
 4858SOL    HW115473   1.077   0.443   4.226
 4858SOL    HW215474   1.185   0.486   4.341
 4859SOL     OW15475   1.030   6.946   4.428
 4859SOL    HW115476   1.081   0.013   4.413
 4859SOL    HW215477   0.946   6.947   4.373
 4860SOL     OW15478   4.342   4.398   1.694
 4860SOL    HW115479   4.378   4.326   1.753
 4860SOL    HW215480   4.354   4.372   1.598
 4861SOL     OW15481   6.118   5.391   6.872
 4861SOL    HW115482   6.077   5.367   6.784
 4861SOL    HW215483   6.109   5.314   6.935
 4862SOL     OW15484   2.409   4.553   4.995
 4862SOL    HW115485   2.391   4.458   4.969
 4862SOL    HW215486   2.455   4.555   5.083
 4863SOL     OW15487   5.332   3.780   1.011
 4863SOL    HW115488   5.381   3.814   0.931
 4863SOL    HW215489   5.335   3.680   1.011
 4864SOL     OW15490   3.935   1.060   2.677
 4864SOL    HW115491   3.873   1.113   2.735
 4864SOL    HW215492   3.981   0.990   2.733
 4865SOL     OW15493   2.060   6.575   4.007
 4865SOL    HW115494   2.106   6.644   3.951
 4865SOL    HW215495   2.123   6.499   4.024
 4866SOL     OW15496   6.239   3.928   1.786
 4866SOL    HW115497   6.262   3.831   1.795
 4866SOL    HW215498   6.215   3.965   1.877
 4867SOL     OW15499   3.951   5.301   1.909
 4867SOL    HW115500   4.050   5.312   1.917
 4867SOL    HW215501   3.931   5.228   1.843
 4868SOL     OW15502   6.635   4.964   2.939
 4868SOL    HW115503   6.593   4.958   2.849
 4868SOL    HW215504   6.615   5.053   2.980
 4869SOL     OW15505   1.006   0.907   1.515
 4869SOL    HW115506   1.051   0.971   1.453
 4869SOL    HW215507   1.011   0.814   1.476
 4870SOL     OW15508   0.289   6.241   2.156
 4870SOL    HW115509   0.245   6.226   2.068
 4870SOL    HW215510   0.339   6.158   2.183
 4871SOL     OW15511   0.919   0.849   4.617
 4871SOL    HW115512   1.000   0.809   4.573
 4871SOL    HW215513   0.930   0.847   4.716
 4872SOL     OW15514   6.548   6.376   3.877
 4872SOL    HW115515   6.519   6.471   3.884
 4872SOL    HW215516   6.624   6.369   3.811
 4873SOL     OW15517   6.541   4.732   3.730
 4873SOL    HW115518   6.545   4.793   3.809
 4873SOL    HW215519   6.547   4.786   3.646
 4874SOL     OW15520   6.219   3.080   3.102
 4874SOL    HW115521   6.275   3.163   3.097
 4874SOL    HW215522   6.252   3.022   3.177
 4875SOL     OW15523   5.537   2.517   1.284
 4875SOL    HW115524   5.449   2.553   1.315
 4875SOL    HW215525   5.611   2.577   1.314
 4876SOL     OW15526   5.845   1.697   4.136
 4876SOL    HW115527   5.755   1.655   4.127
 4876SOL    HW215528   5.893   1.657   4.214
 4877SOL     OW15529   1.197   2.146   6.553
 4877SOL    HW115530   1.236   2.106   6.635
 4877SOL    HW215531   1.164   2.238   6.573
 4878SOL     OW15532   6.367   0.497   2.876
 4878SOL    HW115533   6.325   0.586   2.861
 4878SOL    HW215534   6.361   0.443   2.792
 4879SOL     OW15535   4.386   5.852   3.081
 4879SOL    HW115536   4.464   5.843   3.142
 4879SOL    HW215537   4.407   5.812   2.992
 4880SOL     OW15538   5.590   3.583   0.231
 4880SOL    HW115539   5.612   3.650   0.301
 4880SOL    HW215540   5.607   3.491   0.266
 4881SOL     OW15541   1.709   0.905   6.171
 4881SOL    HW115542   1.776   0.907   6.246
 4881SOL    HW215543   1.645   0.830   6.185
 4882SOL     OW15544   5.323   1.334   4.828
 4882SOL    HW115545   5.238   1.284   4.812
 4882SOL    HW215546   5.345   1.333   4.925
 4883SOL     OW15547   5.606   4.326   1.738
 4883SOL    HW115548   5.595   4.277   1.651
 4883SOL    HW215549   5.637   4.419   1.720
 4884SOL     OW15550   3.165   0.044   1.480
 4884SOL    HW115551   3.233   0.108   1.516
 4884SOL    HW215552   3.141   0.070   1.386
 4885SOL     OW15553   1.497   5.143   2.484
 4885SOL    HW115554   1.536   5.232   2.508
 4885SOL    HW215555   1.550   5.071   2.529
 4886SOL     OW15556   0.744   5.339   0.785
 4886SOL    HW115557   0.810   5.359   0.713
 4886SOL    HW215558   0.735   5.419   0.844
 4887SOL     OW15559   0.856   0.492   2.621
 4887SOL    HW115560   0.875   0.515   2.526
 4887SOL    HW215561   0.769   0.534   2.649
 4888SOL     OW15562   2.278   6.706   4.468
 4888SOL    HW115563   2.213   6.775   4.437
 4888SOL    HW215564   2.248   6.616   4.436
 4889SOL     OW15565   6.316   1.113   6.186
 4889SOL    HW115566   6.333   1.035   6.126
 4889SOL    HW215567   6.256   1.086   6.261
 4890SOL     OW15568   1.148   2.192   6.894
 4890SOL    HW115569   1.075   2.258   6.875
 4890SOL    HW215570   1.112   2.118   6.952
 4891SOL     OW15571   1.798   5.067   6.752
 4891SOL    HW115572   1.864   5.047   6.824
 4891SOL    HW215573   1.705   5.057   6.788
 4892SOL     OW15574   3.481   6.359   1.992
 4892SOL    HW115575   3.401   6.329   1.942
 4892SOL    HW215576   3.532   6.280   2.025
 4893SOL     OW15577   6.749   3.947   1.499
 4893SOL    HW115578   6.765   3.986   1.409
 4893SOL    HW215579   6.681   4.002   1.548
 4894SOL     OW15580   2.186   1.536   2.988
 4894SOL    HW115581   2.190   1.621   3.041
 4894SOL    HW215582   2.218   1.460   3.046
 4895SOL     OW15583   0.648   5.048   3.372
 4895SOL    HW115584   0.650   4.961   3.323
 4895SOL    HW215585   0.716   5.110   3.332
 4896SOL     OW15586   1.984   5.897   2.463
 4896SOL    HW115587   1.965   5.891   2.365
 4896SOL    HW215588   2.083   5.891   2.478
 4897SOL     OW15589   3.275   4.148   6.416
 4897SOL    HW115590   3.201   4.195   6.465
 4897SOL    HW215591   3.335   4.104   6.482
 4898SOL     OW15592   3.290   0.888   4.323
 4898SOL    HW115593   3.360   0.834   4.369
 4898SOL    HW215594   3.327   0.926   4.238
 4899SOL     OW15595   6.093   4.982   3.118
 4899SOL    HW115596   6.001   4.965   3.151
 4899SOL    HW215597   6.145   5.034   3.186
 4900SOL     OW15598   1.986   5.753   4.498
 4900SOL    HW115599   1.971   5.779   4.594
 4900SOL    HW215600   2.084   5.745   4.481
 4901SOL     OW15601   3.318   6.630   5.960
 4901SOL    HW115602   3.301   6.544   5.912
 4901SOL    HW215603   3.280   6.623   6.053
 4902SOL     OW15604   2.739   1.993   4.277
 4902SOL    HW115605   2.684   2.041   4.209
 4902SOL    HW215606   2.722   2.033   4.367
 4903SOL     OW15607   3.481   6.410   6.690
 4903SOL    HW115608   3.392   6.365   6.695
 4903SOL    HW215609   3.548   6.357   6.741
 4904SOL     OW15610   1.814   0.136   4.132
 4904SOL    HW115611   1.745   0.068   4.155
 4904SOL    HW215612   1.881   0.096   4.071
 4905SOL     OW15613   3.990   0.342   2.333
 4905SOL    HW115614   3.903   0.383   2.359
 4905SOL    HW215615   4.061   0.370   2.397
 4906SOL     OW15616   4.902   1.781   5.516
 4906SOL    HW115617   4.864   1.870   5.539
 4906SOL    HW215618   4.938   1.784   5.422
 4907SOL     OW15619   4.384   6.376   1.082
 4907SOL    HW115620   4.327   6.456   1.063
 4907SOL    HW215621   4.326   6.298   1.104
 4908SOL     OW15622   5.071   4.857   6.720
 4908SOL    HW115623   4.979   4.889   6.698
 4908SOL    HW215624   5.072   4.757   6.723
 4909SOL     OW15625   6.525   0.344   4.381
 4909SOL    HW115626   6.440   0.292   4.394
 4909SOL    HW215627   6.575   0.347   4.468
 4910SOL     OW15628   5.208   6.853   4.727
 4910SOL    HW115629   5.135   6.921   4.728
 4910SOL    HW215630   5.173   6.765   4.758
 4911SOL     OW15631   1.080   3.479   4.210
 4911SOL    HW115632   1.114   3.431   4.291
 4911SOL    HW215633   1.021   3.419   4.157
 4912SOL     OW15634   5.497   1.122   6.613
 4912SOL    HW115635   5.408   1.119   6.567
 4912SOL    HW215636   5.545   1.036   6.598
 4913SOL     OW15637   4.187   3.294   5.194
 4913SOL    HW115638   4.153   3.284   5.287
 4913SOL    HW215639   4.282   3.263   5.189
 4914SOL     OW15640   3.505   6.943   5.083
 4914SOL    HW115641   3.459   0.002   5.039
 4914SOL    HW215642   3.465   6.926   5.173
 4915SOL     OW15643   4.369   0.471   4.504
 4915SOL    HW115644   4.355   0.407   4.580
 4915SOL    HW215645   4.290   0.533   4.498
 4916SOL     OW15646   1.483   0.582   4.032
 4916SOL    HW115647   1.582   0.570   4.026
 4916SOL    HW215648   1.458   0.673   3.999
 4917SOL     OW15649   2.112   4.947   1.515
 4917SOL    HW115650   2.039   4.958   1.582
 4917SOL    HW215651   2.198   4.978   1.554
 4918SOL     OW15652   4.294   5.899   2.191
 4918SOL    HW115653   4.351   5.817   2.182
 4918SOL    HW215654   4.221   5.895   2.123
 4919SOL     OW15655   2.960   2.372   6.881
 4919SOL    HW115656   2.954   2.345   6.977
 4919SOL    HW215657   2.886   2.328   6.830
 4920SOL     OW15658   5.808   0.625   5.023
 4920SOL    HW115659   5.715   0.589   5.017
 4920SOL    HW215660   5.873   0.554   4.993
 4921SOL     OW15661   1.505   4.518   0.498
 4921SOL    HW115662   1.417   4.523   0.450
 4921SOL    HW215663   1.538   4.611   0.516
 4922SOL     OW15664   1.926   2.463   4.621
 4922SOL    HW115665   1.854   2.474   4.553
 4922SOL    HW215666   2.013   2.445   4.576
 4923SOL     OW15667   3.990   1.835   1.574
 4923SOL    HW115668   4.082   1.813   1.609
 4923SOL    HW215669   3.973   1.784   1.490
 4924SOL     OW15670   2.761   1.858   5.500
 4924SOL    HW115671   2.725   1.938   5.452
 4924SOL    HW215672   2.813   1.887   5.580
 4925SOL     OW15673   5.948   6.325   1.921
 4925SOL    HW115674   5.895   6.401   1.884
 4925SOL    HW215675   6.032   6.314   1.867
 4926SOL     OW15676   5.577   1.550   0.181
 4926SOL    HW115677   5.606   1.467   0.229
 4926SOL    HW215678   5.655   1.612   0.172
 4927SOL     OW15679   4.122   3.632   4.217
 4927SOL    HW115680   4.207   3.680   4.239
 4927SOL    HW215681   4.050   3.698   4.196
 4928SOL     OW15682   1.384   0.209   6.657
 4928SOL    HW115683   1.324   0.240   6.732
 4928SOL    HW215684   1.443   0.135   6.690
 4929SOL     OW15685   0.695   5.137   4.673
 4929SOL    HW115686   0.686   5.038   4.680
 4929SOL    HW215687   0.637   5.181   4.742
 4930SOL     OW15688   4.676   0.896   3.393
 4930SOL    HW115689   4.612   0.869   3.322
 4930SOL    HW215690   4.637   0.874   3.483
 4931SOL     OW15691   6.696   0.100   0.530
 4931SOL    HW115692   6.633   0.032   0.493
 4931SOL    HW215693   6.649   0.187   0.539
 4932SOL     OW15694   2.499   3.339   1.696
 4932SOL    HW115695   2.430   3.385   1.751
 4932SOL    HW215696   2.509   3.387   1.608
 4933SOL     OW15697   2.097   6.961   3.145
 4933SOL    HW115698   2.167   6.889   3.136
 4933SOL    HW215699   2.141   0.033   3.148
 4934SOL     OW15700   2.451   5.799   3.025
 4934SOL    HW115701   2.425   5.891   2.993
 4934SOL    HW215702   2.512   5.807   3.104
 4935SOL     OW15703   1.399   1.228   6.040
 4935SOL    HW115704   1.334   1.267   6.104
 4935SOL    HW215705   1.415   1.293   5.965
 4936SOL     OW15706   2.202   4.841   2.102
 4936SOL    HW115707   2.295   4.829   2.135
 4936SOL    HW215708   2.200   4.914   2.033
 4937SOL     OW15709   6.848   2.743   6.669
 4937SOL    HW115710   6.905   2.820   6.696
 4937SOL    HW215711   6.874   2.713   6.577
 4938SOL     OW15712   2.228   6.213   5.800
 4938SOL    HW115713   2.212   6.307   5.829
 4938SOL    HW215714   2.326   6.195   5.797
 4939SOL     OW15715   6.387   1.919   4.103
 4939SOL    HW115716   6.336   2.003   4.085
 4939SOL    HW215717   6.449   1.901   4.026
 4940SOL     OW15718   0.420   0.982   4.831
 4940SOL    HW115719   0.516   1.011   4.833
 4940SOL    HW215720   0.415   0.882   4.832
 4941SOL     OW15721   4.871   2.394   4.976
 4941SOL    HW115722   4.952   2.345   4.945
 4941SOL    HW215723   4.822   2.432   4.897
 4942SOL     OW15724   5.483   3.284   6.387
 4942SOL    HW115725   5.522   3.258   6.299
 4942SOL    HW215726   5.441   3.203   6.429
 4943SOL     OW15727   4.115   3.673   5.946
 4943SOL    HW115728   4.192   3.611   5.961
 4943SOL    HW215729   4.118   3.707   5.852
 4944SOL     OW15730   2.454   4.498   1.612
 4944SOL    HW115731   2.476   4.400   1.619
 4944SOL    HW215732   2.535   4.552   1.633
 4945SOL     OW15733   1.469   0.318   4.769
 4945SOL    HW115734   1.498   0.249   4.703
 4945SOL    HW215735   1.370   0.328   4.766
 4946SOL     OW15736   1.476   5.270   0.169
 4946SOL    HW115737   1.543   5.200   0.190
 4946SOL    HW215738   1.522   5.350   0.131
 4947SOL     OW15739   2.399   0.251   0.575
 4947SOL    HW115740   2.395   0.244   0.476
 4947SOL    HW215741   2.322   0.305   0.609
 4948SOL     OW15742   1.270   2.882   2.393
 4948SOL    HW115743   1.295   2.795   2.436
 4948SOL    HW215744   1.175   2.877   2.363
 4949SOL     OW15745   5.879   5.334   5.779
 4949SOL    HW115746   5.936   5.253   5.764
 4949SOL    HW215747   5.814   5.316   5.852
 4950SOL     OW15748   1.996   5.280   4.447
 4950SOL    HW115749   1.989   5.256   4.544
 4950SOL    HW215750   1.904   5.296   4.410
 4951SOL     OW15751   5.988   0.871   5.121
 4951SOL    HW115752   6.057   0.857   5.050
 4951SOL    HW215753   5.902   0.829   5.094
 4952SOL     OW15754   0.460   0.901   5.829
 4952SOL    HW115755   0.410   0.923   5.913
 4952SOL    HW215756   0.506   0.813   5.840
 4953SOL     OW15757   2.045   6.631   2.985
 4953SOL    HW115758   2.136   6.599   2.960
 4953SOL    HW215759   2.044   6.657   3.082
 4954SOL     OW15760   3.657   3.286   0.229
 4954SOL    HW115761   3.663   3.384   0.248
 4954SOL    HW215762   3.607   3.272   0.143
 4955SOL     OW15763   3.053   6.333   6.838
 4955SOL    HW115764   2.999   6.254   6.869
 4955SOL    HW215765   2.993   6.412   6.826
 4956SOL     OW15766   2.112   0.016   5.066
 4956SOL    HW115767   2.071   6.943   5.053
 4956SOL    HW215768   2.210   0.007   5.083
 4957SOL     OW15769   5.435   2.523   1.705
 4957SOL    HW115770   5.391   2.483   1.786
 4957SOL    HW215771   5.477   2.450   1.651
 4958SOL     OW15772   0.257   4.973   5.672
 4958SOL    HW115773   0.161   4.972   5.644
 4958SOL    HW215774   0.314   4.936   5.599
 4959SOL     OW15775   6.084   1.844   0.001
 4959SOL    HW115776   6.038   1.769   6.971
 4959SOL    HW215777   6.091   1.824   0.099
 4960SOL     OW15778   3.270   5.064   3.329
 4960SOL    HW115779   3.242   5.032   3.239
 4960SOL    HW215780   3.190   5.088   3.383
 4961SOL     OW15781   4.185   1.136   5.883
 4961SOL    HW115782   4.210   1.042   5.909
 4961SOL    HW215783   4.258   1.198   5.912
 4962SOL     OW15784   5.805   2.426   0.459
 4962SOL    HW115785   5.872   2.403   0.529
 4962SOL    HW215786   5.740   2.351   0.450
 4963SOL     OW15787   6.382   5.836   0.558
 4963SOL    HW115788   6.340   5.874   0.640
 4963SOL    HW215789   6.392   5.737   0.568
 4964SOL     OW15790   2.884   0.452   3.842
 4964SOL    HW115791   2.874   0.352   3.838
 4964SOL    HW215792   2.972   0.479   3.803
 4965SOL     OW15793   0.431   1.082   2.224
 4965SOL    HW115794   0.509   1.028   2.193
 4965SOL    HW215795   0.431   1.170   2.177
 4966SOL     OW15796   2.217   6.711   5.293
 4966SOL    HW115797   2.168   6.779   5.348
 4966SOL    HW215798   2.311   6.702   5.327
 4967SOL     OW15799   4.297   5.213   5.183
 4967SOL    HW115800   4.377   5.235   5.239
 4967SOL    HW215801   4.289   5.279   5.108
 4968SOL     OW15802   6.558   1.681   3.916
 4968SOL    HW115803   6.634   1.691   3.980
 4968SOL    HW215804   6.516   1.591   3.928
 4969SOL     OW15805   2.745   5.985   2.984
 4969SOL    HW115806   2.691   6.068   2.974
 4969SOL    HW215807   2.842   6.006   2.969
 4970SOL     OW15808   2.300   2.814   2.783
 4970SOL    HW115809   2.227   2.746   2.778
 4970SOL    HW215810   2.279   2.880   2.855
 4971SOL     OW15811   6.126   5.518   3.407
 4971SOL    HW115812   6.075   5.436   3.383
 4971SOL    HW215813   6.076   5.599   3.376
 4972SOL     OW15814   1.207   3.690   0.612
 4972SOL    HW115815   1.138   3.739   0.665
 4972SOL    HW215816   1.252   3.622   0.670
 4973SOL     OW15817   1.800   6.321   2.432
 4973SOL    HW115818   1.712   6.368   2.435
 4973SOL    HW215819   1.835   6.321   2.338
 4974SOL     OW15820   6.113   4.506   1.252
 4974SOL    HW115821   6.013   4.508   1.251
 4974SOL    HW215822   6.148   4.600   1.255
 4975SOL     OW15823   5.894   3.727   5.606
 4975SOL    HW115824   5.846   3.713   5.519
 4975SOL    HW215825   5.919   3.638   5.644
 4976SOL     OW15826   1.690   1.073   3.811
 4976SOL    HW115827   1.762   1.137   3.783
 4976SOL    HW215828   1.654   1.026   3.730
 4977SOL     OW15829   3.853   4.892   0.310
 4977SOL    HW115830   3.908   4.927   0.386
 4977SOL    HW215831   3.897   4.916   0.224
 4978SOL     OW15832   6.953   3.844   4.846
 4978SOL    HW115833   0.010   3.851   4.913
 4978SOL    HW215834   6.865   3.837   4.894
 4979SOL     OW15835   0.242   0.044   6.655
 4979SOL    HW115836   0.212   0.051   6.750
 4979SOL    HW215837   0.191   0.109   6.599
 4980SOL     OW15838   5.194   6.175   3.269
 4980SOL    HW115839   5.249   6.233   3.209
 4980SOL    HW215840   5.191   6.082   3.231
 4981SOL     OW15841   4.750   5.828   0.216
 4981SOL    HW115842   4.707   5.849   0.128
 4981SOL    HW215843   4.848   5.848   0.210
 4982SOL     OW15844   3.022   1.235   5.924
 4982SOL    HW115845   2.924   1.218   5.926
 4982SOL    HW215846   3.064   1.180   5.852
 4983SOL     OW15847   5.845   3.621   4.817
 4983SOL    HW115848   5.914   3.560   4.856
 4983SOL    HW215849   5.888   3.678   4.746
 4984SOL     OW15850   5.641   3.763   3.285
 4984SOL    HW115851   5.598   3.852   3.278
 4984SOL    HW215852   5.587   3.695   3.236
 4985SOL     OW15853   6.261   6.763   3.344
 4985SOL    HW115854   6.255   6.681   3.288
 4985SOL    HW215855   6.297   6.740   3.434
 4986SOL     OW15856   6.834   4.392   1.930
 4986SOL    HW115857   6.863   4.313   1.984
 4986SOL    HW215858   6.806   4.361   1.839
 4987SOL     OW15859   1.503   0.842   2.165
 4987SOL    HW115860   1.545   0.752   2.152
 4987SOL    HW215861   1.573   0.913   2.156
 4988SOL     OW15862   5.393   0.698   2.671
 4988SOL    HW115863   5.378   0.765   2.599
 4988SOL    HW215864   5.320   0.704   2.739
 4989SOL     OW15865   5.105   0.178   1.397
 4989SOL    HW115866   5.168   0.217   1.464
 4989SOL    HW215867   5.156   0.147   1.317
 4990SOL     OW15868   2.455   1.884   5.815
 4990SOL    HW115869   2.509   1.823   5.873
 4990SOL    HW215870   2.495   1.887   5.723
 4991SOL     OW15871   6.086   5.302   4.236
 4991SOL    HW115872   6.180   5.320   4.209
 4991SOL    HW215873   6.075   5.324   4.333
 4992SOL     OW15874   5.206   1.097   3.733
 4992SOL    HW115875   5.169   1.190   3.734
 4992SOL    HW215876   5.238   1.073   3.824
 4993SOL     OW15877   2.359   5.887   4.005
 4993SOL    HW115878   2.349   5.918   4.100
 4993SOL    HW215879   2.276   5.840   3.976
 4994SOL     OW15880   1.659   0.389   3.406
 4994SOL    HW115881   1.563   0.399   3.381
 4994SOL    HW215882   1.676   0.436   3.492
 4995SOL     OW15883   0.292   1.893   6.106
 4995SOL    HW115884   0.207   1.934   6.073
 4995SOL    HW215885   0.322   1.823   6.041
 4996SOL     OW15886   0.978   1.370   2.689
 4996SOL    HW115887   0.933   1.281   2.683
 4996SOL    HW215888   0.945   1.420   2.769
 4997SOL     OW15889   5.374   2.730   2.586
 4997SOL    HW115890   5.371   2.691   2.677
 4997SOL    HW215891   5.338   2.823   2.588
 4998SOL     OW15892   2.285   4.286   4.964
 4998SOL    HW115893   2.317   4.192   4.951
 4998SOL    HW215894   2.201   4.286   5.018
 4999SOL     OW15895   6.485   3.608   0.365
 4999SOL    HW115896   6.573   3.567   0.392
 4999SOL    HW215897   6.452   3.565   0.281
 5000SOL     OW15898   2.906   6.895   3.483
 5000SOL    HW115899   2.883   6.798   3.481
 5000SOL    HW215900   2.924   6.923   3.578
 5001SOL     OW15901   0.487   4.012   0.973
 5001SOL    HW115902   0.427   3.941   1.009
 5001SOL    HW215903   0.501   3.998   0.875
 5002SOL     OW15904   0.812   3.634   3.580
 5002SOL    HW115905   0.744   3.707   3.567
 5002SOL    HW215906   0.893   3.654   3.526
 5003SOL     OW15907   2.880   6.125   2.646
 5003SOL    HW115908   2.856   6.147   2.741
 5003SOL    HW215909   2.797   6.126   2.590
 5004SOL     OW15910   3.443   5.221   6.216
 5004SOL    HW115911   3.350   5.211   6.180
 5004SOL    HW215912   3.507   5.179   6.152
 5005SOL     OW15913   3.111   2.478   0.859
 5005SOL    HW115914   3.170   2.468   0.779
 5005SOL    HW215915   3.036   2.541   0.837
 5006SOL     OW15916   5.491   0.602   0.516
 5006SOL    HW115917   5.454   0.694   0.502
 5006SOL    HW215918   5.446   0.538   0.454
 5007SOL     OW15919   1.260   6.942   0.504
 5007SOL    HW115920   1.194   6.994   0.557
 5007SOL    HW215921   1.284   6.993   0.422
 5008SOL     OW15922   6.682   6.523   2.383
 5008SOL    HW115923   6.689   6.433   2.425
 5008SOL    HW215924   6.724   6.591   2.443
 5009SOL     OW15925   0.639   6.868   0.917
 5009SOL    HW115926   0.637   6.871   1.017
 5009SOL    HW215927   0.545   6.874   0.882
 5010SOL     OW15928   3.813   3.610   2.722
 5010SOL    HW115929   3.797   3.556   2.640
 5010SOL    HW215930   3.874   3.561   2.784
 5011SOL     OW15931   1.870   3.764   2.456
 5011SOL    HW115932   1.924   3.683   2.477
 5011SOL    HW215933   1.912   3.814   2.381
 5012SOL     OW15934   5.889   4.174   5.871
 5012SOL    HW115935   5.962   4.105   5.871
 5012SOL    HW215936   5.906   4.241   5.799
 5013SOL     OW15937   5.182   1.586   6.492
 5013SOL    HW115938   5.095   1.629   6.470
 5013SOL    HW215939   5.171   1.486   6.492
 5014SOL     OW15940   5.411   4.123   0.471
 5014SOL    HW115941   5.506   4.094   0.473
 5014SOL    HW215942   5.363   4.085   0.551
 5015SOL     OW15943   4.503   1.622   4.110
 5015SOL    HW115944   4.495   1.534   4.063
 5015SOL    HW215945   4.454   1.692   4.058
 5016SOL     OW15946   1.941   2.090   0.572
 5016SOL    HW115947   1.849   2.052   0.558
 5016SOL    HW215948   2.005   2.045   0.511
 5017SOL     OW15949   2.138   2.470   0.107
 5017SOL    HW115950   2.104   2.388   0.061
 5017SOL    HW215951   2.171   2.535   0.038
 5018SOL     OW15952   6.991   4.172   2.101
 5018SOL    HW115953   7.000   4.225   2.185
 5018SOL    HW215954   0.002   4.078   2.117
 5019SOL     OW15955   1.323   4.846   6.449
 5019SOL    HW115956   1.372   4.933   6.455
 5019SOL    HW215957   1.389   4.771   6.441
 5020SOL     OW15958   5.101   0.329   6.749
 5020SOL    HW115959   5.166   0.388   6.701
 5020SOL    HW215960   5.011   0.372   6.748
 5021SOL     OW15961   1.257   1.599   6.031
 5021SOL    HW115962   1.342   1.619   6.082
 5021SOL    HW215963   1.280   1.569   5.939
 5022SOL     OW15964   1.237   1.749   6.964
 5022SOL    HW115965   1.269   1.763   0.040
 5022SOL    HW215966   1.148   1.791   6.952
 5023SOL     OW15967   6.364   2.810   1.589
 5023SOL    HW115968   6.419   2.894   1.584
 5023SOL    HW215969   6.285   2.820   1.529
 5024SOL     OW15970   5.326   5.796   1.953
 5024SOL    HW115971   5.231   5.821   1.937
 5024SOL    HW215972   5.384   5.836   1.882
 5025SOL     OW15973   3.249   1.615   1.813
 5025SOL    HW115974   3.322   1.684   1.815
 5025SOL    HW215975   3.198   1.619   1.899
 5026SOL     OW15976   6.200   5.612   5.701
 5026SOL    HW115977   6.280   5.663   5.668
 5026SOL    HW215978   6.155   5.663   5.774
 5027SOL     OW15979   0.408   6.018   2.396
 5027SOL    HW115980   0.492   6.072   2.402
 5027SOL    HW215981   0.391   5.993   2.300
 5028SOL     OW15982   0.693   1.311   3.047
 5028SOL    HW115983   0.732   1.228   3.088
 5028SOL    HW215984   0.642   1.362   3.116
 5029SOL     OW15985   0.090   2.637   2.795
 5029SOL    HW115986   0.084   2.538   2.802
 5029SOL    HW215987   0.028   2.670   2.724
 5030SOL     OW15988   0.166   6.617   6.904
 5030SOL    HW115989   0.172   6.522   6.935
 5030SOL    HW215990   0.156   6.618   6.804
 5031SOL     OW15991   5.918   0.207   5.198
 5031SOL    HW115992   5.886   0.206   5.293
 5031SOL    HW215993   5.960   0.119   5.177
 5032SOL     OW15994   1.656   2.961   1.144
 5032SOL    HW115995   1.626   3.027   1.213
 5032SOL    HW215996   1.634   2.868   1.175
 5033SOL     OW15997   2.959   6.242   5.728
 5033SOL    HW115998   3.010   6.156   5.732
 5033SOL    HW215999   2.988   6.294   5.649
 5034SOL     OW16000   4.817   1.121   2.873
 5034SOL    HW116001   4.763   1.110   2.957
 5034SOL    HW216002   4.785   1.056   2.805
 5035SOL     OW16003   0.722   4.646   0.117
 5035SOL    HW116004   0.741   4.574   0.184
 5035SOL    HW216005   0.770   4.626   0.032
 5036SOL     OW16006   0.178   4.971   0.176
 5036SOL    HW116007   0.217   5.063   0.174
 5036SOL    HW216008   0.130   4.957   0.262
 5037SOL     OW16009   5.392   2.639   3.378
 5037SOL    HW116010   5.336   2.675   3.453
 5037SOL    HW216011   5.475   2.597   3.415
 5038SOL     OW16012   2.140   3.900   6.283
 5038SOL    HW116013   2.092   3.878   6.198
 5038SOL    HW216014   2.210   3.968   6.264
 5039SOL     OW16015   2.999   4.299   5.252
 5039SOL    HW116016   2.977   4.393   5.223
 5039SOL    HW216017   2.934   4.235   5.212
 5040SOL     OW16018   2.227   5.383   6.168
 5040SOL    HW116019   2.149   5.324   6.188
 5040SOL    HW216020   2.280   5.343   6.093
 5041SOL     OW16021   1.770   1.651   2.027
 5041SOL    HW116022   1.749   1.580   2.095
 5041SOL    HW216023   1.788   1.608   1.939
 5042SOL     OW16024   6.385   3.251   0.808
 5042SOL    HW116025   6.293   3.214   0.804
 5042SOL    HW216026   6.437   3.220   0.728
 5043SOL     OW16027   3.489   0.431   6.005
 5043SOL    HW116028   3.516   0.458   6.097
 5043SOL    HW216029   3.458   0.512   5.955
 5044SOL     OW16030   0.421   6.451   0.936
 5044SOL    HW116031   0.351   6.383   0.914
 5044SOL    HW216032   0.397   6.538   0.892
 5045SOL     OW16033   5.569   1.922   6.567
 5045SOL    HW116034   5.578   1.839   6.512
 5045SOL    HW216035   5.473   1.935   6.592
 5046SOL     OW16036   3.142   4.100   3.280
 5046SOL    HW116037   3.210   4.028   3.292
 5046SOL    HW216038   3.055   4.071   3.319
 5047SOL     OW16039   6.791   3.202   2.831
 5047SOL    HW116040   6.732   3.139   2.882
 5047SOL    HW216041   6.832   3.153   2.754
 5048SOL     OW16042   0.530   0.778   2.297
 5048SOL    HW116043   0.532   0.813   2.203
 5048SOL    HW216044   0.621   0.787   2.337
 5049SOL     OW16045   6.328   1.624   5.481
 5049SOL    HW116046   6.385   1.680   5.541
 5049SOL    HW216047   6.232   1.640   5.501
 5050SOL     OW16048   1.610   0.518   1.555
 5050SOL    HW116049   1.698   0.561   1.537
 5050SOL    HW216050   1.593   0.447   1.487
 5051SOL     OW16051   4.783   4.493   1.078
 5051SOL    HW116052   4.829   4.418   1.125
 5051SOL    HW216053   4.726   4.543   1.143
 5052SOL     OW16054   2.137   6.707   6.258
 5052SOL    HW116055   2.168   6.693   6.352
 5052SOL    HW216056   2.039   6.685   6.252
 5053SOL     OW16057   2.201   3.929   2.769
 5053SOL    HW116058   2.105   3.917   2.796
 5053SOL    HW216059   2.245   3.992   2.832
 5054SOL     OW16060   3.363   6.382   4.830
 5054SOL    HW116061   3.401   6.324   4.759
 5054SOL    HW216062   3.416   6.467   4.836
 5055SOL     OW16063   1.977   0.595   5.618
 5055SOL    HW116064   2.056   0.534   5.608
 5055SOL    HW216065   1.913   0.579   5.543
 5056SOL     OW16066   6.616   4.474   0.826
 5056SOL    HW116067   6.534   4.433   0.785
 5056SOL    HW216068   6.697   4.423   0.795
 5057SOL     OW16069   6.306   6.068   5.292
 5057SOL    HW116070   6.316   6.056   5.194
 5057SOL    HW216071   6.264   6.157   5.311
 5058SOL     OW16072   2.640   3.021   5.450
 5058SOL    HW116073   2.564   3.021   5.386
 5058SOL    HW216074   2.645   3.110   5.496
 5059SOL     OW16075   5.727   2.491   3.201
 5059SOL    HW116076   5.642   2.468   3.154
 5059SOL    HW216077   5.757   2.412   3.255
 5060SOL     OW16078   0.720   1.883   5.328
 5060SOL    HW116079   0.765   1.794   5.336
 5060SOL    HW216080   0.724   1.914   5.233
 5061SOL     OW16081   3.797   3.451   3.153
 5061SOL    HW116082   3.876   3.394   3.127
 5061SOL    HW216083   3.827   3.546   3.164
 5062SOL     OW16084   5.368   0.706   3.408
 5062SOL    HW116085   5.314   0.764   3.468
 5062SOL    HW216086   5.464   0.737   3.409
 5063SOL     OW16087   1.284   0.219   2.191
 5063SOL    HW116088   1.357   0.285   2.209
 5063SOL    HW216089   1.314   0.128   2.218
 5064SOL     OW16090   4.520   3.865   1.661
 5064SOL    HW116091   4.454   3.936   1.686
 5064SOL    HW216092   4.610   3.888   1.698
 5065SOL     OW16093   1.294   1.951   4.097
 5065SOL    HW116094   1.348   1.918   4.020
 5065SOL    HW216095   1.259   2.043   4.076
 5066SOL     OW16096   3.814   4.842   0.928
 5066SOL    HW116097   3.768   4.798   1.006
 5066SOL    HW216098   3.745   4.877   0.864
 5067SOL     OW16099   2.961   0.613   2.908
 5067SOL    HW116100   3.030   0.679   2.936
 5067SOL    HW216101   2.870   0.648   2.930
 5068SOL     OW16102   2.836   5.100   6.560
 5068SOL    HW116103   2.855   5.159   6.482
 5068SOL    HW216104   2.907   5.029   6.567
 5069SOL     OW16105   2.302   3.017   5.575
 5069SOL    HW116106   2.310   2.927   5.532
 5069SOL    HW216107   2.210   3.053   5.559
 5070SOL     OW16108   4.657   4.352   4.059
 5070SOL    HW116109   4.587   4.384   4.122
 5070SOL    HW216110   4.715   4.285   4.106
 5071SOL     OW16111   4.008   1.074   3.117
 5071SOL    HW116112   3.936   1.096   3.182
 5071SOL    HW216113   4.031   1.156   3.063
 5072SOL     OW16114   1.073   0.871   1.793
 5072SOL    HW116115   1.063   0.945   1.727
 5072SOL    HW216116   1.169   0.856   1.813
 5073SOL     OW16117   1.285   4.708   1.475
 5073SOL    HW116118   1.369   4.742   1.432
 5073SOL    HW216119   1.216   4.692   1.404
 5074SOL     OW16120   3.122   2.176   1.347
 5074SOL    HW116121   3.026   2.171   1.377
 5074SOL    HW216122   3.181   2.159   1.425
 5075SOL     OW16123   1.231   2.372   6.312
 5075SOL    HW116124   1.169   2.425   6.370
 5075SOL    HW216125   1.179   2.300   6.266
 5076SOL     OW16126   5.070   0.601   0.714
 5076SOL    HW116127   4.994   0.552   0.757
 5076SOL    HW216128   5.145   0.609   0.779
 5077SOL     OW16129   2.033   4.459   5.754
 5077SOL    HW116130   2.068   4.544   5.714
 5077SOL    HW216131   1.986   4.406   5.683
 5078SOL     OW16132   0.258   0.975   3.903
 5078SOL    HW116133   0.211   1.058   3.872
 5078SOL    HW216134   0.262   0.909   3.828
 5079SOL     OW16135   2.169   3.331   4.757
 5079SOL    HW116136   2.216   3.294   4.837
 5079SOL    HW216137   2.081   3.286   4.746
 5080SOL     OW16138   5.959   6.638   6.170
 5080SOL    HW116139   5.897   6.683   6.235
 5080SOL    HW216140   5.958   6.539   6.187
 5081SOL     OW16141   3.528   3.420   5.206
 5081SOL    HW116142   3.524   3.500   5.147
 5081SOL    HW216143   3.441   3.372   5.205
 5082SOL     OW16144   5.316   5.562   1.718
 5082SOL    HW116145   5.299   5.491   1.785
 5082SOL    HW216146   5.412   5.589   1.721
 5083SOL     OW16147   2.429   0.302   2.665
 5083SOL    HW116148   2.464   0.384   2.621
 5083SOL    HW216149   2.378   0.327   2.748
 5084SOL     OW16150   0.604   4.167   4.211
 5084SOL    HW116151   0.534   4.104   4.246
 5084SOL    HW216152   0.688   4.117   4.192
 5085SOL     OW16153   6.142   2.667   6.428
 5085SOL    HW116154   6.193   2.668   6.342
 5085SOL    HW216155   6.123   2.761   6.456
 5086SOL     OW16156   1.197   5.237   2.895
 5086SOL    HW116157   1.137   5.206   2.969
 5086SOL    HW216158   1.289   5.200   2.908
 5087SOL     OW16159   1.611   5.583   3.228
 5087SOL    HW116160   1.513   5.592   3.206
 5087SOL    HW216161   1.621   5.551   3.322
 5088SOL     OW16162   5.986   0.418   4.088
 5088SOL    HW116163   5.938   0.393   4.004
 5088SOL    HW216164   6.084   0.405   4.075
 5089SOL     OW16165   5.793   3.694   4.018
 5089SOL    HW116166   5.831   3.764   4.078
 5089SOL    HW216167   5.723   3.642   4.068
 5090SOL     OW16168   2.105   3.640   2.509
 5090SOL    HW116169   2.140   3.734   2.517
 5090SOL    HW216170   2.111   3.610   2.414
 5091SOL     OW16171   0.259   1.489   1.006
 5091SOL    HW116172   0.348   1.485   1.051
 5091SOL    HW216173   0.253   1.417   0.937
 5092SOL     OW16174   3.496   3.765   3.216
 5092SOL    HW116175   3.460   3.712   3.293
 5092SOL    HW216176   3.530   3.853   3.250
 5093SOL     OW16177   3.117   1.147   0.380
 5093SOL    HW116178   3.176   1.097   0.317
 5093SOL    HW216179   3.026   1.106   0.379
 5094SOL     OW16180   2.132   5.795   5.703
 5094SOL    HW116181   2.158   5.848   5.784
 5094SOL    HW216182   2.033   5.793   5.695
 5095SOL     OW16183   6.259   2.110   3.729
 5095SOL    HW116184   6.323   2.046   3.770
 5095SOL    HW216185   6.219   2.069   3.646
 5096SOL     OW16186   3.973   5.019   6.739
 5096SOL    HW116187   3.979   4.947   6.670
 5096SOL    HW216188   3.877   5.036   6.763
 5097SOL     OW16189   1.243   0.155   6.404
 5097SOL    HW116190   1.282   0.201   6.484
 5097SOL    HW216191   1.313   0.096   6.363
 5098SOL     OW16192   2.675   0.317   2.057
 5098SOL    HW116193   2.716   0.360   2.138
 5098SOL    HW216194   2.580   0.347   2.048
 5099SOL     OW16195   0.883   0.217   0.680
 5099SOL    HW116196   0.855   0.232   0.774
 5099SOL    HW216197   0.803   0.225   0.620
 5100SOL     OW16198   3.386   5.493   4.709
 5100SOL    HW116199   3.424   5.565   4.652
 5100SOL    HW216200   3.286   5.496   4.704
 5101SOL     OW16201   4.854   0.504   0.061
 5101SOL    HW116202   4.946   0.465   0.067
 5101SOL    HW216203   4.856   0.583   0.000
 5102SOL     OW16204   5.384   0.011   4.326
 5102SOL    HW116205   5.293   0.046   4.304
 5102SOL    HW216206   5.424   6.985   4.245
 5103SOL     OW16207   0.531   0.236   4.011
 5103SOL    HW116208   0.595   0.170   4.049
 5103SOL    HW216209   0.497   0.203   3.924
 5104SOL     OW16210   1.915   6.334   2.186
 5104SOL    HW116211   1.940   6.241   2.159
 5104SOL    HW216212   1.998   6.389   2.195
 5105SOL     OW16213   2.497   2.617   1.030
 5105SOL    HW116214   2.581   2.574   1.062
 5105SOL    HW216215   2.448   2.554   0.969
 5106SOL     OW16216   4.180   2.547   0.345
 5106SOL    HW116217   4.241   2.614   0.387
 5106SOL    HW216218   4.183   2.461   0.396
 5107SOL     OW16219   3.592   1.676   0.756
 5107SOL    HW116220   3.649   1.757   0.768
 5107SOL    HW216221   3.511   1.683   0.814
 5108SOL     OW16222   3.967   4.133   5.144
 5108SOL    HW116223   4.009   4.188   5.217
 5108SOL    HW216224   3.998   4.167   5.055
 5109SOL     OW16225   0.937   1.769   0.247
 5109SOL    HW116226   0.889   1.794   0.331
 5109SOL    HW216227   0.955   1.671   0.247
 5110SOL     OW16228   1.051   0.821   5.585
 5110SOL    HW116229   1.084   0.865   5.669
 5110SOL    HW216230   0.956   0.794   5.597
 5111SOL     OW16231   1.390   0.689   5.037
 5111SOL    HW116232   1.352   0.771   4.995
 5111SOL    HW216233   1.321   0.646   5.094
 5112SOL     OW16234   1.508   1.387   3.542
 5112SOL    HW116235   1.529   1.349   3.633
 5112SOL    HW216236   1.517   1.486   3.545
 5113SOL     OW16237   1.999   6.902   0.966
 5113SOL    HW116238   2.007   6.911   1.065
 5113SOL    HW216239   2.056   6.971   0.922
 5114SOL     OW16240   3.558   1.282   6.438
 5114SOL    HW116241   3.557   1.338   6.521
 5114SOL    HW216242   3.510   1.331   6.365
 5115SOL     OW16243   1.889   5.251   4.116
 5115SOL    HW116244   1.868   5.222   4.023
 5115SOL    HW216245   1.942   5.179   4.162
 5116SOL     OW16246   0.301   0.160   5.994
 5116SOL    HW116247   0.382   0.118   5.953
 5116SOL    HW216248   0.287   0.123   6.085
 5117SOL     OW16249   2.228   4.484   4.762
 5117SOL    HW116250   2.230   4.409   4.828
 5117SOL    HW216251   2.158   4.466   4.693
 5118SOL     OW16252   4.993   0.162   0.164
 5118SOL    HW116253   5.027   0.255   0.171
 5118SOL    HW216254   4.927   0.155   0.089
 5119SOL     OW16255   5.095   0.774   2.088
 5119SOL    HW116256   5.048   0.820   2.163
 5119SOL    HW216257   5.158   0.837   2.044
 5120SOL     OW16258   3.995   0.318   4.084
 5120SOL    HW116259   3.995   0.275   3.993
 5120SOL    HW216260   4.065   0.276   4.141
 5121SOL     OW16261   2.803   2.325   6.299
 5121SOL    HW116262   2.890   2.278   6.319
 5121SOL    HW216263   2.776   2.381   6.378
 5122SOL     OW16264   3.314   6.507   3.492
 5122SOL    HW116265   3.341   6.525   3.398
 5122SOL    HW216266   3.359   6.424   3.525
 5123SOL     OW16267   4.139   2.156   4.616
 5123SOL    HW116268   4.197   2.135   4.537
 5123SOL    HW216269   4.045   2.174   4.585
 5124SOL     OW16270   2.374   5.149   4.412
 5124SOL    HW116271   2.319   5.232   4.420
 5124SOL    HW216272   2.337   5.078   4.473
 5125SOL     OW16273   5.621   3.629   4.432
 5125SOL    HW116274   5.699   3.576   4.398
 5125SOL    HW216275   5.648   3.724   4.446
 5126SOL     OW16276   6.194   4.933   5.322
 5126SOL    HW116277   6.282   4.970   5.291
 5126SOL    HW216278   6.169   4.855   5.266
 5127SOL     OW16279   1.422   4.620   6.794
 5127SOL    HW116280   1.400   4.524   6.810
 5127SOL    HW216281   1.389   4.647   6.703
 5128SOL     OW16282   6.833   0.668   6.647
 5128SOL    HW116283   6.820   0.627   6.557
 5128SOL    HW216284   6.874   0.759   6.637
 5129SOL     OW16285   5.587   6.939   2.683
 5129SOL    HW116286   5.676   6.894   2.677
 5129SOL    HW216287   5.599   0.015   2.718
 5130SOL     OW16288   0.791   6.045   3.688
 5130SOL    HW116289   0.694   6.068   3.677
 5130SOL    HW216290   0.847   6.121   3.657
 5131SOL     OW16291   2.602   4.912   3.705
 5131SOL    HW116292   2.702   4.917   3.708
 5131SOL    HW216293   2.573   4.816   3.711
 5132SOL     OW16294   3.230   2.354   6.475
 5132SOL    HW116295   3.322   2.389   6.490
 5132SOL    HW216296   3.197   2.384   6.385
 5133SOL     OW16297   1.574   5.476   0.009
 5133SOL    HW116298   1.518   5.523   6.959
 5133SOL    HW216299   1.651   5.432   6.981
 5134SOL     OW16300   6.721   2.430   2.198
 5134SOL    HW116301   6.706   2.480   2.283
 5134SOL    HW216302   6.768   2.490   2.133
 5135SOL     OW16303   5.632   3.485   4.137
 5135SOL    HW116304   5.545   3.531   4.155
 5135SOL    HW216305   5.622   3.425   4.058
 5136SOL     OW16306   5.098   0.381   0.019
 5136SOL    HW116307   5.182   0.340   0.057
 5136SOL    HW216308   5.094   0.363   6.939
 5137SOL     OW16309   5.263   3.967   5.701
 5137SOL    HW116310   5.164   3.974   5.715
 5137SOL    HW216311   5.310   4.023   5.769
 5138SOL     OW16312   4.072   2.846   5.577
 5138SOL    HW116313   4.008   2.776   5.547
 5138SOL    HW216314   4.160   2.833   5.530
 5139SOL     OW16315   1.364   1.251   3.332
 5139SOL    HW116316   1.439   1.295   3.383
 5139SOL    HW216317   1.279   1.261   3.383
 5140SOL     OW16318   3.992   2.881   6.134
 5140SOL    HW116319   3.899   2.917   6.130
 5140SOL    HW216320   4.056   2.949   6.099
 5141SOL     OW16321   6.209   4.047   0.770
 5141SOL    HW116322   6.250   4.096   0.693
 5141SOL    HW216323   6.264   4.061   0.852
 5142SOL     OW16324   6.139   6.620   2.481
 5142SOL    HW116325   6.188   6.660   2.404
 5142SOL    HW216326   6.057   6.573   2.447
 5143SOL     OW16327   6.531   4.901   4.348
 5143SOL    HW116328   6.577   4.909   4.260
 5143SOL    HW216329   6.556   4.980   4.405
 5144SOL     OW16330   0.735   4.687   5.719
 5144SOL    HW116331   0.708   4.618   5.652
 5144SOL    HW216332   0.825   4.666   5.755
 5145SOL     OW16333   3.667   5.866   5.287
 5145SOL    HW116334   3.656   5.769   5.266
 5145SOL    HW216335   3.581   5.903   5.323
 5146SOL     OW16336   3.215   4.168   5.623
 5146SOL    HW116337   3.139   4.233   5.622
 5146SOL    HW216338   3.232   4.135   5.530
 5147SOL     OW16339   6.485   5.240   2.855
 5147SOL    HW116340   6.486   5.264   2.952
 5147SOL    HW216341   6.392   5.244   2.820
 5148SOL     OW16342   6.392   0.144   1.732
 5148SOL    HW116343   6.295   0.155   1.709
 5148SOL    HW216344   6.401   0.124   1.830
 5149SOL     OW16345   6.356   5.815   3.265
 5149SOL    HW116346   6.347   5.779   3.173
 5149SOL    HW216347   6.348   5.915   3.263
 5150SOL     OW16348   2.203   5.774   3.393
 5150SOL    HW116349   2.294   5.752   3.428
 5150SOL    HW216350   2.198   5.871   3.371
 5151SOL     OW16351   6.828   3.377   1.886
 5151SOL    HW116352   6.794   3.283   1.895
 5151SOL    HW216353   6.818   3.406   1.790
 5152SOL     OW16354   1.955   4.809   6.966
 5152SOL    HW116355   1.978   4.887   0.007
 5152SOL    HW216356   1.863   4.777   6.987
 5153SOL     OW16357   1.291   1.234   6.881
 5153SOL    HW116358   1.382   1.246   6.920
 5153SOL    HW216359   1.287   1.281   6.793
 5154SOL     OW16360   1.057   2.512   6.073
 5154SOL    HW116361   1.120   2.476   6.142
 5154SOL    HW216362   0.972   2.459   6.076
 5155SOL     OW16363   4.366   0.687   2.401
 5155SOL    HW116364   4.414   0.621   2.343
 5155SOL    HW216365   4.269   0.687   2.379
 5156SOL     OW16366   5.517   4.133   6.302
 5156SOL    HW116367   5.446   4.095   6.243
 5156SOL    HW216368   5.500   4.106   6.396
 5157SOL     OW16369   3.740   2.173   3.195
 5157SOL    HW116370   3.768   2.098   3.135
 5157SOL    HW216371   3.687   2.240   3.142
 5158SOL     OW16372   3.417   1.459   1.565
 5158SOL    HW116373   3.436   1.434   1.470
 5158SOL    HW216374   3.472   1.538   1.591
 5159SOL     OW16375   5.726   3.846   5.364
 5159SOL    HW116376   5.741   3.944   5.361
 5159SOL    HW216377   5.805   3.799   5.324
 5160SOL     OW16378   0.250   4.604   3.431
 5160SOL    HW116379   0.308   4.625   3.511
 5160SOL    HW216380   0.234   4.506   3.426
 5161SOL     OW16381   1.796   3.392   5.836
 5161SOL    HW116382   1.799   3.377   5.737
 5161SOL    HW216383   1.859   3.329   5.881
 5162SOL     OW16384   0.710   4.756   2.544
 5162SOL    HW116385   0.616   4.724   2.560
 5162SOL    HW216386   0.709   4.855   2.528
 5163SOL     OW16387   3.210   6.074   0.033
 5163SOL    HW116388   3.123   6.113   0.002
 5163SOL    HW216389   3.275   6.147   0.051
 5164SOL     OW16390   4.533   2.450   6.499
 5164SOL    HW116391   4.606   2.517   6.511
 5164SOL    HW216392   4.495   2.458   6.406
 5165SOL     OW16393   6.575   3.941   5.781
 5165SOL    HW116394   6.664   3.984   5.789
 5165SOL    HW216395   6.565   3.903   5.689
 5166SOL     OW16396   0.548   5.541   2.050
 5166SOL    HW116397   0.603   5.535   1.967
 5166SOL    HW216398   0.534   5.450   2.088
 5167SOL     OW16399   6.649   5.884   5.625
 5167SOL    HW116400   6.704   5.935   5.691
 5167SOL    HW216401   6.583   5.947   5.583
 5168SOL     OW16402   4.892   3.433   1.940
 5168SOL    HW116403   4.895   3.532   1.926
 5168SOL    HW216404   4.869   3.387   1.855
 5169SOL     OW16405   4.009   2.125   4.164
 5169SOL    HW116406   4.092   2.103   4.215
 5169SOL    HW216407   3.930   2.086   4.211
 5170SOL     OW16408   0.323   4.384   5.096
 5170SOL    HW116409   0.326   4.290   5.064
 5170SOL    HW216410   0.409   4.431   5.073
 5171SOL     OW16411   0.782   5.058   5.284
 5171SOL    HW116412   0.868   5.106   5.303
 5171SOL    HW216413   0.712   5.089   5.349
 5172SOL     OW16414   1.286   2.650   2.611
 5172SOL    HW116415   1.230   2.587   2.665
 5172SOL    HW216416   1.331   2.600   2.538
 5173SOL     OW16417   5.121   4.908   5.027
 5173SOL    HW116418   5.219   4.905   5.010
 5173SOL    HW216419   5.078   4.972   4.963
 5174SOL     OW16420   2.127   5.095   3.069
 5174SOL    HW116421   2.050   5.052   3.117
 5174SOL    HW216422   2.187   5.138   3.136
 5175SOL     OW16423   2.718   3.415   6.850
 5175SOL    HW116424   2.620   3.397   6.855
 5175SOL    HW216425   2.756   3.419   6.942
 5176SOL     OW16426   5.066   3.560   6.797
 5176SOL    HW116427   4.973   3.536   6.769
 5176SOL    HW216428   5.072   3.559   6.897
 5177SOL     OW16429   5.911   0.361   0.470
 5177SOL    HW116430   5.925   0.441   0.529
 5177SOL    HW216431   5.999   0.325   0.440
 5178SOL     OW16432   1.035   3.621   2.200
 5178SOL    HW116433   1.091   3.615   2.117
 5178SOL    HW216434   0.938   3.629   2.174
 5179SOL     OW16435   4.076   5.126   3.866
 5179SOL    HW116436   4.113   5.037   3.839
 5179SOL    HW216437   4.072   5.186   3.786
 5180SOL     OW16438   2.498   2.089   0.960
 5180SOL    HW116439   2.537   2.136   1.039
 5180SOL    HW216440   2.430   2.022   0.992
 5181SOL     OW16441   5.645   1.012   2.687
 5181SOL    HW116442   5.551   0.987   2.665
 5181SOL    HW216443   5.651   1.111   2.703
 5182SOL     OW16444   3.834   4.176   1.672
 5182SOL    HW116445   3.871   4.131   1.753
 5182SOL    HW216446   3.861   4.126   1.590
 5183SOL     OW16447   3.742   1.719   2.495
 5183SOL    HW116448   3.725   1.680   2.585
 5183SOL    HW216449   3.731   1.648   2.425
 5184SOL     OW16450   0.243   1.405   5.003
 5184SOL    HW116451   0.158   1.419   4.951
 5184SOL    HW216452   0.243   1.465   5.083
 5185SOL     OW16453   5.931   0.695   2.702
 5185SOL    HW116454   5.882   0.751   2.768
 5185SOL    HW216455   5.981   0.623   2.750
 5186SOL     OW16456   6.544   2.422   0.813
 5186SOL    HW116457   6.558   2.345   0.875
 5186SOL    HW216458   6.449   2.423   0.781
 5187SOL     OW16459   1.013   6.610   4.133
 5187SOL    HW116460   1.075   6.540   4.169
 5187SOL    HW216461   1.052   6.700   4.149
 5188SOL     OW16462   0.911   5.774   1.232
 5188SOL    HW116463   0.949   5.719   1.158
 5188SOL    HW216464   0.880   5.714   1.306
 5189SOL     OW16465   3.571   5.009   0.922
 5189SOL    HW116466   3.588   5.108   0.922
 5189SOL    HW216467   3.541   4.980   1.013
 5190SOL     OW16468   0.610   1.667   4.504
 5190SOL    HW116469   0.643   1.758   4.529
 5190SOL    HW216470   0.608   1.609   4.585
 5191SOL     OW16471   4.065   0.174   1.827
 5191SOL    HW116472   4.011   0.140   1.750
 5191SOL    HW216473   4.128   0.245   1.795
 5192SOL     OW16474   2.577   5.723   2.348
 5192SOL    HW116475   2.671   5.756   2.350
 5192SOL    HW216476   2.537   5.730   2.439
 5193SOL     OW16477   4.750   4.509   4.417
 5193SOL    HW116478   4.796   4.555   4.493
 5193SOL    HW216479   4.788   4.542   4.330
 5194SOL     OW16480   4.550   1.954   0.013
 5194SOL    HW116481   4.620   1.910   0.068
 5194SOL    HW216482   4.464   1.956   0.064
 5195SOL     OW16483   0.068   6.126   4.032
 5195SOL    HW116484   0.088   6.166   4.121
 5195SOL    HW216485   0.123   6.170   3.962
 5196SOL     OW16486   3.890   5.959   1.149
 5196SOL    HW116487   3.974   5.905   1.134
 5196SOL    HW216488   3.816   5.920   1.095
 5197SOL     OW16489   2.000   5.116   5.541
 5197SOL    HW116490   2.016   5.093   5.445
 5197SOL    HW216491   1.906   5.149   5.552
 5198SOL     OW16492   4.803   6.848   3.451
 5198SOL    HW116493   4.765   6.894   3.531
 5198SOL    HW216494   4.756   6.880   3.369
 5199SOL     OW16495   1.745   5.897   0.485
 5199SOL    HW116496   1.749   5.799   0.468
 5199SOL    HW216497   1.677   5.939   0.424
 5200SOL     OW16498   0.821   2.762   5.396
 5200SOL    HW116499   0.758   2.790   5.324
 5200SOL    HW216500   0.873   2.842   5.428
 5201SOL     OW16501   0.311   0.019   3.147
 5201SOL    HW116502   0.304   0.115   3.117
 5201SOL    HW216503   0.399   0.005   3.192
 5202SOL     OW16504   6.198   3.690   5.761
 5202SOL    HW116505   6.251   3.730   5.835
 5202SOL    HW216506   6.188   3.756   5.687
 5203SOL     OW16507   2.124   1.435   6.662
 5203SOL    HW116508   2.223   1.452   6.661
 5203SOL    HW216509   2.076   1.520   6.645
 5204SOL     OW16510   3.954   5.975   6.809
 5204SOL    HW116511   3.902   5.923   6.878
 5204SOL    HW216512   3.932   5.939   6.718
 5205SOL     OW16513   0.980   5.944   1.021
 5205SOL    HW116514   1.001   6.039   1.045
 5205SOL    HW216515   0.965   5.891   1.104
 5206SOL     OW16516   1.006   4.903   6.218
 5206SOL    HW116517   0.992   4.806   6.236
 5206SOL    HW216518   1.000   4.955   6.303
 5207SOL     OW16519   1.028   6.168   3.791
 5207SOL    HW116520   1.005   6.141   3.698
 5207SOL    HW216521   0.964   6.126   3.855
 5208SOL     OW16522   4.637   2.605   6.133
 5208SOL    HW116523   4.592   2.675   6.078
 5208SOL    HW216524   4.600   2.515   6.109
 5209SOL     OW16525   5.565   6.465   2.290
 5209SOL    HW116526   5.585   6.509   2.202
 5209SOL    HW216527   5.613   6.514   2.363
 5210SOL     OW16528   4.659   3.046   6.707
 5210SOL    HW116529   4.611   2.985   6.643
 5210SOL    HW216530   4.668   3.000   6.796
 5211SOL     OW16531   3.753   2.489   5.392
 5211SOL    HW116532   3.816   2.429   5.343
 5211SOL    HW216533   3.693   2.434   5.450
 5212SOL     OW16534   0.003   2.993   0.882
 5212SOL    HW116535   0.095   2.992   0.843
 5212SOL    HW216536   6.963   3.055   0.830
 5213SOL     OW16537   4.670   3.975   6.470
 5213SOL    HW116538   4.764   3.956   6.443
 5213SOL    HW216539   4.607   3.937   6.402
 5214SOL     OW16540   5.334   1.885   6.178
 5214SOL    HW116541   5.341   1.788   6.155
 5214SOL    HW216542   5.266   1.929   6.119
 5215SOL     OW16543   0.188   4.784   4.097
 5215SOL    HW116544   0.184   4.694   4.139
 5215SOL    HW216545   0.189   4.854   4.168
 5216SOL     OW16546   4.882   5.009   2.296
 5216SOL    HW116547   4.955   5.019   2.229
 5216SOL    HW216548   4.801   4.971   2.251
 5217SOL     OW16549   4.229   5.160   4.128
 5217SOL    HW116550   4.201   5.125   4.039
 5217SOL    HW216551   4.156   5.146   4.195
 5218SOL     OW16552   1.042   0.781   2.515
 5218SOL    HW116553   1.093   0.837   2.581
 5218SOL    HW216554   1.089   0.694   2.502
 5219SOL     OW16555   4.377   1.541   4.803
 5219SOL    HW116556   4.325   1.456   4.810
 5219SOL    HW216557   4.314   1.619   4.813
 5220SOL     OW16558   0.860   5.966   2.468
 5220SOL    HW116559   0.927   5.955   2.395
 5220SOL    HW216560   0.895   6.030   2.537
 5221SOL     OW16561   5.711   2.206   3.768
 5221SOL    HW116562   5.757   2.148   3.700
 5221SOL    HW216563   5.718   2.163   3.858
 5222SOL     OW16564   3.888   6.357   3.256
 5222SOL    HW116565   3.864   6.313   3.170
 5222SOL    HW216566   3.817   6.423   3.281
 5223SOL     OW16567   6.238   2.465   0.757
 5223SOL    HW116568   6.275   2.443   0.666
 5223SOL    HW216569   6.201   2.558   0.755
 5224SOL     OW16570   6.631   2.374   4.522
 5224SOL    HW116571   6.534   2.392   4.503
 5224SOL    HW216572   6.666   2.441   4.586
 5225SOL     OW16573   0.319   0.546   3.543
 5225SOL    HW116574   0.259   0.575   3.468
 5225SOL    HW216575   0.272   0.476   3.598
 5226SOL     OW16576   6.831   6.196   5.073
 5226SOL    HW116577   6.783   6.108   5.069
 5226SOL    HW216578   6.765   6.270   5.061
 5227SOL     OW16579   0.385   3.521   5.328
 5227SOL    HW116580   0.303   3.466   5.310
 5227SOL    HW216581   0.399   3.528   5.427
 5228SOL     OW16582   6.176   2.128   1.189
 5228SOL    HW116583   6.077   2.121   1.205
 5228SOL    HW216584   6.193   2.191   1.113
 5229SOL     OW16585   1.817   6.350   6.817
 5229SOL    HW116586   1.857   6.266   6.853
 5229SOL    HW216587   1.741   6.327   6.756
 5230SOL     OW16588   0.883   5.600   1.690
 5230SOL    HW116589   0.831   5.684   1.676
 5230SOL    HW216590   0.981   5.621   1.693
 5231SOL     OW16591   4.622   2.729   4.646
 5231SOL    HW116592   4.695   2.796   4.639
 5231SOL    HW216593   4.584   2.730   4.738
 5232SOL     OW16594   2.712   3.275   6.127
 5232SOL    HW116595   2.808   3.248   6.135
 5232SOL    HW216596   2.696   3.311   6.035
 5233SOL     OW16597   4.955   1.302   2.312
 5233SOL    HW116598   4.911   1.361   2.380
 5233SOL    HW216599   4.993   1.222   2.358
 5234SOL     OW16600   3.109   1.501   5.963
 5234SOL    HW116601   3.054   1.417   5.963
 5234SOL    HW216602   3.102   1.544   5.873
 5235SOL     OW16603   1.826   2.129   0.894
 5235SOL    HW116604   1.759   2.067   0.853
 5235SOL    HW216605   1.845   2.204   0.830
 5236SOL     OW16606   5.207   4.857   2.228
 5236SOL    HW116607   5.249   4.793   2.164
 5236SOL    HW216608   5.142   4.915   2.179
 5237SOL     OW16609   1.737   0.970   4.701
 5237SOL    HW116610   1.813   0.919   4.661
 5237SOL    HW216611   1.771   1.058   4.735
 5238SOL     OW16612   0.534   4.723   6.823
 5238SOL    HW116613   0.447   4.726   6.774
 5238SOL    HW216614   0.608   4.711   6.758
 5239SOL     OW16615   3.530   3.004   4.407
 5239SOL    HW116616   3.599   2.957   4.462
 5239SOL    HW216617   3.515   2.955   4.322
 5240SOL     OW16618   3.117   1.876   5.789
 5240SOL    HW116619   3.153   1.911   5.876
 5240SOL    HW216620   3.048   1.940   5.753
 5241SOL     OW16621   0.230   5.367   4.926
 5241SOL    HW116622   0.230   5.464   4.952
 5241SOL    HW216623   0.233   5.360   4.826
 5242SOL     OW16624   0.004   6.143   6.252
 5242SOL    HW116625   0.064   6.207   6.204
 5242SOL    HW216626   0.034   6.049   6.235
 5243SOL     OW16627   1.029   5.093   1.001
 5243SOL    HW116628   1.018   5.070   1.098
 5243SOL    HW216629   1.117   5.139   0.987
 5244SOL     OW16630   3.460   5.321   6.863
 5244SOL    HW116631   3.375   5.372   6.849
 5244SOL    HW216632   3.470   5.298   6.960
 5245SOL     OW16633   3.935   4.654   0.210
 5245SOL    HW116634   3.894   4.723   0.270
 5245SOL    HW216635   3.871   4.632   0.137
 5246SOL     OW16636   5.797   4.126   1.981
 5246SOL    HW116637   5.767   4.106   1.887
 5246SOL    HW216638   5.821   4.040   2.027
 5247SOL     OW16639   1.770   0.846   0.010
 5247SOL    HW116640   1.771   0.905   6.946
 5247SOL    HW216641   1.747   0.752   7.000
 5248SOL     OW16642   5.856   1.352   3.370
 5248SOL    HW116643   5.871   1.438   3.321
 5248SOL    HW216644   5.770   1.357   3.421
 5249SOL     OW16645   6.998   4.963   5.682
 5249SOL    HW116646   6.958   5.026   5.748
 5249SOL    HW216647   6.926   4.911   5.637
 5250SOL     OW16648   1.914   6.208   5.942
 5250SOL    HW116649   1.932   6.178   5.848
 5250SOL    HW216650   1.911   6.129   6.003
 5251SOL     OW16651   0.574   3.556   0.067
 5251SOL    HW116652   0.526   3.641   0.043
 5251SOL    HW216653   0.609   3.564   0.160
 5252SOL     OW16654   1.507   6.568   0.414
 5252SOL    HW116655   1.567   6.498   0.452
 5252SOL    HW216656   1.497   6.643   0.480
 5253SOL     OW16657   5.549   4.589   4.762
 5253SOL    HW116658   5.546   4.547   4.671
 5253SOL    HW216659   5.456   4.596   4.798
 5254SOL     OW16660   4.366   1.239   3.092
 5254SOL    HW116661   4.314   1.192   3.020
 5254SOL    HW216662   4.372   1.336   3.070
 5255SOL     OW16663   5.914   0.869   5.769
 5255SOL    HW116664   6.014   0.878   5.770
 5255SOL    HW216665   5.887   0.798   5.834
 5256SOL     OW16666   4.088   1.424   3.606
 5256SOL    HW116667   4.163   1.489   3.617
 5256SOL    HW216668   4.012   1.468   3.558
 5257SOL     OW16669   5.599   6.523   2.029
 5257SOL    HW116670   5.610   6.496   1.933
 5257SOL    HW216671   5.551   6.611   2.033
 5258SOL     OW16672   6.080   3.571   1.826
 5258SOL    HW116673   6.168   3.594   1.786
 5258SOL    HW216674   6.034   3.501   1.770
 5259SOL     OW16675   5.870   6.320   1.563
 5259SOL    HW116676   5.926   6.253   1.611
 5259SOL    HW216677   5.788   6.276   1.526
 5260SOL     OW16678   4.977   3.521   1.024
 5260SOL    HW116679   4.955   3.616   1.002
 5260SOL    HW216680   4.892   3.471   1.043
 5261SOL     OW16681   1.148   4.141   6.925
 5261SOL    HW116682   1.203   4.057   6.928
 5261SOL    HW216683   1.089   4.145   7.005
 5262SOL     OW16684   2.908   0.954   2.660
 5262SOL    HW116685   2.943   1.039   2.621
 5262SOL    HW216686   2.847   0.975   2.736
 5263SOL     OW16687   1.608   1.689   4.382
 5263SOL    HW116688   1.655   1.749   4.445
 5263SOL    HW216689   1.659   1.604   4.371
 5264SOL     OW16690   6.014   2.607   2.851
 5264SOL    HW116691   5.969   2.536   2.905
 5264SOL    HW216692   5.984   2.601   2.756
 5265SOL     OW16693   6.301   4.197   4.129
 5265SOL    HW116694   6.315   4.133   4.204
 5265SOL    HW216695   6.227   4.260   4.152
 5266SOL     OW16696   2.458   5.781   0.561
 5266SOL    HW116697   2.515   5.816   0.635
 5266SOL    HW216698   2.456   5.847   0.486
 5267SOL     OW16699   4.941   3.711   4.775
 5267SOL    HW116700   4.899   3.635   4.826
 5267SOL    HW216701   4.914   3.798   4.818
 5268SOL     OW16702   5.807   0.090   6.840
 5268SOL    HW116703   5.834   7.015   6.867
 5268SOL    HW216704   5.763   0.136   6.917
 5269SOL     OW16705   1.113   6.976   3.785
 5269SOL    HW116706   1.029   6.925   3.802
 5269SOL    HW216707   1.189   6.934   3.836
 5270SOL     OW16708   5.912   1.560   1.109
 5270SOL    HW116709   5.877   1.535   1.199
 5270SOL    HW216710   5.975   1.490   1.076
 5271SOL     OW16711   5.975   5.720   4.648
 5271SOL    HW116712   6.074   5.709   4.638
 5271SOL    HW216713   5.934   5.738   4.559
 5272SOL     OW16714   2.624   5.456   2.201
 5272SOL    HW116715   2.710   5.428   2.244
 5272SOL    HW216716   2.598   5.547   2.233
 5273SOL     OW16717   6.973   2.846   3.884
 5273SOL    HW116718   7.017   2.847   3.974
 5273SOL    HW216719   0.025   2.859   3.813
 5274SOL     OW16720   6.540   6.771   2.496
 5274SOL    HW116721   6.532   6.736   2.590
 5274SOL    HW216722   6.453   6.810   2.467
 5275SOL     OW16723   3.639   1.914   0.505
 5275SOL    HW116724   3.705   1.977   0.546
 5275SOL    HW216725   3.548   1.934   0.541
 5276SOL     OW16726   1.802   0.110   0.669
 5276SOL    HW116727   1.753   0.124   0.755
 5276SOL    HW216728   1.747   0.052   0.609
 5277SOL     OW16729   1.362   1.807   2.709
 5277SOL    HW116730   1.285   1.750   2.678
 5277SOL    HW216731   1.344   1.840   2.802
 5278SOL     OW16732   5.555   0.293   3.246
 5278SOL    HW116733   5.530   0.234   3.323
 5278SOL    HW216734   5.627   0.248   3.192
 5279SOL     OW16735   1.943   5.196   5.948
 5279SOL    HW116736   1.974   5.253   5.873
 5279SOL    HW216737   1.974   5.234   6.035
 5280SOL     OW16738   2.663   6.108   4.739
 5280SOL    HW116739   2.667   6.200   4.700
 5280SOL    HW216740   2.568   6.087   4.762
 5281SOL     OW16741   0.723   1.214   2.253
 5281SOL    HW116742   0.694   1.276   2.179
 5281SOL    HW216743   0.811   1.174   2.230
 5282SOL     OW16744   2.323   2.176   2.988
 5282SOL    HW116745   2.343   2.242   2.916
 5282SOL    HW216746   2.378   2.196   3.068
 5283SOL     OW16747   4.396   6.472   1.522
 5283SOL    HW116748   4.438   6.502   1.607
 5283SOL    HW216749   4.459   6.491   1.446
 5284SOL     OW16750   5.126   3.778   3.536
 5284SOL    HW116751   5.033   3.747   3.516
 5284SOL    HW216752   5.191   3.709   3.506
 5285SOL     OW16753   2.399   4.943   3.442
 5285SOL    HW116754   2.463   4.905   3.508
 5285SOL    HW216755   2.335   5.004   3.489
 5286SOL     OW16756   1.415   4.112   0.697
 5286SOL    HW116757   1.494   4.072   0.651
 5286SOL    HW216758   1.446   4.166   0.775
 5287SOL     OW16759   2.611   6.121   1.230
 5287SOL    HW116760   2.655   6.155   1.147
 5287SOL    HW216761   2.514   6.104   1.212
 5288SOL     OW16762   3.893   0.066   1.637
 5288SOL    HW116763   3.864   6.990   1.620
 5288SOL    HW216764   3.830   0.109   1.702
 5289SOL     OW16765   1.646   4.222   6.068
 5289SOL    HW116766   1.563   4.264   6.030
 5289SOL    HW216767   1.724   4.242   6.007
 5290SOL     OW16768   1.456   5.151   5.312
 5290SOL    HW116769   1.431   5.061   5.349
 5290SOL    HW216770   1.553   5.152   5.291
 5291SOL     OW16771   2.518   5.525   5.607
 5291SOL    HW116772   2.469   5.603   5.644
 5291SOL    HW216773   2.462   5.443   5.616
 5292SOL     OW16774   6.808   3.605   6.891
 5292SOL    HW116775   6.758   3.532   6.844
 5292SOL    HW216776   6.783   3.693   6.851
 5293SOL     OW16777   0.889   0.208   4.648
 5293SOL    HW116778   0.845   0.289   4.685
 5293SOL    HW216779   0.858   0.192   4.554
 5294SOL     OW16780   4.539   3.429   5.561
 5294SOL    HW116781   4.570   3.406   5.653
 5294SOL    HW216782   4.502   3.522   5.559
 5295SOL     OW16783   5.371   0.044   2.510
 5295SOL    HW116784   5.450   0.030   2.569
 5295SOL    HW216785   5.360   0.141   2.491
 5296SOL     OW16786   2.139   5.253   0.414
 5296SOL    HW116787   2.186   5.321   0.358
 5296SOL    HW216788   2.196   5.171   0.422
 5297SOL     OW16789   3.228   2.229   1.093
 5297SOL    HW116790   3.192   2.211   1.185
 5297SOL    HW216791   3.241   2.327   1.081
 5298SOL     OW16792   0.891   5.683   6.892
 5298SOL    HW116793   0.860   5.684   6.797
 5298SOL    HW216794   0.868   5.595   6.933
 5299SOL     OW16795   2.357   2.500   1.527
 5299SOL    HW116796   2.436   2.561   1.535
 5299SOL    HW216797   2.380   2.410   1.565
 5300SOL     OW16798   0.264   6.186   1.856
 5300SOL    HW116799   0.189   6.181   1.790
 5300SOL    HW216800   0.303   6.095   1.871
 5301SOL     OW16801   4.772   2.954   0.805
 5301SOL    HW116802   4.707   2.881   0.780
 5301SOL    HW216803   4.751   3.036   0.752
 5302SOL     OW16804   6.437   4.112   2.856
 5302SOL    HW116805   6.463   4.072   2.944
 5302SOL    HW216806   6.486   4.066   2.782
 5303SOL     OW16807   6.784   5.867   2.863
 5303SOL    HW116808   6.737   5.954   2.874
 5303SOL    HW216809   6.759   5.806   2.938
 5304SOL     OW16810   6.780   1.604   5.857
 5304SOL    HW116811   6.873   1.641   5.858
 5304SOL    HW216812   6.781   1.510   5.891
 5305SOL     OW16813   1.286   6.043   4.108
 5305SOL    HW116814   1.339   5.958   4.106
 5305SOL    HW216815   1.342   6.116   4.146
 5306SOL     OW16816   0.385   5.879   5.143
 5306SOL    HW116817   0.433   5.958   5.180
 5306SOL    HW216818   0.318   5.846   5.210
 5307SOL     OW16819   4.613   0.428   6.603
 5307SOL    HW116820   4.590   0.509   6.549
 5307SOL    HW216821   4.595   0.346   6.549
 5308SOL     OW16822   1.051   6.131   4.187
 5308SOL    HW116823   0.983   6.107   4.118
 5308SOL    HW216824   1.140   6.093   4.161
 5309SOL     OW16825   3.353   4.036   2.074
 5309SOL    HW116826   3.257   4.027   2.099
 5309SOL    HW216827   3.361   4.040   1.974
 5310SOL     OW16828   5.525   2.801   1.801
 5310SOL    HW116829   5.501   2.705   1.801
 5310SOL    HW216830   5.453   2.854   1.846
 5311SOL     OW16831   0.244   5.925   1.159
 5311SOL    HW116832   0.248   6.025   1.161
 5311SOL    HW216833   0.202   5.894   1.074
 5312SOL     OW16834   0.292   4.124   2.235
 5312SOL    HW116835   0.265   4.155   2.326
 5312SOL    HW216836   0.266   4.193   2.168
 5313SOL     OW16837   1.220   4.494   0.111
 5313SOL    HW116838   1.175   4.417   0.065
 5313SOL    HW216839   1.229   4.570   0.047
 5314SOL     OW16840   3.261   5.144   0.239
 5314SOL    HW116841   3.203   5.108   0.166
 5314SOL    HW216842   3.210   5.147   0.325
 5315SOL     OW16843   3.877   3.809   1.607
 5315SOL    HW116844   3.929   3.885   1.646
 5315SOL    HW216845   3.938   3.730   1.595
 5316SOL     OW16846   6.635   4.797   4.673
 5316SOL    HW116847   6.575   4.730   4.629
 5316SOL    HW216848   6.587   4.884   4.681
 5317SOL     OW16849   6.894   0.484   5.004
 5317SOL    HW116850   6.934   0.437   4.926
 5317SOL    HW216851   6.919   0.581   5.000
 5318SOL     OW16852   0.491   1.490   5.531
 5318SOL    HW116853   0.541   1.577   5.532
 5318SOL    HW216854   0.393   1.508   5.530
 5319SOL     OW16855   4.272   6.353   6.784
 5319SOL    HW116856   4.193   6.352   6.723
 5319SOL    HW216857   4.293   6.260   6.814
 5320SOL     OW16858   5.614   5.315   6.724
 5320SOL    HW116859   5.682   5.313   6.797
 5320SOL    HW216860   5.619   5.230   6.671
 5321SOL     OW16861   0.652   4.227   3.184
 5321SOL    HW116862   0.720   4.218   3.257
 5321SOL    HW216863   0.697   4.255   3.099
 5322SOL     OW16864   3.861   5.984   6.054
 5322SOL    HW116865   3.843   6.049   5.981
 5322SOL    HW216866   3.852   5.891   6.019
 5323SOL     OW16867   4.061   3.502   0.863
 5323SOL    HW116868   4.087   3.412   0.827
 5323SOL    HW216869   4.005   3.489   0.945
 5324SOL     OW16870   3.730   2.548   1.766
 5324SOL    HW116871   3.808   2.546   1.703
 5324SOL    HW216872   3.729   2.465   1.821
 5325SOL     OW16873   5.481   6.668   3.680
 5325SOL    HW116874   5.430   6.633   3.601
 5325SOL    HW216875   5.417   6.700   3.750
 5326SOL     OW16876   0.097   5.353   3.270
 5326SOL    HW116877   0.032   5.419   3.306
 5326SOL    HW216878   0.183   5.399   3.248
 5327SOL     OW16879   6.368   5.248   5.322
 5327SOL    HW116880   6.383   5.232   5.419
 5327SOL    HW216881   6.272   5.275   5.307
 5328SOL     OW16882   4.800   2.333   5.237
 5328SOL    HW116883   4.831   2.345   5.143
 5328SOL    HW216884   4.838   2.406   5.294
 5329SOL     OW16885   0.823   3.877   0.111
 5329SOL    HW116886   0.778   3.834   0.189
 5329SOL    HW216887   0.920   3.893   0.132
 5330SOL     OW16888   3.596   4.482   6.691
 5330SOL    HW116889   3.497   4.491   6.682
 5330SOL    HW216890   3.638   4.481   6.600
 5331SOL     OW16891   5.591   1.179   1.655
 5331SOL    HW116892   5.666   1.162   1.591
 5331SOL    HW216893   5.608   1.265   1.703
 5332SOL     OW16894   6.658   4.451   0.395
 5332SOL    HW116895   6.708   4.365   0.396
 5332SOL    HW216896   6.642   4.479   0.301
 5333SOL     OW16897   1.003   0.919   3.932
 5333SOL    HW116898   1.099   0.937   3.953
 5333SOL    HW216899   0.959   1.003   3.900
 5334SOL     OW16900   3.781   5.215   5.451
 5334SOL    HW116901   3.858   5.235   5.512
 5334SOL    HW216902   3.695   5.227   5.501
 5335SOL     OW16903   0.159   5.033   2.001
 5335SOL    HW116904   0.082   4.971   2.008
 5335SOL    HW216905   0.126   5.126   1.987
 5336SOL     OW16906   2.175   2.175   3.453
 5336SOL    HW116907   2.091   2.210   3.495
 5336SOL    HW216908   2.160   2.162   3.355
 5337SOL     OW16909   5.342   4.285   1.886
 5337SOL    HW116910   5.422   4.335   1.851
 5337SOL    HW216911   5.372   4.222   1.958
 5338SOL     OW16912   6.051   1.218   6.093
 5338SOL    HW116913   5.986   1.207   6.019
 5338SOL    HW216914   6.144   1.199   6.059
 5339SOL     OW16915   5.371   1.510   2.910
 5339SOL    HW116916   5.456   1.562   2.899
 5339SOL    HW216917   5.310   1.560   2.972
 5340SOL     OW16918   6.043   3.930   1.198
 5340SOL    HW116919   6.098   3.994   1.251
 5340SOL    HW216920   5.946   3.949   1.213
 5341SOL     OW16921   3.190   4.821   5.231
 5341SOL    HW116922   3.125   4.850   5.160
 5341SOL    HW216923   3.166   4.730   5.263
 5342SOL     OW16924   5.417   6.717   4.928
 5342SOL    HW116925   5.448   6.667   5.009
 5342SOL    HW216926   5.496   6.752   4.878
 5343SOL     OW16927   4.078   3.389   4.970
 5343SOL    HW116928   4.117   3.340   5.048
 5343SOL    HW216929   4.057   3.324   4.898
 5344SOL     OW16930   0.680   1.707   0.645
 5344SOL    HW116931   0.594   1.664   0.616
 5344SOL    HW216932   0.660   1.779   0.711
 5345SOL     OW16933   5.187   6.775   6.911
 5345SOL    HW116934   5.106   6.758   6.967
 5345SOL    HW216935   5.204   6.694   6.853
 5346SOL     OW16936   2.999   5.892   3.736
 5346SOL    HW116937   2.917   5.846   3.771
 5346SOL    HW216938   3.074   5.879   3.801
 5347SOL     OW16939   0.168   3.728   2.774
 5347SOL    HW116940   0.165   3.634   2.808
 5347SOL    HW216941   0.215   3.786   2.840
 5348SOL     OW16942   6.936   1.373   6.543
 5348SOL    HW116943   6.918   1.472   6.539
 5348SOL    HW216944   6.922   1.333   6.453
 5349SOL     OW16945   2.589   3.469   0.562
 5349SOL    HW116946   2.504   3.442   0.518
 5349SOL    HW216947   2.639   3.531   0.502
 5350SOL     OW16948   2.272   0.383   5.293
 5350SOL    HW116949   2.218   0.467   5.298
 5350SOL    HW216950   2.287   0.358   5.197
 5351SOL     OW16951   0.225   5.833   1.954
 5351SOL    HW116952   0.147   5.798   2.007
 5351SOL    HW216953   0.262   5.760   1.897
 5352SOL     OW16954   2.147   4.793   2.817
 5352SOL    HW116955   2.065   4.850   2.814
 5352SOL    HW216956   2.141   4.730   2.895
 5353SOL     OW16957   3.873   6.456   4.010
 5353SOL    HW116958   3.847   6.452   4.107
 5353SOL    HW216959   3.883   6.363   3.975
 5354SOL     OW16960   1.889   4.602   0.664
 5354SOL    HW116961   1.982   4.630   0.642
 5354SOL    HW216962   1.857   4.537   0.595
 5355SOL     OW16963   5.947   4.983   4.017
 5355SOL    HW116964   5.910   4.903   3.969
 5355SOL    HW216965   6.030   4.958   4.066
 5356SOL     OW16966   6.768   3.456   2.913
 5356SOL    HW116967   6.778   3.356   2.915
 5356SOL    HW216968   6.703   3.484   2.983
 5357SOL     OW16969   3.566   4.941   0.665
 5357SOL    HW116970   3.613   5.012   0.612
 5357SOL    HW216971   3.542   4.976   0.755
 5358SOL     OW16972   4.274   2.435   1.152
 5358SOL    HW116973   4.174   2.445   1.152
 5358SOL    HW216974   4.310   2.469   1.065
 5359SOL     OW16975   2.419   1.437   6.617
 5359SOL    HW116976   2.456   1.483   6.536
 5359SOL    HW216977   2.471   1.354   6.635
 5360SOL     OW16978   4.715   6.146   3.644
 5360SOL    HW116979   4.767   6.062   3.662
 5360SOL    HW216980   4.647   6.159   3.716
 5361SOL     OW16981   2.375   6.612   4.197
 5361SOL    HW116982   2.432   6.569   4.127
 5361SOL    HW216983   2.402   6.708   4.206
 5362SOL     OW16984   6.579   5.898   2.469
 5362SOL    HW116985   6.491   5.862   2.498
 5362SOL    HW216986   6.648   5.878   2.539
 5363SOL     OW16987   5.824   5.838   5.744
 5363SOL    HW116988   5.724   5.832   5.737
 5363SOL    HW216989   5.853   5.797   5.831
 5364SOL     OW16990   6.114   6.582   1.698
 5364SOL    HW116991   6.178   6.626   1.761
 5364SOL    HW216992   6.163   6.512   1.645
 5365SOL     OW16993   2.920   3.221   2.380
 5365SOL    HW116994   2.820   3.219   2.374
 5365SOL    HW216995   2.960   3.180   2.298
 5366SOL     OW16996   6.851   6.375   1.522
 5366SOL    HW116997   6.861   6.472   1.497
 5366SOL    HW216998   6.757   6.345   1.501
 5367SOL     OW16999   0.416   0.071   1.508
 5367SOL    HW117000   0.359   0.003   1.462
 5367SOL    HW217001   0.397   0.161   1.470
 5368SOL     OW17002   6.306   6.897   2.439
 5368SOL    HW117003   6.286   6.907   2.341
 5368SOL    HW217004   6.238   6.948   2.492
 5369SOL     OW17005   2.641   6.649   0.744
 5369SOL    HW117006   2.720   6.592   0.723
 5369SOL    HW217007   2.558   6.607   0.705
 5370SOL     OW17008   4.266   3.857   0.928
 5370SOL    HW117009   4.280   3.865   0.829
 5370SOL    HW217010   4.326   3.786   0.965
 5371SOL     OW17011   0.574   4.919   4.986
 5371SOL    HW117012   0.518   4.837   4.991
 5371SOL    HW217013   0.520   4.998   5.018
 5372SOL     OW17014   1.014   6.354   3.077
 5372SOL    HW117015   1.035   6.452   3.076
 5372SOL    HW217016   1.087   6.305   3.029
 5373SOL     OW17017   4.320   6.486   5.438
 5373SOL    HW117018   4.246   6.518   5.497
 5373SOL    HW217019   4.301   6.511   5.344
 5374SOL     OW17020   2.634   4.990   0.689
 5374SOL    HW117021   2.592   4.900   0.704
 5374SOL    HW217022   2.573   5.062   0.723
 5375SOL     OW17023   0.192   5.728   5.687
 5375SOL    HW117024   0.109   5.779   5.710
 5375SOL    HW217025   0.264   5.750   5.753
 5376SOL     OW17026   1.088   2.466   1.889
 5376SOL    HW117027   1.066   2.563   1.893
 5376SOL    HW217028   1.161   2.451   1.822
 5377SOL     OW17029   0.900   0.233   2.660
 5377SOL    HW117030   0.812   0.195   2.690
 5377SOL    HW217031   0.886   0.325   2.625
 5378SOL     OW17032   0.075   6.999   2.607
 5378SOL    HW117033   0.004   6.996   2.677
 5378SOL    HW217034   0.033   7.007   2.517
 5379SOL     OW17035   1.145   3.491   4.900
 5379SOL    HW117036   1.198   3.445   4.971
 5379SOL    HW217037   1.080   3.427   4.860
 5380SOL     OW17038   2.980   6.853   1.472
 5380SOL    HW117039   3.033   6.939   1.472
 5380SOL    HW217040   2.982   6.813   1.563
 5381SOL     OW17041   6.863   6.070   1.984
 5381SOL    HW117042   6.774   6.079   1.940
 5381SOL    HW217043   6.872   6.139   2.055
 5382SOL     OW17044   2.971   2.157   2.143
 5382SOL    HW117045   2.913   2.230   2.105
 5382SOL    HW217046   3.053   2.198   2.182
 5383SOL     OW17047   1.732   2.837   4.767
 5383SOL    HW117048   1.831   2.845   4.755
 5383SOL    HW217049   1.710   2.841   4.865
 5384SOL     OW17050   4.972   6.397   4.780
 5384SOL    HW117051   5.051   6.442   4.823
 5384SOL    HW217052   4.961   6.431   4.687
 5385SOL     OW17053   4.606   2.986   5.287
 5385SOL    HW117054   4.509   2.974   5.267
 5385SOL    HW217055   4.615   3.029   5.377
 5386SOL     OW17056   5.522   1.816   3.935
 5386SOL    HW117057   5.572   1.811   3.849
 5386SOL    HW217058   5.424   1.823   3.917
 5387SOL     OW17059   2.588   6.503   2.990
 5387SOL    HW117060   2.634   6.469   3.072
 5387SOL    HW217061   2.653   6.554   2.933
 5388SOL     OW17062   1.102   0.311   2.457
 5388SOL    HW117063   1.114   0.234   2.394
 5388SOL    HW217064   1.032   0.288   2.524
 5389SOL     OW17065   3.572   1.324   4.090
 5389SOL    HW117066   3.477   1.314   4.059
 5389SOL    HW217067   3.580   1.405   4.148
 5390SOL     OW17068   6.000   4.029   3.476
 5390SOL    HW117069   6.050   4.010   3.392
 5390SOL    HW217070   6.053   3.995   3.554
 5391SOL     OW17071   2.441   1.699   0.862
 5391SOL    HW117072   2.407   1.774   0.919
 5391SOL    HW217073   2.534   1.675   0.890
 5392SOL     OW17074   5.523   3.820   0.809
 5392SOL    HW117075   5.524   3.912   0.768
 5392SOL    HW217076   5.544   3.752   0.739
 5393SOL     OW17077   5.109   0.924   4.924
 5393SOL    HW117078   5.159   0.927   5.010
 5393SOL    HW217079   5.146   0.851   4.867
 5394SOL     OW17080   1.005   5.606   1.043
 5394SOL    HW117081   1.037   5.569   0.956
 5394SOL    HW217082   0.940   5.543   1.085
 5395SOL     OW17083   5.122   0.517   1.315
 5395SOL    HW117084   5.110   0.458   1.235
 5395SOL    HW217085   5.036   0.563   1.336
 5396SOL     OW17086   5.665   4.613   1.682
 5396SOL    HW117087   5.677   4.687   1.615
 5396SOL    HW217088   5.750   4.601   1.733
 5397SOL     OW17089   6.710   1.977   1.848
 5397SOL    HW117090   6.651   1.917   1.794
 5397SOL    HW217091   6.789   1.924   1.881
 5398SOL     OW17092   3.013   1.877   4.141
 5398SOL    HW117093   2.935   1.934   4.166
 5398SOL    HW217094   3.013   1.795   4.198
 5399SOL     OW17095   2.871   6.766   6.160
 5399SOL    HW117096   2.867   6.808   6.070
 5399SOL    HW217097   2.788   6.787   6.211
 5400SOL     OW17098   3.459   3.518   0.471
 5400SOL    HW117099   3.550   3.532   0.433
 5400SOL    HW217100   3.406   3.460   0.409
 5401SOL     OW17101   5.804   4.365   2.129
 5401SOL    HW117102   5.802   4.444   2.068
 5401SOL    HW217103   5.789   4.282   2.075
 5402SOL     OW17104   2.896   6.352   1.167
 5402SOL    HW117105   2.871   6.268   1.119
 5402SOL    HW217106   2.819   6.416   1.166
 5403SOL     OW17107   5.135   3.450   6.006
 5403SOL    HW117108   5.133   3.351   5.992
 5403SOL    HW217109   5.046   3.481   6.039
 5404SOL     OW17110   0.819   0.297   1.633
 5404SOL    HW117111   0.840   0.213   1.583
 5404SOL    HW217112   0.770   0.275   1.717
 5405SOL     OW17113   5.217   4.951   6.516
 5405SOL    HW117114   5.253   4.859   6.502
 5405SOL    HW217115   5.163   4.953   6.600
 5406SOL     OW17116   1.852   0.713   5.237
 5406SOL    HW117117   1.838   0.716   5.336
 5406SOL    HW217118   1.772   0.752   5.190
 5407SOL     OW17119   3.099   1.775   0.754
 5407SOL    HW117120   3.033   1.716   0.802
 5407SOL    HW217121   3.100   1.865   0.797
 5408SOL     OW17122   4.145   0.696   4.755
 5408SOL    HW117123   4.125   0.791   4.780
 5408SOL    HW217124   4.223   0.663   4.807
 5409SOL     OW17125   6.403   1.763   2.905
 5409SOL    HW117126   6.423   1.803   2.994
 5409SOL    HW217127   6.489   1.731   2.863
 5410SOL     OW17128   0.970   2.011   6.506
 5410SOL    HW117129   0.947   1.958   6.425
 5410SOL    HW217130   1.053   2.063   6.490
 5411SOL     OW17131   5.515   5.545   6.400
 5411SOL    HW117132   5.450   5.539   6.476
 5411SOL    HW217133   5.578   5.467   6.403
 5412SOL     OW17134   3.051   1.357   6.467
 5412SOL    HW117135   3.043   1.283   6.401
 5412SOL    HW217136   3.069   1.443   6.418
 5413SOL     OW17137   0.864   6.950   6.719
 5413SOL    HW117138   0.921   6.958   6.801
 5413SOL    HW217139   0.815   0.019   6.704
 5414SOL     OW17140   6.201   5.086   4.700
 5414SOL    HW117141   6.241   4.999   4.727
 5414SOL    HW217142   6.102   5.078   4.695
 5415SOL     OW17143   2.381   6.477   1.384
 5415SOL    HW117144   2.393   6.396   1.442
 5415SOL    HW217145   2.343   6.449   1.295
 5416SOL     OW17146   2.982   4.892   5.072
 5416SOL    HW117147   2.950   4.808   5.029
 5416SOL    HW217148   2.937   4.971   5.030
 5417SOL     OW17149   4.053   6.735   4.790
 5417SOL    HW117150   4.101   6.816   4.754
 5417SOL    HW217151   4.120   6.673   4.830
 5418SOL     OW17152   5.736   6.126   4.814
 5418SOL    HW117153   5.753   6.182   4.895
 5418SOL    HW217154   5.820   6.077   4.790
 5419SOL     OW17155   3.129   5.842   0.718
 5419SOL    HW117156   3.178   5.777   0.661
 5419SOL    HW217157   3.077   5.793   0.788
 5420SOL     OW17158   1.708   2.044   1.276
 5420SOL    HW117159   1.694   1.984   1.355
 5420SOL    HW217160   1.803   2.037   1.245
 5421SOL     OW17161   3.432   5.095   1.809
 5421SOL    HW117162   3.502   5.070   1.875
 5421SOL    HW217163   3.415   5.194   1.814
 5422SOL     OW17164   0.978   4.507   4.334
 5422SOL    HW117165   0.959   4.487   4.238
 5422SOL    HW217166   0.922   4.584   4.364
 5423SOL     OW17167   5.140   5.121   6.904
 5423SOL    HW117168   5.059   5.097   6.957
 5423SOL    HW217169   5.163   5.046   6.842
 5424SOL     OW17170   5.672   3.929   4.665
 5424SOL    HW117171   5.641   3.936   4.571
 5424SOL    HW217172   5.606   3.875   4.718
 5425SOL     OW17173   5.796   1.927   5.115
 5425SOL    HW117174   5.827   1.954   5.024
 5425SOL    HW217175   5.745   1.841   5.108
 5426SOL     OW17176   5.638   5.530   2.764
 5426SOL    HW117177   5.539   5.530   2.750
 5426SOL    HW217178   5.681   5.591   2.696
 5427SOL     OW17179   5.076   3.192   0.093
 5427SOL    HW117180   5.108   3.137   0.170
 5427SOL    HW217181   5.049   3.132   0.018
 5428SOL     OW17182   5.487   6.730   1.395
 5428SOL    HW117183   5.547   6.727   1.475
 5428SOL    HW217184   5.511   6.656   1.332
 5429SOL     OW17185   2.248   0.490   5.554
 5429SOL    HW117186   2.332   0.491   5.608
 5429SOL    HW217187   2.264   0.443   5.467
 5430SOL     OW17188   1.841   2.956   5.363
 5430SOL    HW117189   1.866   2.998   5.450
 5430SOL    HW217190   1.891   3.001   5.289
 5431SOL     OW17191   2.948   3.893   6.268
 5431SOL    HW117192   3.026   3.903   6.330
 5431SOL    HW217193   2.922   3.796   6.263
 5432SOL     OW17194   3.622   5.259   6.460
 5432SOL    HW117195   3.551   5.252   6.390
 5432SOL    HW217196   3.712   5.255   6.417
 5433SOL     OW17197   0.934   0.745   1.995
 5433SOL    HW117198   0.863   0.713   1.932
 5433SOL    HW217199   1.003   0.796   1.945
 5434SOL     OW17200   3.920   1.058   4.606
 5434SOL    HW117201   3.974   1.026   4.529
 5434SOL    HW217202   3.942   1.154   4.626
 5435SOL     OW17203   6.293   3.481   0.902
 5435SOL    HW117204   6.194   3.477   0.889
 5435SOL    HW217205   6.336   3.405   0.854
 5436SOL     OW17206   5.844   4.765   3.907
 5436SOL    HW117207   5.803   4.695   3.966
 5436SOL    HW217208   5.772   4.817   3.862
 5437SOL     OW17209   3.267   4.970   4.838
 5437SOL    HW117210   3.262   4.886   4.891
 5437SOL    HW217211   3.236   4.952   4.744
 5438SOL     OW17212   5.695   4.330   2.405
 5438SOL    HW117213   5.711   4.388   2.325
 5438SOL    HW217214   5.762   4.257   2.408
 5439SOL     OW17215   0.585   3.219   6.969
 5439SOL    HW117216   0.494   3.224   6.927
 5439SOL    HW217217   0.603   3.125   6.998
 5440SOL     OW17218   6.384   6.346   3.361
 5440SOL    HW117219   6.467   6.359   3.308
 5440SOL    HW217220   6.404   6.356   3.458
 5441SOL     OW17221   4.905   3.622   3.747
 5441SOL    HW117222   4.897   3.628   3.847
 5441SOL    HW217223   4.997   3.592   3.722
 5442SOL     OW17224   3.559   0.510   3.520
 5442SOL    HW117225   3.650   0.551   3.512
 5442SOL    HW217226   3.509   0.557   3.593
 5443SOL     OW17227   3.930   5.793   3.963
 5443SOL    HW117228   3.997   5.728   3.926
 5443SOL    HW217229   3.926   5.785   4.063
 5444SOL     OW17230   0.309   0.576   3.875
 5444SOL    HW117231   0.253   0.559   3.794
 5444SOL    HW217232   0.250   0.599   3.953
 5445SOL     OW17233   5.943   4.428   3.809
 5445SOL    HW117234   6.000   4.351   3.837
 5445SOL    HW217235   5.853   4.395   3.779
 5446SOL     OW17236   5.809   5.635   3.971
 5446SOL    HW117237   5.893   5.676   3.935
 5446SOL    HW217238   5.832   5.571   4.044
 5447SOL     OW17239   1.346   1.192   0.638
 5447SOL    HW117240   1.347   1.099   0.603
 5447SOL    HW217241   1.386   1.253   0.569
 5448SOL     OW17242   4.453   4.632   3.829
 5448SOL    HW117243   4.435   4.645   3.731
 5448SOL    HW217244   4.379   4.674   3.882
 5449SOL     OW17245   2.288   1.476   0.724
 5449SOL    HW117246   2.356   1.405   0.740
 5449SOL    HW217247   2.305   1.553   0.785
 5450SOL     OW17248   3.086   0.434   1.392
 5450SOL    HW117249   3.123   0.476   1.475
 5450SOL    HW217250   3.161   0.413   1.330
 5451SOL     OW17251   1.911   6.056   3.456
 5451SOL    HW117252   1.861   5.980   3.415
 5451SOL    HW217253   1.928   6.126   3.386
 5452SOL     OW17254   2.742   4.302   1.069
 5452SOL    HW117255   2.694   4.231   1.017
 5452SOL    HW217256   2.701   4.309   1.160
 5453SOL     OW17257   5.343   3.723   2.152
 5453SOL    HW117258   5.406   3.777   2.096
 5453SOL    HW217259   5.269   3.782   2.184
 5454SOL     OW17260   5.809   5.665   1.118
 5454SOL    HW117261   5.745   5.625   1.185
 5454SOL    HW217262   5.890   5.700   1.166
 5455SOL     OW17263   0.183   2.058   3.826
 5455SOL    HW117264   0.206   2.017   3.915
 5455SOL    HW217265   0.266   2.067   3.771
 5456SOL     OW17266   3.414   1.976   6.712
 5456SOL    HW117267   3.417   1.962   6.811
 5456SOL    HW217268   3.353   2.052   6.690
 5457SOL     OW17269   6.646   1.920   1.139
 5457SOL    HW117270   6.577   1.988   1.112
 5457SOL    HW217271   6.636   1.838   1.083
 5458SOL     OW17272   6.807   5.340   0.313
 5458SOL    HW117273   6.710   5.323   0.295
 5458SOL    HW217274   6.818   5.432   0.350
 5459SOL     OW17275   2.161   4.666   5.653
 5459SOL    HW117276   2.216   4.725   5.711
 5459SOL    HW217277   2.176   4.691   5.557
 5460SOL     OW17278   2.941   6.978   2.821
 5460SOL    HW117279   3.003   0.013   2.879
 5460SOL    HW217280   2.920   0.012   2.738
 5461SOL     OW17281   0.762   6.855   4.287
 5461SOL    HW117282   0.809   6.780   4.332
 5461SOL    HW217283   0.701   6.900   4.353
 5462SOL     OW17284   5.697   6.321   6.927
 5462SOL    HW117285   5.680   6.228   6.957
 5462SOL    HW217286   5.671   6.330   6.830
 5463SOL     OW17287   0.263   1.931   0.162
 5463SOL    HW117288   0.350   1.978   0.175
 5463SOL    HW217289   0.188   1.993   0.186
 5464SOL     OW17290   5.783   6.593   4.876
 5464SOL    HW117291   5.785   6.677   4.931
 5464SOL    HW217292   5.694   6.585   4.832
 5465SOL     OW17293   5.858   0.926   3.542
 5465SOL    HW117294   5.800   0.863   3.593
 5465SOL    HW217295   5.835   0.923   3.445
 5466SOL     OW17296   4.941   2.500   5.595
 5466SOL    HW117297   4.914   2.591   5.562
 5466SOL    HW217298   5.024   2.470   5.546
 5467SOL     OW17299   6.451   3.451   3.350
 5467SOL    HW117300   6.429   3.353   3.349
 5467SOL    HW217301   6.370   3.503   3.379
 5468SOL     OW17302   6.502   1.628   5.264
 5468SOL    HW117303   6.543   1.541   5.237
 5468SOL    HW217304   6.441   1.613   5.341
 5469SOL     OW17305   3.259   6.077   5.223
 5469SOL    HW117306   3.312   6.054   5.142
 5469SOL    HW217307   3.162   6.070   5.202
 5470SOL     OW17308   3.370   5.190   4.115
 5470SOL    HW117309   3.340   5.099   4.140
 5470SOL    HW217310   3.381   5.246   4.197
 5471SOL     OW17311   6.748   0.871   2.637
 5471SOL    HW117312   6.751   0.774   2.613
 5471SOL    HW217313   6.687   0.885   2.715
 5472SOL     OW17314   2.926   3.232   6.492
 5472SOL    HW117315   2.952   3.209   6.398
 5472SOL    HW217316   2.891   3.326   6.495
 5473SOL     OW17317   1.821   3.340   0.752
 5473SOL    HW117318   1.783   3.305   0.667
 5473SOL    HW217319   1.919   3.358   0.741
 5474SOL     OW17320   1.072   4.487   5.013
 5474SOL    HW117321   1.003   4.519   5.078
 5474SOL    HW217322   1.154   4.544   5.022
 5475SOL     OW17323   1.378   1.926   0.659
 5475SOL    HW117324   1.387   1.828   0.677
 5475SOL    HW217325   1.315   1.941   0.583
 5476SOL     OW17326   2.152   4.665   5.064
 5476SOL    HW117327   2.231   4.613   5.032
 5476SOL    HW217328   2.103   4.703   4.986
 5477SOL     OW17329   1.785   4.150   2.649
 5477SOL    HW117330   1.821   4.059   2.668
 5477SOL    HW217331   1.853   4.204   2.600
 5478SOL     OW17332   4.063   0.414   5.437
 5478SOL    HW117333   4.101   0.388   5.526
 5478SOL    HW217334   4.014   0.336   5.398
 5479SOL     OW17335   4.973   2.024   4.981
 5479SOL    HW117336   4.874   2.021   4.965
 5479SOL    HW217337   5.010   1.931   4.978
 5480SOL     OW17338   5.268   5.646   4.210
 5480SOL    HW117339   5.219   5.728   4.240
 5480SOL    HW217340   5.363   5.651   4.241
 5481SOL     OW17341   4.568   1.709   4.359
 5481SOL    HW117342   4.538   1.636   4.421
 5481SOL    HW217343   4.542   1.685   4.265
 5482SOL     OW17344   3.618   3.594   2.268
 5482SOL    HW117345   3.565   3.675   2.291
 5482SOL    HW217346   3.711   3.621   2.243
 5483SOL     OW17347   0.437   2.124   5.024
 5483SOL    HW117348   0.504   2.184   5.068
 5483SOL    HW217349   0.393   2.173   4.949
 5484SOL     OW17350   4.931   0.534   3.995
 5484SOL    HW117351   4.935   0.539   4.095
 5484SOL    HW217352   4.881   0.612   3.959
 5485SOL     OW17353   3.290   6.984   5.276
 5485SOL    HW117354   3.208   0.011   5.241
 5485SOL    HW217355   3.270   6.887   5.292
 5486SOL     OW17356   2.024   5.684   5.403
 5486SOL    HW117357   1.995   5.598   5.446
 5486SOL    HW217358   2.086   5.732   5.464
 5487SOL     OW17359   4.813   3.139   6.110
 5487SOL    HW117360   4.803   3.110   6.205
 5487SOL    HW217361   4.774   3.230   6.098
 5488SOL     OW17362   5.569   0.867   1.430
 5488SOL    HW117363   5.660   0.893   1.460
 5488SOL    HW217364   5.523   0.816   1.503
 5489SOL     OW17365   1.453   5.037   1.354
 5489SOL    HW117366   1.517   4.962   1.372
 5489SOL    HW217367   1.375   5.003   1.301
 5490SOL     OW17368   3.691   0.101   0.073
 5490SOL    HW117369   3.618   0.038   0.049
 5490SOL    HW217370   3.669   0.193   0.039
 5491SOL     OW17371   1.972   3.780   0.835
 5491SOL    HW117372   2.017   3.818   0.915
 5491SOL    HW217373   2.036   3.724   0.783
 5492SOL     OW17374   0.572   2.259   6.480
 5492SOL    HW117375   0.638   2.254   6.555
 5492SOL    HW217376   0.621   2.270   6.394
 5493SOL     OW17377   3.776   4.107   4.283
 5493SOL    HW117378   3.683   4.114   4.318
 5493SOL    HW217379   3.817   4.198   4.277
 5494SOL     OW17380   6.450   2.509   6.240
 5494SOL    HW117381   6.369   2.560   6.209
 5494SOL    HW217382   6.527   2.572   6.249
 5495SOL     OW17383   4.140   2.056   1.353
 5495SOL    HW117384   4.098   2.064   1.444
 5495SOL    HW217385   4.068   2.048   1.284
 5496SOL     OW17386   2.591   7.014   3.031
 5496SOL    HW117387   2.568   0.036   2.942
 5496SOL    HW217388   2.648   6.932   3.018
 5497SOL     OW17389   0.247   1.870   4.031
 5497SOL    HW117390   0.308   1.824   3.967
 5497SOL    HW217391   0.169   1.810   4.052
 5498SOL     OW17392   6.089   6.247   1.077
 5498SOL    HW117393   6.067   6.262   0.981
 5498SOL    HW217394   6.008   6.218   1.127
 5499SOL     OW17395   6.975   0.926   4.800
 5499SOL    HW117396   0.017   0.846   4.793
 5499SOL    HW217397   0.010   1.003   4.839
 5500SOL     OW17398   1.560   0.233   0.394
 5500SOL    HW117399   1.634   0.204   0.334
 5500SOL    HW217400   1.490   0.161   0.398
 5501SOL     OW17401   3.962   6.466   0.345
 5501SOL    HW117402   3.866   6.474   0.318
 5501SOL    HW217403   3.976   6.378   0.390
 5502SOL     OW17404   5.907   3.442   0.046
 5502SOL    HW117405   5.962   3.470   6.985
 5502SOL    HW217406   5.810   3.442   0.021
 5503SOL     OW17407   0.016   5.129   3.048
 5503SOL    HW117408   0.104   5.166   3.019
 5503SOL    HW217409   6.976   5.202   3.083
 5504SOL     OW17410   4.005   0.929   5.072
 5504SOL    HW117411   4.094   0.917   5.116
 5504SOL    HW217412   4.018   0.937   4.973
 5505SOL     OW17413   1.706   5.284   4.358
 5505SOL    HW117414   1.722   5.219   4.284
 5505SOL    HW217415   1.721   5.377   4.324
 5506SOL     OW17416   1.522   2.018   6.057
 5506SOL    HW117417   1.587   2.094   6.051
 5506SOL    HW217418   1.478   2.005   5.968
 5507SOL     OW17419   2.836   0.180   3.734
 5507SOL    HW117420   2.875   0.121   3.805
 5507SOL    HW217421   2.767   0.129   3.683
 5508SOL     OW17422   1.240   0.678   6.059
 5508SOL    HW117423   1.224   0.757   6.119
 5508SOL    HW217424   1.261   0.598   6.115
 5509SOL     OW17425   0.670   6.356   0.245
 5509SOL    HW117426   0.762   6.354   0.208
 5509SOL    HW217427   0.637   6.262   0.259
 5510SOL     OW17428   4.923   5.713   1.182
 5510SOL    HW117429   4.996   5.682   1.121
 5510SOL    HW217430   4.907   5.811   1.168
 5511SOL     OW17431   2.105   1.338   4.126
 5511SOL    HW117432   2.030   1.284   4.087
 5511SOL    HW217433   2.193   1.295   4.103
 5512SOL     OW17434   5.882   2.049   1.465
 5512SOL    HW117435   5.818   2.053   1.541
 5512SOL    HW217436   5.974   2.072   1.498
 5513SOL     OW17437   4.326   5.289   6.910
 5513SOL    HW117438   4.226   5.288   6.918
 5513SOL    HW217439   4.365   5.233   6.983
 5514SOL     OW17440   3.922   6.701   3.294
 5514SOL    HW117441   3.929   6.796   3.323
 5514SOL    HW217442   4.013   6.667   3.270
 5515SOL     OW17443   0.565   4.817   1.185
 5515SOL    HW117444   0.622   4.768   1.120
 5515SOL    HW217445   0.573   4.915   1.169
 5516SOL     OW17446   1.921   3.954   6.874
 5516SOL    HW117447   1.953   3.860   6.863
 5516SOL    HW217448   1.991   4.017   6.844
 5517SOL     OW17449   1.973   3.409   1.985
 5517SOL    HW117450   1.922   3.458   1.916
 5517SOL    HW217451   2.060   3.455   2.002
 5518SOL     OW17452   6.364   6.593   6.691
 5518SOL    HW117453   6.315   6.526   6.635
 5518SOL    HW217454   6.462   6.585   6.673
 5519SOL     OW17455   5.359   3.200   2.981
 5519SOL    HW117456   5.320   3.227   3.069
 5519SOL    HW217457   5.334   3.105   2.961
 5520SOL     OW17458   6.256   5.810   1.777
 5520SOL    HW117459   6.346   5.790   1.815
 5520SOL    HW217460   6.186   5.784   1.843
 5521SOL     OW17461   5.316   0.077   1.701
 5521SOL    HW117462   5.314   0.025   1.787
 5521SOL    HW217463   5.261   0.160   1.712
 5522SOL     OW17464   0.048   5.255   0.398
 5522SOL    HW117465   6.986   5.307   0.368
 5522SOL    HW217466   0.119   5.257   0.328
 5523SOL     OW17467   3.807   6.921   2.251
 5523SOL    HW117468   3.903   6.893   2.247
 5523SOL    HW217469   3.779   6.959   2.163
 5524SOL     OW17470   5.108   5.204   4.982
 5524SOL    HW117471   5.023   5.216   4.931
 5524SOL    HW217472   5.091   5.216   5.079
 5525SOL     OW17473   0.240   2.671   0.698
 5525SOL    HW117474   0.215   2.606   0.770
 5525SOL    HW217475   0.234   2.626   0.609
 5526SOL     OW17476   4.810   4.921   4.356
 5526SOL    HW117477   4.788   4.994   4.290
 5526SOL    HW217478   4.725   4.885   4.393
 5527SOL     OW17479   5.703   3.857   3.821
 5527SOL    HW117480   5.682   3.819   3.731
 5527SOL    HW217481   5.746   3.787   3.878
 5528SOL     OW17482   0.828   1.472   6.775
 5528SOL    HW117483   0.895   1.422   6.831
 5528SOL    HW217484   0.754   1.504   6.833
 5529SOL     OW17485   2.285   0.294   2.907
 5529SOL    HW117486   2.267   0.269   3.002
 5529SOL    HW217487   2.199   0.314   2.861
 5530SOL     OW17488   6.014   2.478   2.164
 5530SOL    HW117489   5.918   2.453   2.175
 5530SOL    HW217490   6.071   2.396   2.167
 5531SOL     OW17491   3.385   2.910   2.265
 5531SOL    HW117492   3.351   3.003   2.252
 5531SOL    HW217493   3.384   2.888   2.363
 5532SOL     OW17494   0.919   2.429   0.564
 5532SOL    HW117495   0.970   2.368   0.625
 5532SOL    HW217496   0.838   2.381   0.530
 5533SOL     OW17497   3.656   1.179   3.205
 5533SOL    HW117498   3.587   1.149   3.271
 5533SOL    HW217499   3.616   1.181   3.113
 5534SOL     OW17500   1.240   2.211   6.092
 5534SOL    HW117501   1.291   2.297   6.094
 5534SOL    HW217502   1.303   2.134   6.094
 5535SOL     OW17503   0.201   2.910   3.711
 5535SOL    HW117504   0.237   2.834   3.765
 5535SOL    HW217505   0.273   2.979   3.699
 5536SOL     OW17506   2.918   1.351   4.141
 5536SOL    HW117507   2.979   1.395   4.076
 5536SOL    HW217508   2.837   1.407   4.155
 5537SOL     OW17509   2.352   1.121   2.654
 5537SOL    HW117510   2.291   1.117   2.575
 5537SOL    HW217511   2.445   1.141   2.624
 5538SOL     OW17512   2.719   6.465   5.611
 5538SOL    HW117513   2.655   6.538   5.634
 5538SOL    HW217514   2.675   6.401   5.548
 5539SOL     OW17515   1.153   3.366   0.976
 5539SOL    HW117516   1.120   3.283   1.021
 5539SOL    HW217517   1.115   3.447   1.022
 5540SOL     OW17518   6.026   3.701   3.846
 5540SOL    HW117519   5.952   3.699   3.913
 5540SOL    HW217520   6.112   3.678   3.892
 5541SOL     OW17521   6.086   0.470   6.273
 5541SOL    HW117522   6.185   0.465   6.284
 5541SOL    HW217523   6.045   0.384   6.303
 5542SOL     OW17524   5.855   4.387   6.115
 5542SOL    HW117525   5.902   4.316   6.062
 5542SOL    HW217526   5.757   4.366   6.119
 5543SOL     OW17527   3.565   5.445   5.686
 5543SOL    HW117528   3.593   5.530   5.641
 5543SOL    HW217529   3.553   5.373   5.617
 5544SOL     OW17530   5.739   5.924   6.017
 5544SOL    HW117531   5.737   5.963   6.109
 5544SOL    HW217532   5.820   5.956   5.969
 5545SOL     OW17533   3.725   1.727   1.975
 5545SOL    HW117534   3.739   1.800   1.908
 5545SOL    HW217535   3.731   1.638   1.929
 5546SOL     OW17536   0.986   6.159   4.621
 5546SOL    HW117537   0.913   6.223   4.645
 5546SOL    HW217538   0.971   6.126   4.527
 5547SOL     OW17539   2.839   0.093   4.692
 5547SOL    HW117540   2.787   0.149   4.629
 5547SOL    HW217541   2.852   0.002   4.653
 5548SOL     OW17542   5.467   3.687   5.932
 5548SOL    HW117543   5.505   3.721   5.845
 5548SOL    HW217544   5.513   3.734   6.007
 5549SOL     OW17545   4.276   3.786   6.689
 5549SOL    HW117546   4.304   3.754   6.780
 5549SOL    HW217547   4.254   3.884   6.694
 5550SOL     OW17548   2.377   4.407   1.915
 5550SOL    HW117549   2.318   4.465   1.860
 5550SOL    HW217550   2.434   4.464   1.975
 5551SOL     OW17551   1.881   0.053   3.001
 5551SOL    HW117552   1.953   7.016   3.045
 5551SOL    HW217553   1.849   0.124   3.064
 5552SOL     OW17554   0.006   0.195   6.932
 5552SOL    HW117555   6.958   0.262   6.967
 5552SOL    HW217556   6.990   0.160   6.844
 5553SOL     OW17557   5.589   6.218   6.676
 5553SOL    HW117558   5.503   6.177   6.708
 5553SOL    HW217559   5.568   6.287   6.606
 5554SOL     OW17560   4.228   1.704   5.396
 5554SOL    HW117561   4.252   1.780   5.336
 5554SOL    HW217562   4.137   1.670   5.372
 5555SOL     OW17563   1.924   4.742   3.779
 5555SOL    HW117564   2.013   4.705   3.804
 5555SOL    HW217565   1.863   4.667   3.752
 5556SOL     OW17566   6.540   1.441   3.416
 5556SOL    HW117567   6.545   1.538   3.441
 5556SOL    HW217568   6.473   1.395   3.475
 5557SOL     OW17569   3.622   6.783   2.655
 5557SOL    HW117570   3.654   6.784   2.749
 5557SOL    HW217571   3.607   6.688   2.626
 5558SOL     OW17572   4.870   3.533   6.104
 5558SOL    HW117573   4.810   3.461   6.068
 5558SOL    HW217574   4.839   3.622   6.070
 5559SOL     OW17575   2.493   0.511   2.466
 5559SOL    HW117576   2.581   0.554   2.448
 5559SOL    HW217577   2.459   0.466   2.384
 5560SOL     OW17578   1.107   0.284   3.082
 5560SOL    HW117579   1.124   0.240   2.993
 5560SOL    HW217580   1.083   0.215   3.150
 5561SOL     OW17581   1.310   2.350   4.240
 5561SOL    HW117582   1.336   2.301   4.157
 5561SOL    HW217583   1.286   2.444   4.216
 5562SOL     OW17584   3.203   2.187   0.161
 5562SOL    HW117585   3.266   2.144   0.225
 5562SOL    HW217586   3.245   2.269   0.123
 5563SOL     OW17587   4.197   5.601   2.398
 5563SOL    HW117588   4.231   5.515   2.436
 5563SOL    HW217589   4.240   5.677   2.445
 5564SOL     OW17590   4.742   1.276   2.040
 5564SOL    HW117591   4.799   1.205   2.081
 5564SOL    HW217592   4.755   1.362   2.090
 5565SOL     OW17593   4.900   1.582   6.326
 5565SOL    HW117594   4.828   1.598   6.259
 5565SOL    HW217595   4.910   1.663   6.385
 5566SOL     OW17596   1.904   5.678   6.999
 5566SOL    HW117597   1.978   5.745   7.007
 5566SOL    HW217598   1.897   5.649   6.904
 5567SOL     OW17599   0.233   3.885   1.756
 5567SOL    HW117600   0.173   3.927   1.688
 5567SOL    HW217601   0.202   3.791   1.774
 5568SOL     OW17602   4.178   2.280   3.445
 5568SOL    HW117603   4.172   2.260   3.347
 5568SOL    HW217604   4.260   2.333   3.464
 5569SOL     OW17605   1.836   1.346   2.647
 5569SOL    HW117606   1.895   1.354   2.728
 5569SOL    HW217607   1.792   1.256   2.648
 5570SOL     OW17608   5.431   4.169   4.804
 5570SOL    HW117609   5.396   4.211   4.720
 5570SOL    HW217610   5.531   4.164   4.800
 5571SOL     OW17611   0.176   5.866   0.592
 5571SOL    HW117612   0.122   5.931   0.646
 5571SOL    HW217613   0.260   5.843   0.641
 5572SOL     OW17614   0.602   2.303   5.131
 5572SOL    HW117615   0.688   2.349   5.114
 5572SOL    HW217616   0.528   2.370   5.139
 5573SOL     OW17617   1.775   3.528   6.619
 5573SOL    HW117618   1.730   3.465   6.683
 5573SOL    HW217619   1.875   3.517   6.627
 5574SOL     OW17620   6.116   2.047   3.459
 5574SOL    HW117621   6.121   1.985   3.380
 5574SOL    HW217622   6.144   2.139   3.431
 5575SOL     OW17623   6.825   1.311   1.020
 5575SOL    HW117624   6.736   1.266   1.034
 5575SOL    HW217625   6.894   1.242   0.999
 5576SOL     OW17626   1.071   5.608   2.778
 5576SOL    HW117627   1.012   5.552   2.720
 5576SOL    HW217628   1.023   5.693   2.801
 5577SOL     OW17629   2.736   2.609   5.297
 5577SOL    HW117630   2.752   2.666   5.377
 5577SOL    HW217631   2.644   2.628   5.261
 5578SOL     OW17632   4.205   4.275   0.208
 5578SOL    HW117633   4.160   4.357   0.244
 5578SOL    HW217634   4.170   4.194   0.255
 5579SOL     OW17635   0.371   3.540   6.183
 5579SOL    HW117636   0.407   3.552   6.276
 5579SOL    HW217637   0.324   3.451   6.177
 5580SOL     OW17638   5.108   2.974   5.804
 5580SOL    HW117639   5.111   2.875   5.792
 5580SOL    HW217640   5.102   3.018   5.714
 5581SOL     OW17641   2.859   6.590   1.688
 5581SOL    HW117642   2.812   6.678   1.689
 5581SOL    HW217643   2.836   6.541   1.604
 5582SOL     OW17644   3.749   3.193   3.990
 5582SOL    HW117645   3.787   3.106   4.023
 5582SOL    HW217646   3.649   3.190   3.995
 5583SOL     OW17647   4.221   0.393   3.024
 5583SOL    HW117648   4.197   0.468   3.086
 5583SOL    HW217649   4.234   0.430   2.932
 5584SOL     OW17650   5.694   4.328   3.777
 5584SOL    HW117651   5.682   4.284   3.689
 5584SOL    HW217652   5.644   4.415   3.778
 5585SOL     OW17653   4.862   6.399   4.105
 5585SOL    HW117654   4.945   6.410   4.160
 5585SOL    HW217655   4.790   6.361   4.162
 5586SOL     OW17656   0.024   2.216   0.002
 5586SOL    HW117657   0.104   2.277   0.003
 5586SOL    HW217658   0.053   2.124   6.993
 5587SOL     OW17659   3.957   6.105   2.490
 5587SOL    HW117660   3.997   6.124   2.401
 5587SOL    HW217661   4.027   6.066   2.551
 5588SOL     OW17662   1.694   7.002   2.669
 5588SOL    HW117663   1.754   0.065   2.674
 5588SOL    HW217664   1.697   6.964   2.577
 5589SOL     OW17665   5.896   2.717   6.247
 5589SOL    HW117666   5.801   2.735   6.271
 5589SOL    HW217667   5.937   2.657   6.315
 5590SOL     OW17668   6.764   5.711   3.151
 5590SOL    HW117669   6.673   5.700   3.191
 5590SOL    HW217670   6.826   5.748   3.220
 5591SOL     OW17671   5.898   0.787   6.672
 5591SOL    HW117672   5.860   0.700   6.703
 5591SOL    HW217673   5.997   0.786   6.685
 5592SOL     OW17674   0.456   4.693   2.581
 5592SOL    HW117675   0.428   4.597   2.586
 5592SOL    HW217676   0.388   4.745   2.529
 5593SOL     OW17677   0.080   2.036   6.044
 5593SOL    HW117678   0.072   2.052   5.945
 5593SOL    HW217679   0.009   2.087   6.092
 5594SOL     OW17680   2.777   1.032   0.060
 5594SOL    HW117681   2.773   1.120   0.107
 5594SOL    HW217682   2.693   1.018   0.007
 5595SOL     OW17683   5.806   0.284   5.497
 5595SOL    HW117684   5.800   0.382   5.480
 5595SOL    HW217685   5.723   0.239   5.465
 5596SOL     OW17686   5.368   0.176   2.913
 5596SOL    HW117687   5.454   0.170   2.862
 5596SOL    HW217688   5.301   0.225   2.857
 5597SOL     OW17689   6.785   1.383   5.526
 5597SOL    HW117690   6.765   1.480   5.541
 5597SOL    HW217691   6.862   1.355   5.584
 5598SOL     OW17692   6.442   2.557   4.702
 5598SOL    HW117693   6.419   2.545   4.799
 5598SOL    HW217694   6.383   2.498   4.646
 5599SOL     OW17695   0.202   2.628   1.809
 5599SOL    HW117696   0.234   2.715   1.846
 5599SOL    HW217697   0.198   2.633   1.709
 5600SOL     OW17698   2.508   0.012   2.180
 5600SOL    HW117699   2.471   6.940   2.204
 5600SOL    HW217700   2.474   0.040   2.091
 5601SOL     OW17701   3.505   1.446   6.206
 5601SOL    HW117702   3.604   1.461   6.207
 5601SOL    HW217703   3.458   1.529   6.236
 5602SOL     OW17704   0.635   0.276   2.379
 5602SOL    HW117705   0.610   0.271   2.475
 5602SOL    HW217706   0.594   0.357   2.337
 5603SOL     OW17707   5.501   2.229   6.347
 5603SOL    HW117708   5.589   2.196   6.381
 5603SOL    HW217709   5.501   2.229   6.247
 5604SOL     OW17710   6.799   2.255   5.352
 5604SOL    HW117711   6.821   2.203   5.434
 5604SOL    HW217712   6.703   2.238   5.327
 5605SOL     OW17713   1.700   6.924   4.564
 5605SOL    HW117714   1.647   7.005   4.590
 5605SOL    HW217715   1.797   6.942   4.579
 5606SOL     OW17716   5.824   0.919   1.008
 5606SOL    HW117717   5.848   0.879   1.096
 5606SOL    HW217718   5.767   0.999   1.022
 5607SOL     OW17719   5.751   1.458   3.897
 5607SOL    HW117720   5.831   1.399   3.889
 5607SOL    HW217721   5.770   1.547   3.856
 5608SOL     OW17722   6.243   1.574   2.810
 5608SOL    HW117723   6.311   1.527   2.754
 5608SOL    HW217724   6.286   1.650   2.858
 5609SOL     OW17725   4.624   6.132   1.213
 5609SOL    HW117726   4.579   6.164   1.296
 5609SOL    HW217727   4.635   6.209   1.150
 5610SOL     OW17728   5.445   4.053   1.465
 5610SOL    HW117729   5.544   4.049   1.478
 5610SOL    HW217730   5.423   4.056   1.368
 5611SOL     OW17731   0.941   4.976   2.689
 5611SOL    HW117732   0.892   4.939   2.611
 5611SOL    HW217733   1.039   4.982   2.668
 5612SOL     OW17734   3.881   3.641   0.698
 5612SOL    HW117735   3.974   3.624   0.728
 5612SOL    HW217736   3.877   3.639   0.598
 5613SOL     OW17737   5.511   5.250   4.983
 5613SOL    HW117738   5.601   5.243   5.025
 5613SOL    HW217739   5.491   5.166   4.932
 5614SOL     OW17740   5.258   3.259   5.137
 5614SOL    HW117741   5.249   3.232   5.041
 5614SOL    HW217742   5.250   3.359   5.144
 5615SOL     OW17743   6.175   1.505   4.042
 5615SOL    HW117744   6.090   1.454   4.059
 5615SOL    HW217745   6.184   1.578   4.109
 5616SOL     OW17746   1.891   2.759   4.149
 5616SOL    HW117747   1.895   2.847   4.102
 5616SOL    HW217748   1.795   2.732   4.161
 5617SOL     OW17749   1.440   4.084   5.065
 5617SOL    HW117750   1.370   4.036   5.118
 5617SOL    HW217751   1.398   4.160   5.015
 5618SOL     OW17752   6.521   4.254   3.406
 5618SOL    HW117753   6.442   4.245   3.468
 5618SOL    HW217754   6.598   4.294   3.457
 5619SOL     OW17755   3.290   3.783   3.675
 5619SOL    HW117756   3.318   3.862   3.729
 5619SOL    HW217757   3.254   3.712   3.736
 5620SOL     OW17758   4.711   3.937   6.991
 5620SOL    HW117759   4.638   3.871   7.013
 5620SOL    HW217760   4.679   3.999   6.920
 5621SOL     OW17761   1.309   2.931   6.509
 5621SOL    HW117762   1.317   3.002   6.578
 5621SOL    HW217763   1.217   2.933   6.468
 5622SOL     OW17764   5.166   0.140   5.513
 5622SOL    HW117765   5.067   0.150   5.506
 5622SOL    HW217766   5.204   0.219   5.562
 5623SOL     OW17767   4.449   6.451   5.050
 5623SOL    HW117768   4.494   6.363   5.031
 5623SOL    HW217769   4.518   6.523   5.057
 5624SOL     OW17770   0.395   4.956   3.980
 5624SOL    HW117771   0.338   4.877   4.004
 5624SOL    HW217772   0.459   4.974   4.055
 5625SOL     OW17773   6.621   6.245   5.472
 5625SOL    HW117774   6.565   6.175   5.429
 5625SOL    HW217775   6.697   6.269   5.412
 5626SOL     OW17776   2.603   4.985   4.042
 5626SOL    HW117777   2.601   5.003   4.140
 5626SOL    HW217778   2.600   4.886   4.026
 5627SOL     OW17779   6.877   4.588   6.513
 5627SOL    HW117780   6.927   4.632   6.588
 5627SOL    HW217781   6.785   4.627   6.508
 5628SOL     OW17782   1.799   2.538   1.382
 5628SOL    HW117783   1.741   2.619   1.377
 5628SOL    HW217784   1.810   2.510   1.478
 5629SOL     OW17785   4.929   3.045   1.793
 5629SOL    HW117786   4.859   3.054   1.864
 5629SOL    HW217787   4.916   2.959   1.744
 5630SOL     OW17788   1.787   4.286   6.597
 5630SOL    HW117789   1.866   4.230   6.573
 5630SOL    HW217790   1.725   4.290   6.518
 5631SOL     OW17791   4.965   1.602   1.594
 5631SOL    HW117792   5.026   1.525   1.574
 5631SOL    HW217793   4.876   1.568   1.622
 5632SOL     OW17794   3.340   2.364   5.428
 5632SOL    HW117795   3.283   2.409   5.496
 5632SOL    HW217796   3.292   2.361   5.341
 5633SOL     OW17797   6.069   4.671   4.701
 5633SOL    HW117798   6.086   4.669   4.602
 5633SOL    HW217799   5.985   4.619   4.721
 5634SOL     OW17800   2.002   4.840   4.874
 5634SOL    HW117801   1.934   4.829   4.802
 5634SOL    HW217802   2.092   4.858   4.834
 5635SOL     OW17803   1.897   6.101   6.943
 5635SOL    HW117804   1.914   6.123   0.021
 5635SOL    HW217805   1.982   6.070   6.900
 5636SOL     OW17806   6.247   0.198   5.181
 5636SOL    HW117807   6.186   0.274   5.158
 5636SOL    HW217808   6.208   0.113   5.147
 5637SOL     OW17809   3.718   0.051   3.494
 5637SOL    HW117810   3.679   0.134   3.452
 5637SOL    HW217811   3.661   6.990   3.469
 5638SOL     OW17812   6.395   4.384   0.706
 5638SOL    HW117813   6.327   4.424   0.767
 5638SOL    HW217814   6.371   4.289   0.688
 5639SOL     OW17815   2.393   0.432   2.026
 5639SOL    HW117816   2.414   0.431   1.928
 5639SOL    HW217817   2.294   0.438   2.039
 5640SOL     OW17818   2.776   0.696   2.592
 5640SOL    HW117819   2.732   0.647   2.668
 5640SOL    HW217820   2.825   0.775   2.628
 5641SOL     OW17821   0.981   4.698   5.823
 5641SOL    HW117822   1.022   4.718   5.912
 5641SOL    HW217823   1.035   4.742   5.751
 5642SOL     OW17824   0.656   5.522   5.049
 5642SOL    HW117825   0.706   5.441   5.078
 5642SOL    HW217826   0.612   5.565   5.127
 5643SOL     OW17827   3.202   0.633   4.238
 5643SOL    HW117828   3.230   0.725   4.267
 5643SOL    HW217829   3.134   0.597   4.302
 5644SOL     OW17830   3.528   0.092   4.654
 5644SOL    HW117831   3.451   0.101   4.718
 5644SOL    HW217832   3.494   0.101   4.560
 5645SOL     OW17833   5.784   5.073   2.810
 5645SOL    HW117834   5.693   5.036   2.791
 5645SOL    HW217835   5.804   5.146   2.744
 5646SOL     OW17836   0.580   5.632   3.556
 5646SOL    HW117837   0.564   5.533   3.555
 5646SOL    HW217838   0.675   5.651   3.533
 5647SOL     OW17839   5.838   6.829   0.986
 5647SOL    HW117840   5.885   6.906   0.943
 5647SOL    HW217841   5.740   6.846   0.987
 5648SOL     OW17842   1.503   1.015   3.597
 5648SOL    HW117843   1.419   1.000   3.545
 5648SOL    HW217844   1.578   1.034   3.535
 5649SOL     OW17845   6.797   0.119   5.176
 5649SOL    HW117846   6.709   0.167   5.173
 5649SOL    HW217847   6.789   0.030   5.132
 5650SOL     OW17848   1.399   5.293   1.237
 5650SOL    HW117849   1.451   5.353   1.298
 5650SOL    HW217850   1.423   5.198   1.256
 5651SOL     OW17851   0.377   1.113   1.513
 5651SOL    HW117852   0.392   1.212   1.505
 5651SOL    HW217853   0.285   1.096   1.547
 5652SOL     OW17854   6.397   0.088   2.020
 5652SOL    HW117855   6.357   0.006   2.062
 5652SOL    HW217856   6.496   0.088   2.036
 5653SOL     OW17857   0.804   6.184   6.684
 5653SOL    HW117858   0.714   6.145   6.666
 5653SOL    HW217859   0.811   6.209   6.781
 5654SOL     OW17860   6.562   6.864   5.906
 5654SOL    HW117861   6.590   6.869   5.810
 5654SOL    HW217862   6.599   6.781   5.947
 5655SOL     OW17863   2.131   3.669   4.950
 5655SOL    HW117864   2.162   3.644   4.858
 5655SOL    HW217865   2.170   3.758   4.975
 5656SOL     OW17866   0.225   3.468   0.524
 5656SOL    HW117867   0.188   3.403   0.591
 5656SOL    HW217868   0.300   3.425   0.475
 5657SOL     OW17869   5.856   1.016   6.801
 5657SOL    HW117870   5.769   1.016   6.850
 5657SOL    HW217871   5.885   0.922   6.783
 5658SOL     OW17872   3.850   4.857   5.606
 5658SOL    HW117873   3.852   4.849   5.506
 5658SOL    HW217874   3.926   4.913   5.637
 5659SOL     OW17875   4.029   3.676   3.813
 5659SOL    HW117876   4.011   3.598   3.874
 5659SOL    HW217877   4.072   3.643   3.729
 5660SOL     OW17878   5.685   0.369   6.557
 5660SOL    HW117879   5.602   0.313   6.554
 5660SOL    HW217880   5.763   0.311   6.579
 5661SOL     OW17881   1.398   5.102   4.958
 5661SOL    HW117882   1.382   5.068   4.865
 5661SOL    HW217883   1.416   5.200   4.955
 5662SOL     OW17884   3.185   5.266   3.135
 5662SOL    HW117885   3.217   5.331   3.066
 5662SOL    HW217886   3.224   5.290   3.224
 5663SOL     OW17887   2.291   3.374   7.003
 5663SOL    HW117888   2.331   3.284   0.003
 5663SOL    HW217889   2.326   3.408   6.915
 5664SOL     OW17890   6.257   4.170   4.549
 5664SOL    HW117891   6.167   4.198   4.582
 5664SOL    HW217892   6.309   4.250   4.518
 5665SOL     OW17893   1.761   1.707   0.216
 5665SOL    HW117894   1.758   1.651   0.298
 5665SOL    HW217895   1.822   1.665   0.149
 5666SOL     OW17896   5.879   5.782   1.608
 5666SOL    HW117897   5.857   5.879   1.620
 5666SOL    HW217898   5.867   5.735   1.696
 5667SOL     OW17899   0.928   5.089   4.129
 5667SOL    HW117900   0.831   5.077   4.149
 5667SOL    HW217901   0.982   5.046   4.202
 5668SOL     OW17902   5.604   1.701   5.076
 5668SOL    HW117903   5.531   1.763   5.046
 5668SOL    HW217904   5.610   1.702   5.176
 5669SOL     OW17905   0.534   2.949   7.009
 5669SOL    HW117906   0.538   2.893   0.074
 5669SOL    HW217907   0.584   2.904   6.935
 5670SOL     OW17908   6.565   2.644   3.652
 5670SOL    HW117909   6.617   2.708   3.708
 5670SOL    HW217910   6.484   2.690   3.615
 5671SOL     OW17911   0.233   5.955   0.054
 5671SOL    HW117912   0.143   5.945   0.098
 5671SOL    HW217913   0.244   5.883   7.003
 5672SOL     OW17914   4.095   5.128   6.262
 5672SOL    HW117915   4.190   5.157   6.277
 5672SOL    HW217916   4.090   5.028   6.262
 5673SOL     OW17917   0.721   6.666   2.114
 5673SOL    HW117918   0.714   6.606   2.035
 5673SOL    HW217919   0.630   6.677   2.156
 5674SOL     OW17920   0.116   4.854   5.295
 5674SOL    HW117921   0.078   4.947   5.303
 5674SOL    HW217922   0.070   4.794   5.361
 5675SOL     OW17923   4.289   2.015   5.613
 5675SOL    HW117924   4.203   1.964   5.617
 5675SOL    HW217925   4.297   2.073   5.694
 5676SOL     OW17926   2.149   2.826   2.369
 5676SOL    HW117927   2.198   2.892   2.425
 5676SOL    HW217928   2.155   2.852   2.272
 5677SOL     OW17929   0.093   1.149   1.530
 5677SOL    HW117930   0.074   1.134   1.627
 5677SOL    HW217931   0.030   1.095   1.474
 5678SOL     OW17932   3.830   6.557   2.708
 5678SOL    HW117933   3.887   6.485   2.668
 5678SOL    HW217934   3.863   6.646   2.677
 5679SOL     OW17935   1.009   1.404   3.936
 5679SOL    HW117936   0.970   1.322   3.977
 5679SOL    HW217937   1.013   1.393   3.837
 5680SOL     OW17938   1.548   5.126   6.834
 5680SOL    HW117939   1.505   5.053   6.887
 5680SOL    HW217940   1.477   5.188   6.799
 5681SOL     OW17941   0.389   4.712   0.242
 5681SOL    HW117942   0.373   4.729   0.339
 5681SOL    HW217943   0.309   4.739   0.189
 5682SOL     OW17944   2.356   4.113   5.621
 5682SOL    HW117945   2.435   4.054   5.636
 5682SOL    HW217946   2.340   4.123   5.523
 5683SOL     OW17947   4.040   0.659   6.957
 5683SOL    HW117948   3.988   0.646   0.024
 5683SOL    HW217949   4.105   0.734   6.969
 5684SOL     OW17950   3.040   3.921   5.346
 5684SOL    HW117951   3.069   3.850   5.281
 5684SOL    HW217952   2.979   3.985   5.299
 5685SOL     OW17953   1.537   2.946   2.347
 5685SOL    HW117954   1.547   3.045   2.344
 5685SOL    HW217955   1.443   2.923   2.372
 5686SOL     OW17956   3.191   1.010   6.384
 5686SOL    HW117957   3.153   0.930   6.431
 5686SOL    HW217958   3.122   1.082   6.381
 5687SOL     OW17959   0.291   4.532   6.466
 5687SOL    HW117960   0.323   4.447   6.509
 5687SOL    HW217961   0.217   4.510   6.401
 5688SOL     OW17962   0.359   2.277   0.528
 5688SOL    HW117963   0.333   2.210   0.598
 5688SOL    HW217964   0.435   2.333   0.561
 5689SOL     OW17965   4.248   1.362   1.028
 5689SOL    HW117966   4.284   1.453   1.008
 5689SOL    HW217967   4.323   1.298   1.038
 5690SOL     OW17968   2.574   6.086   0.518
 5690SOL    HW117969   2.661   6.131   0.496
 5690SOL    HW217970   2.528   6.059   0.434
 5691SOL     OW17971   2.928   6.884   2.055
 5691SOL    HW117972   2.889   6.875   2.146
 5691SOL    HW217973   2.987   6.806   2.035
 5692SOL     OW17974   5.903   3.030   0.575
 5692SOL    HW117975   5.840   2.969   0.623
 5692SOL    HW217976   5.976   2.976   0.534
 5693SOL     OW17977   5.391   2.185   2.217
 5693SOL    HW117978   5.320   2.226   2.274
 5693SOL    HW217979   5.457   2.256   2.191
 5694SOL     OW17980   0.406   2.083   3.662
 5694SOL    HW117981   0.474   2.027   3.710
 5694SOL    HW217982   0.365   2.029   3.588
 5695SOL     OW17983   1.073   2.795   2.940
 5695SOL    HW117984   1.052   2.700   2.963
 5695SOL    HW217985   1.036   2.855   3.011
 5696SOL     OW17986   1.550   1.030   2.851
 5696SOL    HW117987   1.450   1.036   2.844
 5696SOL    HW217988   1.579   1.074   2.936
 5697SOL     OW17989   5.919   2.605   1.774
 5697SOL    HW117990   5.854   2.677   1.799
 5697SOL    HW217991   5.874   2.541   1.711
 5698SOL     OW17992   0.961   3.817   3.402
 5698SOL    HW117993   1.003   3.896   3.447
 5698SOL    HW217994   0.952   3.836   3.304
 5699SOL     OW17995   0.299   2.376   3.446
 5699SOL    HW117996   0.315   2.300   3.384
 5699SOL    HW217997   0.385   2.424   3.463
 5700SOL     OW17998   0.151   6.978   4.162
 5700SOL    HW117999   0.135   6.880   4.149
 5700SOL    HW218000   0.108   0.011   4.087
 5701SOL     OW18001   1.395   0.987   2.427
 5701SOL    HW118002   1.383   1.086   2.435
 5701SOL    HW218003   1.402   0.961   2.331
 5702SOL     OW18004   2.737   6.019   5.108
 5702SOL    HW118005   2.673   5.972   5.169
 5702SOL    HW218006   2.690   6.096   5.064
 5703SOL     OW18007   6.459   4.750   1.241
 5703SOL    HW118008   6.375   4.724   1.288
 5703SOL    HW218009   6.438   4.802   1.158
 5704SOL     OW18010   4.665   4.756   2.478
 5704SOL    HW118011   4.567   4.745   2.462
 5704SOL    HW218012   4.680   4.825   2.549
 5705SOL     OW18013   5.077   0.725   1.092
 5705SOL    HW118014   5.116   0.751   1.181
 5705SOL    HW218015   5.150   0.700   1.029
 5706SOL     OW18016   6.383   3.778   0.750
 5706SOL    HW118017   6.289   3.797   0.722
 5706SOL    HW218018   6.440   3.858   0.729
 5707SOL     OW18019   0.350   6.645   0.221
 5707SOL    HW118020   0.375   6.709   0.293
 5707SOL    HW218021   0.267   6.676   0.176
 5708SOL     OW18022   5.284   6.194   1.093
 5708SOL    HW118023   5.349   6.130   1.053
 5708SOL    HW218024   5.241   6.153   1.174
 5709SOL     OW18025   1.529   6.995   2.346
 5709SOL    HW118026   1.578   6.910   2.365
 5709SOL    HW218027   1.472   6.984   2.265
 5710SOL     OW18028   2.708   2.870   0.070
 5710SOL    HW118029   2.629   2.810   0.086
 5710SOL    HW218030   2.721   2.883   6.989
 5711SOL     OW18031   5.149   1.147   2.558
 5711SOL    HW118032   5.136   1.121   2.654
 5711SOL    HW218033   5.196   1.235   2.554
 5712SOL     OW18034   0.604   6.054   6.516
 5712SOL    HW118035   0.531   6.119   6.497
 5712SOL    HW218036   0.605   5.983   6.445
 5713SOL     OW18037   2.693   2.998   1.689
 5713SOL    HW118038   2.603   3.041   1.676
 5713SOL    HW218039   2.735   2.981   1.599
 5714SOL     OW18040   0.460   5.686   6.668
 5714SOL    HW118041   0.461   5.655   6.573
 5714SOL    HW218042   0.484   5.610   6.729
 5715SOL     OW18043   0.653   6.488   3.511
 5715SOL    HW118044   0.711   6.474   3.591
 5715SOL    HW218045   0.701   6.457   3.429
 5716SOL     OW18046   1.492   3.985   6.762
 5716SOL    HW118047   1.447   4.066   6.724
 5716SOL    HW218048   1.580   4.012   6.802
 5717SOL     OW18049   2.166   5.824   0.531
 5717SOL    HW118050   2.259   5.789   0.528
 5717SOL    HW218051   2.158   5.892   0.604
 5718SOL     OW18052   0.619   2.292   5.761
 5718SOL    HW118053   0.656   2.245   5.841
 5718SOL    HW218054   0.534   2.247   5.732
 5719SOL     OW18055   3.169   1.571   6.726
 5719SOL    HW118056   3.115   1.486   6.724
 5719SOL    HW218057   3.172   1.606   6.819
 5720SOL     OW18058   1.491   5.383   4.936
 5720SOL    HW118059   1.549   5.465   4.940
 5720SOL    HW218060   1.395   5.410   4.941
 5721SOL     OW18061   0.598   3.957   1.226
 5721SOL    HW118062   0.564   3.999   1.142
 5721SOL    HW218063   0.530   3.967   1.299
 5722SOL     OW18064   6.168   1.504   5.794
 5722SOL    HW118065   6.177   1.588   5.848
 5722SOL    HW218066   6.091   1.512   5.732
 5723SOL     OW18067   4.659   3.549   6.925
 5723SOL    HW118068   4.737   3.594   6.968
 5723SOL    HW218069   4.691   3.477   6.864
 5724SOL     OW18070   4.914   2.931   4.862
 5724SOL    HW118071   4.827   2.955   4.819
 5724SOL    HW218072   4.911   2.836   4.892
 5725SOL     OW18073   5.309   4.890   3.462
 5725SOL    HW118074   5.251   4.845   3.530
 5725SOL    HW218075   5.280   4.985   3.451
 5726SOL     OW18076   6.878   4.479   5.288
 5726SOL    HW118077   6.947   4.523   5.345
 5726SOL    HW218078   6.832   4.548   5.232
 5727SOL     OW18079   6.756   1.427   4.011
 5727SOL    HW118080   6.682   1.402   3.948
 5727SOL    HW218081   6.754   1.367   4.091
 5728SOL     OW18082   3.865   0.903   6.180
 5728SOL    HW118083   3.779   0.932   6.136
 5728SOL    HW218084   3.920   0.853   6.113
 5729SOL     OW18085   0.805   1.057   0.481
 5729SOL    HW118086   0.846   1.120   0.546
 5729SOL    HW218087   0.875   0.995   0.446
 5730SOL     OW18088   4.713   5.555   6.121
 5730SOL    HW118089   4.784   5.625   6.129
 5730SOL    HW218090   4.751   5.475   6.074
 5731SOL     OW18091   0.481   6.942   3.978
 5731SOL    HW118092   0.457   6.941   4.075
 5731SOL    HW218093   0.414   6.889   3.926
 5732SOL     OW18094   6.305   5.342   4.736
 5732SOL    HW118095   6.323   5.367   4.831
 5732SOL    HW218096   6.262   5.252   4.733
 5733SOL     OW18097   3.783   6.693   4.799
 5733SOL    HW118098   3.756   6.606   4.758
 5733SOL    HW218099   3.881   6.691   4.820
 5734SOL     OW18100   0.925   6.955   6.037
 5734SOL    HW118101   0.882   6.926   6.123
 5734SOL    HW218102   0.933   0.037   6.037
 5735SOL     OW18103   3.906   2.069   1.934
 5735SOL    HW118104   3.881   2.012   1.855
 5735SOL    HW218105   3.830   2.131   1.954
 5736SOL     OW18106   6.000   4.102   0.379
 5736SOL    HW118107   6.099   4.089   0.368
 5736SOL    HW218108   5.983   4.171   0.449
 5737SOL     OW18109   4.945   6.233   0.446
 5737SOL    HW118110   4.859   6.271   0.413
 5737SOL    HW218111   5.020   6.295   0.422
 5738SOL     OW18112   2.999   3.189   6.233
 5738SOL    HW118113   3.036   3.274   6.195
 5738SOL    HW218114   3.014   3.114   6.168
 5739SOL     OW18115   1.187   0.552   5.798
 5739SOL    HW118116   1.268   0.551   5.739
 5739SOL    HW218117   1.202   0.613   5.875
 5740SOL     OW18118   4.096   3.689   1.467
 5740SOL    HW118119   4.024   3.727   1.410
 5740SOL    HW218120   4.134   3.608   1.423
 5741SOL     OW18121   6.891   4.375   4.205
 5741SOL    HW118122   6.836   4.393   4.123
 5741SOL    HW218123   6.837   4.396   4.286
 5742SOL     OW18124   4.699   6.726   3.020
 5742SOL    HW118125   4.784   6.777   3.039
 5742SOL    HW218126   4.653   6.768   2.941
 5743SOL     OW18127   2.901   5.437   5.259
 5743SOL    HW118128   2.811   5.438   5.303
 5743SOL    HW218129   2.938   5.344   5.261
 5744SOL     OW18130   5.385   1.538   2.038
 5744SOL    HW118131   5.290   1.564   2.020
 5744SOL    HW218132   5.444   1.572   1.965
 5745SOL     OW18133   1.956   0.770   4.143
 5745SOL    HW118134   1.930   0.861   4.174
 5745SOL    HW218135   1.877   0.723   4.103
 5746SOL     OW18136   5.581   6.548   1.199
 5746SOL    HW118137   5.575   6.461   1.247
 5746SOL    HW218138   5.541   6.539   1.108
 5747SOL     OW18139   0.260   4.437   2.791
 5747SOL    HW118140   0.166   4.402   2.786
 5747SOL    HW218141   0.324   4.360   2.793
 5748SOL     OW18142   1.783   6.056   0.719
 5748SOL    HW118143   1.716   6.035   0.790
 5748SOL    HW218144   1.761   6.005   0.636
 5749SOL     OW18145   1.176   6.372   4.252
 5749SOL    HW118146   1.123   6.290   4.229
 5749SOL    HW218147   1.227   6.402   4.171
 5750SOL     OW18148   6.787   5.970   4.476
 5750SOL    HW118149   6.756   5.927   4.560
 5750SOL    HW218150   6.723   6.043   4.451
 5751SOL     OW18151   2.672   2.399   4.369
 5751SOL    HW118152   2.772   2.391   4.365
 5751SOL    HW218153   2.645   2.441   4.455
 5752SOL     OW18154   6.413   0.530   0.246
 5752SOL    HW118155   6.454   0.536   0.155
 5752SOL    HW218156   6.453   0.453   0.295
 5753SOL     OW18157   3.952   3.186   4.538
 5753SOL    HW118158   3.867   3.237   4.548
 5753SOL    HW218159   3.940   3.113   4.471
 5754SOL     OW18160   6.717   5.107   1.248
 5754SOL    HW118161   6.733   5.190   1.301
 5754SOL    HW218162   6.659   5.045   1.300
 5755SOL     OW18163   2.083   2.962   6.343
 5755SOL    HW118164   2.076   3.059   6.365
 5755SOL    HW218165   1.996   2.929   6.307
 5756SOL     OW18166   6.085   6.994   3.357
 5756SOL    HW118167   6.116   0.053   3.300
 5756SOL    HW218168   6.151   6.920   3.352
 5757SOL     OW18169   6.571   6.717   2.783
 5757SOL    HW118170   6.601   6.796   2.837
 5757SOL    HW218171   6.537   6.646   2.845
 5758SOL     OW18172   2.614   0.683   4.607
 5758SOL    HW118173   2.519   0.700   4.579
 5758SOL    HW218174   2.624   0.586   4.631
 5759SOL     OW18175   5.456   1.602   6.818
 5759SOL    HW118176   5.390   1.665   6.777
 5759SOL    HW218177   5.514   1.652   6.882
 5760SOL     OW18178   0.293   4.345   0.465
 5760SOL    HW118179   0.218   4.394   0.420
 5760SOL    HW218180   0.256   4.290   0.541
 5761SOL     OW18181   5.758   5.976   6.302
 5761SOL    HW118182   5.836   6.029   6.334
 5761SOL    HW218183   5.691   5.968   6.376
 5762SOL     OW18184   4.843   5.332   0.671
 5762SOL    HW118185   4.784   5.292   0.600
 5762SOL    HW218186   4.933   5.351   0.631
 5763SOL     OW18187   0.484   0.063   0.207
 5763SOL    HW118188   0.539   0.050   0.124
 5763SOL    HW218189   0.436   6.996   0.229
 5764SOL     OW18190   5.356   5.292   5.221
 5764SOL    HW118191   5.437   5.310   5.275
 5764SOL    HW218192   5.383   5.259   5.130
 5765SOL     OW18193   6.292   3.109   0.456
 5765SOL    HW118194   6.245   3.191   0.423
 5765SOL    HW218195   6.380   3.134   0.494
 5766SOL     OW18196   1.924   2.367   6.628
 5766SOL    HW118197   1.907   2.456   6.670
 5766SOL    HW218198   1.927   2.376   6.529
 5767SOL     OW18199   1.972   1.014   0.123
 5767SOL    HW118200   2.046   1.043   0.063
 5767SOL    HW218201   1.938   0.924   0.094
 5768SOL     OW18202   0.868   6.354   3.333
 5768SOL    HW118203   0.927   6.397   3.265
 5768SOL    HW218204   0.914   6.275   3.372
 5769SOL     OW18205   2.249   5.712   4.461
 5769SOL    HW118206   2.237   5.785   4.529
 5769SOL    HW218207   2.274   5.628   4.508
 5770SOL     OW18208   6.033   6.791   0.701
 5770SOL    HW118209   6.048   6.875   0.753
 5770SOL    HW218210   6.084   6.795   0.615
 5771SOL     OW18211   1.285   0.392   3.460
 5771SOL    HW118212   1.234   0.469   3.498
 5771SOL    HW218213   1.278   0.313   3.520
 5772SOL     OW18214   6.023   1.918   0.993
 5772SOL    HW118215   5.982   1.942   1.082
 5772SOL    HW218216   5.974   1.840   0.954
 5773SOL     OW18217   4.553   0.967   3.652
 5773SOL    HW118218   4.474   0.999   3.601
 5773SOL    HW218219   4.600   1.046   3.694
 5774SOL     OW18220   2.876   5.607   3.807
 5774SOL    HW118221   2.849   5.615   3.711
 5774SOL    HW218222   2.955   5.547   3.815
 5775SOL     OW18223   1.291   1.319   2.010
 5775SOL    HW118224   1.259   1.225   1.998
 5775SOL    HW218225   1.344   1.346   1.930
 5776SOL     OW18226   0.304   0.432   5.578
 5776SOL    HW118227   0.306   0.521   5.532
 5776SOL    HW218228   0.330   0.361   5.512
 5777SOL     OW18229   6.553   0.100   4.881
 5777SOL    HW118230   6.643   0.069   4.853
 5777SOL    HW218231   6.542   0.196   4.857
 5778SOL     OW18232   1.406   0.634   1.684
 5778SOL    HW118233   1.350   0.559   1.719
 5778SOL    HW218234   1.484   0.596   1.634
 5779SOL     OW18235   4.894   2.009   0.544
 5779SOL    HW118236   4.855   1.968   0.627
 5779SOL    HW218237   4.902   1.939   0.473
 5780SOL     OW18238   6.137   4.849   3.442
 5780SOL    HW118239   6.145   4.779   3.372
 5780SOL    HW218240   6.227   4.868   3.481
 5781SOL     OW18241   6.802   4.238   4.547
 5781SOL    HW118242   6.802   4.219   4.449
 5781SOL    HW218243   6.826   4.155   4.597
 5782SOL     OW18244   0.535   0.927   0.536
 5782SOL    HW118245   0.617   0.946   0.483
 5782SOL    HW218246   0.551   0.850   0.598
 5783SOL     OW18247   1.754   0.911   1.757
 5783SOL    HW118248   1.841   0.949   1.788
 5783SOL    HW218249   1.770   0.824   1.711
 5784SOL     OW18250   6.956   6.072   0.002
 5784SOL    HW118251   6.870   6.107   0.040
 5784SOL    HW218252   6.957   5.972   0.007
 5785SOL     OW18253   1.733   1.727   0.616
 5785SOL    HW118254   1.738   1.718   0.715
 5785SOL    HW218255   1.823   1.753   0.581
 5786SOL     OW18256   0.615   4.429   1.224
 5786SOL    HW118257   0.612   4.416   1.125
 5786SOL    HW218258   0.544   4.494   1.251
 5787SOL     OW18259   4.042   2.286   5.606
 5787SOL    HW118260   4.040   2.313   5.510
 5787SOL    HW218261   4.038   2.186   5.613
 5788SOL     OW18262   2.973   1.239   1.380
 5788SOL    HW118263   3.031   1.320   1.368
 5788SOL    HW218264   3.025   1.168   1.427
 5789SOL     OW18265   2.987   4.197   0.299
 5789SOL    HW118266   2.989   4.266   0.227
 5789SOL    HW218267   2.913   4.133   0.282
 5790SOL     OW18268   0.511   4.610   4.561
 5790SOL    HW118269   0.585   4.631   4.624
 5790SOL    HW218270   0.466   4.695   4.532
 5791SOL     OW18271   2.947   1.540   2.297
 5791SOL    HW118272   3.031   1.576   2.338
 5791SOL    HW218273   2.946   1.562   2.199
 5792SOL     OW18274   5.480   2.776   2.099
 5792SOL    HW118275   5.459   2.853   2.038
 5792SOL    HW218276   5.467   2.804   2.194
 5793SOL     OW18277   6.311   0.651   4.331
 5793SOL    HW118278   6.247   0.574   4.334
 5793SOL    HW218279   6.329   0.675   4.236
 5794SOL     OW18280   2.476   0.581   6.287
 5794SOL    HW118281   2.531   0.550   6.210
 5794SOL    HW218282   2.388   0.617   6.254
 5795SOL     OW18283   0.199   6.389   0.585
 5795SOL    HW118284   0.162   6.480   0.604
 5795SOL    HW218285   0.292   6.399   0.549
 5796SOL     OW18286   4.981   1.127   6.515
 5796SOL    HW118287   5.011   1.064   6.586
 5796SOL    HW218288   4.920   1.078   6.452
 5797SOL     OW18289   4.882   2.181   0.147
 5797SOL    HW118290   4.863   2.169   0.245
 5797SOL    HW218291   4.969   2.229   0.136
 5798SOL     OW18292   6.937   5.371   4.423
 5798SOL    HW118293   6.892   5.376   4.512
 5798SOL    HW218294   6.974   5.279   4.409
 5799SOL     OW18295   0.086   0.563   4.552
 5799SOL    HW118296   0.135   0.497   4.496
 5799SOL    HW218297   7.006   0.561   4.529
 5800SOL     OW18298   0.223   6.922   1.822
 5800SOL    HW118299   0.318   6.898   1.843
 5800SOL    HW218300   0.169   6.923   1.906
 5801SOL     OW18301   1.656   1.861   3.672
 5801SOL    HW118302   1.636   1.931   3.604
 5801SOL    HW218303   1.636   1.771   3.635
 5802SOL     OW18304   6.622   3.053   2.984
 5802SOL    HW118305   6.529   3.053   2.946
 5802SOL    HW218306   6.620   3.092   3.076
 5803SOL     OW18307   2.313   6.062   2.891
 5803SOL    HW118308   2.266   6.125   2.828
 5803SOL    HW218309   2.245   6.006   2.938
 5804SOL     OW18310   0.417   5.070   3.174
 5804SOL    HW118311   0.445   5.118   3.257
 5804SOL    HW218312   0.394   4.975   3.197
 5805SOL     OW18313   1.583   2.776   0.780
 5805SOL    HW118314   1.497   2.751   0.824
 5805SOL    HW218315   1.659   2.751   0.839
 5806SOL     OW18316   6.616   5.612   4.413
 5806SOL    HW118317   6.637   5.541   4.345
 5806SOL    HW218318   6.697   5.631   4.468
 5807SOL     OW18319   1.246   5.002   0.196
 5807SOL    HW118320   1.286   5.093   0.193
 5807SOL    HW218321   1.266   4.959   0.284
 5808SOL     OW18322   6.960   5.792   4.354
 5808SOL    HW118323   6.892   5.859   4.385
 5808SOL    HW218324   6.937   5.761   4.262
 5809SOL     OW18325   6.612   1.322   5.325
 5809SOL    HW118326   6.683   1.343   5.392
 5809SOL    HW218327   6.653   1.281   5.244
 5810SOL     OW18328   4.882   1.024   5.837
 5810SOL    HW118329   4.861   0.952   5.771
 5810SOL    HW218330   4.958   1.079   5.803
 5811SOL     OW18331   3.361   0.790   4.923
 5811SOL    HW118332   3.274   0.823   4.960
 5811SOL    HW218333   3.437   0.830   4.974
 5812SOL     OW18334   5.364   3.185   5.884
 5812SOL    HW118335   5.447   3.220   5.926
 5812SOL    HW218336   5.288   3.194   5.949
 5813SOL     OW18337   2.355   1.129   0.731
 5813SOL    HW118338   2.301   1.176   0.800
 5813SOL    HW218339   2.418   1.194   0.687
 5814SOL     OW18340   6.643   3.424   2.438
 5814SOL    HW118341   6.731   3.468   2.455
 5814SOL    HW218342   6.656   3.326   2.425
 5815SOL     OW18343   3.738   1.759   3.507
 5815SOL    HW118344   3.713   1.764   3.410
 5815SOL    HW218345   3.682   1.824   3.559
 5816SOL     OW18346   4.933   4.583   0.446
 5816SOL    HW118347   4.912   4.624   0.357
 5816SOL    HW218348   4.867   4.614   0.514
 5817SOL     OW18349   6.267   4.818   5.773
 5817SOL    HW118350   6.207   4.757   5.722
 5817SOL    HW218351   6.271   4.907   5.728
 5818SOL     OW18352   6.425   5.206   5.596
 5818SOL    HW118353   6.522   5.204   5.571
 5818SOL    HW218354   6.409   5.281   5.660
 5819SOL     OW18355   4.006   0.257   6.718
 5819SOL    HW118356   4.007   0.166   6.675
 5819SOL    HW218357   3.921   0.304   6.694
 5820SOL     OW18358   4.167   4.797   2.955
 5820SOL    HW118359   4.226   4.717   2.961
 5820SOL    HW218360   4.122   4.813   3.042
 5821SOL     OW18361   0.158   0.698   1.747
 5821SOL    HW118362   0.224   0.623   1.751
 5821SOL    HW218363   0.171   0.749   1.662
 5822SOL     OW18364   1.737   2.542   1.656
 5822SOL    HW118365   1.776   2.561   1.746
 5822SOL    HW218366   1.677   2.461   1.662
 5823SOL     OW18367   2.768   0.594   4.381
 5823SOL    HW118368   2.681   0.594   4.332
 5823SOL    HW218369   2.755   0.633   4.472
 5824SOL     OW18370   0.221   6.002   2.761
 5824SOL    HW118371   0.223   5.955   2.672
 5824SOL    HW218372   0.163   5.950   2.824
 5825SOL     OW18373   0.229   6.972   4.612
 5825SOL    HW118374   0.267   7.008   4.697
 5825SOL    HW218375   0.281   6.891   4.584
 5826SOL     OW18376   6.834   5.534   6.444
 5826SOL    HW118377   6.874   5.497   6.528
 5826SOL    HW218378   6.746   5.576   6.464
 5827SOL     OW18379   1.920   3.514   5.015
 5827SOL    HW118380   1.997   3.560   4.971
 5827SOL    HW218381   1.954   3.446   5.079
 5828SOL     OW18382   5.126   1.993   2.474
 5828SOL    HW118383   5.099   1.910   2.523
 5828SOL    HW218384   5.166   1.968   2.386
 5829SOL     OW18385   1.996   0.195   4.423
 5829SOL    HW118386   1.996   0.114   4.364
 5829SOL    HW218387   1.921   0.256   4.395
 5830SOL     OW18388   5.567   6.855   5.875
 5830SOL    HW118389   5.563   6.874   5.777
 5830SOL    HW218390   5.552   6.757   5.891
 5831SOL     OW18391   1.138   1.008   5.813
 5831SOL    HW118392   1.217   1.009   5.752
 5831SOL    HW218393   1.090   1.095   5.809
 5832SOL     OW18394   2.996   4.877   6.643
 5832SOL    HW118395   2.917   4.880   6.705
 5832SOL    HW218396   3.076   4.915   6.690
 5833SOL     OW18397   4.323   3.750   5.353
 5833SOL    HW118398   4.255   3.692   5.307
 5833SOL    HW218399   4.297   3.846   5.344
 5834SOL     OW18400   0.132   3.568   0.155
 5834SOL    HW118401   0.104   3.531   0.244
 5834SOL    HW218402   0.210   3.517   0.120
 5835SOL     OW18403   5.475   2.383   3.130
 5835SOL    HW118404   5.384   2.351   3.104
 5835SOL    HW218405   5.469   2.478   3.162
 5836SOL     OW18406   3.150   0.525   1.661
 5836SOL    HW118407   3.147   0.459   1.736
 5836SOL    HW218408   3.245   0.552   1.645
 5837SOL     OW18409   3.459   3.727   0.135
 5837SOL    HW118410   3.455   3.808   0.076
 5837SOL    HW218411   3.401   3.655   0.097
 5838SOL     OW18412   2.730   1.910   1.029
 5838SOL    HW118413   2.706   1.979   0.962
 5838SOL    HW218414   2.792   1.843   0.988
 5839SOL     OW18415   0.566   2.222   1.686
 5839SOL    HW118416   0.487   2.161   1.697
 5839SOL    HW218417   0.553   2.304   1.742
 5840SOL     OW18418   1.598   4.619   6.181
 5840SOL    HW118419   1.650   4.673   6.115
 5840SOL    HW218420   1.511   4.591   6.140
 5841SOL     OW18421   4.873   1.526   2.532
 5841SOL    HW118422   4.959   1.528   2.583
 5841SOL    HW218423   4.797   1.511   2.595
 5842SOL     OW18424   4.660   2.922   1.627
 5842SOL    HW118425   4.611   2.968   1.702
 5842SOL    HW218426   4.701   2.991   1.568
 5843SOL     OW18427   1.280   4.312   2.467
 5843SOL    HW118428   1.332   4.353   2.392
 5843SOL    HW218429   1.316   4.344   2.554
 5844SOL     OW18430   1.762   6.116   5.288
 5844SOL    HW118431   1.760   6.064   5.202
 5844SOL    HW218432   1.705   6.070   5.356
 5845SOL     OW18433   0.633   0.465   1.995
 5845SOL    HW118434   0.597   0.468   2.088
 5845SOL    HW218435   0.639   0.558   1.958
 5846SOL     OW18436   6.087   3.657   6.350
 5846SOL    HW118437   6.127   3.724   6.412
 5846SOL    HW218438   6.000   3.692   6.315
 5847SOL     OW18439   2.703   2.357   2.290
 5847SOL    HW118440   2.753   2.371   2.205
 5847SOL    HW218441   2.705   2.260   2.314
 5848SOL     OW18442   1.319   5.483   3.611
 5848SOL    HW118443   1.412   5.469   3.645
 5848SOL    HW218444   1.255   5.482   3.688
 5849SOL     OW18445   1.957   0.194   5.234
 5849SOL    HW118446   1.996   0.113   5.191
 5849SOL    HW218447   1.919   0.254   5.164
 5850SOL     OW18448   6.720   3.831   1.980
 5850SOL    HW118449   6.785   3.859   1.910
 5850SOL    HW218450   6.740   3.738   2.009
 5851SOL     OW18451   5.277   2.849   3.218
 5851SOL    HW118452   5.221   2.813   3.143
 5851SOL    HW218453   5.323   2.773   3.264
 5852SOL     OW18454   5.796   6.088   3.086
 5852SOL    HW118455   5.816   6.004   3.036
 5852SOL    HW218456   5.697   6.104   3.085
 5853SOL     OW18457   3.832   5.267   4.960
 5853SOL    HW118458   3.844   5.364   4.942
 5853SOL    HW218459   3.775   5.255   5.042
 5854SOL     OW18460   4.227   4.408   6.093
 5854SOL    HW118461   4.171   4.355   6.156
 5854SOL    HW218462   4.191   4.399   6.000
 5855SOL     OW18463   1.571   0.894   4.512
 5855SOL    HW118464   1.629   0.929   4.585
 5855SOL    HW218465   1.563   0.795   4.520
 5856SOL     OW18466   1.963   5.719   3.303
 5856SOL    HW118467   2.058   5.738   3.328
 5856SOL    HW218468   1.961   5.681   3.210
 5857SOL     OW18469   6.319   2.738   5.895
 5857SOL    HW118470   6.238   2.783   5.858
 5857SOL    HW218471   6.334   2.650   5.849
 5858SOL     OW18472   2.697   2.375   2.577
 5858SOL    HW118473   2.704   2.380   2.478
 5858SOL    HW218474   2.659   2.461   2.612
 5859SOL     OW18475   6.520   6.299   1.803
 5859SOL    HW118476   6.564   6.383   1.834
 5859SOL    HW218477   6.510   6.236   1.880
 5860SOL     OW18478   0.183   4.327   3.412
 5860SOL    HW118479   0.246   4.266   3.459
 5860SOL    HW218480   0.217   4.346   3.320
 5861SOL     OW18481   5.558   1.603   4.118
 5861SOL    HW118482   5.536   1.656   4.036
 5861SOL    HW218483   5.555   1.505   4.096
 5862SOL     OW18484   6.120   5.644   0.939
 5862SOL    HW118485   6.211   5.679   0.960
 5862SOL    HW218486   6.113   5.548   0.965
 5863SOL     OW18487   3.106   2.054   5.210
 5863SOL    HW118488   3.188   2.001   5.185
 5863SOL    HW218489   3.110   2.144   5.166
 5864SOL     OW18490   3.315   4.144   3.025
 5864SOL    HW118491   3.269   4.097   2.950
 5864SOL    HW218492   3.260   4.222   3.054
 5865SOL     OW18493   6.294   7.003   5.853
 5865SOL    HW118494   6.206   6.955   5.859
 5865SOL    HW218495   6.367   6.945   5.888
 5866SOL     OW18496   3.650   4.156   0.678
 5866SOL    HW118497   3.661   4.060   0.652
 5866SOL    HW218498   3.566   4.192   0.638
 5867SOL     OW18499   2.266   3.455   0.920
 5867SOL    HW118500   2.185   3.508   0.945
 5867SOL    HW218501   2.299   3.404   1.000
 5868SOL     OW18502   1.636   1.618   5.318
 5868SOL    HW118503   1.716   1.605   5.376
 5868SOL    HW218504   1.665   1.637   5.224
 5869SOL     OW18505   2.009   6.667   3.301
 5869SOL    HW118506   2.019   6.755   3.348
 5869SOL    HW218507   1.912   6.646   3.292
 5870SOL     OW18508   4.543   6.712   4.936
 5870SOL    HW118509   4.614   6.649   4.906
 5870SOL    HW218510   4.564   6.804   4.904
 5871SOL     OW18511   3.203   3.183   1.537
 5871SOL    HW118512   3.227   3.093   1.574
 5871SOL    HW218513   3.249   3.197   1.450
 5872SOL     OW18514   4.733   6.707   0.815
 5872SOL    HW118515   4.745   6.609   0.830
 5872SOL    HW218516   4.739   6.754   0.903
 5873SOL     OW18517   3.587   1.266   2.152
 5873SOL    HW118518   3.674   1.300   2.117
 5873SOL    HW218519   3.597   1.237   2.247
 5874SOL     OW18520   2.528   4.749   5.688
 5874SOL    HW118521   2.533   4.658   5.728
 5874SOL    HW218522   2.514   4.742   5.589
 5875SOL     OW18523   4.150   1.574   0.224
 5875SOL    HW118524   4.104   1.648   0.173
 5875SOL    HW218525   4.122   1.486   0.187
 5876SOL     OW18526   3.642   3.225   1.326
 5876SOL    HW118527   3.617   3.224   1.229
 5876SOL    HW218528   3.571   3.179   1.379
 5877SOL     OW18529   0.759   6.943   1.640
 5877SOL    HW118530   0.842   6.966   1.691
 5877SOL    HW218531   0.722   6.856   1.674
 5878SOL     OW18532   6.724   5.418   4.229
 5878SOL    HW118533   6.764   5.448   4.143
 5878SOL    HW218534   6.796   5.390   4.292
 5879SOL     OW18535   1.444   4.234   6.602
 5879SOL    HW118536   1.474   4.315   6.551
 5879SOL    HW218537   1.442   4.155   6.540
 5880SOL     OW18538   4.353   4.546   6.282
 5880SOL    HW118539   4.333   4.489   6.202
 5880SOL    HW218540   4.427   4.610   6.260
 5881SOL     OW18541   1.281   6.608   2.689
 5881SOL    HW118542   1.208   6.613   2.756
 5881SOL    HW218543   1.316   6.700   2.671
 5882SOL     OW18544   0.212   5.313   1.036
 5882SOL    HW118545   0.228   5.231   1.090
 5882SOL    HW218546   0.119   5.347   1.054
 5883SOL     OW18547   0.692   1.056   6.632
 5883SOL    HW118548   0.612   1.115   6.640
 5883SOL    HW218549   0.774   1.112   6.619
 5884SOL     OW18550   3.712   1.387   4.610
 5884SOL    HW118551   3.673   1.303   4.648
 5884SOL    HW218552   3.719   1.379   4.510
 5885SOL     OW18553   0.655   0.097   2.738
 5885SOL    HW118554   0.697   0.037   2.806
 5885SOL    HW218555   0.569   0.057   2.706
 5886SOL     OW18556   0.303   2.051   4.703
 5886SOL    HW118557   0.334   2.119   4.636
 5886SOL    HW218558   0.356   1.967   4.691
 5887SOL     OW18559   2.641   2.067   2.323
 5887SOL    HW118560   2.614   2.058   2.228
 5887SOL    HW218561   2.579   2.014   2.381
 5888SOL     OW18562   2.966   0.724   1.607
 5888SOL    HW118563   3.027   0.654   1.643
 5888SOL    HW218564   2.986   0.740   1.511
 5889SOL     OW18565   0.827   6.797   0.759
 5889SOL    HW118566   0.750   6.821   0.818
 5889SOL    HW218567   0.865   6.709   0.788
 5890SOL     OW18568   1.746   1.039   3.451
 5890SOL    HW118569   1.798   1.013   3.369
 5890SOL    HW218570   1.808   1.050   3.528
 5891SOL     OW18571   3.558   3.193   6.510
 5891SOL    HW118572   3.545   3.278   6.560
 5891SOL    HW218573   3.547   3.115   6.572
 5892SOL     OW18574   0.923   5.523   1.405
 5892SOL    HW118575   1.022   5.532   1.416
 5892SOL    HW218576   0.880   5.515   1.495
 5893SOL     OW18577   2.377   4.289   4.142
 5893SOL    HW118578   2.367   4.193   4.115
 5893SOL    HW218579   2.347   4.348   4.067
 5894SOL     OW18580   6.565   5.211   4.206
 5894SOL    HW118581   6.624   5.293   4.207
 5894SOL    HW218582   6.622   5.129   4.211
 5895SOL     OW18583   5.255   3.956   4.122
 5895SOL    HW118584   5.207   4.039   4.151
 5895SOL    HW218585   5.188   3.884   4.104
 5896SOL     OW18586   3.655   0.755   0.300
 5896SOL    HW118587   3.612   0.794   0.382
 5896SOL    HW218588   3.588   0.701   0.250
 5897SOL     OW18589   4.106   0.690   1.454
 5897SOL    HW118590   4.175   0.632   1.496
 5897SOL    HW218591   4.148   0.777   1.426
 5898SOL     OW18592   2.175   6.750   3.837
 5898SOL    HW118593   2.104   6.808   3.796
 5898SOL    HW218594   2.239   6.720   3.766
 5899SOL     OW18595   5.728   5.646   6.857
 5899SOL    HW118596   5.721   5.740   6.823
 5899SOL    HW218597   5.804   5.599   6.812
 5900SOL     OW18598   6.063   5.590   3.803
 5900SOL    HW118599   5.987   5.533   3.772
 5900SOL    HW218600   6.142   5.532   3.825
 5901SOL     OW18601   2.306   0.805   0.120
 5901SOL    HW118602   2.248   0.773   0.045
 5901SOL    HW218603   2.305   0.738   0.194
 5902SOL     OW18604   6.220   2.126   5.588
 5902SOL    HW118605   6.151   2.173   5.643
 5902SOL    HW218606   6.298   2.187   5.574
 5903SOL     OW18607   4.868   5.019   0.176
 5903SOL    HW118608   4.944   4.967   0.137
 5903SOL    HW218609   4.900   5.111   0.202
 5904SOL     OW18610   1.097   4.115   1.704
 5904SOL    HW118611   1.072   4.022   1.678
 5904SOL    HW218612   1.025   4.178   1.676
 5905SOL     OW18613   6.247   6.536   3.181
 5905SOL    HW118614   6.270   6.445   3.218
 5905SOL    HW218615   6.148   6.547   3.180
 5906SOL     OW18616   3.612   2.074   4.038
 5906SOL    HW118617   3.566   2.133   3.972
 5906SOL    HW218618   3.576   2.093   4.129
 5907SOL     OW18619   1.593   5.018   0.830
 5907SOL    HW118620   1.608   5.074   0.911
 5907SOL    HW218621   1.680   4.982   0.798
 5908SOL     OW18622   0.122   3.032   6.975
 5908SOL    HW118623   0.052   2.968   6.942
 5908SOL    HW218624   0.078   3.115   7.007
 5909SOL     OW18625   6.480   5.318   0.769
 5909SOL    HW118626   6.447   5.229   0.740
 5909SOL    HW218627   6.455   5.333   0.865
 5910SOL     OW18628   0.270   4.019   4.070
 5910SOL    HW118629   0.191   4.044   4.014
 5910SOL    HW218630   0.257   3.927   4.107
 5911SOL     OW18631   6.922   5.904   6.706
 5911SOL    HW118632   6.887   5.895   6.613
 5911SOL    HW218633   6.920   6.000   6.733
 5912SOL     OW18634   6.151   1.453   6.202
 5912SOL    HW118635   6.093   1.372   6.196
 5912SOL    HW218636   6.243   1.431   6.170
 5913SOL     OW18637   4.954   2.892   6.509
 5913SOL    HW118638   4.950   2.910   6.607
 5913SOL    HW218639   4.994   2.802   6.493
 5914SOL     OW18640   1.296   4.518   5.695
 5914SOL    HW118641   1.275   4.616   5.685
 5914SOL    HW218642   1.212   4.465   5.682
 5915SOL     OW18643   4.753   5.511   1.266
 5915SOL    HW118644   4.802   5.454   1.332
 5915SOL    HW218645   4.799   5.600   1.259
 5916SOL     OW18646   5.112   6.954   3.983
 5916SOL    HW118647   5.133   0.009   3.917
 5916SOL    HW218648   5.180   6.881   3.975
 5917SOL     OW18649   2.873   3.587   4.059
 5917SOL    HW118650   2.875   3.501   4.111
 5917SOL    HW218651   2.885   3.664   4.121
 5918SOL     OW18652   1.934   3.505   6.300
 5918SOL    HW118653   1.864   3.574   6.282
 5918SOL    HW218654   1.991   3.535   6.377
 5919SOL     OW18655   3.537   3.117   2.850
 5919SOL    HW118656   3.497   3.177   2.781
 5919SOL    HW218657   3.573   3.171   2.926
 5920SOL     OW18658   4.716   0.896   6.990
 5920SOL    HW118659   4.634   0.938   6.951
 5920SOL    HW218660   4.713   0.904   0.072
 5921SOL     OW18661   3.652   5.447   6.679
 5921SOL    HW118662   3.632   5.400   6.765
 5921SOL    HW218663   3.631   5.387   6.602
 5922SOL     OW18664   5.529   4.988   2.810
 5922SOL    HW118665   5.508   5.053   2.883
 5922SOL    HW218666   5.447   4.933   2.790
 5923SOL     OW18667   6.365   1.322   1.232
 5923SOL    HW118668   6.382   1.224   1.242
 5923SOL    HW218669   6.370   1.348   1.135
 5924SOL     OW18670   6.084   0.463   2.822
 5924SOL    HW118671   6.161   0.437   2.763
 5924SOL    HW218672   6.075   0.397   2.896
 5925SOL     OW18673   4.067   0.078   2.209
 5925SOL    HW118674   4.051   0.071   2.111
 5925SOL    HW218675   4.054   0.173   2.238
 5926SOL     OW18676   4.157   5.439   1.323
 5926SOL    HW118677   4.104   5.354   1.329
 5926SOL    HW218678   4.108   5.513   1.368
 5927SOL     OW18679   1.543   3.711   2.287
 5927SOL    HW118680   1.532   3.738   2.383
 5927SOL    HW218681   1.590   3.623   2.282
 5928SOL     OW18682   4.225   0.280   1.086
 5928SOL    HW118683   4.129   0.297   1.064
 5928SOL    HW218684   4.281   0.355   1.051
 5929SOL     OW18685   0.029   6.844   6.497
 5929SOL    HW118686   6.977   6.835   6.568
 5929SOL    HW218687   0.051   6.940   6.482
 5930SOL     OW18688   6.842   3.355   3.175
 5930SOL    HW118689   6.755   3.340   3.128
 5930SOL    HW218690   6.848   3.294   3.254
 5931SOL     OW18691   6.904   5.314   2.664
 5931SOL    HW118692   6.962   5.250   2.713
 5931SOL    HW218693   6.936   5.324   2.570
 5932SOL     OW18694   3.533   0.463   0.396
 5932SOL    HW118695   3.443   0.498   0.423
 5932SOL    HW218696   3.542   0.465   0.297
 5933SOL     OW18697   6.826   5.792   2.610
 5933SOL    HW118698   6.921   5.774   2.581
 5933SOL    HW218699   6.825   5.814   2.708
 5934SOL     OW18700   3.489   2.912   4.854
 5934SOL    HW118701   3.548   2.906   4.934
 5934SOL    HW218702   3.544   2.901   4.771
 5935SOL     OW18703   5.053   5.131   6.352
 5935SOL    HW118704   5.088   5.125   6.259
 5935SOL    HW218705   5.113   5.080   6.414
 5936SOL     OW18706   3.598   2.651   1.338
 5936SOL    HW118707   3.541   2.575   1.308
 5936SOL    HW218708   3.685   2.616   1.372
 5937SOL     OW18709   6.696   4.172   2.336
 5937SOL    HW118710   6.678   4.248   2.274
 5937SOL    HW218711   6.624   4.168   2.406
 5938SOL     OW18712   7.003   5.529   2.839
 5938SOL    HW118713   6.995   5.604   2.772
 5938SOL    HW218714   6.939   5.456   2.814
 5939SOL     OW18715   2.691   6.678   3.269
 5939SOL    HW118716   2.710   6.583   3.295
 5939SOL    HW218717   2.608   6.709   3.316
 5940SOL     OW18718   4.796   5.468   1.608
 5940SOL    HW118719   4.707   5.488   1.649
 5940SOL    HW218720   4.835   5.552   1.571
 5941SOL     OW18721   6.015   2.958   2.338
 5941SOL    HW118722   6.101   3.007   2.322
 5941SOL    HW218723   5.946   3.021   2.373
 5942SOL     OW18724   5.057   3.836   0.366
 5942SOL    HW118725   5.124   3.907   0.343
 5942SOL    HW218726   5.020   3.854   0.457
 5943SOL     OW18727   3.304   4.618   6.056
 5943SOL    HW118728   3.234   4.589   6.121
 5943SOL    HW218729   3.394   4.595   6.093
 5944SOL     OW18730   6.683   2.887   0.923
 5944SOL    HW118731   6.779   2.860   0.919
 5944SOL    HW218732   6.626   2.812   0.890
 5945SOL     OW18733   6.545   5.328   4.589
 5945SOL    HW118734   6.515   5.362   4.499
 5945SOL    HW218735   6.471   5.342   4.655
 5946SOL     OW18736   3.784   3.372   6.161
 5946SOL    HW118737   3.790   3.471   6.151
 5946SOL    HW218738   3.874   3.334   6.180
 5947SOL     OW18739   3.083   3.505   2.573
 5947SOL    HW118740   3.126   3.477   2.487
 5947SOL    HW218741   3.035   3.428   2.613
 5948SOL     OW18742   4.230   4.869   3.410
 5948SOL    HW118743   4.296   4.856   3.336
 5948SOL    HW218744   4.139   4.843   3.378
 5949SOL     OW18745   5.219   3.512   1.820
 5949SOL    HW118746   5.244   3.444   1.750
 5949SOL    HW218747   5.121   3.508   1.836
 5950SOL     OW18748   4.816   1.176   5.461
 5950SOL    HW118749   4.869   1.096   5.491
 5950SOL    HW218750   4.820   1.246   5.531
 5951SOL     OW18751   1.675   5.885   3.861
 5951SOL    HW118752   1.611   5.918   3.792
 5951SOL    HW218753   1.767   5.921   3.842
 5952SOL     OW18754   5.566   4.858   3.523
 5952SOL    HW118755   5.467   4.856   3.513
 5952SOL    HW218756   5.605   4.773   3.487
 5953SOL     OW18757   0.087   3.195   5.962
 5953SOL    HW118758   7.011   3.161   5.972
 5953SOL    HW218759   0.116   3.186   5.867
 5954SOL     OW18760   6.565   4.528   5.342
 5954SOL    HW118761   6.622   4.582   5.280
 5954SOL    HW218762   6.501   4.472   5.289
 5955SOL     OW18763   4.620   5.691   2.423
 5955SOL    HW118764   4.693   5.630   2.456
 5955SOL    HW218765   4.626   5.779   2.470
 5956SOL     OW18766   4.500   1.977   4.663
 5956SOL    HW118767   4.564   1.920   4.715
 5956SOL    HW218768   4.455   2.041   4.725
 5957SOL     OW18769   4.117   0.812   5.424
 5957SOL    HW118770   4.070   0.894   5.390
 5957SOL    HW218771   4.085   0.791   5.516
 5958SOL     OW18772   5.521   6.411   2.689
 5958SOL    HW118773   5.465   6.425   2.771
 5958SOL    HW218774   5.594   6.480   2.687
 5959SOL     OW18775   4.288   2.766   5.353
 5959SOL    HW118776   4.378   2.725   5.368
 5959SOL    HW218777   4.233   2.705   5.295
 5960SOL     OW18778   4.139   5.515   4.906
 5960SOL    HW118779   4.150   5.417   4.888
 5960SOL    HW218780   4.187   5.567   4.836
 5961SOL     OW18781   5.039   1.803   2.615
 5961SOL    HW118782   4.974   1.844   2.679
 5961SOL    HW218783   5.056   1.707   2.641
 5962SOL     OW18784   5.723   6.389   0.486
 5962SOL    HW118785   5.794   6.378   0.416
 5962SOL    HW218786   5.659   6.460   0.457
 5963SOL     OW18787   4.032   3.888   6.081
 5963SOL    HW118788   4.064   3.885   6.175
 5963SOL    HW218789   4.065   3.808   6.031
 5964SOL     OW18790   0.347   5.508   5.540
 5964SOL    HW118791   0.274   5.546   5.597
 5964SOL    HW218792   0.435   5.545   5.568
 5965SOL     OW18793   2.002   1.738   6.693
 5965SOL    HW118794   1.908   1.714   6.668
 5965SOL    HW218795   2.017   1.835   6.677
 5966SOL     OW18796   2.261   5.835   5.161
 5966SOL    HW118797   2.176   5.875   5.195
 5966SOL    HW218798   2.314   5.905   5.114
 5967SOL     OW18799   3.838   0.189   6.390
 5967SOL    HW118800   3.769   0.259   6.370
 5967SOL    HW218801   3.818   0.106   6.338
 5968SOL     OW18802   5.121   2.122   0.680
 5968SOL    HW118803   5.048   2.075   0.630
 5968SOL    HW218804   5.173   2.180   0.617
 5969SOL     OW18805   6.609   0.108   6.542
 5969SOL    HW118806   6.614   0.082   6.445
 5969SOL    HW218807   6.536   0.175   6.555
 5970SOL     OW18808   0.246   4.173   2.516
 5970SOL    HW118809   0.147   4.174   2.531
 5970SOL    HW218810   0.290   4.122   2.590
 5971SOL     OW18811   0.484   1.062   2.532
 5971SOL    HW118812   0.576   1.031   2.557
 5971SOL    HW218813   0.472   1.052   2.433
 5972SOL     OW18814   5.883   5.610   5.912
 5972SOL    HW118815   5.897   5.565   5.823
 5972SOL    HW218816   5.792   5.586   5.946
 5973SOL     OW18817   1.545   3.511   2.683
 5973SOL    HW118818   1.627   3.563   2.707
 5973SOL    HW218819   1.477   3.519   2.756
 5974SOL     OW18820   6.010   5.901   6.517
 5974SOL    HW118821   6.046   5.912   6.610
 5974SOL    HW218822   6.058   5.826   6.471
 5975SOL     OW18823   4.734   0.059   0.499
 5975SOL    HW118824   4.661   0.014   0.550
 5975SOL    HW218825   4.771   0.135   0.552
 5976SOL     OW18826   3.702   2.607   5.748
 5976SOL    HW118827   3.643   2.587   5.826
 5976SOL    HW218828   3.694   2.704   5.724
 5977SOL     OW18829   1.494   5.914   6.752
 5977SOL    HW118830   1.521   5.930   6.847
 5977SOL    HW218831   1.575   5.915   6.694
 5978SOL     OW18832   4.540   5.496   1.718
 5978SOL    HW118833   4.517   5.515   1.814
 5978SOL    HW218834   4.457   5.480   1.666
 5979SOL     OW18835   5.613   0.929   3.128
 5979SOL    HW118836   5.575   1.019   3.152
 5979SOL    HW218837   5.623   0.874   3.211
 5980SOL     OW18838   3.647   3.825   1.200
 5980SOL    HW118839   3.626   3.911   1.246
 5980SOL    HW218840   3.614   3.827   1.106
 5981SOL     OW18841   5.020   2.071   1.493
 5981SOL    HW118842   5.002   2.111   1.583
 5981SOL    HW218843   5.044   2.143   1.428
 5982SOL     OW18844   6.285   3.438   2.350
 5982SOL    HW118845   6.235   3.523   2.330
 5982SOL    HW218846   6.380   3.460   2.374
 5983SOL     OW18847   1.257   1.517   3.802
 5983SOL    HW118848   1.235   1.514   3.899
 5983SOL    HW218849   1.216   1.439   3.755
 5984SOL     OW18850   6.633   5.690   3.573
 5984SOL    HW118851   6.550   5.731   3.535
 5984SOL    HW218852   6.637   5.707   3.671
 5985SOL     OW18853   6.833   2.693   4.211
 5985SOL    HW118854   6.829   2.713   4.309
 5985SOL    HW218855   6.741   2.682   4.175
 5986SOL     OW18856   3.220   3.670   4.512
 5986SOL    HW118857   3.290   3.734   4.483
 5986SOL    HW218858   3.150   3.718   4.565
 5987SOL     OW18859   5.426   0.051   3.875
 5987SOL    HW118860   5.341   0.103   3.867
 5987SOL    HW218861   5.455   0.020   3.784
 5988SOL     OW18862   4.725   0.242   5.891
 5988SOL    HW118863   4.692   0.149   5.907
 5988SOL    HW218864   4.819   0.239   5.858
 5989SOL     OW18865   2.097   6.095   6.745
 5989SOL    HW118866   2.088   6.187   6.706
 5989SOL    HW218867   2.179   6.051   6.708
 5990SOL     OW18868   3.697   3.874   0.720
 5990SOL    HW118869   3.629   3.861   0.648
 5990SOL    HW218870   3.780   3.823   0.697
 5991SOL     OW18871   3.512   5.069   6.717
 5991SOL    HW118872   3.481   5.159   6.747
 5991SOL    HW218873   3.563   5.078   6.632
 5992SOL     OW18874   3.508   0.356   2.056
 5992SOL    HW118875   3.418   0.341   2.017
 5992SOL    HW218876   3.506   0.438   2.114
 5993SOL     OW18877   3.496   5.051   5.828
 5993SOL    HW118878   3.397   5.032   5.830
 5993SOL    HW218879   3.534   5.037   5.919
 5994SOL     OW18880   5.821   2.957   2.088
 5994SOL    HW118881   5.903   2.977   2.141
 5994SOL    HW218882   5.745   3.013   2.122
 5995SOL     OW18883   4.920   3.760   2.278
 5995SOL    HW118884   4.854   3.698   2.237
 5995SOL    HW218885   4.918   3.848   2.231
 5996SOL     OW18886   1.310   6.311   1.340
 5996SOL    HW118887   1.371   6.291   1.263
 5996SOL    HW218888   1.233   6.367   1.309
 5997SOL     OW18889   0.068   5.733   2.632
 5997SOL    HW118890   0.100   5.812   2.580
 5997SOL    HW218891   0.124   5.653   2.609
 5998SOL     OW18892   5.853   0.980   3.281
 5998SOL    HW118893   5.778   0.990   3.216
 5998SOL    HW218894   5.919   1.054   3.267
 5999SOL     OW18895   1.998   1.778   2.150
 5999SOL    HW118896   1.925   1.736   2.095
 5999SOL    HW218897   2.074   1.804   2.090
 6000SOL     OW18898   3.803   6.791   0.622
 6000SOL    HW118899   3.704   6.791   0.628
 6000SOL    HW218900   3.832   6.850   0.546
 6001SOL     OW18901   0.757   4.060   6.972
 6001SOL    HW118902   0.781   3.994   0.027
 6001SOL    HW218903   0.670   4.032   6.930
 6002SOL     OW18904   5.731   1.133   0.598
 6002SOL    HW118905   5.735   1.153   0.696
 6002SOL    HW218906   5.638   1.152   0.564
 6003SOL     OW18907   6.098   2.129   4.991
 6003SOL    HW118908   5.999   2.143   4.987
 6003SOL    HW218909   6.117   2.035   5.019
 6004SOL     OW18910   6.732   3.702   2.826
 6004SOL    HW118911   6.794   3.769   2.867
 6004SOL    HW218912   6.756   3.610   2.858
 6005SOL     OW18913   4.475   5.944   4.232
 6005SOL    HW118914   4.474   6.044   4.237
 6005SOL    HW218915   4.417   5.914   4.157
 6006SOL     OW18916   2.863   1.217   5.528
 6006SOL    HW118917   2.883   1.188   5.622
 6006SOL    HW218918   2.777   1.268   5.527
 6007SOL     OW18919   4.915   3.954   5.532
 6007SOL    HW118920   4.872   3.892   5.597
 6007SOL    HW218921   4.974   3.901   5.470
 6008SOL     OW18922   2.488   4.476   5.247
 6008SOL    HW118923   2.575   4.461   5.293
 6008SOL    HW218924   2.417   4.493   5.315
 6009SOL     OW18925   1.904   0.887   2.989
 6009SOL    HW118926   1.924   0.936   2.905
 6009SOL    HW218927   1.813   0.844   2.983
 6010SOL     OW18928   1.273   5.119   4.044
 6010SOL    HW118929   1.366   5.085   4.056
 6010SOL    HW218930   1.221   5.104   4.128
 6011SOL     OW18931   4.812   2.841   3.452
 6011SOL    HW118932   4.880   2.768   3.457
 6011SOL    HW218933   4.782   2.852   3.357
 6012SOL     OW18934   5.440   0.795   0.200
 6012SOL    HW118935   5.350   0.756   0.220
 6012SOL    HW218936   5.464   0.860   0.273
 6013SOL     OW18937   4.759   2.152   2.725
 6013SOL    HW118938   4.663   2.136   2.746
 6013SOL    HW218939   4.778   2.123   2.631
 6014SOL     OW18940   4.096   3.485   2.744
 6014SOL    HW118941   4.133   3.478   2.652
 6014SOL    HW218942   4.012   3.430   2.751
 6015SOL     OW18943   6.052   3.951   3.951
 6015SOL    HW118944   6.031   3.913   3.861
 6015SOL    HW218945   6.115   4.028   3.942
 6016SOL     OW18946   6.714   1.836   5.373
 6016SOL    HW118947   6.690   1.769   5.302
 6016SOL    HW218948   6.632   1.886   5.400
 6017SOL     OW18949   6.618   4.081   3.217
 6017SOL    HW118950   6.570   4.168   3.226
 6017SOL    HW218951   6.638   4.045   3.308
 6018SOL     OW18952   4.273   0.470   6.526
 6018SOL    HW118953   4.287   0.565   6.555
 6018SOL    HW218954   4.212   0.424   6.589
 6019SOL     OW18955   6.791   1.317   4.249
 6019SOL    HW118956   6.776   1.222   4.276
 6019SOL    HW218957   6.784   1.377   4.329
 6020SOL     OW18958   1.221   4.857   0.437
 6020SOL    HW118959   1.132   4.817   0.457
 6020SOL    HW218960   1.255   4.906   0.517
 6021SOL     OW18961   4.619   0.274   3.324
 6021SOL    HW118962   4.670   0.264   3.409
 6021SOL    HW218963   4.595   0.369   3.310
 6022SOL     OW18964   5.576   2.332   4.223
 6022SOL    HW118965   5.571   2.426   4.257
 6022SOL    HW218966   5.558   2.332   4.124
 6023SOL     OW18967   5.516   0.772   1.908
 6023SOL    HW118968   5.549   0.727   1.991
 6023SOL    HW218969   5.546   0.868   1.908
 6024SOL     OW18970   1.420   4.877   2.959
 6024SOL    HW118971   1.402   4.975   2.958
 6024SOL    HW218972   1.381   4.834   2.878
 6025SOL     OW18973   3.704   1.683   3.008
 6025SOL    HW118974   3.672   1.689   2.913
 6025SOL    HW218975   3.653   1.611   3.055
 6026SOL     OW18976   0.280   4.227   5.416
 6026SOL    HW118977   0.279   4.241   5.317
 6026SOL    HW218978   0.372   4.204   5.446
 6027SOL     OW18979   0.888   3.047   6.109
 6027SOL    HW118980   0.943   2.964   6.097
 6027SOL    HW218981   0.924   3.119   6.049
 6028SOL     OW18982   6.516   5.373   0.273
 6028SOL    HW118983   6.447   5.313   0.232
 6028SOL    HW218984   6.482   5.467   0.273
 6029SOL     OW18985   2.362   6.802   4.976
 6029SOL    HW118986   2.356   6.888   5.026
 6029SOL    HW218987   2.326   6.728   5.032
 6030SOL     OW18988   3.802   5.317   2.388
 6030SOL    HW118989   3.881   5.282   2.439
 6030SOL    HW218990   3.826   5.405   2.347
 6031SOL     OW18991   2.808   5.207   3.910
 6031SOL    HW118992   2.750   5.136   3.950
 6031SOL    HW218993   2.898   5.206   3.954
 6032SOL     OW18994   2.029   4.253   2.519
 6032SOL    HW118995   1.993   4.283   2.431
 6032SOL    HW218996   2.129   4.254   2.517
 6033SOL     OW18997   2.612   2.444   2.946
 6033SOL    HW118998   2.564   2.410   2.865
 6033SOL    HW218999   2.554   2.511   2.993
 6034SOL     OW19000   1.190   6.291   4.833
 6034SOL    HW119001   1.203   6.384   4.797
 6034SOL    HW219002   1.157   6.232   4.760
 6035SOL     OW19003   0.161   0.651   2.508
 6035SOL    HW119004   0.093   0.723   2.497
 6035SOL    HW219005   0.253   0.691   2.501
 6036SOL     OW19006   5.152   4.511   3.413
 6036SOL    HW119007   5.091   4.440   3.447
 6036SOL    HW219008   5.119   4.601   3.443
 6037SOL     OW19009   4.193   6.088   6.849
 6037SOL    HW119010   4.234   6.060   6.935
 6037SOL    HW219011   4.097   6.057   6.845
 6038SOL     OW19012   1.686   2.125   5.433
 6038SOL    HW119013   1.627   2.057   5.475
 6038SOL    HW219014   1.767   2.080   5.395
 6039SOL     OW19015   2.948   3.693   2.505
 6039SOL    HW119016   3.008   3.621   2.539
 6039SOL    HW219017   2.893   3.729   2.580
 6040SOL     OW19018   0.981   1.356   6.966
 6040SOL    HW119019   1.007   1.395   0.037
 6040SOL    HW219020   1.049   1.288   6.939
 6041SOL     OW19021   3.154   0.875   5.036
 6041SOL    HW119022   3.170   0.834   5.126
 6041SOL    HW219023   3.101   0.959   5.047
 6042SOL     OW19024   4.731   6.329   2.410
 6042SOL    HW119025   4.716   6.312   2.507
 6042SOL    HW219026   4.651   6.299   2.358
 6043SOL     OW19027   0.789   4.784   5.291
 6043SOL    HW119028   0.771   4.741   5.203
 6043SOL    HW219029   0.760   4.879   5.288
 6044SOL     OW19030   1.166   2.339   1.383
 6044SOL    HW119031   1.106   2.406   1.340
 6044SOL    HW219032   1.217   2.290   1.312
 6045SOL     OW19033   5.830   4.158   2.756
 6045SOL    HW119034   5.794   4.064   2.759
 6045SOL    HW219035   5.928   4.156   2.738
 6046SOL     OW19036   3.561   2.354   0.418
 6046SOL    HW119037   3.469   2.368   0.382
 6046SOL    HW219038   3.625   2.413   0.370
 6047SOL     OW19039   4.653   2.169   2.226
 6047SOL    HW119040   4.667   2.114   2.144
 6047SOL    HW219041   4.613   2.258   2.201
 6048SOL     OW19042   4.814   5.490   5.136
 6048SOL    HW119043   4.864   5.565   5.180
 6048SOL    HW219044   4.720   5.520   5.118
 6049SOL     OW19045   4.860   3.229   6.789
 6049SOL    HW119046   4.793   3.161   6.760
 6049SOL    HW219047   4.844   3.314   6.740
 6050SOL     OW19048   4.057   5.709   5.327
 6050SOL    HW119049   4.058   5.779   5.398
 6050SOL    HW219050   3.979   5.647   5.343
 6051SOL     OW19051   2.265   0.223   3.901
 6051SOL    HW119052   2.364   0.224   3.906
 6051SOL    HW219053   2.228   0.154   3.964
 6052SOL     OW19054   6.727   0.785   6.946
 6052SOL    HW119055   6.722   0.804   6.848
 6052SOL    HW219056   6.821   0.762   6.971
 6053SOL     OW19057   3.971   2.178   6.711
 6053SOL    HW119058   4.031   2.258   6.713
 6053SOL    HW219059   4.002   2.115   6.639
 6054SOL     OW19060   2.455   3.027   0.050
 6054SOL    HW119061   2.535   3.060   0.101
 6054SOL    HW219062   2.372   3.045   0.103
 6055SOL     OW19063   4.717   0.707   5.155
 6055SOL    HW119064   4.669   0.781   5.203
 6055SOL    HW219065   4.721   0.727   5.058
 6056SOL     OW19066   5.063   2.719   4.637
 6056SOL    HW119067   5.126   2.642   4.644
 6056SOL    HW219068   4.998   2.716   4.713
 6057SOL     OW19069   6.030   2.583   3.903
 6057SOL    HW119070   6.012   2.656   3.838
 6057SOL    HW219071   6.117   2.599   3.950
 6058SOL     OW19072   5.310   3.317   1.640
 6058SOL    HW119073   5.319   3.218   1.644
 6058SOL    HW219074   5.348   3.351   1.554
 6059SOL     OW19075   5.368   4.588   5.148
 6059SOL    HW119076   5.463   4.598   5.179
 6059SOL    HW219077   5.367   4.548   5.056
 6060SOL     OW19078   3.234   3.797   0.296
 6060SOL    HW119079   3.299   3.734   0.254
 6060SOL    HW219080   3.195   3.754   0.378
 6061SOL     OW19081   3.736   2.569   0.894
 6061SOL    HW119082   3.729   2.667   0.881
 6061SOL    HW219083   3.684   2.541   0.975
 6062SOL     OW19084   2.051   0.956   4.990
 6062SOL    HW119085   2.104   0.991   4.913
 6062SOL    HW219086   1.984   1.024   5.018
 6063SOL     OW19087   4.148   2.417   6.016
 6063SOL    HW119088   4.188   2.499   5.975
 6063SOL    HW219089   4.064   2.442   6.065
 6064SOL     OW19090   1.917   6.299   0.604
 6064SOL    HW119091   1.878   6.211   0.631
 6064SOL    HW219092   1.852   6.348   0.546
 6065SOL     OW19093   7.015   6.574   2.074
 6065SOL    HW119094   0.058   6.558   1.996
 6065SOL    HW219095   0.050   6.617   2.148
 6066SOL     OW19096   4.696   1.220   6.282
 6066SOL    HW119097   4.652   1.307   6.261
 6066SOL    HW219098   4.653   1.180   6.363
 6067SOL     OW19099   5.636   0.919   5.347
 6067SOL    HW119100   5.590   0.947   5.263
 6067SOL    HW219101   5.718   0.974   5.361
 6068SOL     OW19102   5.374   3.345   4.539
 6068SOL    HW119103   5.362   3.402   4.458
 6068SOL    HW219104   5.459   3.370   4.585
 6069SOL     OW19105   6.092   3.145   5.792
 6069SOL    HW119106   6.021   3.077   5.807
 6069SOL    HW219107   6.073   3.227   5.848
 6070SOL     OW19108   2.864   2.573   0.781
 6070SOL    HW119109   2.824   2.664   0.790
 6070SOL    HW219110   2.798   2.504   0.809
 6071SOL     OW19111   5.450   5.527   3.694
 6071SOL    HW119112   5.521   5.504   3.628
 6071SOL    HW219113   5.479   5.607   3.747
 6072SOL     OW19114   6.894   0.664   1.771
 6072SOL    HW119115   6.826   0.719   1.723
 6072SOL    HW219116   6.985   0.703   1.756
 6073SOL     OW19117   5.931   3.079   0.060
 6073SOL    HW119118   5.834   3.104   0.050
 6073SOL    HW219119   5.973   3.136   0.131
 6074SOL     OW19120   1.085   6.746   3.366
 6074SOL    HW119121   1.024   6.677   3.405
 6074SOL    HW219122   1.032   6.826   3.339
 6075SOL     OW19123   6.419   1.367   6.121
 6075SOL    HW119124   6.509   1.349   6.082
 6075SOL    HW219125   6.371   1.281   6.137
 6076SOL     OW19126   2.838   5.442   4.247
 6076SOL    HW119127   2.749   5.398   4.255
 6076SOL    HW219128   2.826   5.540   4.232
 6077SOL     OW19129   6.345   5.715   1.061
 6077SOL    HW119130   6.361   5.812   1.077
 6077SOL    HW219131   6.328   5.669   1.149
 6078SOL     OW19132   4.311   5.131   0.429
 6078SOL    HW119133   4.333   5.222   0.465
 6078SOL    HW219134   4.361   5.061   0.480
 6079SOL     OW19135   4.458   3.889   6.224
 6079SOL    HW119136   4.414   3.800   6.237
 6079SOL    HW219137   4.393   3.961   6.248
 6080SOL     OW19138   7.001   0.160   1.226
 6080SOL    HW119139   6.974   0.255   1.239
 6080SOL    HW219140   0.030   0.127   1.308
 6081SOL     OW19141   6.961   3.597   5.460
 6081SOL    HW119142   6.944   3.498   5.454
 6081SOL    HW219143   0.041   3.613   5.477
 6082SOL     OW19144   2.467   1.873   3.935
 6082SOL    HW119145   2.459   1.943   3.864
 6082SOL    HW219146   2.376   1.848   3.967
 6083SOL     OW19147   6.631   5.273   6.689
 6083SOL    HW119148   6.602   5.352   6.743
 6083SOL    HW219149   6.664   5.201   6.749
 6084SOL     OW19150   0.868   0.314   3.936
 6084SOL    HW119151   0.933   0.256   3.887
 6084SOL    HW219152   0.806   0.357   3.870
 6085SOL     OW19153   0.748   5.025   0.402
 6085SOL    HW119154   0.719   5.120   0.390
 6085SOL    HW219155   0.697   4.984   0.478
 6086SOL     OW19156   4.141   0.344   6.017
 6086SOL    HW119157   4.134   0.377   6.112
 6086SOL    HW219158   4.115   0.418   5.955
 6087SOL     OW19159   3.875   5.416   1.060
 6087SOL    HW119160   3.853   5.358   1.138
 6087SOL    HW219161   3.796   5.474   1.038
 6088SOL     OW19162   5.725   5.642   3.649
 6088SOL    HW119163   5.732   5.687   3.739
 6088SOL    HW219164   5.781   5.559   3.649
 6089SOL     OW19165   5.104   3.513   1.412
 6089SOL    HW119166   5.200   3.505   1.440
 6089SOL    HW219167   5.066   3.598   1.447
 6090SOL     OW19168   2.309   5.702   5.385
 6090SOL    HW119169   2.292   5.747   5.297
 6090SOL    HW219170   2.332   5.771   5.454
 6091SOL     OW19171   1.638   1.329   0.558
 6091SOL    HW119172   1.657   1.243   0.512
 6091SOL    HW219173   1.609   1.312   0.652
 6092SOL     OW19174   4.166   6.863   2.944
 6092SOL    HW119175   4.179   6.884   3.041
 6092SOL    HW219176   4.069   6.873   2.920
 6093SOL     OW19177   1.656   3.580   1.894
 6093SOL    HW119178   1.560   3.601   1.909
 6093SOL    HW219179   1.713   3.649   1.937
 6094SOL     OW19180   2.559   6.687   1.383
 6094SOL    HW119181   2.483   6.622   1.385
 6094SOL    HW219182   2.623   6.667   1.458
 6095SOL     OW19183   4.953   4.009   0.589
 6095SOL    HW119184   4.885   3.984   0.658
 6095SOL    HW219185   4.948   4.108   0.571
 6096SOL     OW19186   6.861   6.946   3.220
 6096SOL    HW119187   6.797   6.920   3.292
 6096SOL    HW219188   6.954   6.946   3.256
 6097SOL     OW19189   2.671   6.487   2.568
 6097SOL    HW119190   2.599   6.446   2.624
 6097SOL    HW219191   2.754   6.498   2.623
 6098SOL     OW19192   1.898   1.798   5.018
 6098SOL    HW119193   1.845   1.767   4.940
 6098SOL    HW219194   1.975   1.736   5.033
 6099SOL     OW19195   6.349   6.382   6.918
 6099SOL    HW119196   6.267   6.394   6.973
 6099SOL    HW219197   6.360   6.460   6.857
 6100SOL     OW19198   5.074   5.581   0.291
 6100SOL    HW119199   5.069   5.592   0.192
 6100SOL    HW219200   4.991   5.618   0.332
 6101SOL     OW19201   6.470   2.768   4.520
 6101SOL    HW119202   6.437   2.858   4.546
 6101SOL    HW219203   6.460   2.705   4.597
 6102SOL     OW19204   3.635   6.655   3.648
 6102SOL    HW119205   3.629   6.729   3.715
 6102SOL    HW219206   3.569   6.584   3.671
 6103SOL     OW19207   6.529   2.241   2.521
 6103SOL    HW119208   6.623   2.271   2.533
 6103SOL    HW219209   6.523   2.143   2.540
 6104SOL     OW19210   6.064   0.669   5.314
 6104SOL    HW119211   6.055   0.721   5.229
 6104SOL    HW219212   6.159   0.674   5.346
 6105SOL     OW19213   2.939   6.493   6.142
 6105SOL    HW119214   2.916   6.589   6.129
 6105SOL    HW219215   2.909   6.463   6.233
 6106SOL     OW19216   2.349   4.056   6.154
 6106SOL    HW119217   2.420   4.004   6.106
 6106SOL    HW219218   2.389   4.139   6.193
 6107SOL     OW19219   2.941   5.118   4.476
 6107SOL    HW119220   2.977   5.146   4.387
 6107SOL    HW219221   2.892   5.195   4.518
 6108SOL     OW19222   1.437   2.904   1.843
 6108SOL    HW119223   1.527   2.945   1.855
 6108SOL    HW219224   1.389   2.949   1.768
 6109SOL     OW19225   5.192   2.510   5.259
 6109SOL    HW119226   5.179   2.423   5.212
 6109SOL    HW219227   5.133   2.579   5.217
 6110SOL     OW19228   4.088   4.108   0.514
 6110SOL    HW119229   4.123   4.019   0.486
 6110SOL    HW219230   4.163   4.164   0.549
 6111SOL     OW19231   2.246   4.059   2.180
 6111SOL    HW119232   2.318   4.028   2.242
 6111SOL    HW219233   2.162   4.006   2.198
 6112SOL     OW19234   4.029   0.304   2.682
 6112SOL    HW119235   4.083   0.246   2.743
 6112SOL    HW219236   4.080   0.387   2.660
 6113SOL     OW19237   2.633   1.351   5.984
 6113SOL    HW119238   2.592   1.385   5.899
 6113SOL    HW219239   2.703   1.283   5.961
 6114SOL     OW19240   5.155   6.066   1.281
 6114SOL    HW119241   5.136   6.102   1.373
 6114SOL    HW219242   5.161   5.966   1.285
 6115SOL     OW19243   5.142   0.069   4.257
 6115SOL    HW119244   5.133   0.165   4.284
 6115SOL    HW219245   5.156   0.063   4.158
 6116SOL     OW19246   3.807   0.902   6.472
 6116SOL    HW119247   3.809   0.996   6.507
 6116SOL    HW219248   3.806   0.903   6.372
 6117SOL     OW19249   1.385   1.116   4.469
 6117SOL    HW119250   1.388   1.201   4.522
 6117SOL    HW219251   1.449   1.050   4.510
 6118SOL     OW19252   6.691   1.048   2.180
 6118SOL    HW119253   6.710   1.142   2.208
 6118SOL    HW219254   6.763   0.988   2.214
 6119SOL     OW19255   1.435   3.687   6.316
 6119SOL    HW119256   1.513   3.729   6.361
 6119SOL    HW219257   1.452   3.682   6.218
 6120SOL     OW19258   3.801   6.462   4.643
 6120SOL    HW119259   3.883   6.418   4.679
 6120SOL    HW219260   3.820   6.499   4.552
 6121SOL     OW19261   1.097   3.191   5.493
 6121SOL    HW119262   1.176   3.163   5.439
 6121SOL    HW219263   1.100   3.290   5.508
 6122SOL     OW19264   4.436   5.708   1.026
 6122SOL    HW119265   4.393   5.645   0.961
 6122SOL    HW219266   4.534   5.716   1.005
 6123SOL     OW19267   6.071   6.996   6.864
 6123SOL    HW119268   6.136   6.992   6.940
 6123SOL    HW219269   6.116   0.017   6.784
 6124SOL     OW19270   2.443   6.913   5.927
 6124SOL    HW119271   2.434   6.866   6.015
 6124SOL    HW219272   2.525   6.878   5.879
 6125SOL     OW19273   1.288   5.329   0.686
 6125SOL    HW119274   1.382   5.351   0.712
 6125SOL    HW219275   1.225   5.385   0.740
 6126SOL     OW19276   1.135   0.154   4.294
 6126SOL    HW119277   1.231   0.143   4.271
 6126SOL    HW219278   1.117   0.250   4.316
 6127SOL     OW19279   4.019   6.736   0.764
 6127SOL    HW119280   3.936   6.743   0.707
 6127SOL    HW219281   4.056   6.827   0.779
 6128SOL     OW19282   5.846   3.539   0.467
 6128SOL    HW119283   5.881   3.583   0.385
 6128SOL    HW219284   5.913   3.474   0.501
 6129SOL     OW19285   6.685   3.139   3.664
 6129SOL    HW119286   6.736   3.198   3.601
 6129SOL    HW219287   6.625   3.195   3.721
 6130SOL     OW19288   6.280   2.658   3.999
 6130SOL    HW119289   6.266   2.687   4.093
 6130SOL    HW219290   6.305   2.737   3.943
 6131SOL     OW19291   0.086   1.069   5.232
 6131SOL    HW119292   0.038   1.135   5.175
 6131SOL    HW219293   0.167   1.112   5.272
 6132SOL     OW19294   4.627   2.313   0.093
 6132SOL    HW119295   4.540   2.272   0.118
 6132SOL    HW219296   4.694   2.241   0.075
 6133SOL     OW19297   1.501   2.619   1.888
 6133SOL    HW119298   1.473   2.613   1.984
 6133SOL    HW219299   1.498   2.714   1.859
 6134SOL     OW19300   3.728   4.505   6.417
 6134SOL    HW119301   3.686   4.472   6.333
 6134SOL    HW219302   3.814   4.455   6.433
 6135SOL     OW19303   0.402   0.740   1.910
 6135SOL    HW119304   0.402   0.794   1.826
 6135SOL    HW219305   0.317   0.754   1.959
 6136SOL     OW19306   0.758   2.472   2.299
 6136SOL    HW119307   0.745   2.407   2.224
 6136SOL    HW219308   0.766   2.565   2.261
 6137SOL     OW19309   6.565   2.525   3.295
 6137SOL    HW119310   6.635   2.511   3.365
 6137SOL    HW219311   6.608   2.555   3.210
 6138SOL     OW19312   3.673   6.634   3.187
 6138SOL    HW119313   3.760   6.663   3.226
 6138SOL    HW219314   3.669   6.534   3.184
 6139SOL     OW19315   0.985   0.200   6.416
 6139SOL    HW119316   1.082   0.174   6.415
 6139SOL    HW219317   0.974   0.288   6.369
 6140SOL     OW19318   0.991   6.476   1.552
 6140SOL    HW119319   1.007   6.538   1.629
 6140SOL    HW219320   0.996   6.382   1.583
 6141SOL     OW19321   6.823   6.471   6.154
 6141SOL    HW119322   6.851   6.534   6.226
 6141SOL    HW219323   6.903   6.441   6.102
 6142SOL     OW19324   1.201   6.212   0.133
 6142SOL    HW119325   1.256   6.282   0.179
 6142SOL    HW219326   1.220   6.214   0.035
 6143SOL     OW19327   6.667   3.761   1.109
 6143SOL    HW119328   6.599   3.707   1.060
 6143SOL    HW219329   6.715   3.821   1.044
 6144SOL     OW19330   5.586   4.535   2.911
 6144SOL    HW119331   5.518   4.609   2.918
 6144SOL    HW219332   5.555   4.457   2.965
 6145SOL     OW19333   5.128   5.329   3.077
 6145SOL    HW119334   5.041   5.281   3.066
 6145SOL    HW219335   5.158   5.366   2.989
 6146SOL     OW19336   2.646   5.847   3.192
 6146SOL    HW119337   2.671   5.900   3.111
 6146SOL    HW219338   2.671   5.897   3.275
 6147SOL     OW19339   1.510   2.430   4.672
 6147SOL    HW119340   1.443   2.440   4.599
 6147SOL    HW219341   1.465   2.439   4.761
 6148SOL     OW19342   5.684   6.746   4.211
 6148SOL    HW119343   5.588   6.773   4.206
 6148SOL    HW219344   5.714   6.748   4.307
 6149SOL     OW19345   2.964   5.733   0.922
 6149SOL    HW119346   2.888   5.790   0.953
 6149SOL    HW219347   3.039   5.740   0.987
 6150SOL     OW19348   4.535   5.590   0.105
 6150SOL    HW119349   4.632   5.577   0.087
 6150SOL    HW219350   4.520   5.678   0.150
 6151SOL     OW19351   5.719   4.434   6.581
 6151SOL    HW119352   5.716   4.501   6.507
 6151SOL    HW219353   5.709   4.342   6.543
 6152SOL     OW19354   5.915   5.109   4.681
 6152SOL    HW119355   5.910   5.084   4.585
 6152SOL    HW219356   5.898   5.208   4.691
 6153SOL     OW19357   5.106   4.521   1.198
 6153SOL    HW119358   5.027   4.460   1.204
 6153SOL    HW219359   5.182   4.481   1.249
 6154SOL     OW19360   6.165   2.089   2.434
 6154SOL    HW119361   6.081   2.037   2.454
 6154SOL    HW219362   6.182   2.153   2.508
 6155SOL     OW19363   1.685   1.898   4.199
 6155SOL    HW119364   1.703   1.979   4.255
 6155SOL    HW219365   1.627   1.834   4.250
 6156SOL     OW19366   3.905   4.437   1.697
 6156SOL    HW119367   3.896   4.339   1.679
 6156SOL    HW219368   3.822   4.485   1.669
 6157SOL     OW19369   0.564   0.266   4.985
 6157SOL    HW119370   0.640   0.202   4.975
 6157SOL    HW219371   0.558   0.324   4.904
 6158SOL     OW19372   3.962   1.549   5.952
 6158SOL    HW119373   3.954   1.456   5.916
 6158SOL    HW219374   3.871   1.589   5.961
 6159SOL     OW19375   4.948   2.867   2.347
 6159SOL    HW119376   5.015   2.935   2.316
 6159SOL    HW219377   4.997   2.784   2.376
 6160SOL     OW19378   5.162   1.331   6.544
 6160SOL    HW119379   5.089   1.262   6.542
 6160SOL    HW219380   5.203   1.332   6.635
 6161SOL     OW19381   4.868   1.325   4.882
 6161SOL    HW119382   4.823   1.392   4.824
 6161SOL    HW219383   4.809   1.303   4.960
 6162SOL     OW19384   0.645   6.162   3.353
 6162SOL    HW119385   0.694   6.245   3.324
 6162SOL    HW219386   0.696   6.081   3.324
 6163SOL     OW19387   6.174   6.913   1.028
 6163SOL    HW119388   6.137   6.951   1.113
 6163SOL    HW219389   6.139   6.820   1.016
 6164SOL     OW19390   4.094   3.185   2.240
 6164SOL    HW119391   4.046   3.113   2.190
 6164SOL    HW219392   4.193   3.174   2.226
 6165SOL     OW19393   4.780   1.234   0.334
 6165SOL    HW119394   4.807   1.233   0.238
 6165SOL    HW219395   4.685   1.264   0.341
 6166SOL     OW19396   5.335   1.150   6.008
 6166SOL    HW119397   5.398   1.162   5.932
 6166SOL    HW219398   5.378   1.093   6.079
 6167SOL     OW19399   1.205   5.266   3.334
 6167SOL    HW119400   1.175   5.361   3.323
 6167SOL    HW219401   1.155   5.208   3.271
 6168SOL     OW19402   0.776   4.031   1.719
 6168SOL    HW119403   0.775   3.995   1.625
 6168SOL    HW219404   0.784   4.130   1.716
 6169SOL     OW19405   1.504   2.283   0.947
 6169SOL    HW119406   1.458   2.201   0.914
 6169SOL    HW219407   1.553   2.263   1.032
 6170SOL     OW19408   0.994   4.337   6.121
 6170SOL    HW119409   1.091   4.352   6.135
 6170SOL    HW219410   0.947   4.425   6.114
 6171SOL     OW19411   0.764   3.068   0.654
 6171SOL    HW119412   0.763   3.003   0.578
 6171SOL    HW219413   0.769   3.017   0.740
 6172SOL     OW19414   1.746   2.904   2.551
 6172SOL    HW119415   1.690   2.932   2.473
 6172SOL    HW219416   1.825   2.966   2.559
 6173SOL     OW19417   6.882   5.534   1.614
 6173SOL    HW119418   6.809   5.602   1.623
 6173SOL    HW219419   6.842   5.444   1.595
 6174SOL     OW19420   5.256   5.493   3.252
 6174SOL    HW119421   5.213   5.425   3.192
 6174SOL    HW219422   5.259   5.581   3.205
 6175SOL     OW19423   3.997   0.452   3.776
 6175SOL    HW119424   3.932   0.403   3.719
 6175SOL    HW219425   4.063   0.500   3.719
 6176SOL     OW19426   5.234   4.053   6.291
 6176SOL    HW119427   5.165   4.102   6.344
 6176SOL    HW219428   5.190   3.993   6.225
 6177SOL     OW19429   5.666   1.144   1.039
 6177SOL    HW119430   5.584   1.162   0.985
 6177SOL    HW219431   5.744   1.190   0.997
 6178SOL     OW19432   4.873   4.621   2.412
 6178SOL    HW119433   4.943   4.684   2.377
 6178SOL    HW219434   4.788   4.670   2.428
 6179SOL     OW19435   6.296   4.731   3.070
 6179SOL    HW119436   6.385   4.732   3.024
 6179SOL    HW219437   6.279   4.821   3.110
 6180SOL     OW19438   3.377   4.364   0.915
 6180SOL    HW119439   3.469   4.400   0.898
 6180SOL    HW219440   3.337   4.332   0.829
 6181SOL     OW19441   4.392   6.742   0.417
 6181SOL    HW119442   4.311   6.686   0.436
 6181SOL    HW219443   4.373   6.801   0.338
 6182SOL     OW19444   5.095   3.376   5.640
 6182SOL    HW119445   5.084   3.299   5.576
 6182SOL    HW219446   5.190   3.407   5.638
 6183SOL     OW19447   1.062   2.523   3.592
 6183SOL    HW119448   1.082   2.619   3.573
 6183SOL    HW219449   1.059   2.472   3.506
 6184SOL     OW19450   2.684   6.807   6.491
 6184SOL    HW119451   2.705   6.755   6.573
 6184SOL    HW219452   2.694   6.748   6.410
 6185SOL     OW19453   0.618   3.908   6.012
 6185SOL    HW119454   0.662   3.820   5.995
 6185SOL    HW219455   0.528   3.910   5.967
 6186SOL     OW19456   0.635   0.595   0.275
 6186SOL    HW119457   0.631   0.502   0.238
 6186SOL    HW219458   0.547   0.620   0.314
 6187SOL     OW19459   4.983   4.430   3.857
 6187SOL    HW119460   5.032   4.459   3.939
 6187SOL    HW219461   4.910   4.367   3.882
 6188SOL     OW19462   2.584   1.875   6.880
 6188SOL    HW119463   2.648   1.897   6.806
 6188SOL    HW219464   2.594   1.779   6.904
 6189SOL     OW19465   4.453   4.531   2.705
 6189SOL    HW119466   4.544   4.571   2.715
 6189SOL    HW219467   4.417   4.552   2.613
 6190SOL     OW19468   0.805   4.183   5.511
 6190SOL    HW119469   0.836   4.277   5.522
 6190SOL    HW219470   0.827   4.151   5.419
 6191SOL     OW19471   2.700   2.289   6.705
 6191SOL    HW119472   2.679   2.241   6.790
 6191SOL    HW219473   2.616   2.302   6.653
 6192SOL     OW19474   3.273   2.459   5.899
 6192SOL    HW119475   3.285   2.393   5.825
 6192SOL    HW219476   3.221   2.537   5.865
 6193SOL     OW19477   4.614   0.415   1.574
 6193SOL    HW119478   4.694   0.357   1.585
 6193SOL    HW219479   4.640   0.511   1.585
 6194SOL     OW19480   1.379   0.567   1.012
 6194SOL    HW119481   1.380   0.558   1.112
 6194SOL    HW219482   1.290   0.599   0.982
 6195SOL     OW19483   4.337   5.774   5.303
 6195SOL    HW119484   4.352   5.869   5.331
 6195SOL    HW219485   4.239   5.759   5.288
 6196SOL     OW19486   5.965   3.376   1.664
 6196SOL    HW119487   5.923   3.292   1.701
 6196SOL    HW219488   6.005   3.356   1.574
 6197SOL     OW19489   3.970   5.114   0.708
 6197SOL    HW119490   4.000   5.051   0.781
 6197SOL    HW219491   3.986   5.208   0.737
 6198SOL     OW19492   4.037   6.733   1.552
 6198SOL    HW119493   4.035   6.709   1.454
 6198SOL    HW219494   3.944   6.744   1.585
 6199SOL     OW19495   0.980   1.507   0.263
 6199SOL    HW119496   0.914   1.434   0.279
 6199SOL    HW219497   1.044   1.511   0.339
 6200SOL     OW19498   1.098   1.332   5.439
 6200SOL    HW119499   1.198   1.342   5.434
 6200SOL    HW219500   1.076   1.234   5.441
 6201SOL     OW19501   0.642   3.792   5.519
 6201SOL    HW119502   0.588   3.738   5.584
 6201SOL    HW219503   0.583   3.823   5.445
 6202SOL     OW19504   4.251   1.493   1.983
 6202SOL    HW119505   4.281   1.400   2.004
 6202SOL    HW219506   4.194   1.492   1.901
 6203SOL     OW19507   6.586   5.422   1.907
 6203SOL    HW119508   6.577   5.502   1.847
 6203SOL    HW219509   6.557   5.447   2.000
 6204SOL     OW19510   0.069   5.256   4.137
 6204SOL    HW119511   0.080   5.308   4.222
 6204SOL    HW219512   0.143   5.277   4.074
 6205SOL     OW19513   6.469   5.582   0.680
 6205SOL    HW119514   6.431   5.500   0.723
 6205SOL    HW219515   6.511   5.640   0.751
 6206SOL     OW19516   5.472   1.799   3.202
 6206SOL    HW119517   5.501   1.890   3.229
 6206SOL    HW219518   5.381   1.780   3.240
 6207SOL     OW19519   1.422   5.455   5.318
 6207SOL    HW119520   1.393   5.452   5.222
 6207SOL    HW219521   1.449   5.363   5.347
 6208SOL     OW19522   5.408   2.837   5.845
 6208SOL    HW119523   5.378   2.748   5.813
 6208SOL    HW219524   5.371   2.908   5.786
 6209SOL     OW19525   3.662   6.086   0.228
 6209SOL    HW119526   3.752   6.067   0.267
 6209SOL    HW219527   3.619   6.001   0.199
 6210SOL     OW19528   5.120   3.714   4.289
 6210SOL    HW119529   5.091   3.620   4.309
 6210SOL    HW219530   5.200   3.736   4.344
 6211SOL     OW19531   2.955   5.962   5.973
 6211SOL    HW119532   3.021   5.983   5.901
 6211SOL    HW219533   2.941   6.043   6.030
 6212SOL     OW19534   2.651   4.643   4.541
 6212SOL    HW119535   2.733   4.627   4.596
 6212SOL    HW219536   2.576   4.586   4.577
 6213SOL     OW19537   6.028   0.210   0.100
 6213SOL    HW119538   5.944   0.167   0.067
 6213SOL    HW219539   6.019   0.309   0.096
 6214SOL     OW19540   4.811   5.211   4.205
 6214SOL    HW119541   4.896   5.251   4.240
 6214SOL    HW219542   4.735   5.238   4.263
 6215SOL     OW19543   4.432   2.248   6.726
 6215SOL    HW119544   4.379   2.310   6.784
 6215SOL    HW219545   4.497   2.302   6.672
 6216SOL     OW19546   6.595   1.629   2.693
 6216SOL    HW119547   6.671   1.671   2.742
 6216SOL    HW219548   6.606   1.645   2.595
 6217SOL     OW19549   0.732   3.723   2.300
 6217SOL    HW119550   0.652   3.779   2.278
 6217SOL    HW219551   0.769   3.681   2.217
 6218SOL     OW19552   3.923   6.752   6.193
 6218SOL    HW119553   3.937   6.768   6.095
 6218SOL    HW219554   3.929   6.654   6.211
 6219SOL     OW19555   1.470   1.808   4.705
 6219SOL    HW119556   1.373   1.790   4.686
 6219SOL    HW219557   1.478   1.853   4.794
 6220SOL     OW19558   2.588   0.814   5.091
 6220SOL    HW119559   2.581   0.837   4.994
 6220SOL    HW219560   2.651   0.877   5.136
 6221SOL     OW19561   5.692   6.969   0.428
 6221SOL    HW119562   5.714   6.879   0.465
 6221SOL    HW219563   5.776   7.012   0.395
 6222SOL     OW19564   1.845   6.681   1.834
 6222SOL    HW119565   1.844   6.647   1.928
 6222SOL    HW219566   1.817   6.608   1.771
 6223SOL     OW19567   1.571   4.707   3.786
 6223SOL    HW119568   1.576   4.644   3.708
 6223SOL    HW219569   1.596   4.799   3.756
 6224SOL     OW19570   3.451   1.370   5.907
 6224SOL    HW119571   3.379   1.313   5.946
 6224SOL    HW219572   3.541   1.334   5.933
 6225SOL     OW19573   4.201   3.227   6.228
 6225SOL    HW119574   4.261   3.215   6.308
 6225SOL    HW219575   4.111   3.258   6.259
 6226SOL     OW19576   0.921   1.917   5.118
 6226SOL    HW119577   0.896   1.953   5.028
 6226SOL    HW219578   0.914   1.818   5.117
 6227SOL     OW19579   3.692   5.189   5.198
 6227SOL    HW119580   3.693   5.091   5.177
 6227SOL    HW219581   3.738   5.205   5.285
 6228SOL     OW19582   0.779   3.531   2.071
 6228SOL    HW119583   0.788   3.431   2.068
 6228SOL    HW219584   0.739   3.563   1.986
 6229SOL     OW19585   0.818   1.779   4.248
 6229SOL    HW119586   0.766   1.857   4.213
 6229SOL    HW219587   0.790   1.697   4.199
 6230SOL     OW19588   0.517   1.875   4.270
 6230SOL    HW119589   0.539   1.837   4.360
 6230SOL    HW219590   0.539   1.808   4.199
 6231SOL     OW19591   6.168   6.132   0.352
 6231SOL    HW119592   6.126   6.151   0.264
 6231SOL    HW219593   6.251   6.077   0.338
 6232SOL     OW19594   6.380   1.325   0.599
 6232SOL    HW119595   6.348   1.419   0.605
 6232SOL    HW219596   6.476   1.324   0.573
 6233SOL     OW19597   6.624   2.115   1.574
 6233SOL    HW119598   6.671   2.091   1.658
 6233SOL    HW219599   6.686   2.102   1.496
 6234SOL     OW19600   0.048   0.161   5.529
 6234SOL    HW119601   0.070   0.253   5.495
 6234SOL    HW219602   6.995   0.120   5.471
 6235SOL     OW19603   0.015   6.899   1.275
 6235SOL    HW119604   6.970   6.978   1.268
 6235SOL    HW219605   7.010   6.833   1.204
 6236SOL     OW19606   0.795   4.295   1.390
 6236SOL    HW119607   0.805   4.204   1.350
 6236SOL    HW219608   0.725   4.346   1.340
 6237SOL     OW19609   4.118   0.429   6.291
 6237SOL    HW119610   4.176   0.451   6.369
 6237SOL    HW219611   4.040   0.492   6.287
 6238SOL     OW19612   4.450   5.453   2.487
 6238SOL    HW119613   4.455   5.435   2.585
 6238SOL    HW219614   4.501   5.537   2.466
 6239SOL     OW19615   3.622   0.779   1.335
 6239SOL    HW119616   3.576   0.783   1.424
 6239SOL    HW219617   3.717   0.807   1.346
 6240SOL     OW19618   2.140   3.991   5.761
 6240SOL    HW119619   2.226   4.015   5.715
 6240SOL    HW219620   2.072   3.966   5.693
 6241SOL     OW19621   3.258   0.390   1.914
 6241SOL    HW119622   3.191   0.318   1.925
 6241SOL    HW219623   3.234   0.468   1.972
 6242SOL     OW19624   3.689   0.429   4.100
 6242SOL    HW119625   3.646   0.397   4.016
 6242SOL    HW219626   3.783   0.396   4.104
 6243SOL     OW19627   6.802   6.464   5.316
 6243SOL    HW119628   6.894   6.430   5.299
 6243SOL    HW219629   6.802   6.525   5.395
 6244SOL     OW19630   5.732   2.851   3.050
 6244SOL    HW119631   5.644   2.876   3.090
 6244SOL    HW219632   5.778   2.934   3.016
 6245SOL     OW19633   1.554   3.706   0.859
 6245SOL    HW119634   1.529   3.746   0.771
 6245SOL    HW219635   1.476   3.657   0.897
 6246SOL     OW19636   1.305   2.140   5.604
 6246SOL    HW119637   1.295   2.206   5.679
 6246SOL    HW219638   1.319   2.190   5.518
 6247SOL     OW19639   0.256   5.886   3.733
 6247SOL    HW119640   0.304   5.852   3.652
 6247SOL    HW219641   0.219   5.810   3.785
 6248SOL     OW19642   3.795   3.956   6.818
 6248SOL    HW119643   3.849   4.022   6.871
 6248SOL    HW219644   3.841   3.867   6.820
 6249SOL     OW19645   0.076   3.668   0.447
 6249SOL    HW119646   0.139   3.607   0.493
 6249SOL    HW219647   7.015   3.686   0.506
 6250SOL     OW19648   6.496   0.577   0.913
 6250SOL    HW119649   6.566   0.538   0.853
 6250SOL    HW219650   6.445   0.503   0.957
 6251SOL     OW19651   4.193   5.729   5.588
 6251SOL    HW119652   4.262   5.734   5.661
 6251SOL    HW219653   4.236   5.695   5.505
 6252SOL     OW19654   2.484   6.185   5.809
 6252SOL    HW119655   2.540   6.250   5.861
 6252SOL    HW219656   2.536   6.100   5.796
 6253SOL     OW19657   2.285   4.764   4.255
 6253SOL    HW119658   2.380   4.744   4.282
 6253SOL    HW219659   2.222   4.714   4.315
 6254SOL     OW19660   5.773   1.063   1.478
 6254SOL    HW119661   5.710   1.108   1.414
 6254SOL    HW219662   5.862   1.051   1.434
 6255SOL     OW19663   2.977   0.900   0.873
 6255SOL    HW119664   2.924   0.817   0.889
 6255SOL    HW219665   2.996   0.908   0.775
 6256SOL     OW19666   3.233   5.292   2.055
 6256SOL    HW119667   3.168   5.367   2.069
 6256SOL    HW219668   3.324   5.322   2.081
 6257SOL     OW19669   4.694   2.353   0.823
 6257SOL    HW119670   4.751   2.353   0.740
 6257SOL    HW219671   4.649   2.264   0.832
 6258SOL     OW19672   2.682   0.983   3.113
 6258SOL    HW119673   2.702   0.980   3.211
 6258SOL    HW219674   2.591   0.947   3.096
 6259SOL     OW19675   1.565   1.973   6.647
 6259SOL    HW119676   1.552   1.984   6.549
 6259SOL    HW219677   1.477   1.985   6.693
 6260SOL     OW19678   3.092   5.588   0.389
 6260SOL    HW119679   3.107   5.507   0.445
 6260SOL    HW219680   3.165   5.595   0.320
 6261SOL     OW19681   4.263   1.455   6.998
 6261SOL    HW119682   4.185   1.414   0.028
 6261SOL    HW219683   4.324   1.496   0.048
 6262SOL     OW19684   2.235   6.214   1.754
 6262SOL    HW119685   2.316   6.190   1.809
 6262SOL    HW219686   2.182   6.283   1.802
 6263SOL     OW19687   0.022   6.876   4.412
 6263SOL    HW119688   0.074   6.915   4.336
 6263SOL    HW219689   0.076   6.884   4.496
 6264SOL     OW19690   2.053   0.363   1.616
 6264SOL    HW119691   1.982   0.314   1.667
 6264SOL    HW219692   2.081   0.444   1.667
 6265SOL     OW19693   3.782   3.900   0.415
 6265SOL    HW119694   3.773   3.870   0.320
 6265SOL    HW219695   3.803   3.998   0.417
 6266SOL     OW19696   4.365   0.428   3.816
 6266SOL    HW119697   4.448   0.422   3.760
 6266SOL    HW219698   4.338   0.336   3.845
 6267SOL     OW19699   2.502   6.701   5.316
 6267SOL    HW119700   2.549   6.633   5.259
 6267SOL    HW219701   2.496   6.788   5.266
 6268SOL     OW19702   2.732   0.760   2.321
 6268SOL    HW119703   2.745   0.734   2.416
 6268SOL    HW219704   2.699   0.855   2.317
 6269SOL     OW19705   0.024   6.754   1.710
 6269SOL    HW119706   0.084   6.829   1.738
 6269SOL    HW219707   6.946   6.782   1.721
 6270SOL     OW19708   0.927   0.696   6.224
 6270SOL    HW119709   0.857   0.670   6.289
 6270SOL    HW219710   0.940   0.795   6.226
 6271SOL     OW19711   5.874   2.439   6.016
 6271SOL    HW119712   5.919   2.373   6.076
 6271SOL    HW219713   5.813   2.497   6.069
 6272SOL     OW19714   0.324   2.218   0.244
 6272SOL    HW119715   0.418   2.186   0.236
 6272SOL    HW219716   0.305   2.240   0.340
 6273SOL     OW19717   0.637   6.353   2.602
 6273SOL    HW119718   0.637   6.442   2.557
 6273SOL    HW219719   0.662   6.282   2.536
 6274SOL     OW19720   3.457   6.720   5.591
 6274SOL    HW119721   3.502   6.756   5.672
 6274SOL    HW219722   3.445   6.621   5.600
 6275SOL     OW19723   2.104   6.357   6.668
 6275SOL    HW119724   2.063   6.425   6.729
 6275SOL    HW219725   2.198   6.384   6.647
 6276SOL     OW19726   1.909   4.929   3.957
 6276SOL    HW119727   1.903   4.860   3.885
 6276SOL    HW219728   1.907   4.884   4.046
 6277SOL     OW19729   4.765   3.068   1.046
 6277SOL    HW119730   4.696   3.023   1.103
 6277SOL    HW219731   4.770   3.021   0.958
 6278SOL     OW19732   4.745   0.181   4.822
 6278SOL    HW119733   4.741   0.182   4.722
 6278SOL    HW219734   4.811   0.249   4.854
 6279SOL     OW19735   3.438   6.190   0.116
 6279SOL    HW119736   3.532   6.179   0.149
 6279SOL    HW219737   3.398   6.271   0.160
 6280SOL     OW19738   0.222   1.107   6.674
 6280SOL    HW119739   0.244   1.068   6.584
 6280SOL    HW219740   0.175   1.039   6.729
 6281SOL     OW19741   0.419   5.306   4.315
 6281SOL    HW119742   0.422   5.405   4.326
 6281SOL    HW219743   0.511   5.268   4.330
 6282SOL     OW19744   6.336   5.422   6.268
 6282SOL    HW119745   6.238   5.423   6.286
 6282SOL    HW219746   6.381   5.357   6.329
 6283SOL     OW19747   0.263   3.687   4.436
 6283SOL    HW119748   0.193   3.621   4.462
 6283SOL    HW219749   0.350   3.661   4.479
 6284SOL     OW19750   1.466   4.868   5.107
 6284SOL    HW119751   1.513   4.797   5.053
 6284SOL    HW219752   1.433   4.939   5.046
 6285SOL     OW19753   6.851   3.319   4.327
 6285SOL    HW119754   6.935   3.282   4.286
 6285SOL    HW219755   6.809   3.249   4.384
 6286SOL     OW19756   6.154   2.389   4.235
 6286SOL    HW119757   6.089   2.465   4.243
 6286SOL    HW219758   6.237   2.421   4.189
 6287SOL     OW19759   3.539   5.044   4.830
 6287SOL    HW119760   3.560   5.109   4.758
 6287SOL    HW219761   3.440   5.029   4.834
 6288SOL     OW19762   5.191   4.295   2.398
 6288SOL    HW119763   5.276   4.317   2.350
 6288SOL    HW219764   5.117   4.353   2.362
 6289SOL     OW19765   2.437   4.721   0.072
 6289SOL    HW119766   2.515   4.744   0.130
 6289SOL    HW219767   2.469   4.679   7.004
 6290SOL     OW19768   5.810   5.109   6.003
 6290SOL    HW119769   5.908   5.091   5.996
 6290SOL    HW219770   5.760   5.023   5.991
 6291SOL     OW19771   4.017   3.884   4.007
 6291SOL    HW119772   4.055   3.816   3.945
 6291SOL    HW219773   3.995   3.967   3.957
 6292SOL     OW19774   1.770   2.264   4.705
 6292SOL    HW119775   1.834   2.340   4.690
 6292SOL    HW219776   1.677   2.296   4.689
 6293SOL     OW19777   4.337   1.583   1.372
 6293SOL    HW119778   4.345   1.681   1.355
 6293SOL    HW219779   4.273   1.567   1.447
 6294SOL     OW19780   3.906   0.010   3.988
 6294SOL    HW119781   3.857   0.035   3.906
 6294SOL    HW219782   3.989   0.066   3.996
 6295SOL     OW19783   5.054   4.797   4.389
 6295SOL    HW119784   5.087   4.726   4.325
 6295SOL    HW219785   4.963   4.826   4.361
 6296SOL     OW19786   6.908   5.416   5.959
 6296SOL    HW119787   6.992   5.470   5.968
 6296SOL    HW219788   6.852   5.429   6.041
 6297SOL     OW19789   5.397   0.243   4.858
 6297SOL    HW119790   5.407   0.243   4.759
 6297SOL    HW219791   5.301   0.231   4.883
 6298SOL     OW19792   1.719   3.663   6.948
 6298SOL    HW119793   1.655   3.601   6.994
 6298SOL    HW219794   1.681   3.688   6.859
 6299SOL     OW19795   6.176   2.208   2.186
 6299SOL    HW119796   6.137   2.165   2.267
 6299SOL    HW219797   6.270   2.236   2.205
 6300SOL     OW19798   6.556   1.301   6.615
 6300SOL    HW119799   6.654   1.281   6.607
 6300SOL    HW219800   6.506   1.253   6.543
 6301SOL     OW19801   3.202   0.016   6.937
 6301SOL    HW119802   3.118   0.038   6.887
 6301SOL    HW219803   3.264   6.982   6.878
 6302SOL     OW19804   1.461   1.358   4.164
 6302SOL    HW119805   1.376   1.312   4.192
 6302SOL    HW219806   1.438   1.447   4.125
 6303SOL     OW19807   0.464   0.782   4.477
 6303SOL    HW119808   0.477   0.727   4.395
 6303SOL    HW219809   0.543   0.843   4.490
 6304SOL     OW19810   3.263   0.693   1.206
 6304SOL    HW119811   3.199   0.744   1.264
 6304SOL    HW219812   3.342   0.751   1.185
 6305SOL     OW19813   6.036   6.358   0.809
 6305SOL    HW119814   6.098   6.371   0.731
 6305SOL    HW219815   5.994   6.446   0.833
 6306SOL     OW19816   0.273   4.203   4.280
 6306SOL    HW119817   0.343   4.241   4.341
 6306SOL    HW219818   0.316   4.137   4.217
 6307SOL     OW19819   3.466   4.128   4.674
 6307SOL    HW119820   3.471   4.029   4.688
 6307SOL    HW219821   3.458   4.174   4.762
 6308SOL     OW19822   2.101   2.375   4.109
 6308SOL    HW119823   2.027   2.427   4.067
 6308SOL    HW219824   2.175   2.436   4.135
 6309SOL     OW19825   6.212   5.913   4.525
 6309SOL    HW119826   6.143   5.861   4.475
 6309SOL    HW219827   6.287   5.852   4.551
 6310SOL     OW19828   1.967   5.905   2.747
 6310SOL    HW119829   1.955   5.904   2.648
 6310SOL    HW219830   1.986   5.812   2.780
 6311SOL     OW19831   5.294   1.611   6.110
 6311SOL    HW119832   5.352   1.570   6.040
 6311SOL    HW219833   5.246   1.539   6.160
 6312SOL     OW19834   6.973   6.711   5.180
 6312SOL    HW119835   0.048   6.748   5.193
 6312SOL    HW219836   6.976   6.638   5.112
 6313SOL     OW19837   7.016   5.939   3.571
 6313SOL    HW119838   6.999   6.037   3.560
 6313SOL    HW219839   0.077   5.926   3.632
 6314SOL     OW19840   4.243   6.799   1.738
 6314SOL    HW119841   4.157   6.794   1.688
 6314SOL    HW219842   4.238   6.873   1.806
 6315SOL     OW19843   2.897   2.022   5.663
 6315SOL    HW119844   2.874   2.101   5.720
 6315SOL    HW219845   2.966   2.048   5.596
 6316SOL     OW19846   5.311   2.371   6.479
 6316SOL    HW119847   5.378   2.317   6.427
 6316SOL    HW219848   5.247   2.309   6.524
 6317SOL     OW19849   5.379   4.615   1.777
 6317SOL    HW119850   5.472   4.618   1.741
 6317SOL    HW219851   5.377   4.652   1.870
 6318SOL     OW19852   4.510   0.372   5.803
 6318SOL    HW119853   4.526   0.409   5.712
 6318SOL    HW219854   4.597   0.343   5.843
 6319SOL     OW19855   6.328   1.619   5.047
 6319SOL    HW119856   6.390   1.593   5.121
 6319SOL    HW219857   6.341   1.558   4.969
 6320SOL     OW19858   6.400   6.371   5.110
 6320SOL    HW119859   6.389   6.279   5.072
 6320SOL    HW219860   6.314   6.421   5.100
 6321SOL     OW19861   4.500   3.683   1.004
 6321SOL    HW119862   4.514   3.625   1.084
 6321SOL    HW219863   4.549   3.643   0.926
 6322SOL     OW19864   1.927   2.329   0.721
 6322SOL    HW119865   1.900   2.406   0.663
 6322SOL    HW219866   1.973   2.260   0.664
 6323SOL     OW19867   1.970   2.283   1.620
 6323SOL    HW119868   2.065   2.280   1.591
 6323SOL    HW219869   1.947   2.374   1.653
 6324SOL     OW19870   4.937   1.161   0.897
 6324SOL    HW119871   4.979   1.235   0.844
 6324SOL    HW219872   4.960   1.073   0.856
 6325SOL     OW19873   1.887   3.125   2.456
 6325SOL    HW119874   1.860   3.221   2.467
 6325SOL    HW219875   1.983   3.121   2.429
 6326SOL     OW19876   5.188   4.995   1.410
 6326SOL    HW119877   5.151   4.966   1.322
 6326SOL    HW219878   5.125   4.970   1.483
 6327SOL     OW19879   0.226   1.130   4.965
 6327SOL    HW119880   0.319   1.096   4.946
 6327SOL    HW219881   0.230   1.225   4.993
 6328SOL     OW19882   4.130   4.034   0.018
 6328SOL    HW119883   4.052   4.094   0.000
 6328SOL    HW219884   4.180   4.067   0.098
 6329SOL     OW19885   1.624   2.652   3.527
 6329SOL    HW119886   1.579   2.586   3.587
 6329SOL    HW219887   1.662   2.605   3.448
 6330SOL     OW19888   5.610   0.089   1.890
 6330SOL    HW119889   5.582   0.173   1.938
 6330SOL    HW219890   5.682   0.112   1.824
 6331SOL     OW19891   6.345   3.201   5.462
 6331SOL    HW119892   6.262   3.250   5.435
 6331SOL    HW219893   6.390   3.165   5.380
 6332SOL     OW19894   0.511   2.616   0.689
 6332SOL    HW119895   0.554   2.688   0.743
 6332SOL    HW219896   0.412   2.622   0.699
 6333SOL     OW19897   4.313   0.024   5.569
 6333SOL    HW119898   4.384   0.094   5.564
 6333SOL    HW219899   4.312   6.990   5.483
 6334SOL     OW19900   2.925   1.180   2.468
 6334SOL    HW119901   2.864   1.185   2.389
 6334SOL    HW219902   3.016   1.214   2.443
 6335SOL     OW19903   4.491   1.194   1.064
 6335SOL    HW119904   4.504   1.235   1.154
 6335SOL    HW219905   4.528   1.101   1.065
 6336SOL     OW19906   1.367   2.348   6.966
 6336SOL    HW119907   1.450   2.308   7.005
 6336SOL    HW219908   1.298   2.277   6.954
 6337SOL     OW19909   4.806   5.078   5.393
 6337SOL    HW119910   4.751   4.995   5.408
 6337SOL    HW219911   4.827   5.086   5.296
 6338SOL     OW19912   3.203   2.138   3.805
 6338SOL    HW119913   3.191   2.101   3.713
 6338SOL    HW219914   3.283   2.198   3.807
 6339SOL     OW19915   1.009   4.101   3.853
 6339SOL    HW119916   0.989   4.007   3.881
 6339SOL    HW219917   1.104   4.107   3.823
 6340SOL     OW19918   1.557   5.172   1.553
 6340SOL    HW119919   1.648   5.132   1.568
 6340SOL    HW219920   1.507   5.117   1.487
 6341SOL     OW19921   6.567   4.217   4.188
 6341SOL    HW119922   6.472   4.202   4.160
 6341SOL    HW219923   6.601   4.302   4.147
 6342SOL     OW19924   2.361   1.009   1.109
 6342SOL    HW119925   2.401   0.930   1.157
 6342SOL    HW219926   2.434   1.065   1.071
 6343SOL     OW19927   4.559   1.165   6.526
 6343SOL    HW119928   4.465   1.147   6.497
 6343SOL    HW219929   4.598   1.082   6.565
 6344SOL     OW19930   4.997   1.875   4.510
 6344SOL    HW119931   5.063   1.806   4.541
 6344SOL    HW219932   5.011   1.960   4.561
 6345SOL     OW19933   5.902   2.580   2.568
 6345SOL    HW119934   5.944   2.628   2.491
 6345SOL    HW219935   5.849   2.646   2.623
 6346SOL     OW19936   6.070   5.822   3.923
 6346SOL    HW119937   6.104   5.734   3.890
 6346SOL    HW219938   6.095   5.894   3.859
 6347SOL     OW19939   2.256   0.980   0.524
 6347SOL    HW119940   2.208   0.895   0.543
 6347SOL    HW219941   2.272   1.030   0.610
 6348SOL     OW19942   1.599   2.863   6.123
 6348SOL    HW119943   1.542   2.782   6.140
 6348SOL    HW219944   1.567   2.910   6.041
 6349SOL     OW19945   1.815   0.409   1.002
 6349SOL    HW119946   1.906   0.371   1.021
 6349SOL    HW219947   1.757   0.400   1.082
 6350SOL     OW19948   0.821   5.545   4.169
 6350SOL    HW119949   0.786   5.604   4.096
 6350SOL    HW219950   0.867   5.466   4.129
 6351SOL     OW19951   6.065   3.079   3.770
 6351SOL    HW119952   6.016   3.121   3.693
 6351SOL    HW219953   6.130   3.145   3.807
 6352SOL     OW19954   3.027   0.027   5.222
 6352SOL    HW119955   2.952   0.080   5.182
 6352SOL    HW219956   2.997   7.004   5.309
 6353SOL     OW19957   0.732   6.316   6.177
 6353SOL    HW119958   0.758   6.312   6.273
 6353SOL    HW219959   0.804   6.276   6.121
 6354SOL     OW19960   2.878   4.952   3.775
 6354SOL    HW119961   2.910   5.045   3.794
 6354SOL    HW219962   2.950   4.899   3.732
 6355SOL     OW19963   2.417   5.121   6.707
 6355SOL    HW119964   2.420   5.022   6.693
 6355SOL    HW219965   2.321   5.151   6.711
 6356SOL     OW19966   4.776   5.974   1.599
 6356SOL    HW119967   4.707   5.921   1.551
 6356SOL    HW219968   4.866   5.953   1.561
 6357SOL     OW19969   6.319   3.323   2.829
 6357SOL    HW119970   6.261   3.290   2.755
 6357SOL    HW219971   6.409   3.348   2.793
 6358SOL     OW19972   6.810   2.281   6.804
 6358SOL    HW119973   6.864   2.251   6.884
 6358SOL    HW219974   6.743   2.210   6.781
 6359SOL     OW19975   6.175   0.869   0.565
 6359SOL    HW119976   6.173   0.798   0.495
 6359SOL    HW219977   6.185   0.958   0.522
 6360SOL     OW19978   1.258   3.973   5.334
 6360SOL    HW119979   1.190   3.911   5.373
 6360SOL    HW219980   1.242   4.066   5.368
 6361SOL     OW19981   1.535   6.990   0.859
 6361SOL    HW119982   1.438   7.013   0.852
 6361SOL    HW219983   1.587   0.056   0.879
 6362SOL     OW19984   0.572   5.586   6.900
 6362SOL    HW119985   0.648   5.527   6.929
 6362SOL    HW219986   0.554   5.654   6.971
 6363SOL     OW19987   1.975   5.723   3.602
 6363SOL    HW119988   1.975   5.710   3.503
 6363SOL    HW219989   2.049   5.670   3.642
 6364SOL     OW19990   2.709   1.583   5.467
 6364SOL    HW119991   2.742   1.675   5.445
 6364SOL    HW219992   2.756   1.550   5.549
 6365SOL     OW19993   5.134   0.339   4.297
 6365SOL    HW119994   5.165   0.365   4.388
 6365SOL    HW219995   5.064   0.404   4.266
 6366SOL     OW19996   0.873   5.460   5.352
 6366SOL    HW119997   0.905   5.478   5.259
 6366SOL    HW219998   0.801   5.525   5.376
 6367SOL     OW19999   4.066   1.532   3.931
 6367SOL    HW120000   4.042   1.627   3.948
 6367SOL    HW220001   4.163   1.526   3.908
 6368SOL     OW20002   3.448   4.968   3.520
 6368SOL    HW120003   3.524   4.918   3.478
 6368SOL    HW220004   3.392   5.009   3.448
 6369SOL     OW20005   2.598   0.407   4.630
 6369SOL    HW120006   2.596   0.343   4.706
 6369SOL    HW220007   2.634   0.361   4.548
 6370SOL     OW20008   6.885   3.127   3.949
 6370SOL    HW120009   6.846   3.203   3.897
 6370SOL    HW220010   6.900   3.049   3.889
 6371SOL     OW20011   5.631   4.966   3.115
 6371SOL    HW120012   5.660   4.904   3.042
 6371SOL    HW220013   5.567   5.034   3.077
 6372SOL     OW20014   1.785   1.307   1.221
 6372SOL    HW120015   1.734   1.378   1.172
 6372SOL    HW220016   1.880   1.337   1.233
 6373SOL     OW20017   4.798   4.420   2.593
 6373SOL    HW120018   4.766   4.473   2.671
 6373SOL    HW220019   4.844   4.480   2.527
 6374SOL     OW20020   4.026   3.285   3.102
 6374SOL    HW120021   4.016   3.228   3.183
 6374SOL    HW220022   4.064   3.231   3.026
 6375SOL     OW20023   6.983   1.782   3.092
 6375SOL    HW120024   0.038   1.714   3.099
 6375SOL    HW220025   7.005   1.847   3.020
 6376SOL     OW20026   5.183   2.069   5.776
 6376SOL    HW120027   5.200   2.060   5.678
 6376SOL    HW220028   5.110   2.006   5.803
 6377SOL     OW20029   0.323   1.222   5.331
 6377SOL    HW120030   0.384   1.287   5.285
 6377SOL    HW220031   0.377   1.148   5.370
 6378SOL     OW20032   4.617   4.416   3.794
 6378SOL    HW120033   4.549   4.489   3.799
 6378SOL    HW220034   4.631   4.376   3.885
 6379SOL     OW20035   1.482   4.511   5.239
 6379SOL    HW120036   1.557   4.576   5.250
 6379SOL    HW220037   1.456   4.475   5.329
 6380SOL     OW20038   0.526   1.337   5.175
 6380SOL    HW120039   0.520   1.372   5.081
 6380SOL    HW220040   0.610   1.283   5.184
 6381SOL     OW20041   3.981   3.059   1.340
 6381SOL    HW120042   3.953   3.083   1.248
 6381SOL    HW220043   4.053   2.990   1.335
 6382SOL     OW20044   2.802   2.101   0.826
 6382SOL    HW120045   2.897   2.074   0.840
 6382SOL    HW220046   2.796   2.166   0.750
 6383SOL     OW20047   2.168   2.996   3.208
 6383SOL    HW120048   2.077   3.008   3.169
 6383SOL    HW220049   2.161   2.988   3.308
 6384SOL     OW20050   6.464   3.746   2.855
 6384SOL    HW120051   6.536   3.690   2.815
 6384SOL    HW220052   6.504   3.823   2.904
 6385SOL     OW20053   7.016   3.691   3.603
 6385SOL    HW120054   6.934   3.673   3.549
 6385SOL    HW220055   0.068   3.735   3.546
 6386SOL     OW20056   2.467   3.423   6.433
 6386SOL    HW120057   2.404   3.435   6.356
 6386SOL    HW220058   2.526   3.344   6.417
 6387SOL     OW20059   6.842   2.182   6.164
 6387SOL    HW120060   6.813   2.264   6.215
 6387SOL    HW220061   6.764   2.120   6.154
 6388SOL     OW20062   4.475   6.594   1.749
 6388SOL    HW120063   4.447   6.683   1.786
 6388SOL    HW220064   4.559   6.564   1.793
 6389SOL     OW20065   0.141   5.964   1.489
 6389SOL    HW120066   0.106   5.873   1.468
 6389SOL    HW220067   0.239   5.967   1.467
 6390SOL     OW20068   0.576   0.647   5.808
 6390SOL    HW120069   0.617   0.614   5.893
 6390SOL    HW220070   0.485   0.607   5.797
 6391SOL     OW20071   1.424   6.724   6.146
 6391SOL    HW120072   1.430   6.814   6.188
 6391SOL    HW220073   1.468   6.726   6.056
 6392SOL     OW20074   3.083   5.363   2.822
 6392SOL    HW120075   3.123   5.448   2.786
 6392SOL    HW220076   3.042   5.381   2.911
 6393SOL     OW20077   0.651   5.983   1.949
 6393SOL    HW120078   0.605   5.932   2.022
 6393SOL    HW220079   0.592   5.986   1.869
 6394SOL     OW20080   2.145   5.066   0.707
 6394SOL    HW120081   2.100   5.144   0.748
 6394SOL    HW220082   2.077   4.997   0.681
 6395SOL     OW20083   6.891   2.580   1.461
 6395SOL    HW120084   6.854   2.627   1.380
 6395SOL    HW220085   6.818   2.529   1.506
 6396SOL     OW20086   5.332   3.402   0.059
 6396SOL    HW120087   5.375   3.401   0.149
 6396SOL    HW220088   5.238   3.435   0.067
 6397SOL     OW20089   5.721   1.519   1.312
 6397SOL    HW120090   5.714   1.619   1.304
 6397SOL    HW220091   5.740   1.495   1.407
 6398SOL     OW20092   3.292   6.679   1.677
 6398SOL    HW120093   3.210   6.731   1.702
 6398SOL    HW220094   3.350   6.667   1.757
 6399SOL     OW20095   1.724   0.283   6.882
 6399SOL    HW120096   1.766   0.348   6.818
 6399SOL    HW220097   1.624   0.294   6.879
 6400SOL     OW20098   2.555   5.005   2.789
 6400SOL    HW120099   2.570   5.000   2.888
 6400SOL    HW220100   2.457   5.010   2.771
 6401SOL     OW20101   5.151   6.190   3.529
 6401SOL    HW120102   5.234   6.153   3.569
 6401SOL    HW220103   5.162   6.197   3.430
 6402SOL     OW20104   2.321   2.730   3.251
 6402SOL    HW120105   2.278   2.665   3.314
 6402SOL    HW220106   2.289   2.823   3.271
 6403SOL     OW20107   6.710   5.147   6.225
 6403SOL    HW120108   6.655   5.167   6.306
 6403SOL    HW220109   6.743   5.232   6.184
 6404SOL     OW20110   4.005   0.772   2.369
 6404SOL    HW120111   3.941   0.707   2.327
 6404SOL    HW220112   4.060   0.816   2.297
 6405SOL     OW20113   3.603   0.349   3.777
 6405SOL    HW120114   3.507   0.324   3.760
 6405SOL    HW220115   3.620   0.441   3.741
 6406SOL     OW20116   0.588   2.412   2.622
 6406SOL    HW120117   0.575   2.453   2.532
 6406SOL    HW220118   0.514   2.442   2.683
 6407SOL     OW20119   2.014   0.017   3.976
 6407SOL    HW120120   2.089   6.998   4.032
 6407SOL    HW220121   2.016   6.991   3.886
 6408SOL     OW20122   5.315   1.411   0.679
 6408SOL    HW120123   5.318   1.507   0.650
 6408SOL    HW220124   5.353   1.402   0.771
 6409SOL     OW20125   6.210   4.542   4.213
 6409SOL    HW120126   6.231   4.455   4.257
 6409SOL    HW220127   6.165   4.524   4.125
 6410SOL     OW20128   2.147   1.640   6.125
 6410SOL    HW120129   2.083   1.710   6.154
 6410SOL    HW220130   2.098   1.555   6.106
 6411SOL     OW20131   0.730   2.745   2.922
 6411SOL    HW120132   0.748   2.817   2.856
 6411SOL    HW220133   0.741   2.780   3.015
 6412SOL     OW20134   1.162   2.153   4.654
 6412SOL    HW120135   1.174   2.188   4.746
 6412SOL    HW220136   1.140   2.055   4.657
 6413SOL     OW20137   3.833   4.896   3.380
 6413SOL    HW120138   3.837   4.886   3.479
 6413SOL    HW220139   3.795   4.985   3.356
 6414SOL     OW20140   5.990   0.649   6.988
 6414SOL    HW120141   5.948   0.611   6.906
 6414SOL    HW220142   6.081   0.683   6.966
 6415SOL     OW20143   1.663   3.304   3.206
 6415SOL    HW120144   1.605   3.360   3.266
 6415SOL    HW220145   1.641   3.323   3.111
 6416SOL     OW20146   1.403   0.575   6.484
 6416SOL    HW120147   1.310   0.569   6.521
 6416SOL    HW220148   1.459   0.631   6.545
 6417SOL     OW20149   5.570   4.828   0.791
 6417SOL    HW120150   5.504   4.903   0.792
 6417SOL    HW220151   5.554   4.770   0.712
 6418SOL     OW20152   5.254   3.363   2.330
 6418SOL    HW120153   5.167   3.397   2.364
 6418SOL    HW220154   5.268   3.393   2.236
 6419SOL     OW20155   1.600   4.839   3.339
 6419SOL    HW120156   1.547   4.755   3.331
 6419SOL    HW220157   1.645   4.842   3.428
 6420SOL     OW20158   2.209   6.350   3.994
 6420SOL    HW120159   2.256   6.273   3.952
 6420SOL    HW220160   2.270   6.430   3.996
 6421SOL     OW20161   4.588   0.036   2.674
 6421SOL    HW120162   4.660   6.994   2.711
 6421SOL    HW220163   4.624   0.128   2.661
 6422SOL     OW20164   6.737   0.467   5.221
 6422SOL    HW120165   6.653   0.419   5.194
 6422SOL    HW220166   6.801   0.467   5.144
 6423SOL     OW20167   5.098   5.789   3.403
 6423SOL    HW120168   5.058   5.704   3.439
 6423SOL    HW220169   5.164   5.767   3.331
 6424SOL     OW20170   0.072   4.511   5.005
 6424SOL    HW120171   7.012   4.496   5.066
 6424SOL    HW220172   0.156   4.519   5.058
 6425SOL     OW20173   6.653   6.133   2.865
 6425SOL    HW120174   6.680   6.226   2.889
 6425SOL    HW220175   6.620   6.130   2.771
 6426SOL     OW20176   1.033   5.158   3.150
 6426SOL    HW120177   0.971   5.176   3.227
 6426SOL    HW220178   0.985   5.105   3.080
 6427SOL     OW20179   3.437   4.166   4.138
 6427SOL    HW120180   3.463   4.263   4.133
 6427SOL    HW220181   3.347   4.153   4.097
 6428SOL     OW20182   5.734   3.474   6.642
 6428SOL    HW120183   5.709   3.395   6.699
 6428SOL    HW220184   5.654   3.506   6.592
 6429SOL     OW20185   0.793   1.659   5.658
 6429SOL    HW120186   0.713   1.690   5.607
 6429SOL    HW220187   0.823   1.570   5.622
 6430SOL     OW20188   6.036   0.964   3.757
 6430SOL    HW120189   6.102   1.023   3.709
 6430SOL    HW220190   5.952   0.957   3.703
 6431SOL     OW20191   4.584   6.605   3.904
 6431SOL    HW120192   4.514   6.569   3.841
 6431SOL    HW220193   4.539   6.643   3.985
 6432SOL     OW20194   4.616   4.469   6.203
 6432SOL    HW120195   4.662   4.404   6.263
 6432SOL    HW220196   4.604   4.556   6.250
 6433SOL     OW20197   1.564   5.553   5.752
 6433SOL    HW120198   1.520   5.557   5.842
 6433SOL    HW220199   1.575   5.458   5.724
 6434SOL     OW20200   2.414   5.658   6.046
 6434SOL    HW120201   2.401   5.744   6.095
 6434SOL    HW220202   2.484   5.604   6.091
 6435SOL     OW20203   5.248   6.472   1.002
 6435SOL    HW120204   5.290   6.381   1.004
 6435SOL    HW220205   5.199   6.484   0.916
 6436SOL     OW20206   1.338   2.791   2.870
 6436SOL    HW120207   1.353   2.771   2.773
 6436SOL    HW220208   1.248   2.757   2.897
 6437SOL     OW20209   2.334   1.587   0.338
 6437SOL    HW120210   2.269   1.562   0.409
 6437SOL    HW220211   2.325   1.524   0.261
 6438SOL     OW20212   6.918   3.697   5.190
 6438SOL    HW120213   6.918   3.679   5.288
 6438SOL    HW220214   6.856   3.633   5.144
 6439SOL     OW20215   5.732   1.694   1.706
 6439SOL    HW120216   5.764   1.606   1.740
 6439SOL    HW220217   5.773   1.712   1.616
 6440SOL     OW20218   2.438   1.722   6.067
 6440SOL    HW120219   2.351   1.679   6.092
 6440SOL    HW220220   2.445   1.811   6.113
 6441SOL     OW20221   6.867   0.041   1.881
 6441SOL    HW120222   6.857   6.971   1.832
 6441SOL    HW220223   6.878   0.115   1.815
 6442SOL     OW20224   2.315   1.191   4.416
 6442SOL    HW120225   2.311   1.284   4.453
 6442SOL    HW220226   2.223   1.152   4.413
 6443SOL     OW20227   3.785   2.137   5.160
 6443SOL    HW120228   3.831   2.067   5.216
 6443SOL    HW220229   3.686   2.130   5.174
 6444SOL     OW20230   5.099   3.356   4.585
 6444SOL    HW120231   5.060   3.299   4.657
 6444SOL    HW220232   5.195   3.333   4.573
 6445SOL     OW20233   3.792   3.030   4.877
 6445SOL    HW120234   3.753   2.952   4.927
 6445SOL    HW220235   3.874   3.061   4.924
 6446SOL     OW20236   1.064   1.070   6.845
 6446SOL    HW120237   1.154   1.114   6.851
 6446SOL    HW220238   1.013   1.111   6.769
 6447SOL     OW20239   5.705   5.044   3.345
 6447SOL    HW120240   5.646   4.987   3.400
 6447SOL    HW220241   5.694   5.020   3.248
 6448SOL     OW20242   4.722   5.749   1.747
 6448SOL    HW120243   4.781   5.818   1.707
 6448SOL    HW220244   4.642   5.734   1.687
 6449SOL     OW20245   3.985   6.310   1.043
 6449SOL    HW120246   4.078   6.290   1.076
 6449SOL    HW220247   3.928   6.229   1.053
 6450SOL     OW20248   1.060   3.605   1.103
 6450SOL    HW120249   0.979   3.609   1.044
 6450SOL    HW220250   1.080   3.696   1.139
 6451SOL     OW20251   2.082   0.551   5.301
 6451SOL    HW120252   2.063   0.606   5.383
 6451SOL    HW220253   1.999   0.502   5.275
 6452SOL     OW20254   4.628   5.067   2.991
 6452SOL    HW120255   4.581   4.992   2.943
 6452SOL    HW220256   4.620   5.151   2.937
 6453SOL     OW20257   2.499   6.156   2.146
 6453SOL    HW120258   2.595   6.180   2.160
 6453SOL    HW220259   2.477   6.162   2.049
 6454SOL     OW20260   0.704   2.236   3.103
 6454SOL    HW120261   0.700   2.326   3.059
 6454SOL    HW220262   0.798   2.217   3.131
 6455SOL     OW20263   0.331   3.344   4.225
 6455SOL    HW120264   0.390   3.271   4.190
 6455SOL    HW220265   0.278   3.383   4.150
 6456SOL     OW20266   1.282   1.407   3.126
 6456SOL    HW120267   1.284   1.364   3.216
 6456SOL    HW220268   1.189   1.406   3.090
 6457SOL     OW20269   5.180   1.434   1.532
 6457SOL    HW120270   5.215   1.400   1.619
 6457SOL    HW220271   5.164   1.357   1.470
 6458SOL     OW20272   1.103   5.726   4.403
 6458SOL    HW120273   1.003   5.730   4.411
 6458SOL    HW220274   1.142   5.813   4.430
 6459SOL     OW20275   6.189   2.862   1.356
 6459SOL    HW120276   6.100   2.817   1.352
 6459SOL    HW220277   6.204   2.912   1.270
 6460SOL     OW20278   5.829   6.288   6.528
 6460SOL    HW120279   5.771   6.258   6.604
 6460SOL    HW220280   5.920   6.246   6.538
 6461SOL     OW20281   2.259   4.286   6.580
 6461SOL    HW120282   2.309   4.207   6.546
 6461SOL    HW220283   2.192   4.315   6.512
 6462SOL     OW20284   2.114   3.271   4.211
 6462SOL    HW120285   2.165   3.189   4.236
 6462SOL    HW220286   2.105   3.275   4.111
 6463SOL     OW20287   5.962   2.549   0.287
 6463SOL    HW120288   5.886   2.509   0.338
 6463SOL    HW220289   5.941   2.546   0.189
 6464SOL     OW20290   1.188   4.681   4.744
 6464SOL    HW120291   1.131   4.763   4.740
 6464SOL    HW220292   1.132   4.601   4.720
 6465SOL     OW20293   6.870   3.043   2.619
 6465SOL    HW120294   6.834   2.952   2.637
 6465SOL    HW220295   6.966   3.036   2.591
 6466SOL     OW20296   0.416   1.066   6.144
 6466SOL    HW120297   0.459   1.080   6.232
 6466SOL    HW220298   0.339   1.002   6.154
 6467SOL     OW20299   4.108   1.036   0.416
 6467SOL    HW120300   4.019   1.017   0.374
 6467SOL    HW220301   4.179   0.983   0.370
 6468SOL     OW20302   3.012   6.721   0.979
 6468SOL    HW120303   3.081   6.769   0.924
 6468SOL    HW220304   3.051   6.635   1.013
 6469SOL     OW20305   4.212   2.082   3.635
 6469SOL    HW120306   4.203   2.160   3.574
 6469SOL    HW220307   4.201   2.112   3.729
 6470SOL     OW20308   5.790   2.623   1.074
 6470SOL    HW120309   5.749   2.619   0.983
 6470SOL    HW220310   5.718   2.627   1.143
 6471SOL     OW20311   0.064   6.388   5.960
 6471SOL    HW120312   0.107   6.479   5.955
 6471SOL    HW220313   7.010   6.382   5.891
 6472SOL     OW20314   0.067   6.151   1.664
 6472SOL    HW120315   0.105   6.084   1.601
 6472SOL    HW220316   6.986   6.155   1.653
 6473SOL     OW20317   2.664   1.646   4.601
 6473SOL    HW120318   2.759   1.620   4.621
 6473SOL    HW220319   2.655   1.666   4.503
 6474SOL     OW20320   3.125   4.992   6.241
 6474SOL    HW120321   3.094   5.087   6.244
 6474SOL    HW220322   3.220   4.988   6.272
 6475SOL     OW20323   6.347   5.421   3.502
 6475SOL    HW120324   6.400   5.413   3.417
 6475SOL    HW220325   6.257   5.458   3.481
 6476SOL     OW20326   4.535   3.885   1.164
 6476SOL    HW120327   4.440   3.912   1.180
 6476SOL    HW220328   4.537   3.810   1.098
 6477SOL     OW20329   5.857   4.719   0.388
 6477SOL    HW120330   5.775   4.662   0.379
 6477SOL    HW220331   5.894   4.709   0.481
 6478SOL     OW20332   3.304   0.222   2.353
 6478SOL    HW120333   3.242   0.259   2.422
 6478SOL    HW220334   3.257   0.150   2.301
 6479SOL     OW20335   4.171   5.265   3.651
 6479SOL    HW120336   4.156   5.198   3.577
 6479SOL    HW220337   4.265   5.298   3.647
 6480SOL     OW20338   3.079   1.296   6.727
 6480SOL    HW120339   3.080   1.315   6.629
 6480SOL    HW220340   3.011   1.226   6.747
 6481SOL     OW20341   3.504   2.127   2.259
 6481SOL    HW120342   3.507   2.060   2.184
 6481SOL    HW220343   3.554   2.209   2.232
 6482SOL     OW20344   6.169   0.966   5.772
 6482SOL    HW120345   6.245   1.012   5.817
 6482SOL    HW220346   6.165   0.994   5.676
 6483SOL     OW20347   1.088   0.149   2.833
 6483SOL    HW120348   1.010   0.175   2.775
 6483SOL    HW220349   1.168   0.203   2.806
 6484SOL     OW20350   3.551   6.931   1.461
 6484SOL    HW120351   3.528   0.010   1.449
 6484SOL    HW220352   3.476   6.874   1.428
 6485SOL     OW20353   2.157   5.305   3.842
 6485SOL    HW120354   2.085   5.243   3.809
 6485SOL    HW220355   2.235   5.251   3.874
 6486SOL     OW20356   0.974   4.239   3.042
 6486SOL    HW120357   1.057   4.267   2.994
 6486SOL    HW220358   0.895   4.252   2.981
 6487SOL     OW20359   0.422   6.619   5.204
 6487SOL    HW120360   0.422   6.526   5.167
 6487SOL    HW220361   0.330   6.658   5.196
 6488SOL     OW20362   3.479   5.753   4.598
 6488SOL    HW120363   3.498   5.749   4.500
 6488SOL    HW220364   3.564   5.771   4.647
 6489SOL     OW20365   3.157   3.413   6.172
 6489SOL    HW120366   3.107   3.469   6.107
 6489SOL    HW220367   3.255   3.413   6.149
 6490SOL     OW20368   3.923   1.447   6.497
 6490SOL    HW120369   3.958   1.486   6.411
 6490SOL    HW220370   3.988   1.465   6.570
 6491SOL     OW20371   3.897   0.854   1.370
 6491SOL    HW120372   3.960   0.778   1.384
 6491SOL    HW220373   3.950   0.938   1.357
 6492SOL     OW20374   4.297   4.614   6.707
 6492SOL    HW120375   4.346   4.590   6.791
 6492SOL    HW220376   4.219   4.552   6.695
 6493SOL     OW20377   1.715   4.287   5.632
 6493SOL    HW120378   1.773   4.292   5.550
 6493SOL    HW220379   1.731   4.200   5.678
 6494SOL     OW20380   6.877   0.670   3.362
 6494SOL    HW120381   6.837   0.671   3.453
 6494SOL    HW220382   6.828   0.604   3.304
 6495SOL     OW20383   6.312   0.164   4.394
 6495SOL    HW120384   6.360   0.076   4.397
 6495SOL    HW220385   6.243   0.166   4.466
 6496SOL     OW20386   6.124   1.384   2.986
 6496SOL    HW120387   6.169   1.465   2.949
 6496SOL    HW220388   6.042   1.410   3.035
 6497SOL     OW20389   0.716   1.334   0.945
 6497SOL    HW120390   0.667   1.320   0.859
 6497SOL    HW220391   0.728   1.245   0.991
 6498SOL     OW20392   1.687   3.496   3.620
 6498SOL    HW120393   1.728   3.587   3.611
 6498SOL    HW220394   1.620   3.496   3.694
 6499SOL     OW20395   5.533   3.326   5.660
 6499SOL    HW120396   5.442   3.343   5.697
 6499SOL    HW220397   5.569   3.241   5.698
 6500SOL     OW20398   6.866   3.600   4.713
 6500SOL    HW120399   6.930   3.674   4.733
 6500SOL    HW220400   6.772   3.635   4.719
 6501SOL     OW20401   6.976   1.626   6.463
 6501SOL    HW120402   6.907   1.698   6.466
 6501SOL    HW220403   0.009   1.632   6.377
 6502SOL     OW20404   6.974   2.717   2.580
 6502SOL    HW120405   0.011   2.801   2.579
 6502SOL    HW220406   6.877   2.740   2.570
 6503SOL     OW20407   5.282   1.175   3.188
 6503SOL    HW120408   5.381   1.162   3.182
 6503SOL    HW220409   5.260   1.236   3.264
 6504SOL     OW20410   4.490   6.310   5.573
 6504SOL    HW120411   4.556   6.288   5.501
 6504SOL    HW220412   4.409   6.352   5.533
 6505SOL     OW20413   5.329   5.475   0.023
 6505SOL    HW120414   5.234   5.479   7.008
 6505SOL    HW220415   5.333   5.421   0.107
 6506SOL     OW20416   6.530   2.498   2.791
 6506SOL    HW120417   6.539   2.566   2.718
 6506SOL    HW220418   6.493   2.414   2.753
 6507SOL     OW20419   1.490   5.282   6.106
 6507SOL    HW120420   1.565   5.304   6.042
 6507SOL    HW220421   1.462   5.187   6.092
 6508SOL     OW20422   1.741   0.844   2.430
 6508SOL    HW120423   1.690   0.919   2.388
 6508SOL    HW220424   1.795   0.797   2.361
 6509SOL     OW20425   3.594   1.160   4.738
 6509SOL    HW120426   3.546   1.080   4.703
 6509SOL    HW220427   3.659   1.132   4.809
 6510SOL     OW20428   5.938   5.649   0.440
 6510SOL    HW120429   5.908   5.633   0.534
 6510SOL    HW220430   5.858   5.659   0.381
 6511SOL     OW20431   4.003   1.241   5.047
 6511SOL    HW120432   4.030   1.145   5.057
 6511SOL    HW220433   3.960   1.273   5.132
 6512SOL     OW20434   4.280   7.000   1.925
 6512SOL    HW120435   4.365   0.010   1.880
 6512SOL    HW220436   4.213   0.056   1.917
 6513SOL     OW20437   2.574   5.023   3.064
 6513SOL    HW120438   2.555   5.100   3.125
 6513SOL    HW220439   2.494   4.963   3.061
 6514SOL     OW20440   6.302   0.989   3.932
 6514SOL    HW120441   6.316   1.002   3.834
 6514SOL    HW220442   6.204   0.975   3.950
 6515SOL     OW20443   0.706   5.276   4.336
 6515SOL    HW120444   0.684   5.284   4.433
 6515SOL    HW220445   0.771   5.347   4.310
 6516SOL     OW20446   0.445   3.660   1.787
 6516SOL    HW120447   0.388   3.654   1.869
 6516SOL    HW220448   0.540   3.676   1.814
 6517SOL     OW20449   6.586   1.431   1.665
 6517SOL    HW120450   6.508   1.440   1.604
 6517SOL    HW220451   6.568   1.480   1.750
 6518SOL     OW20452   0.273   0.956   0.251
 6518SOL    HW120453   0.239   0.870   0.213
 6518SOL    HW220454   0.257   0.958   0.349
 6519SOL     OW20455   0.876   2.552   3.170
 6519SOL    HW120456   0.849   2.648   3.156
 6519SOL    HW220457   0.936   2.523   3.095
 6520SOL     OW20458   5.884   4.975   1.138
 6520SOL    HW120459   5.858   5.027   1.057
 6520SOL    HW220460   5.928   5.035   1.205
 6521SOL     OW20461   2.158   2.774   4.205
 6521SOL    HW120462   2.200   2.684   4.200
 6521SOL    HW220463   2.058   2.765   4.205
 6522SOL     OW20464   3.546   5.186   5.595
 6522SOL    HW120465   3.478   5.161   5.526
 6522SOL    HW220466   3.515   5.154   5.685
 6523SOL     OW20467   3.301   1.868   0.244
 6523SOL    HW120468   3.320   1.887   0.340
 6523SOL    HW220469   3.386   1.848   0.196
 6524SOL     OW20470   3.711   3.634   1.821
 6524SOL    HW120471   3.748   3.554   1.869
 6524SOL    HW220472   3.785   3.678   1.770
 6525SOL     OW20473   2.471   5.342   3.488
 6525SOL    HW120474   2.384   5.393   3.484
 6525SOL    HW220475   2.484   5.293   3.402
 6526SOL     OW20476   2.244   0.102   6.892
 6526SOL    HW120477   2.250   0.011   6.853
 6526SOL    HW220478   2.330   0.151   6.878
 6527SOL     OW20479   0.810   1.984   5.557
 6527SOL    HW120480   0.766   2.068   5.526
 6527SOL    HW220481   0.807   1.916   5.484
 6528SOL     OW20482   6.548   0.905   5.480
 6528SOL    HW120483   6.500   0.993   5.485
 6528SOL    HW220484   6.482   0.833   5.458
 6529SOL     OW20485   1.964   0.986   2.558
 6529SOL    HW120486   2.038   1.040   2.517
 6529SOL    HW220487   1.966   0.893   2.522
 6530SOL     OW20488   6.788   2.699   0.714
 6530SOL    HW120489   6.788   2.645   0.799
 6530SOL    HW220490   6.835   2.647   0.643
 6531SOL     OW20491   4.981   2.701   5.254
 6531SOL    HW120492   4.885   2.698   5.226
 6531SOL    HW220493   5.021   2.788   5.224
 6532SOL     OW20494   6.689   0.791   1.334
 6532SOL    HW120495   6.691   0.701   1.290
 6532SOL    HW220496   6.731   0.859   1.274
 6533SOL     OW20497   4.542   6.965   0.670
 6533SOL    HW120498   4.460   6.981   0.725
 6533SOL    HW220499   4.579   6.875   0.693
 6534SOL     OW20500   4.303   4.686   1.599
 6534SOL    HW120501   4.332   4.643   1.513
 6534SOL    HW220502   4.341   4.636   1.676
 6535SOL     OW20503   6.293   4.014   4.327
 6535SOL    HW120504   6.268   4.072   4.405
 6535SOL    HW220505   6.376   3.962   4.349
 6536SOL     OW20506   0.812   0.759   5.674
 6536SOL    HW120507   0.727   0.706   5.673
 6536SOL    HW220508   0.818   0.810   5.760
 6537SOL     OW20509   6.934   5.404   6.698
 6537SOL    HW120510   6.991   5.339   6.648
 6537SOL    HW220511   6.855   5.357   6.737
 6538SOL     OW20512   2.138   3.521   6.047
 6538SOL    HW120513   2.057   3.505   6.104
 6538SOL    HW220514   2.219   3.485   6.093
 6539SOL     OW20515   4.494   1.026   6.869
 6539SOL    HW120516   4.540   1.012   6.782
 6539SOL    HW220517   4.396   1.040   6.854
 6540SOL     OW20518   4.642   1.671   5.513
 6540SOL    HW120519   4.574   1.739   5.485
 6540SOL    HW220520   4.734   1.706   5.495
 6541SOL     OW20521   4.180   1.911   4.741
 6541SOL    HW120522   4.087   1.881   4.720
 6541SOL    HW220523   4.186   2.010   4.729
 6542SOL     OW20524   6.400   3.025   4.577
 6542SOL    HW120525   6.395   3.001   4.675
 6542SOL    HW220526   6.311   3.054   4.545
 6543SOL     OW20527   5.093   2.716   5.992
 6543SOL    HW120528   5.149   2.657   5.932
 6543SOL    HW220529   5.020   2.661   6.033
 6544SOL     OW20530   0.967   5.838   2.881
 6544SOL    HW120531   0.972   5.909   2.810
 6544SOL    HW220532   0.905   5.868   2.954
 6545SOL     OW20533   4.113   1.475   0.480
 6545SOL    HW120534   4.096   1.509   0.387
 6545SOL    HW220535   4.027   1.473   0.531
 6546SOL     OW20536   3.316   4.473   0.088
 6546SOL    HW120537   3.385   4.418   0.042
 6546SOL    HW220538   3.354   4.563   0.111
 6547SOL     OW20539   4.688   1.100   6.036
 6547SOL    HW120540   4.768   1.055   5.997
 6547SOL    HW220541   4.714   1.146   6.121
 6548SOL     OW20542   0.587   4.290   0.982
 6548SOL    HW120543   0.548   4.212   1.030
 6548SOL    HW220544   0.644   4.258   0.906
 6549SOL     OW20545   4.986   0.718   1.724
 6549SOL    HW120546   4.992   0.813   1.755
 6549SOL    HW220547   5.074   0.689   1.688
 6550SOL     OW20548   0.277   6.733   3.458
 6550SOL    HW120549   0.355   6.794   3.470
 6550SOL    HW220550   0.309   6.639   3.444
 6551SOL     OW20551   1.977   4.549   2.389
 6551SOL    HW120552   1.938   4.468   2.346
 6551SOL    HW220553   2.076   4.550   2.374
 6552SOL     OW20554   1.800   0.162   0.269
 6552SOL    HW120555   1.877   0.130   0.324
 6552SOL    HW220556   1.832   0.235   0.207
 6553SOL     OW20557   6.719   2.070   3.753
 6553SOL    HW120558   6.745   2.114   3.667
 6553SOL    HW220559   6.696   2.141   3.821
 6554SOL     OW20560   0.744   0.409   4.774
 6554SOL    HW120561   0.806   0.417   4.853
 6554SOL    HW220562   0.707   0.499   4.752
 6555SOL     OW20563   5.871   1.475   3.068
 6555SOL    HW120564   5.858   1.555   3.128
 6555SOL    HW220565   5.830   1.493   2.979
 6556SOL     OW20566   5.074   4.605   4.210
 6556SOL    HW120567   4.982   4.616   4.172
 6556SOL    HW220568   5.090   4.508   4.229
 6557SOL     OW20569   3.403   6.886   2.780
 6557SOL    HW120570   3.483   6.846   2.734
 6557SOL    HW220571   3.321   6.871   2.724
 6558SOL     OW20572   6.988   5.052   6.901
 6558SOL    HW120573   6.962   4.981   6.966
 6558SOL    HW220574   6.942   5.138   6.924
 6559SOL     OW20575   0.424   3.359   6.665
 6559SOL    HW120576   0.419   3.438   6.727
 6559SOL    HW220577   0.519   3.329   6.657
 6560SOL     OW20578   4.398   4.923   1.746
 6560SOL    HW120579   4.339   4.868   1.687
 6560SOL    HW220580   4.418   5.010   1.702
 6561SOL     OW20581   3.597   4.080   1.301
 6561SOL    HW120582   3.656   4.158   1.280
 6561SOL    HW220583   3.605   4.057   1.397
 6562SOL     OW20584   6.128   3.183   0.778
 6562SOL    HW120585   6.117   3.157   0.682
 6562SOL    HW220586   6.051   3.240   0.806
 6563SOL     OW20587   5.394   6.087   7.015
 6563SOL    HW120588   5.405   5.991   6.990
 6563SOL    HW220589   5.439   6.104   0.085
 6564SOL     OW20590   6.901   3.882   2.959
 6564SOL    HW120591   6.960   3.961   2.974
 6564SOL    HW220592   6.946   3.799   2.993
 6565SOL     OW20593   5.224   1.785   3.332
 6565SOL    HW120594   5.211   1.880   3.304
 6565SOL    HW220595   5.140   1.734   3.316
 6566SOL     OW20596   4.064   6.221   2.282
 6566SOL    HW120597   4.033   6.211   2.187
 6566SOL    HW220598   4.101   6.313   2.294
 6567SOL     OW20599   4.212   1.174   2.832
 6567SOL    HW120600   4.291   1.212   2.783
 6567SOL    HW220601   4.191   1.084   2.794
 6568SOL     OW20602   3.048   1.033   3.380
 6568SOL    HW120603   3.078   0.942   3.407
 6568SOL    HW220604   3.128   1.093   3.372
 6569SOL     OW20605   2.710   3.378   0.116
 6569SOL    HW120606   2.680   3.332   0.200
 6569SOL    HW220607   2.644   3.449   0.092
 6570SOL     OW20608   3.851   0.602   2.187
 6570SOL    HW120609   3.781   0.659   2.145
 6570SOL    HW220610   3.883   0.534   2.121
 6571SOL     OW20611   3.333   5.050   1.573
 6571SOL    HW120612   3.288   5.138   1.556
 6571SOL    HW220613   3.345   5.038   1.672
 6572SOL     OW20614   6.735   5.229   5.523
 6572SOL    HW120615   6.768   5.284   5.446
 6572SOL    HW220616   6.803   5.159   5.546
 6573SOL     OW20617   1.717   2.109   2.118
 6573SOL    HW120618   1.698   2.076   2.026
 6573SOL    HW220619   1.635   2.099   2.174
 6574SOL     OW20620   3.089   5.245   2.536
 6574SOL    HW120621   3.140   5.262   2.620
 6574SOL    HW220622   3.150   5.205   2.468
 6575SOL     OW20623   0.708   0.222   3.064
 6575SOL    HW120624   0.759   0.287   3.007
 6575SOL    HW220625   0.614   0.215   3.030
 6576SOL     OW20626   2.284   6.232   6.944
 6576SOL    HW120627   2.227   6.305   6.982
 6576SOL    HW220628   2.228   6.170   6.889
 6577SOL     OW20629   0.877   1.619   4.022
 6577SOL    HW120630   0.930   1.539   3.995
 6577SOL    HW220631   0.937   1.698   4.031
 6578SOL     OW20632   0.713   5.656   3.323
 6578SOL    HW120633   0.810   5.680   3.313
 6578SOL    HW220634   0.658   5.739   3.317
 6579SOL     OW20635   6.456   3.343   4.374
 6579SOL    HW120636   6.524   3.292   4.427
 6579SOL    HW220637   6.377   3.363   4.432
 6580SOL     OW20638   0.768   2.397   1.076
 6580SOL    HW120639   0.743   2.344   0.995
 6580SOL    HW220640   0.685   2.424   1.125
 6581SOL     OW20641   3.086   0.977   6.907
 6581SOL    HW120642   3.168   1.026   6.880
 6581SOL    HW220643   3.008   1.039   6.904
 6582SOL     OW20644   0.866   1.153   2.513
 6582SOL    HW120645   0.813   1.183   2.433
 6582SOL    HW220646   0.803   1.136   2.589
 6583SOL     OW20647   4.258   1.025   5.312
 6583SOL    HW120648   4.168   1.067   5.325
 6583SOL    HW220649   4.309   1.030   5.398
 6584SOL     OW20650   4.333   2.682   1.266
 6584SOL    HW120651   4.317   2.587   1.242
 6584SOL    HW220652   4.392   2.687   1.347
 6585SOL     OW20653   5.919   6.629   0.086
 6585SOL    HW120654   5.952   6.640   7.010
 6585SOL    HW220655   5.820   6.644   0.089
 6586SOL     OW20656   6.090   1.111   5.255
 6586SOL    HW120657   6.173   1.128   5.201
 6586SOL    HW220658   6.050   1.024   5.228
 6587SOL     OW20659   2.030   5.929   5.274
 6587SOL    HW120660   2.012   5.832   5.291
 6587SOL    HW220661   1.943   5.978   5.263
 6588SOL     OW20662   0.969   3.085   1.496
 6588SOL    HW120663   1.018   3.153   1.550
 6588SOL    HW220664   0.970   2.997   1.543
 6589SOL     OW20665   5.017   0.950   0.736
 6589SOL    HW120666   5.000   1.004   0.654
 6589SOL    HW220667   4.950   0.876   0.741
 6590SOL     OW20668   0.865   1.210   5.742
 6590SOL    HW120669   0.826   1.119   5.760
 6590SOL    HW220670   0.791   1.277   5.735
 6591SOL     OW20671   5.833   5.509   2.549
 6591SOL    HW120672   5.823   5.608   2.561
 6591SOL    HW220673   5.759   5.474   2.492
 6592SOL     OW20674   5.464   0.122   3.413
 6592SOL    HW120675   5.371   0.154   3.428
 6592SOL    HW220676   5.497   0.075   3.495
 6593SOL     OW20677   1.801   2.274   2.546
 6593SOL    HW120678   1.712   2.297   2.585
 6593SOL    HW220679   1.816   2.175   2.554
 6594SOL     OW20680   3.970   1.810   0.160
 6594SOL    HW120681   3.927   1.784   0.246
 6594SOL    HW220682   3.903   1.802   0.086
 6595SOL     OW20683   0.969   3.838   6.664
 6595SOL    HW120684   1.052   3.865   6.615
 6595SOL    HW220685   0.927   3.919   6.705
 6596SOL     OW20686   3.004   6.021   4.641
 6596SOL    HW120687   3.010   6.116   4.611
 6596SOL    HW220688   2.963   6.017   4.732
 6597SOL     OW20689   1.294   5.357   1.613
 6597SOL    HW120690   1.386   5.382   1.645
 6597SOL    HW220691   1.278   5.260   1.630
 6598SOL     OW20692   1.265   5.524   4.339
 6598SOL    HW120693   1.333   5.569   4.283
 6598SOL    HW220694   1.188   5.586   4.355
 6599SOL     OW20695   4.629   6.290   6.435
 6599SOL    HW120696   4.559   6.342   6.483
 6599SOL    HW220697   4.682   6.237   6.502
 6600SOL     OW20698   4.867   5.047   5.134
 6600SOL    HW120699   4.817   5.075   5.052
 6600SOL    HW220700   4.926   4.969   5.112
 6601SOL     OW20701   1.143   2.257   4.921
 6601SOL    HW120702   1.083   2.336   4.909
 6601SOL    HW220703   1.089   2.176   4.940
 6602SOL     OW20704   1.348   1.250   1.593
 6602SOL    HW120705   1.430   1.302   1.570
 6602SOL    HW220706   1.373   1.172   1.651
 6603SOL     OW20707   6.829   2.586   3.934
 6603SOL    HW120708   6.801   2.647   4.008
 6603SOL    HW220709   6.887   2.636   3.870
 6604SOL     OW20710   2.046   0.350   0.502
 6604SOL    HW120711   2.015   0.283   0.570
 6604SOL    HW220712   1.986   0.345   0.422
 6605SOL     OW20713   5.384   4.106   2.105
 6605SOL    HW120714   5.294   4.078   2.139
 6605SOL    HW220715   5.444   4.026   2.101
 6606SOL     OW20716   0.401   6.498   2.042
 6606SOL    HW120717   0.320   6.477   2.097
 6606SOL    HW220718   0.443   6.412   2.012
 6607SOL     OW20719   1.818   3.471   2.256
 6607SOL    HW120720   1.738   3.458   2.199
 6607SOL    HW220721   1.901   3.465   2.200
 6608SOL     OW20722   6.235   6.617   0.949
 6608SOL    HW120723   6.332   6.612   0.975
 6608SOL    HW220724   6.199   6.525   0.936
 6609SOL     OW20725   4.854   0.956   6.302
 6609SOL    HW120726   4.756   0.951   6.282
 6609SOL    HW220727   4.893   0.863   6.302
 6610SOL     OW20728   2.429   6.901   6.554
 6610SOL    HW120729   2.520   6.861   6.541
 6610SOL    HW220730   2.400   6.887   6.649
 6611SOL     OW20731   5.031   2.578   3.852
 6611SOL    HW120732   5.068   2.494   3.811
 6611SOL    HW220733   4.938   2.593   3.818
 6612SOL     OW20734   5.746   2.279   5.812
 6612SOL    HW120735   5.784   2.356   5.863
 6612SOL    HW220736   5.707   2.212   5.875
 6613SOL     OW20737   6.158   6.776   5.228
 6613SOL    HW120738   6.086   6.747   5.291
 6613SOL    HW220739   6.240   6.801   5.281
 6614SOL     OW20740   4.834   5.668   0.476
 6614SOL    HW120741   4.782   5.680   0.391
 6614SOL    HW220742   4.781   5.704   0.552
 6615SOL     OW20743   1.654   5.771   2.055
 6615SOL    HW120744   1.607   5.859   2.066
 6615SOL    HW220745   1.599   5.699   2.099
 6616SOL     OW20746   4.964   1.192   6.225
 6616SOL    HW120747   4.960   1.095   6.252
 6616SOL    HW220748   4.882   1.239   6.257
 6617SOL     OW20749   4.395   4.889   3.196
 6617SOL    HW120750   4.469   4.866   3.259
 6617SOL    HW220751   4.422   4.867   3.103
 6618SOL     OW20752   0.847   2.435   2.595
 6618SOL    HW120753   0.870   2.455   2.500
 6618SOL    HW220754   0.751   2.454   2.611
 6619SOL     OW20755   5.896   0.304   3.844
 6619SOL    HW120756   5.812   0.306   3.898
 6619SOL    HW220757   5.924   0.209   3.830
 6620SOL     OW20758   1.918   2.429   5.308
 6620SOL    HW120759   1.859   2.386   5.240
 6620SOL    HW220760   1.928   2.526   5.287
 6621SOL     OW20761   3.408   3.147   6.294
 6621SOL    HW120762   3.444   3.207   6.223
 6621SOL    HW220763   3.455   3.165   6.381
 6622SOL     OW20764   6.220   6.311   1.299
 6622SOL    HW120765   6.178   6.245   1.237
 6622SOL    HW220766   6.150   6.375   1.333
 6623SOL     OW20767   3.037   3.318   5.329
 6623SOL    HW120768   3.016   3.381   5.403
 6623SOL    HW220769   2.968   3.326   5.258
 6624SOL     OW20770   0.190   5.110   6.085
 6624SOL    HW120771   0.109   5.132   6.139
 6624SOL    HW220772   0.179   5.145   5.992
 6625SOL     OW20773   5.308   1.673   5.396
 6625SOL    HW120774   5.408   1.671   5.384
 6625SOL    HW220775   5.283   1.620   5.477
 6626SOL     OW20776   4.465   4.978   5.147
 6626SOL    HW120777   4.420   4.902   5.100
 6626SOL    HW220778   4.400   5.052   5.162
 6627SOL     OW20779   2.078   6.375   4.849
 6627SOL    HW120780   2.034   6.288   4.866
 6627SOL    HW220781   2.139   6.367   4.770
 6628SOL     OW20782   4.827   5.039   4.809
 6628SOL    HW120783   4.828   5.056   4.710
 6628SOL    HW220784   4.746   5.081   4.849
 6629SOL     OW20785   4.745   5.923   6.833
 6629SOL    HW120786   4.690   5.932   6.750
 6629SOL    HW220787   4.753   6.012   6.878
 6630SOL     OW20788   4.185   1.717   1.746
 6630SOL    HW120789   4.127   1.637   1.733
 6630SOL    HW220790   4.158   1.765   1.829
 6631SOL     OW20791   2.179   5.105   3.515
 6631SOL    HW120792   2.172   5.101   3.615
 6631SOL    HW220793   2.125   5.182   3.481
 6632SOL     OW20794   0.279   6.911   1.331
 6632SOL    HW120795   0.185   6.917   1.300
 6632SOL    HW220796   0.308   6.815   1.331
 6633SOL     OW20797   1.579   4.700   6.453
 6633SOL    HW120798   1.664   4.695   6.505
 6633SOL    HW220799   1.597   4.678   6.357
 6634SOL     OW20800   5.036   2.037   4.726
 6634SOL    HW120801   5.039   2.135   4.710
 6634SOL    HW220802   4.991   2.019   4.814
 6635SOL     OW20803   4.798   4.826   2.927
 6635SOL    HW120804   4.837   4.849   3.017
 6635SOL    HW220805   4.832   4.892   2.859
 6636SOL     OW20806   4.730   1.710   6.138
 6636SOL    HW120807   4.774   1.678   6.054
 6636SOL    HW220808   4.767   1.800   6.163
 6637SOL     OW20809   1.386   0.031   7.009
 6637SOL    HW120810   1.336   6.962   7.012
 6637SOL    HW220811   1.455   0.026   6.937
 6638SOL     OW20812   2.975   3.798   3.678
 6638SOL    HW120813   3.066   3.761   3.660
 6638SOL    HW220814   2.945   3.853   3.600
 6639SOL     OW20815   5.138   5.075   6.109
 6639SOL    HW120816   5.059   5.050   6.052
 6639SOL    HW220817   5.211   5.008   6.094
 6640SOL     OW20818   0.979   1.901   4.660
 6640SOL    HW120819   0.952   1.932   4.568
 6640SOL    HW220820   1.038   1.821   4.652
 6641SOL     OW20821   2.345   2.095   5.932
 6641SOL    HW120822   2.420   2.148   5.971
 6641SOL    HW220823   2.380   2.010   5.892
 6642SOL     OW20824   1.964   5.688   6.722
 6642SOL    HW120825   2.042   5.688   6.785
 6642SOL    HW220826   1.997   5.692   6.628
 6643SOL     OW20827   6.105   4.976   0.071
 6643SOL    HW120828   6.199   4.972   0.036
 6643SOL    HW220829   6.091   4.901   0.136
 6644SOL     OW20830   2.619   5.687   1.525
 6644SOL    HW120831   2.601   5.673   1.428
 6644SOL    HW220832   2.542   5.652   1.579
 6645SOL     OW20833   6.362   4.741   0.188
 6645SOL    HW120834   6.266   4.768   0.182
 6645SOL    HW220835   6.402   4.779   0.272
 6646SOL     OW20836   3.863   0.620   4.812
 6646SOL    HW120837   3.953   0.629   4.770
 6646SOL    HW220838   3.800   0.688   4.774
 6647SOL     OW20839   4.777   1.012   1.322
 6647SOL    HW120840   4.776   1.068   1.404
 6647SOL    HW220841   4.808   1.067   1.244
 6648SOL     OW20842   3.985   6.318   3.615
 6648SOL    HW120843   3.938   6.400   3.580
 6648SOL    HW220844   3.975   6.244   3.549
 6649SOL     OW20845   5.307   1.057   6.824
 6649SOL    HW120846   5.263   1.145   6.840
 6649SOL    HW220847   5.405   1.071   6.809
 6650SOL     OW20848   3.989   1.678   5.264
 6650SOL    HW120849   3.988   1.598   5.324
 6650SOL    HW220850   3.989   1.647   5.168
 6651SOL     OW20851   2.438   1.500   5.763
 6651SOL    HW120852   2.524   1.548   5.780
 6651SOL    HW220853   2.362   1.566   5.765
 6652SOL     OW20854   1.020   4.334   0.804
 6652SOL    HW120855   1.060   4.271   0.737
 6652SOL    HW220856   1.079   4.414   0.815
 6653SOL     OW20857   3.435   3.771   2.607
 6653SOL    HW120858   3.414   3.833   2.532
 6653SOL    HW220859   3.352   3.750   2.658
 6654SOL     OW20860   1.215   5.117   1.699
 6654SOL    HW120861   1.136   5.091   1.643
 6654SOL    HW220862   1.267   5.035   1.723
 6655SOL     OW20863   0.907   0.695   3.828
 6655SOL    HW120864   0.929   0.789   3.854
 6655SOL    HW220865   0.843   0.655   3.895
 6656SOL     OW20866   5.746   1.997   3.951
 6656SOL    HW120867   5.835   1.975   3.992
 6656SOL    HW220868   5.676   1.937   3.988
 6657SOL     OW20869   6.383   4.889   6.261
 6657SOL    HW120870   6.469   4.881   6.211
 6657SOL    HW220871   6.333   4.802   6.253
 6658SOL     OW20872   6.675   1.107   4.760
 6658SOL    HW120873   6.674   1.206   4.774
 6658SOL    HW220874   6.585   1.076   4.729
 6659SOL     OW20875   1.927   2.983   0.593
 6659SOL    HW120876   1.903   2.946   0.683
 6659SOL    HW220877   1.963   2.909   0.535
 6660SOL     OW20878   0.986   5.154   1.500
 6660SOL    HW120879   0.937   5.067   1.492
 6660SOL    HW220880   1.033   5.175   1.414
 6661SOL     OW20881   1.681   6.373   5.186
 6661SOL    HW120882   1.711   6.312   5.260
 6661SOL    HW220883   1.691   6.325   5.099
 6662SOL     OW20884   1.562   0.448   0.224
 6662SOL    HW120885   1.492   0.516   0.244
 6662SOL    HW220886   1.553   0.371   0.288
 6663SOL     OW20887   6.320   5.239   4.136
 6663SOL    HW120888   6.417   5.226   4.156
 6663SOL    HW220889   6.288   5.164   4.077
 6664SOL     OW20890   2.190   6.259   0.602
 6664SOL    HW120891   2.090   6.262   0.608
 6664SOL    HW220892   2.220   6.297   0.514
 6665SOL     OW20893   2.128   5.511   4.756
 6665SOL    HW120894   2.029   5.521   4.766
 6665SOL    HW220895   2.172   5.524   4.845
 6666SOL     OW20896   6.235   0.276   6.012
 6666SOL    HW120897   6.146   0.242   5.982
 6666SOL    HW220898   6.262   0.229   6.096
 6667SOL     OW20899   6.560   6.212   6.810
 6667SOL    HW120900   6.618   6.232   6.730
 6667SOL    HW220901   6.538   6.298   6.856
 6668SOL     OW20902   6.733   5.240   1.011
 6668SOL    HW120903   6.743   5.182   1.091
 6668SOL    HW220904   6.727   5.183   0.929
 6669SOL     OW20905   1.584   2.575   2.633
 6669SOL    HW120906   1.609   2.602   2.726
 6669SOL    HW220907   1.661   2.595   2.571
 6670SOL     OW20908   3.818   1.312   5.494
 6670SOL    HW120909   3.743   1.375   5.472
 6670SOL    HW220910   3.783   1.219   5.502
 6671SOL     OW20911   5.487   6.286   0.779
 6671SOL    HW120912   5.575   6.313   0.818
 6671SOL    HW220913   5.440   6.368   0.746
 6672SOL     OW20914   6.459   2.614   6.902
 6672SOL    HW120915   6.521   2.621   6.824
 6672SOL    HW220916   6.399   2.535   6.889
 6673SOL     OW20917   5.002   5.051   4.062
 6673SOL    HW120918   5.098   5.053   4.090
 6673SOL    HW220919   4.950   5.114   4.118
 6674SOL     OW20920   0.480   4.174   6.070
 6674SOL    HW120921   0.497   4.242   5.999
 6674SOL    HW220922   0.452   4.088   6.028
 6675SOL     OW20923   5.031   3.774   1.472
 6675SOL    HW120924   5.031   3.844   1.544
 6675SOL    HW220925   4.968   3.801   1.400
 6676SOL     OW20926   0.940   3.969   5.838
 6676SOL    HW120927   0.851   3.940   5.872
 6676SOL    HW220928   0.940   3.969   5.738
 6677SOL     OW20929   1.699   1.786   6.088
 6677SOL    HW120930   1.778   1.799   6.148
 6677SOL    HW220931   1.639   1.866   6.095
 6678SOL     OW20932   3.045   3.181   6.752
 6678SOL    HW120933   2.982   3.181   6.829
 6678SOL    HW220934   2.993   3.187   6.667
 6679SOL     OW20935   3.332   1.098   3.913
 6679SOL    HW120936   3.235   1.075   3.902
 6679SOL    HW220937   3.376   1.030   3.971
 6680SOL     OW20938   5.364   6.466   6.795
 6680SOL    HW120939   5.412   6.551   6.775
 6680SOL    HW220940   5.346   6.460   6.894
 6681SOL     OW20941   3.548   5.949   1.400
 6681SOL    HW120942   3.561   6.048   1.404
 6681SOL    HW220943   3.462   5.924   1.444
 6682SOL     OW20944   0.438   4.631   2.287
 6682SOL    HW120945   0.383   4.577   2.223
 6682SOL    HW220946   0.451   4.579   2.372
 6683SOL     OW20947   5.803   3.110   5.088
 6683SOL    HW120948   5.830   3.199   5.124
 6683SOL    HW220949   5.731   3.122   5.019
 6684SOL     OW20950   2.743   0.040   1.653
 6684SOL    HW120951   2.708   0.007   1.740
 6684SOL    HW220952   2.667   0.075   1.598
 6685SOL     OW20953   6.357   3.347   6.018
 6685SOL    HW120954   6.360   3.431   6.073
 6685SOL    HW220955   6.307   3.364   5.933
 6686SOL     OW20956   5.233   6.016   4.841
 6686SOL    HW120957   5.175   5.959   4.899
 6686SOL    HW220958   5.317   6.039   4.891
 6687SOL     OW20959   1.392   3.592   0.071
 6687SOL    HW120960   1.304   3.633   0.096
 6687SOL    HW220961   1.436   3.556   0.153
 6688SOL     OW20962   6.464   4.180   2.506
 6688SOL    HW120963   6.399   4.249   2.477
 6688SOL    HW220964   6.415   4.097   2.532
 6689SOL     OW20965   4.443   2.993   0.217
 6689SOL    HW120966   4.447   3.079   0.268
 6689SOL    HW220967   4.354   2.985   0.172
 6690SOL     OW20968   1.176   1.348   0.769
 6690SOL    HW120969   1.222   1.400   0.840
 6690SOL    HW220970   1.233   1.272   0.741
 6691SOL     OW20971   2.835   6.472   2.095
 6691SOL    HW120972   2.867   6.489   2.188
 6691SOL    HW220973   2.903   6.504   2.029
 6692SOL     OW20974   3.255   3.588   5.449
 6692SOL    HW120975   3.170   3.591   5.501
 6692SOL    HW220976   3.313   3.665   5.475
 6693SOL     OW20977   4.369   3.045   5.772
 6693SOL    HW120978   4.282   3.095   5.770
 6693SOL    HW220979   4.351   2.948   5.754
 6694SOL     OW20980   3.442   5.786   0.820
 6694SOL    HW120981   3.347   5.788   0.790
 6694SOL    HW220982   3.464   5.872   0.867
 6695SOL     OW20983   2.859   2.238   0.575
 6695SOL    HW120984   2.817   2.322   0.540
 6695SOL    HW220985   2.847   2.165   0.508
 6696SOL     OW20986   2.981   3.160   5.822
 6696SOL    HW120987   2.935   3.204   5.745
 6696SOL    HW220988   3.046   3.224   5.863
 6697SOL     OW20989   4.584   2.469   3.220
 6697SOL    HW120990   4.602   2.503   3.128
 6697SOL    HW220991   4.633   2.382   3.233
 6698SOL     OW20992   2.548   2.678   1.572
 6698SOL    HW120993   2.518   2.728   1.653
 6698SOL    HW220994   2.638   2.638   1.590
 6699SOL     OW20995   2.555   5.943   5.720
 6699SOL    HW120996   2.627   5.981   5.661
 6699SOL    HW220997   2.470   5.936   5.668
 6700SOL     OW20998   0.678   6.686   1.721
 6700SOL    HW120999   0.709   6.609   1.777
 6700SOL    HW221000   0.706   6.671   1.626
 6701SOL     OW21001   5.597   4.032   2.475
 6701SOL    HW121002   5.582   4.103   2.544
 6701SOL    HW221003   5.691   4.038   2.442
 6702SOL     OW21004   3.151   1.769   1.469
 6702SOL    HW121005   3.107   1.835   1.530
 6702SOL    HW221006   3.115   1.678   1.487
 6703SOL     OW21007   6.333   2.371   6.783
 6703SOL    HW121008   6.252   2.377   6.724
 6703SOL    HW221009   6.408   2.329   6.732
 6704SOL     OW21010   3.126   1.870   2.962
 6704SOL    HW121011   3.043   1.855   3.016
 6704SOL    HW221012   3.206   1.843   3.015
 6705SOL     OW21013   6.776   2.908   1.762
 6705SOL    HW121014   6.868   2.909   1.723
 6705SOL    HW221015   6.731   2.822   1.738
 6706SOL     OW21016   1.898   4.313   2.275
 6706SOL    HW121017   1.846   4.234   2.309
 6706SOL    HW221018   1.882   4.324   2.177
 6707SOL     OW21019   6.625   6.337   3.195
 6707SOL    HW121020   6.633   6.243   3.160
 6707SOL    HW221021   6.639   6.402   3.120
 6708SOL     OW21022   0.138   5.514   1.655
 6708SOL    HW121023   0.150   5.416   1.666
 6708SOL    HW221024   0.046   5.532   1.621
 6709SOL     OW21025   3.027   6.181   3.336
 6709SOL    HW121026   2.989   6.096   3.373
 6709SOL    HW221027   3.043   6.246   3.410
 6710SOL     OW21028   3.856   0.566   6.234
 6710SOL    HW121029   3.856   0.519   6.146
 6710SOL    HW221030   3.762   0.584   6.263
 6711SOL     OW21031   4.536   5.147   6.095
 6711SOL    HW121032   4.527   5.090   6.013
 6711SOL    HW221033   4.626   5.132   6.137
 6712SOL     OW21034   5.258   4.002   0.269
 6712SOL    HW121035   5.327   4.043   0.329
 6712SOL    HW221036   5.216   4.074   0.213
 6713SOL     OW21037   2.009   0.019   2.555
 6713SOL    HW121038   2.109   0.011   2.555
 6713SOL    HW221039   1.978   0.053   2.643
 6714SOL     OW21040   6.208   0.742   6.119
 6714SOL    HW121041   6.161   0.733   6.206
 6714SOL    HW221042   6.262   0.660   6.101
 6715SOL     OW21043   0.707   0.329   0.250
 6715SOL    HW121044   0.775   0.261   0.223
 6715SOL    HW221045   0.649   0.352   0.172
 6716SOL     OW21046   0.541   6.016   1.517
 6716SOL    HW121047   0.613   6.083   1.500
 6716SOL    HW221048   0.514   5.972   1.431
 6717SOL     OW21049   3.811   3.276   6.985
 6717SOL    HW121050   3.847   3.320   6.903
 6717SOL    HW221051   3.711   3.275   6.982
 6718SOL     OW21052   5.316   0.633   0.930
 6718SOL    HW121053   5.330   0.573   1.009
 6718SOL    HW221054   5.375   0.713   0.939
 6719SOL     OW21055   2.469   0.406   6.585
 6719SOL    HW121056   2.506   0.402   6.493
 6719SOL    HW221057   2.532   0.458   6.644
 6720SOL     OW21058   1.305   6.858   3.937
 6720SOL    HW121059   1.371   6.931   3.924
 6720SOL    HW221060   1.306   6.797   3.857
 6721SOL     OW21061   6.921   0.353   0.126
 6721SOL    HW121062   6.822   0.357   0.137
 6721SOL    HW221063   6.964   0.418   0.189
 6722SOL     OW21064   6.779   3.081   1.972
 6722SOL    HW121065   6.737   3.035   2.050
 6722SOL    HW221066   6.764   3.026   1.889
 6723SOL     OW21067   2.229   6.053   3.290
 6723SOL    HW121068   2.241   6.074   3.387
 6723SOL    HW221069   2.206   6.137   3.241
 6724SOL     OW21070   1.638   3.147   5.686
 6724SOL    HW121071   1.728   3.120   5.651
 6724SOL    HW221072   1.622   3.244   5.666
 6725SOL     OW21073   0.512   3.263   1.681
 6725SOL    HW121074   0.558   3.216   1.756
 6725SOL    HW221075   0.508   3.203   1.601
 6726SOL     OW21076   0.694   2.178   5.392
 6726SOL    HW121077   0.630   2.210   5.322
 6726SOL    HW221078   0.703   2.248   5.463
 6727SOL     OW21079   6.872   3.992   5.354
 6727SOL    HW121080   6.919   3.915   5.311
 6727SOL    HW221081   6.874   4.071   5.292
 6728SOL     OW21082   3.470   1.887   2.725
 6728SOL    HW121083   3.452   1.955   2.797
 6728SOL    HW221084   3.438   1.924   2.637
 6729SOL     OW21085   6.717   1.242   2.874
 6729SOL    HW121086   6.783   1.303   2.919
 6729SOL    HW221087   6.633   1.292   2.854
 6730SOL     OW21088   2.627   6.828   0.542
 6730SOL    HW121089   2.627   6.775   0.626
 6730SOL    HW221090   2.650   6.923   0.562
 6731SOL     OW21091   1.123   5.992   1.603
 6731SOL    HW121092   1.176   6.001   1.519
 6731SOL    HW221093   1.134   5.899   1.639
 6732SOL     OW21094   5.279   4.612   4.828
 6732SOL    HW121095   5.257   4.701   4.788
 6732SOL    HW221096   5.252   4.539   4.764
 6733SOL     OW21097   4.328   5.836   0.588
 6733SOL    HW121098   4.422   5.845   0.555
 6733SOL    HW221099   4.268   5.892   0.532
 6734SOL     OW21100   6.384   2.488   4.990
 6734SOL    HW121101   6.287   2.467   4.976
 6734SOL    HW221102   6.436   2.403   4.991
 6735SOL     OW21103   6.622   4.192   4.755
 6735SOL    HW121104   6.665   4.228   4.673
 6735SOL    HW221105   6.559   4.119   4.730
 6736SOL     OW21106   2.933   3.563   0.081
 6736SOL    HW121107   2.844   3.550   0.123
 6736SOL    HW221108   3.003   3.516   0.134
 6737SOL     OW21109   1.836   2.556   0.581
 6737SOL    HW121110   1.747   2.512   0.570
 6737SOL    HW221111   1.823   2.654   0.592
 6738SOL     OW21112   1.696   5.410   2.603
 6738SOL    HW121113   1.763   5.474   2.565
 6738SOL    HW221114   1.623   5.462   2.649
 6739SOL     OW21115   3.605   6.239   5.062
 6739SOL    HW121116   3.525   6.188   5.032
 6739SOL    HW221117   3.688   6.188   5.038
 6740SOL     OW21118   1.545   0.180   4.556
 6740SOL    HW121119   1.643   0.198   4.550
 6740SOL    HW221120   1.498   0.229   4.483
 6741SOL     OW21121   4.291   1.498   5.607
 6741SOL    HW121122   4.291   1.581   5.551
 6741SOL    HW221123   4.384   1.481   5.641
 6742SOL     OW21124   6.548   6.007   2.230
 6742SOL    HW121125   6.584   5.967   2.315
 6742SOL    HW221126   6.461   6.052   2.250
 6743SOL     OW21127   3.658   5.183   0.561
 6743SOL    HW121128   3.742   5.238   0.558
 6743SOL    HW221129   3.618   5.178   0.470
 6744SOL     OW21130   5.853   4.174   6.517
 6744SOL    HW121131   5.820   4.097   6.464
 6744SOL    HW221132   5.901   4.239   6.457
 6745SOL     OW21133   0.053   0.193   2.929
 6745SOL    HW121134   0.090   0.272   2.980
 6745SOL    HW221135   6.971   0.195   2.934
 6746SOL     OW21136   0.729   1.133   3.437
 6746SOL    HW121137   0.671   1.114   3.358
 6746SOL    HW221138   0.671   1.154   3.517
 6747SOL     OW21139   5.703   1.119   4.975
 6747SOL    HW121140   5.710   1.019   4.978
 6747SOL    HW221141   5.615   1.145   4.934
 6748SOL     OW21142   1.943   1.048   3.667
 6748SOL    HW121143   1.981   0.969   3.715
 6748SOL    HW221144   2.018   1.106   3.634
 6749SOL     OW21145   2.976   6.547   0.457
 6749SOL    HW121146   2.992   6.532   0.555
 6749SOL    HW221147   3.025   6.629   0.427
 6750SOL     OW21148   4.200   2.184   5.160
 6750SOL    HW121149   4.169   2.094   5.193
 6750SOL    HW221150   4.176   2.193   5.063
 6751SOL     OW21151   3.908   0.281   3.590
 6751SOL    HW121152   3.864   0.288   3.501
 6751SOL    HW221153   3.977   0.209   3.588
 6752SOL     OW21154   0.549   1.972   2.719
 6752SOL    HW121155   0.535   2.033   2.641
 6752SOL    HW221156   0.463   1.927   2.743
 6753SOL     OW21157   4.164   0.880   6.602
 6753SOL    HW121158   4.093   0.810   6.598
 6753SOL    HW221159   4.251   0.838   6.626
 6754SOL     OW21160   0.498   1.732   0.319
 6754SOL    HW121161   0.491   1.639   0.355
 6754SOL    HW221162   0.417   1.752   0.263
 6755SOL     OW21163   3.906   0.780   3.098
 6755SOL    HW121164   3.923   0.878   3.108
 6755SOL    HW221165   3.852   0.764   3.015
 6756SOL     OW21166   4.067   5.104   5.321
 6756SOL    HW121167   4.150   5.150   5.289
 6756SOL    HW221168   4.029   5.154   5.399
 6757SOL     OW21169   4.153   1.218   2.538
 6757SOL    HW121170   4.173   1.307   2.579
 6757SOL    HW221171   4.087   1.169   2.595
 6758SOL     OW21172   6.352   2.183   1.777
 6758SOL    HW121173   6.265   2.183   1.827
 6758SOL    HW221174   6.358   2.267   1.722
 6759SOL     OW21175   0.811   4.376   4.635
 6759SOL    HW121176   0.770   4.301   4.687
 6759SOL    HW221177   0.758   4.392   4.551
 6760SOL     OW21178   6.255   3.909   3.333
 6760SOL    HW121179   6.256   4.008   3.320
 6760SOL    HW221180   6.324   3.867   3.274
 6761SOL     OW21181   6.543   2.287   6.113
 6761SOL    HW121182   6.524   2.364   6.174
 6761SOL    HW221183   6.556   2.204   6.167
 6762SOL     OW21184   0.556   5.749   3.801
 6762SOL    HW121185   0.567   5.725   3.705
 6762SOL    HW221186   0.521   5.842   3.809
 6763SOL     OW21187   0.448   4.907   2.770
 6763SOL    HW121188   0.351   4.917   2.790
 6763SOL    HW221189   0.465   4.816   2.732
 6764SOL     OW21190   2.266   4.833   0.257
 6764SOL    HW121191   2.334   4.790   0.197
 6764SOL    HW221192   2.218   4.905   0.207
 6765SOL     OW21193   5.329   4.012   3.561
 6765SOL    HW121194   5.421   4.002   3.599
 6765SOL    HW221195   5.281   3.925   3.568
 6766SOL     OW21196   5.125   6.571   6.195
 6766SOL    HW121197   5.027   6.562   6.184
 6766SOL    HW221198   5.163   6.486   6.231
 6767SOL     OW21199   1.037   1.848   0.759
 6767SOL    HW121200   1.110   1.872   0.695
 6767SOL    HW221201   1.014   1.751   0.748
 6768SOL     OW21202   0.836   6.360   3.689
 6768SOL    HW121203   0.933   6.344   3.710
 6768SOL    HW221204   0.788   6.383   3.774
 6769SOL     OW21205   2.481   0.109   5.606
 6769SOL    HW121206   2.471   0.170   5.685
 6769SOL    HW221207   2.555   0.142   5.548
 6770SOL     OW21208   4.652   2.082   3.980
 6770SOL    HW121209   4.704   2.058   4.062
 6770SOL    HW221210   4.704   2.147   3.925
 6771SOL     OW21211   3.828   1.040   2.427
 6771SOL    HW121212   3.846   0.945   2.401
 6771SOL    HW221213   3.883   1.064   2.507
 6772SOL     OW21214   4.523   2.339   2.676
 6772SOL    HW121215   4.443   2.329   2.735
 6772SOL    HW221216   4.605   2.308   2.725
 6773SOL     OW21217   0.794   6.303   2.208
 6773SOL    HW121218   0.765   6.274   2.116
 6773SOL    HW221219   0.894   6.301   2.212
 6774SOL     OW21220   1.947   3.182   4.594
 6774SOL    HW121221   1.872   3.209   4.655
 6774SOL    HW221222   1.912   3.120   4.524
 6775SOL     OW21223   1.383   2.486   3.580
 6775SOL    HW121224   1.333   2.570   3.603
 6775SOL    HW221225   1.335   2.438   3.506
 6776SOL     OW21226   4.237   3.985   0.298
 6776SOL    HW121227   4.333   3.961   0.286
 6776SOL    HW221228   4.188   3.908   0.338
 6777SOL     OW21229   4.828   4.987   1.048
 6777SOL    HW121230   4.811   4.972   1.145
 6777SOL    HW221231   4.771   5.062   1.015
 6778SOL     OW21232   6.387   4.297   1.800
 6778SOL    HW121233   6.317   4.275   1.868
 6778SOL    HW221234   6.450   4.364   1.837
 6779SOL     OW21235   5.575   4.618   6.008
 6779SOL    HW121236   5.566   4.536   6.064
 6779SOL    HW221237   5.487   4.665   6.000
 6780SOL     OW21238   0.781   3.207   2.643
 6780SOL    HW121239   0.696   3.197   2.694
 6780SOL    HW221240   0.820   3.116   2.626
 6781SOL     OW21241   6.601   1.421   4.745
 6781SOL    HW121242   6.565   1.442   4.655
 6781SOL    HW221243   6.642   1.503   4.785
 6782SOL     OW21244   0.987   1.084   2.945
 6782SOL    HW121245   0.995   0.993   2.904
 6782SOL    HW221246   1.069   1.138   2.924
 6783SOL     OW21247   0.979   2.133   5.957
 6783SOL    HW121248   1.064   2.169   5.995
 6783SOL    HW221249   1.000   2.071   5.881
 6784SOL     OW21250   2.791   3.612   0.436
 6784SOL    HW121251   2.846   3.592   0.354
 6784SOL    HW221252   2.829   3.563   0.514
 6785SOL     OW21253   5.522   5.051   4.783
 6785SOL    HW121254   5.617   5.040   4.815
 6785SOL    HW221255   5.504   4.984   4.712
 6786SOL     OW21256   1.101   2.583   0.409
 6786SOL    HW121257   1.086   2.679   0.432
 6786SOL    HW221258   1.063   2.525   0.481
 6787SOL     OW21259   3.459   2.874   0.800
 6787SOL    HW121260   3.476   2.961   0.754
 6787SOL    HW221261   3.483   2.798   0.739
 6788SOL     OW21262   0.670   4.535   2.000
 6788SOL    HW121263   0.712   4.445   2.008
 6788SOL    HW221264   0.701   4.592   2.077
 6789SOL     OW21265   0.146   4.433   4.006
 6789SOL    HW121266   0.162   4.402   4.100
 6789SOL    HW221267   0.233   4.460   3.965
 6790SOL     OW21268   0.924   4.112   6.767
 6790SOL    HW121269   0.862   4.121   6.845
 6790SOL    HW221270   1.019   4.115   6.799
 6791SOL     OW21271   3.964   2.123   2.208
 6791SOL    HW121272   3.886   2.172   2.248
 6791SOL    HW221273   3.941   2.095   2.115
 6792SOL     OW21274   5.007   0.475   5.435
 6792SOL    HW121275   4.929   0.452   5.494
 6792SOL    HW221276   5.087   0.424   5.465
 6793SOL     OW21277   2.879   1.057   6.558
 6793SOL    HW121278   2.859   1.074   6.655
 6793SOL    HW221279   2.840   1.130   6.503
 6794SOL     OW21280   5.646   1.448   4.976
 6794SOL    HW121281   5.611   1.541   4.988
 6794SOL    HW221282   5.630   1.396   5.060
 6795SOL     OW21283   1.577   6.047   0.891
 6795SOL    HW121284   1.563   6.063   0.988
 6795SOL    HW221285   1.529   5.963   0.864
 6796SOL     OW21286   6.280   0.387   2.626
 6796SOL    HW121287   6.280   0.306   2.567
 6796SOL    HW221288   6.329   0.461   2.580
 6797SOL     OW21289   6.790   2.324   1.847
 6797SOL    HW121290   6.780   2.227   1.870
 6797SOL    HW221291   6.884   2.353   1.865
 6798SOL     OW21292   6.589   6.540   1.351
 6798SOL    HW121293   6.650   6.613   1.382
 6798SOL    HW221294   6.550   6.494   1.431
 6799SOL     OW21295   6.181   0.453   2.242
 6799SOL    HW121296   6.183   0.353   2.248
 6799SOL    HW221297   6.141   0.480   2.154
 6800SOL     OW21298   2.462   2.492   2.320
 6800SOL    HW121299   2.554   2.457   2.300
 6800SOL    HW221300   2.445   2.574   2.266
 6801SOL     OW21301   1.250   0.272   3.731
 6801SOL    HW121302   1.250   0.354   3.787
 6801SOL    HW221303   1.156   0.242   3.716
 6802SOL     OW21304   3.135   6.060   1.742
 6802SOL    HW121305   3.205   6.006   1.693
 6802SOL    HW221306   3.088   6.119   1.677
 6803SOL     OW21307   4.277   4.329   6.479
 6803SOL    HW121308   4.315   4.410   6.434
 6803SOL    HW221309   4.321   4.317   6.568
 6804SOL     OW21310   4.153   5.366   2.936
 6804SOL    HW121311   4.211   5.320   3.004
 6804SOL    HW221312   4.132   5.459   2.968
 6805SOL     OW21313   0.549   4.993   6.640
 6805SOL    HW121314   0.494   5.058   6.587
 6805SOL    HW221315   0.511   4.901   6.631
 6806SOL     OW21316   6.854   1.098   3.886
 6806SOL    HW121317   6.916   1.137   3.954
 6806SOL    HW221318   6.824   1.007   3.916
 6807SOL     OW21319   3.752   3.487   2.499
 6807SOL    HW121320   3.692   3.500   2.420
 6807SOL    HW221321   3.727   3.402   2.546
 6808SOL     OW21322   7.003   1.830   5.589
 6808SOL    HW121323   6.982   1.753   5.529
 6808SOL    HW221324   0.045   1.894   5.541
 6809SOL     OW21325   6.596   3.151   1.290
 6809SOL    HW121326   6.613   3.073   1.230
 6809SOL    HW221327   6.526   3.210   1.249
 6810SOL     OW21328   3.140   1.073   2.217
 6810SOL    HW121329   3.146   1.145   2.287
 6810SOL    HW221330   3.105   0.989   2.258
 6811SOL     OW21331   6.345   3.711   2.184
 6811SOL    HW121332   6.413   3.774   2.221
 6811SOL    HW221333   6.389   3.625   2.157
 6812SOL     OW21334   3.675   4.069   5.362
 6812SOL    HW121335   3.665   3.990   5.302
 6812SOL    HW221336   3.636   4.150   5.318
 6813SOL     OW21337   5.742   2.947   2.536
 6813SOL    HW121338   5.706   2.947   2.443
 6813SOL    HW221339   5.715   3.032   2.582
 6814SOL     OW21340   4.445   2.022   6.252
 6814SOL    HW121341   4.368   2.028   6.315
 6814SOL    HW221342   4.447   1.931   6.210
 6815SOL     OW21343   2.253   6.679   6.507
 6815SOL    HW121344   2.321   6.747   6.479
 6815SOL    HW221345   2.296   6.614   6.569
 6816SOL     OW21346   0.050   0.897   5.637
 6816SOL    HW121347   0.072   0.834   5.713
 6816SOL    HW221348   0.084   0.858   5.551
 6817SOL     OW21349   2.242   2.967   3.473
 6817SOL    HW121350   2.252   2.877   3.514
 6817SOL    HW221351   2.252   3.037   3.544
 6818SOL     OW21352   2.007   6.546   0.724
 6818SOL    HW121353   2.093   6.565   0.676
 6818SOL    HW221354   1.977   6.454   0.701
 6819SOL     OW21355   4.363   1.526   3.043
 6819SOL    HW121356   4.366   1.563   2.950
 6819SOL    HW221357   4.287   1.567   3.093
 6820SOL     OW21358   1.668   6.183   1.644
 6820SOL    HW121359   1.728   6.240   1.700
 6820SOL    HW221360   1.589   6.237   1.614
 6821SOL     OW21361   3.904   2.682   5.291
 6821SOL    HW121362   3.984   2.632   5.258
 6821SOL    HW221363   3.844   2.619   5.340
 6822SOL     OW21364   5.924   2.575   5.799
 6822SOL    HW121365   5.842   2.631   5.801
 6822SOL    HW221366   5.929   2.520   5.882
 6823SOL     OW21367   6.088   3.981   5.956
 6823SOL    HW121368   6.011   3.923   5.929
 6823SOL    HW221369   6.173   3.930   5.949
 6824SOL     OW21370   1.107   1.513   0.526
 6824SOL    HW121371   1.045   1.562   0.588
 6824SOL    HW221372   1.168   1.454   0.579
 6825SOL     OW21373   5.788   0.804   0.063
 6825SOL    HW121374   5.714   0.776   0.001
 6825SOL    HW221375   5.872   0.756   0.040
 6826SOL     OW21376   1.845   3.698   3.587
 6826SOL    HW121377   1.926   3.654   3.626
 6826SOL    HW221378   1.862   3.796   3.577
 6827SOL     OW21379   5.668   5.315   6.384
 6827SOL    HW121380   5.626   5.245   6.440
 6827SOL    HW221381   5.635   5.306   6.289
 6828SOL     OW21382   3.534   1.310   1.799
 6828SOL    HW121383   3.494   1.349   1.716
 6828SOL    HW221384   3.482   1.229   1.826
 6829SOL     OW21385   5.185   6.085   5.752
 6829SOL    HW121386   5.134   6.171   5.745
 6829SOL    HW221387   5.263   6.087   5.690
 6830SOL     OW21388   4.905   0.542   3.427
 6830SOL    HW121389   4.907   0.505   3.519
 6830SOL    HW221390   4.953   0.481   3.365
 6831SOL     OW21391   1.830   1.267   5.858
 6831SOL    HW121392   1.902   1.201   5.880
 6831SOL    HW221393   1.741   1.229   5.882
 6832SOL     OW21394   2.632   4.100   0.891
 6832SOL    HW121395   2.647   4.171   0.822
 6832SOL    HW221396   2.534   4.080   0.896
 6833SOL     OW21397   2.254   4.782   6.741
 6833SOL    HW121398   2.215   4.709   6.796
 6833SOL    HW221399   2.184   4.850   6.719
 6834SOL     OW21400   6.361   0.241   0.635
 6834SOL    HW121401   6.320   0.155   0.665
 6834SOL    HW221402   6.293   0.314   0.637
 6835SOL     OW21403   3.734   1.175   4.954
 6835SOL    HW121404   3.720   1.274   4.955
 6835SOL    HW221405   3.815   1.152   5.008
 6836SOL     OW21406   2.606   4.585   6.473
 6836SOL    HW121407   2.612   4.486   6.465
 6836SOL    HW221408   2.668   4.628   6.408
 6837SOL     OW21409   0.452   2.744   3.532
 6837SOL    HW121410   0.458   2.726   3.434
 6837SOL    HW221411   0.393   2.823   3.548
 6838SOL     OW21412   3.048   5.491   6.164
 6838SOL    HW121413   3.112   5.507   6.240
 6838SOL    HW221414   3.030   5.578   6.117
 6839SOL     OW21415   5.456   0.924   5.151
 6839SOL    HW121416   5.361   0.902   5.173
 6839SOL    HW221417   5.460   0.961   5.058
 6840SOL     OW21418   3.215   6.672   5.209
 6840SOL    HW121419   3.299   6.672   5.264
 6840SOL    HW221420   3.209   6.586   5.159
 6841SOL     OW21421   4.185   4.703   0.784
 6841SOL    HW121422   4.167   4.761   0.705
 6841SOL    HW221423   4.154   4.749   0.867
 6842SOL     OW21424   2.177   2.857   0.210
 6842SOL    HW121425   2.168   2.842   0.111
 6842SOL    HW221426   2.238   2.788   0.248
 6843SOL     OW21427   5.498   6.840   1.805
 6843SOL    HW121428   5.542   6.922   1.841
 6843SOL    HW221429   5.565   6.784   1.757
 6844SOL     OW21430   5.536   6.941   3.588
 6844SOL    HW121431   5.452   6.887   3.578
 6844SOL    HW221432   5.615   6.879   3.589
 6845SOL     OW21433   5.771   4.479   2.726
 6845SOL    HW121434   5.698   4.502   2.790
 6845SOL    HW221435   5.791   4.381   2.732
 6846SOL     OW21436   4.482   3.314   1.355
 6846SOL    HW121437   4.515   3.323   1.449
 6846SOL    HW221438   4.456   3.219   1.337
 6847SOL     OW21439   6.764   4.732   3.083
 6847SOL    HW121440   6.700   4.757   3.010
 6847SOL    HW221441   6.747   4.637   3.111
 6848SOL     OW21442   3.444   6.291   3.623
 6848SOL    HW121443   3.364   6.232   3.628
 6848SOL    HW221444   3.521   6.240   3.584
 6849SOL     OW21445   3.537   5.259   4.593
 6849SOL    HW121446   3.462   5.295   4.648
 6849SOL    HW221447   3.599   5.333   4.567
 6850SOL     OW21448   5.793   3.707   1.870
 6850SOL    HW121449   5.837   3.787   1.910
 6850SOL    HW221450   5.825   3.624   1.916
 6851SOL     OW21451   0.959   3.110   3.922
 6851SOL    HW121452   0.898   3.047   3.969
 6851SOL    HW221453   0.918   3.139   3.836
 6852SOL     OW21454   1.894   4.717   0.967
 6852SOL    HW121455   1.865   4.626   0.937
 6852SOL    HW221456   1.994   4.722   0.966
 6853SOL     OW21457   6.763   3.871   0.210
 6853SOL    HW121458   6.808   3.787   0.179
 6853SOL    HW221459   6.828   3.927   0.261
 6854SOL     OW21460   5.338   1.842   5.657
 6854SOL    HW121461   5.344   1.934   5.695
 6854SOL    HW221462   5.353   1.844   5.559
 6855SOL     OW21463   3.467   5.607   3.137
 6855SOL    HW121464   3.540   5.653   3.086
 6855SOL    HW221465   3.417   5.546   3.076
 6856SOL     OW21466   4.795   4.172   5.428
 6856SOL    HW121467   4.836   4.203   5.342
 6856SOL    HW221468   4.847   4.095   5.464
 6857SOL     OW21469   2.774   1.763   0.140
 6857SOL    HW121470   2.811   1.729   0.226
 6857SOL    HW221471   2.849   1.783   0.077
 6858SOL     OW21472   3.602   3.682   4.314
 6858SOL    HW121473   3.698   3.706   4.300
 6858SOL    HW221474   3.596   3.590   4.354
 6859SOL     OW21475   1.426   0.282   0.994
 6859SOL    HW121476   1.436   0.379   1.017
 6859SOL    HW221477   1.435   0.227   1.078
 6860SOL     OW21478   6.114   5.390   1.110
 6860SOL    HW121479   6.210   5.401   1.086
 6860SOL    HW221480   6.105   5.372   1.208
 6861SOL     OW21481   5.683   4.038   0.800
 6861SOL    HW121482   5.647   4.068   0.888
 6861SOL    HW221483   5.735   3.954   0.812
 6862SOL     OW21484   1.882   4.572   5.186
 6862SOL    HW121485   1.979   4.581   5.163
 6862SOL    HW221486   1.845   4.491   5.142
 6863SOL     OW21487   5.967   1.187   5.826
 6863SOL    HW121488   6.049   1.239   5.846
 6863SOL    HW221489   5.992   1.098   5.789
 6864SOL     OW21490   2.855   6.092   3.950
 6864SOL    HW121491   2.930   6.130   3.895
 6864SOL    HW221492   2.861   5.992   3.949
 6865SOL     OW21493   0.095   6.000   3.235
 6865SOL    HW121494   0.058   6.084   3.275
 6865SOL    HW221495   0.075   5.997   3.137
 6866SOL     OW21496   6.507   4.851   2.694
 6866SOL    HW121497   6.436   4.879   2.630
 6866SOL    HW221498   6.490   4.758   2.725
 6867SOL     OW21499   2.130   4.810   1.818
 6867SOL    HW121500   2.137   4.734   1.753
 6867SOL    HW221501   2.211   4.868   1.811
 6868SOL     OW21502   1.313   5.265   6.494
 6868SOL    HW121503   1.312   5.282   6.593
 6868SOL    HW221504   1.367   5.183   6.475
 6869SOL     OW21505   5.345   0.543   4.714
 6869SOL    HW121506   5.291   0.498   4.642
 6869SOL    HW221507   5.442   0.538   4.689
 6870SOL     OW21508   6.946   4.842   2.034
 6870SOL    HW121509   7.017   4.800   1.979
 6870SOL    HW221510   6.928   4.786   2.115
 6871SOL     OW21511   6.393   4.335   2.996
 6871SOL    HW121512   6.301   4.373   2.993
 6871SOL    HW221513   6.402   4.263   2.927
 6872SOL     OW21514   0.765   2.678   1.394
 6872SOL    HW121515   0.787   2.776   1.399
 6872SOL    HW221516   0.792   2.634   1.479
 6873SOL     OW21517   6.723   3.785   4.969
 6873SOL    HW121518   6.701   3.696   5.009
 6873SOL    HW221519   6.678   3.857   5.023
 6874SOL     OW21520   0.789   5.674   2.441
 6874SOL    HW121521   0.812   5.765   2.474
 6874SOL    HW221522   0.851   5.650   2.366
 6875SOL     OW21523   1.661   2.406   3.028
 6875SOL    HW121524   1.658   2.499   2.991
 6875SOL    HW221525   1.582   2.355   2.995
 6876SOL     OW21526   4.126   6.272   4.165
 6876SOL    HW121527   4.123   6.203   4.238
 6876SOL    HW221528   4.085   6.234   4.082
 6877SOL     OW21529   2.987   3.841   0.172
 6877SOL    HW121530   3.006   3.794   0.086
 6877SOL    HW221531   3.064   3.830   0.235
 6878SOL     OW21532   3.094   2.120   5.496
 6878SOL    HW121533   3.109   2.079   5.406
 6878SOL    HW221534   3.084   2.219   5.487
 6879SOL     OW21535   0.841   2.267   0.126
 6879SOL    HW121536   0.938   2.285   0.142
 6879SOL    HW221537   0.831   2.183   0.071
 6880SOL     OW21538   2.088   4.022   5.164
 6880SOL    HW121539   2.171   4.003   5.112
 6880SOL    HW221540   2.021   3.949   5.149
 6881SOL     OW21541   0.584   3.941   2.226
 6881SOL    HW121542   0.518   4.004   2.267
 6881SOL    HW221543   0.616   3.977   2.139
 6882SOL     OW21544   3.879   0.901   6.779
 6882SOL    HW121545   3.891   0.921   6.876
 6882SOL    HW221546   3.952   0.840   6.748
 6883SOL     OW21547   3.831   2.231   0.331
 6883SOL    HW121548   3.752   2.174   0.307
 6883SOL    HW221549   3.801   2.326   0.338
 6884SOL     OW21550   1.765   3.951   4.268
 6884SOL    HW121551   1.787   3.960   4.365
 6884SOL    HW221552   1.784   4.038   4.222
 6885SOL     OW21553   3.549   6.325   4.621
 6885SOL    HW121554   3.637   6.359   4.653
 6885SOL    HW221555   3.544   6.331   4.522
 6886SOL     OW21556   6.737   0.842   3.947
 6886SOL    HW121557   6.703   0.753   3.978
 6886SOL    HW221558   6.833   0.835   3.922
 6887SOL     OW21559   4.999   6.305   5.213
 6887SOL    HW121560   4.955   6.378   5.161
 6887SOL    HW221561   5.023   6.339   5.304
 6888SOL     OW21562   5.218   6.307   6.235
 6888SOL    HW121563   5.295   6.265   6.187
 6888SOL    HW221564   5.141   6.317   6.171
 6889SOL     OW21565   1.690   2.152   4.941
 6889SOL    HW121566   1.739   2.175   4.857
 6889SOL    HW221567   1.633   2.071   4.925
 6890SOL     OW21568   3.831   6.490   0.949
 6890SOL    HW121569   3.903   6.426   0.977
 6890SOL    HW221570   3.806   6.548   1.026
 6891SOL     OW21571   1.661   4.602   4.038
 6891SOL    HW121572   1.740   4.550   4.006
 6891SOL    HW221573   1.628   4.661   3.965
 6892SOL     OW21574   3.530   2.115   3.452
 6892SOL    HW121575   3.601   2.156   3.509
 6892SOL    HW221576   3.506   2.025   3.487
 6893SOL     OW21577   4.807   4.804   6.799
 6893SOL    HW121578   4.817   4.903   6.792
 6893SOL    HW221579   4.726   4.782   6.853
 6894SOL     OW21580   6.057   4.752   0.194
 6894SOL    HW121581   6.065   4.681   0.123
 6894SOL    HW221582   5.998   4.719   0.267
 6895SOL     OW21583   2.682   5.737   6.605
 6895SOL    HW121584   2.652   5.648   6.641
 6895SOL    HW221585   2.771   5.760   6.644
 6896SOL     OW21586   1.132   0.047   3.259
 6896SOL    HW121587   1.216   0.097   3.242
 6896SOL    HW221588   1.131   0.015   3.354
 6897SOL     OW21589   2.719   3.040   6.827
 6897SOL    HW121590   2.768   2.957   6.799
 6897SOL    HW221591   2.777   3.094   6.887
 6898SOL     OW21592   4.114   1.172   2.268
 6898SOL    HW121593   4.126   1.186   2.366
 6898SOL    HW221594   4.018   1.149   2.249
 6899SOL     OW21595   5.347   6.721   1.050
 6899SOL    HW121596   5.318   6.626   1.058
 6899SOL    HW221597   5.309   6.760   0.966
 6900SOL     OW21598   6.644   6.836   5.647
 6900SOL    HW121599   6.622   6.863   5.553
 6900SOL    HW221600   6.651   6.736   5.652
 6901SOL     OW21601   0.181   6.380   6.359
 6901SOL    HW121602   0.245   6.450   6.329
 6901SOL    HW221603   0.087   6.415   6.351
 6902SOL     OW21604   5.805   6.669   0.437
 6902SOL    HW121605   5.784   6.690   0.342
 6902SOL    HW221606   5.870   6.594   0.441
 6903SOL     OW21607   3.676   5.443   4.424
 6903SOL    HW121608   3.733   5.438   4.342
 6903SOL    HW221609   3.693   5.529   4.472
 6904SOL     OW21610   5.958   1.780   4.403
 6904SOL    HW121611   6.003   1.748   4.486
 6904SOL    HW221612   5.944   1.879   4.409
 6905SOL     OW21613   6.170   6.474   0.111
 6905SOL    HW121614   6.081   6.476   0.066
 6905SOL    HW221615   6.207   6.567   0.116
 6906SOL     OW21616   4.467   1.466   3.885
 6906SOL    HW121617   4.567   1.462   3.881
 6906SOL    HW221618   4.431   1.373   3.896
 6907SOL     OW21619   4.707   2.217   1.602
 6907SOL    HW121620   4.749   2.278   1.669
 6907SOL    HW221621   4.731   2.122   1.624
 6908SOL     OW21622   0.997   5.998   6.661
 6908SOL    HW121623   0.928   6.068   6.643
 6908SOL    HW221624   0.958   5.907   6.646
 6909SOL     OW21625   6.325   4.307   1.360
 6909SOL    HW121626   6.263   4.330   1.285
 6909SOL    HW221627   6.277   4.249   1.426
 6910SOL     OW21628   0.309   2.485   3.864
 6910SOL    HW121629   0.271   2.520   3.779
 6910SOL    HW221630   0.241   2.427   3.910
 6911SOL     OW21631   4.535   6.182   3.848
 6911SOL    HW121632   4.488   6.114   3.791
 6911SOL    HW221633   4.468   6.243   3.890
 6912SOL     OW21634   3.295   5.007   0.506
 6912SOL    HW121635   3.310   5.065   0.586
 6912SOL    HW221636   3.359   5.034   0.434
 6913SOL     OW21637   4.875   4.406   4.706
 6913SOL    HW121638   4.926   4.320   4.708
 6913SOL    HW221639   4.928   4.475   4.656
 6914SOL     OW21640   5.220   4.416   6.398
 6914SOL    HW121641   5.179   4.446   6.312
 6914SOL    HW221642   5.195   4.321   6.416
 6915SOL     OW21643   6.123   4.109   1.422
 6915SOL    HW121644   6.087   4.181   1.482
 6915SOL    HW221645   6.098   4.020   1.459
 6916SOL     OW21646   6.366   3.435   0.179
 6916SOL    HW121647   6.422   3.359   0.144
 6916SOL    HW221648   6.342   3.496   0.103
 6917SOL     OW21649   3.177   5.807   1.090
 6917SOL    HW121650   3.194   5.904   1.072
 6917SOL    HW221651   3.158   5.795   1.187
 6918SOL     OW21652   6.860   3.001   4.400
 6918SOL    HW121653   6.847   2.916   4.451
 6918SOL    HW221654   6.799   3.001   4.321
 6919SOL     OW21655   0.092   6.356   2.569
 6919SOL    HW121656   0.075   6.352   2.470
 6919SOL    HW221657   0.190   6.357   2.586
 6920SOL     OW21658   4.832   5.348   5.481
 6920SOL    HW121659   4.876   5.259   5.466
 6920SOL    HW221660   4.869   5.415   5.418
 6921SOL     OW21661   5.523   6.138   3.076
 6921SOL    HW121662   5.470   6.093   3.148
 6921SOL    HW221663   5.491   6.107   2.987
 6922SOL     OW21664   2.098   5.727   6.463
 6922SOL    HW121665   2.155   5.658   6.417
 6922SOL    HW221666   2.021   5.751   6.404
 6923SOL     OW21667   4.889   5.524   3.461
 6923SOL    HW121668   4.959   5.456   3.484
 6923SOL    HW221669   4.798   5.486   3.479
 6924SOL     OW21670   1.709   4.133   6.842
 6924SOL    HW121671   1.720   4.217   6.788
 6924SOL    HW221672   1.797   4.085   6.846
 6925SOL     OW21673   3.970   5.841   4.737
 6925SOL    HW121674   3.967   5.761   4.797
 6925SOL    HW221675   3.878   5.878   4.726
 6926SOL     OW21676   3.192   3.297   1.829
 6926SOL    HW121677   3.281   3.307   1.873
 6926SOL    HW221678   3.204   3.261   1.737
 6927SOL     OW21679   5.371   3.074   6.525
 6927SOL    HW121680   5.316   3.022   6.460
 6927SOL    HW221681   5.345   3.051   6.618
 6928SOL     OW21682   6.013   5.919   0.901
 6928SOL    HW121683   6.098   5.958   0.866
 6928SOL    HW221684   5.939   5.986   0.890
 6929SOL     OW21685   5.085   5.139   1.113
 6929SOL    HW121686   5.141   5.199   1.170
 6929SOL    HW221687   5.036   5.194   1.045
 6930SOL     OW21688   0.179   6.642   2.261
 6930SOL    HW121689   0.176   6.687   2.350
 6930SOL    HW221690   0.259   6.673   2.209
 6931SOL     OW21691   1.921   0.646   2.291
 6931SOL    HW121692   1.928   0.629   2.390
 6931SOL    HW221693   1.957   0.567   2.241
 6932SOL     OW21694   3.665   7.000   0.363
 6932SOL    HW121695   3.719   0.034   0.429
 6932SOL    HW221696   3.661   0.033   0.277
 6933SOL     OW21697   3.047   6.251   5.067
 6933SOL    HW121698   3.056   6.151   5.067
 6933SOL    HW221699   2.955   6.276   5.099
 6934SOL     OW21700   5.075   3.833   6.203
 6934SOL    HW121701   5.021   3.806   6.282
 6934SOL    HW221702   5.145   3.763   6.185
 6935SOL     OW21703   4.490   5.514   3.142
 6935SOL    HW121704   4.516   5.574   3.217
 6935SOL    HW221705   4.461   5.425   3.179
 6936SOL     OW21706   6.404   2.462   3.784
 6936SOL    HW121707   6.414   2.558   3.757
 6936SOL    HW221708   6.348   2.457   3.867
 6937SOL     OW21709   0.048   6.185   0.444
 6937SOL    HW121710   0.115   6.214   0.512
 6937SOL    HW221711   0.092   6.180   0.354
 6938SOL     OW21712   5.269   3.527   5.786
 6938SOL    HW121713   5.328   3.571   5.854
 6938SOL    HW221714   5.192   3.482   5.833
 6939SOL     OW21715   0.486   4.385   1.860
 6939SOL    HW121716   0.504   4.366   1.764
 6939SOL    HW221717   0.552   4.452   1.894
 6940SOL     OW21718   4.456   0.867   0.533
 6940SOL    HW121719   4.425   0.775   0.509
 6940SOL    HW221720   4.503   0.864   0.622
 6941SOL     OW21721   2.995   3.265   2.631
 6941SOL    HW121722   2.986   3.248   2.533
 6941SOL    HW221723   3.035   3.185   2.675
 6942SOL     OW21724   5.738   2.280   1.152
 6942SOL    HW121725   5.660   2.331   1.115
 6942SOL    HW221726   5.767   2.322   1.238
 6943SOL     OW21727   4.646   6.270   0.017
 6943SOL    HW121728   4.702   6.196   0.055
 6943SOL    HW221729   4.610   6.241   6.946
 6944SOL     OW21730   1.208   3.575   6.415
 6944SOL    HW121731   1.301   3.606   6.395
 6944SOL    HW221732   1.160   3.646   6.467
 6945SOL     OW21733   6.670   2.937   6.525
 6945SOL    HW121734   6.757   2.921   6.570
 6945SOL    HW221735   6.613   2.996   6.582
 6946SOL     OW21736   6.447   6.136   1.366
 6946SOL    HW121737   6.515   6.155   1.295
 6946SOL    HW221738   6.364   6.190   1.349
 6947SOL     OW21739   3.614   6.363   5.864
 6947SOL    HW121740   3.524   6.337   5.828
 6947SOL    HW221741   3.607   6.450   5.913
 6948SOL     OW21742   6.931   0.284   6.647
 6948SOL    HW121743   6.978   0.336   6.575
 6948SOL    HW221744   6.907   0.193   6.611
 6949SOL     OW21745   5.336   6.594   3.459
 6949SOL    HW121746   5.314   6.639   3.372
 6949SOL    HW221747   5.259   6.536   3.486
 6950SOL     OW21748   2.538   0.934   4.141
 6950SOL    HW121749   2.521   1.024   4.101
 6950SOL    HW221750   2.451   0.884   4.146
 6951SOL     OW21751   6.429   6.061   5.544
 6951SOL    HW121752   6.344   6.094   5.585
 6951SOL    HW221753   6.410   6.021   5.455
 6952SOL     OW21754   0.372   5.793   3.501
 6952SOL    HW121755   0.311   5.756   3.431
 6952SOL    HW221756   0.443   5.725   3.522
 6953SOL     OW21757   4.945   6.541   6.879
 6953SOL    HW121758   4.874   6.597   6.838
 6953SOL    HW221759   4.908   6.450   6.900
 6954SOL     OW21760   0.443   3.480   3.824
 6954SOL    HW121761   0.402   3.468   3.733
 6954SOL    HW221762   0.494   3.565   3.826
 6955SOL     OW21763   6.434   0.832   1.988
 6955SOL    HW121764   6.477   0.878   2.066
 6955SOL    HW221765   6.335   0.830   2.001
 6956SOL     OW21766   4.793   6.715   3.756
 6956SOL    HW121767   4.734   6.696   3.834
 6956SOL    HW221768   4.760   6.665   3.676
 6957SOL     OW21769   5.830   5.327   0.584
 6957SOL    HW121770   5.809   5.235   0.615
 6957SOL    HW221771   5.918   5.326   0.535
 6958SOL     OW21772   3.048   3.960   4.720
 6958SOL    HW121773   3.100   3.992   4.800
 6958SOL    HW221774   3.068   4.020   4.642
 6959SOL     OW21775   1.869   1.574   4.599
 6959SOL    HW121776   1.885   1.566   4.501
 6959SOL    HW221777   1.774   1.550   4.620
 6960SOL     OW21778   2.236   5.483   1.671
 6960SOL    HW121779   2.204   5.575   1.646
 6960SOL    HW221780   2.254   5.431   1.587
 6961SOL     OW21781   5.899   2.068   4.372
 6961SOL    HW121782   5.851   2.147   4.411
 6961SOL    HW221783   5.962   2.099   4.301
 6962SOL     OW21784   5.510   6.102   2.054
 6962SOL    HW121785   5.448   6.164   2.103
 6962SOL    HW221786   5.501   6.010   2.092
 6963SOL     OW21787   6.115   5.698   1.532
 6963SOL    HW121788   6.019   5.719   1.548
 6963SOL    HW221789   6.171   5.741   1.603
 6964SOL     OW21790   3.741   6.947   4.911
 6964SOL    HW121791   3.642   6.954   4.924
 6964SOL    HW221792   3.764   6.857   4.876
 6965SOL     OW21793   0.500   3.379   0.426
 6965SOL    HW121794   0.514   3.294   0.375
 6965SOL    HW221795   0.547   3.374   0.514
 6966SOL     OW21796   0.164   2.538   3.635
 6966SOL    HW121797   0.082   2.583   3.600
 6966SOL    HW221798   0.180   2.454   3.585
 6967SOL     OW21799   1.429   6.774   5.282
 6967SOL    HW121800   1.483   6.714   5.341
 6967SOL    HW221801   1.395   6.852   5.336
 6968SOL     OW21802   4.511   6.449   2.806
 6968SOL    HW121803   4.532   6.539   2.768
 6968SOL    HW221804   4.466   6.460   2.894
 6969SOL     OW21805   2.618   2.285   1.550
 6969SOL    HW121806   2.653   2.298   1.457
 6969SOL    HW221807   2.678   2.331   1.615
 6970SOL     OW21808   3.187   4.085   6.007
 6970SOL    HW121809   3.260   4.132   5.956
 6970SOL    HW221810   3.222   4.059   6.097
 6971SOL     OW21811   6.264   4.458   1.586
 6971SOL    HW121812   6.283   4.427   1.493
 6971SOL    HW221813   6.311   4.398   1.651
 6972SOL     OW21814   5.463   4.505   3.197
 6972SOL    HW121815   5.520   4.578   3.234
 6972SOL    HW221816   5.471   4.424   3.255
 6973SOL     OW21817   0.577   3.214   5.352
 6973SOL    HW121818   0.641   3.147   5.314
 6973SOL    HW221819   0.586   3.301   5.303
 6974SOL     OW21820   3.082   3.028   2.736
 6974SOL    HW121821   3.010   2.981   2.786
 6974SOL    HW221822   3.161   2.967   2.727
 6975SOL     OW21823   1.866   5.798   6.102
 6975SOL    HW121824   1.837   5.776   6.196
 6975SOL    HW221825   1.963   5.776   6.092
 6976SOL     OW21826   4.563   6.217   4.935
 6976SOL    HW121827   4.655   6.200   4.972
 6976SOL    HW221828   4.571   6.263   4.847
 6977SOL     OW21829   4.376   2.467   1.648
 6977SOL    HW121830   4.419   2.416   1.574
 6977SOL    HW221831   4.445   2.491   1.716
 6978SOL     OW21832   4.000   1.766   2.555
 6978SOL    HW121833   3.905   1.755   2.525
 6978SOL    HW221834   4.062   1.743   2.480
 6979SOL     OW21835   1.483   4.306   1.199
 6979SOL    HW121836   1.552   4.319   1.270
 6979SOL    HW221837   1.452   4.395   1.166
 6980SOL     OW21838   1.172   1.227   3.694
 6980SOL    HW121839   1.262   1.212   3.734
 6980SOL    HW221840   1.107   1.162   3.734
 6981SOL     OW21841   3.939   2.541   5.640
 6981SOL    HW121842   3.944   2.441   5.645
 6981SOL    HW221843   3.847   2.571   5.664
 6982SOL     OW21844   1.552   0.459   5.008
 6982SOL    HW121845   1.501   0.545   5.017
 6982SOL    HW221846   1.510   0.403   4.936
 6983SOL     OW21847   4.262   2.372   3.776
 6983SOL    HW121848   4.189   2.417   3.828
 6983SOL    HW221849   4.339   2.353   3.837
 6984SOL     OW21850   2.359   1.422   3.871
 6984SOL    HW121851   2.419   1.470   3.808
 6984SOL    HW221852   2.412   1.382   3.945
 6985SOL     OW21853   4.511   5.135   1.614
 6985SOL    HW121854   4.489   5.135   1.517
 6985SOL    HW221855   4.513   5.229   1.648
 6986SOL     OW21856   1.747   6.718   6.523
 6986SOL    HW121857   1.673   6.763   6.475
 6986SOL    HW221858   1.753   6.752   6.617
 6987SOL     OW21859   0.017   1.491   6.003
 6987SOL    HW121860   6.973   1.467   6.078
 6987SOL    HW221861   0.093   1.546   6.039
 6988SOL     OW21862   0.316   0.534   5.833
 6988SOL    HW121863   0.228   0.575   5.854
 6988SOL    HW221864   0.309   0.484   5.746
 6989SOL     OW21865   0.472   4.257   2.793
 6989SOL    HW121866   0.566   4.264   2.827
 6989SOL    HW221867   0.465   4.178   2.732
 6990SOL     OW21868   4.809   2.359   1.363
 6990SOL    HW121869   4.907   2.344   1.350
 6990SOL    HW221870   4.771   2.288   1.421
 6991SOL     OW21871   3.451   5.013   3.789
 6991SOL    HW121872   3.367   5.011   3.843
 6991SOL    HW221873   3.431   4.990   3.694
 6992SOL     OW21874   5.296   6.025   5.994
 6992SOL    HW121875   5.229   6.028   6.068
 6992SOL    HW221876   5.251   6.047   5.907
 6993SOL     OW21877   6.499   0.550   3.205
 6993SOL    HW121878   6.467   0.577   3.115
 6993SOL    HW221879   6.429   0.571   3.273
 6994SOL     OW21880   6.989   1.996   4.671
 6994SOL    HW121881   6.911   2.043   4.714
 6994SOL    HW221882   0.027   1.953   4.742
 6995SOL     OW21883   6.741   4.653   5.842
 6995SOL    HW121884   6.646   4.623   5.851
 6995SOL    HW221885   6.793   4.583   5.793
 6996SOL     OW21886   1.554   0.339   6.504
 6996SOL    HW121887   1.513   0.427   6.481
 6996SOL    HW221888   1.495   0.291   6.570
 6997SOL     OW21889   5.946   6.037   5.342
 6997SOL    HW121890   5.942   5.950   5.292
 6997SOL    HW221891   5.856   6.058   5.379
 6998SOL     OW21892   1.584   1.381   1.505
 6998SOL    HW121893   1.573   1.369   1.407
 6998SOL    HW221894   1.677   1.359   1.532
 6999SOL     OW21895   2.224   3.162   6.144
 6999SOL    HW121896   2.215   3.063   6.148
 6999SOL    HW221897   2.149   3.205   6.195
 7000SOL     OW21898   6.251   6.018   1.626
 7000SOL    HW121899   6.268   5.937   1.682
 7000SOL    HW221900   6.336   6.044   1.580
 7001SOL     OW21901   1.949   2.674   5.171
 7001SOL    HW121902   2.009   2.754   5.177
 7001SOL    HW221903   1.863   2.701   5.130
 7002SOL     OW21904   2.221   5.547   3.733
 7002SOL    HW121905   2.247   5.537   3.637
 7002SOL    HW221906   2.210   5.456   3.774
 7003SOL     OW21907   3.662   5.396   0.269
 7003SOL    HW121908   3.731   5.324   0.268
 7003SOL    HW221909   3.575   5.360   0.237
 7004SOL     OW21910   1.098   4.757   2.424
 7004SOL    HW121911   1.173   4.817   2.396
 7004SOL    HW221912   1.050   4.722   2.343
 7005SOL     OW21913   1.387   0.035   0.283
 7005SOL    HW121914   1.376   0.055   0.186
 7005SOL    HW221915   1.439   6.968   0.295
 7006SOL     OW21916   4.873   4.810   3.981
 7006SOL    HW121917   4.908   4.890   4.029
 7006SOL    HW221918   4.921   4.798   3.894
 7007SOL     OW21919   4.883   0.456   3.693
 7007SOL    HW121920   4.954   0.442   3.762
 7007SOL    HW221921   4.827   0.374   3.686
 7008SOL     OW21922   0.955   4.097   4.613
 7008SOL    HW121923   1.022   4.031   4.648
 7008SOL    HW221924   0.956   4.179   4.670
 7009SOL     OW21925   5.867   6.024   1.775
 7009SOL    HW121926   5.958   6.009   1.813
 7009SOL    HW221927   5.836   6.116   1.799
 7010SOL     OW21928   5.176   4.827   4.629
 7010SOL    HW121929   5.132   4.818   4.539
 7010SOL    HW221930   5.189   4.924   4.651
 7011SOL     OW21931   3.763   6.951   6.289
 7011SOL    HW121932   3.831   6.886   6.253
 7011SOL    HW221933   3.675   6.934   6.244
 7012SOL     OW21934   1.923   2.038   1.828
 7012SOL    HW121935   1.954   2.109   1.765
 7012SOL    HW221936   2.001   2.005   1.882
 7013SOL     OW21937   0.660   0.474   0.741
 7013SOL    HW121938   0.678   0.441   0.834
 7013SOL    HW221939   0.629   0.397   0.684
 7014SOL     OW21940   4.204   3.413   1.318
 7014SOL    HW121941   4.296   3.373   1.310
 7014SOL    HW221942   4.161   3.379   1.402
 7015SOL     OW21943   6.040   4.286   2.244
 7015SOL    HW121944   5.965   4.352   2.231
 7015SOL    HW221945   6.007   4.208   2.297
 7016SOL     OW21946   3.672   4.889   1.407
 7016SOL    HW121947   3.736   4.835   1.353
 7016SOL    HW221948   3.629   4.830   1.476
 7017SOL     OW21949   2.739   5.513   2.806
 7017SOL    HW121950   2.736   5.611   2.822
 7017SOL    HW221951   2.822   5.475   2.846
 7018SOL     OW21952   5.613   3.987   4.397
 7018SOL    HW121953   5.665   3.963   4.316
 7018SOL    HW221954   5.516   3.995   4.374
 7019SOL     OW21955   2.791   4.261   6.876
 7019SOL    HW121956   2.852   4.339   6.867
 7019SOL    HW221957   2.747   4.264   6.966
 7020SOL     OW21958   6.062   6.107   6.347
 7020SOL    HW121959   6.039   6.030   6.407
 7020SOL    HW221960   6.158   6.132   6.358
 7021SOL     OW21961   1.638   1.120   5.974
 7021SOL    HW121962   1.546   1.150   5.999
 7021SOL    HW221963   1.663   1.040   6.028
 7022SOL     OW21964   4.425   6.850   6.791
 7022SOL    HW121965   4.341   6.902   6.775
 7022SOL    HW221966   4.424   6.814   6.885
 7023SOL     OW21967   0.456   1.372   3.927
 7023SOL    HW121968   0.386   1.406   3.990
 7023SOL    HW221969   0.415   1.356   3.837
 7024SOL     OW21970   2.385   3.743   5.353
 7024SOL    HW121971   2.388   3.834   5.312
 7024SOL    HW221972   2.474   3.698   5.342
 7025SOL     OW21973   2.510   0.952   6.945
 7025SOL    HW121974   2.523   0.915   6.853
 7025SOL    HW221975   2.472   0.880   7.004
 7026SOL     OW21976   3.380   2.229   1.776
 7026SOL    HW121977   3.469   2.187   1.758
 7026SOL    HW221978   3.330   2.175   1.844
 7027SOL     OW21979   2.563   4.916   4.549
 7027SOL    HW121980   2.467   4.936   4.533
 7027SOL    HW221981   2.577   4.817   4.544
 7028SOL     OW21982   4.132   0.928   4.156
 7028SOL    HW121983   4.071   0.989   4.106
 7028SOL    HW221984   4.126   0.835   4.118
 7029SOL     OW21985   5.203   4.257   5.556
 7029SOL    HW121986   5.234   4.340   5.602
 7029SOL    HW221987   5.247   4.251   5.466
 7030SOL     OW21988   1.178   1.665   5.465
 7030SOL    HW121989   1.150   1.761   5.459
 7030SOL    HW221990   1.103   1.607   5.435
 7031SOL     OW21991   2.508   6.207   5.183
 7031SOL    HW121992   2.553   6.198   5.271
 7031SOL    HW221993   2.440   6.281   5.187
 7032SOL     OW21994   3.172   0.784   3.029
 7032SOL    HW121995   3.161   0.729   3.112
 7032SOL    HW221996   3.262   0.768   2.989
 7033SOL     OW21997   1.635   2.299   3.458
 7033SOL    HW121998   1.565   2.360   3.496
 7033SOL    HW221999   1.598   2.253   3.378
 7034SOL     OW22000   5.593   0.547   3.158
 7034SOL    HW122001   5.539   0.470   3.191
 7034SOL    HW222002   5.649   0.518   3.081
 7035SOL     OW22003   2.068   6.806   1.743
 7035SOL    HW122004   2.144   6.747   1.717
 7035SOL    HW222005   1.991   6.750   1.773
 7036SOL     OW22006   0.432   0.735   2.544
 7036SOL    HW122007   0.460   0.819   2.590
 7036SOL    HW222008   0.446   0.746   2.445
 7037SOL     OW22009   2.175   1.185   6.213
 7037SOL    HW122010   2.110   1.164   6.286
 7037SOL    HW222011   2.261   1.136   6.229
 7038SOL     OW22012   2.070   3.336   5.163
 7038SOL    HW122013   2.109   3.257   5.114
 7038SOL    HW222014   2.139   3.408   5.171
 7039SOL     OW22015   2.772   4.750   1.479
 7039SOL    HW122016   2.799   4.726   1.385
 7039SOL    HW222017   2.747   4.667   1.528
 7040SOL     OW22018   6.337   2.071   4.860
 7040SOL    HW122019   6.262   2.128   4.896
 7040SOL    HW222020   6.360   2.001   4.927
 7041SOL     OW22021   6.924   1.834   1.981
 7041SOL    HW122022   6.901   1.814   2.076
 7041SOL    HW222023   0.001   1.866   1.975
 7042SOL     OW22024   4.977   4.355   5.236
 7042SOL    HW122025   4.939   4.391   5.151
 7042SOL    HW222026   5.076   4.371   5.238
 7043SOL     OW22027   2.120   3.371   2.610
 7043SOL    HW122028   2.136   3.304   2.537
 7043SOL    HW222029   2.076   3.452   2.571
 7044SOL     OW22030   4.385   4.659   3.553
 7044SOL    HW122031   4.368   4.581   3.493
 7044SOL    HW222032   4.328   4.736   3.524
 7045SOL     OW22033   5.354   5.217   3.259
 7045SOL    HW122034   5.324   5.310   3.281
 7045SOL    HW222035   5.392   5.215   3.167
 7046SOL     OW22036   3.241   1.391   3.124
 7046SOL    HW122037   3.171   1.411   3.193
 7046SOL    HW222038   3.221   1.442   3.041
 7047SOL     OW22039   0.000   2.442   2.135
 7047SOL    HW122040   0.025   2.467   2.228
 7047SOL    HW222041   0.020   2.345   2.120
 7048SOL     OW22042   5.859   6.111   2.486
 7048SOL    HW122043   5.796   6.128   2.562
 7048SOL    HW222044   5.932   6.050   2.517
 7049SOL     OW22045   3.747   1.490   0.878
 7049SOL    HW122046   3.700   1.438   0.949
 7049SOL    HW222047   3.680   1.541   0.823
 7050SOL     OW22048   4.071   3.914   2.106
 7050SOL    HW122049   4.148   3.973   2.130
 7050SOL    HW222050   4.012   3.902   2.186
 7051SOL     OW22051   0.077   6.981   2.045
 7051SOL    HW122052   0.069   6.942   2.137
 7051SOL    HW222053   7.004   7.000   2.009
 7052SOL     OW22054   5.605   2.500   3.532
 7052SOL    HW122055   5.698   2.484   3.567
 7052SOL    HW222056   5.584   2.435   3.459
 7053SOL     OW22057   0.776   3.298   5.029
 7053SOL    HW122058   0.761   3.302   4.930
 7053SOL    HW222059   0.700   3.342   5.077
 7054SOL     OW22060   0.573   0.031   0.463
 7054SOL    HW122061   0.630   6.971   0.436
 7054SOL    HW222062   0.525   0.067   0.383
 7055SOL     OW22063   2.776   6.980   5.606
 7055SOL    HW122064   2.739   0.048   5.568
 7055SOL    HW222065   2.706   6.909   5.602
 7056SOL     OW22066   6.995   5.595   1.914
 7056SOL    HW122067   0.073   5.574   1.934
 7056SOL    HW222068   6.971   5.561   1.823
 7057SOL     OW22069   1.110   5.889   3.786
 7057SOL    HW122070   1.106   5.855   3.881
 7057SOL    HW222071   1.096   5.988   3.786
 7058SOL     OW22072   6.058   5.039   5.972
 7058SOL    HW122073   6.106   4.952   5.990
 7058SOL    HW222074   6.096   5.110   6.030
 7059SOL     OW22075   0.019   0.810   3.929
 7059SOL    HW122076   0.091   0.825   3.997
 7059SOL    HW222077   0.059   0.806   3.838
 7060SOL     OW22078   4.254   0.398   1.890
 7060SOL    HW122079   4.344   0.359   1.869
 7060SOL    HW222080   4.252   0.429   1.985
 7061SOL     OW22081   0.674   3.034   3.382
 7061SOL    HW122082   0.577   3.012   3.392
 7061SOL    HW222083   0.708   3.074   3.466
 7062SOL     OW22084   4.392   1.488   5.253
 7062SOL    HW122085   4.385   1.402   5.203
 7062SOL    HW222086   4.304   1.511   5.294
 7063SOL     OW22087   1.365   0.248   1.518
 7063SOL    HW122088   1.397   0.273   1.609
 7063SOL    HW222089   1.297   0.175   1.525
 7064SOL     OW22090   3.578   2.085   1.250
 7064SOL    HW122091   3.637   2.092   1.169
 7064SOL    HW222092   3.592   2.165   1.308
 7065SOL     OW22093   3.898   4.109   5.943
 7065SOL    HW122094   3.921   4.012   5.944
 7065SOL    HW222095   3.799   4.119   5.949
 7066SOL     OW22096   4.697   0.449   0.499
 7066SOL    HW122097   4.689   0.429   0.401
 7066SOL    HW222098   4.738   0.370   0.545
 7067SOL     OW22099   2.001   2.390   4.889
 7067SOL    HW122100   1.993   2.440   4.803
 7067SOL    HW222101   2.020   2.293   4.870
 7068SOL     OW22102   0.264   4.512   4.258
 7068SOL    HW122103   0.267   4.450   4.336
 7068SOL    HW222104   0.356   4.525   4.223
 7069SOL     OW22105   5.527   1.099   4.656
 7069SOL    HW122106   5.480   1.182   4.628
 7069SOL    HW222107   5.551   1.045   4.575
 7070SOL     OW22108   6.854   6.175   4.752
 7070SOL    HW122109   6.870   6.268   4.720
 7070SOL    HW222110   6.829   6.177   4.849
 7071SOL     OW22111   2.494   5.690   6.421
 7071SOL    HW122112   2.536   5.616   6.368
 7071SOL    HW222113   2.565   5.743   6.468
 7072SOL     OW22114   1.326   6.263   6.903
 7072SOL    HW122115   1.270   6.340   6.874
 7072SOL    HW222116   1.340   6.201   6.826
 7073SOL     OW22117   4.633   6.946   4.840
 7073SOL    HW122118   4.540   6.960   4.805
 7073SOL    HW222119   4.676   0.017   4.857
 7074SOL     OW22120   4.620   2.591   2.676
 7074SOL    HW122121   4.577   2.500   2.676
 7074SOL    HW222122   4.666   2.606   2.588
 7075SOL     OW22123   1.702   4.113   4.990
 7075SOL    HW122124   1.760   4.043   5.031
 7075SOL    HW222125   1.606   4.088   5.000
 7076SOL     OW22126   5.885   1.944   6.287
 7076SOL    HW122127   5.920   1.888   6.362
 7076SOL    HW222128   5.915   1.905   6.200
 7077SOL     OW22129   2.153   4.588   3.811
 7077SOL    HW122130   2.200   4.587   3.722
 7077SOL    HW222131   2.218   4.610   3.883
 7078SOL     OW22132   0.270   6.741   1.563
 7078SOL    HW122133   0.178   6.744   1.603
 7078SOL    HW222134   0.284   6.820   1.505
 7079SOL     OW22135   6.824   6.004   4.009
 7079SOL    HW122136   6.755   6.064   4.050
 7079SOL    HW222137   6.914   6.043   4.023
 7080SOL     OW22138   3.011   1.506   4.578
 7080SOL    HW122139   3.065   1.589   4.592
 7080SOL    HW222140   2.988   1.467   4.667
 7081SOL     OW22141   3.369   6.872   6.726
 7081SOL    HW122142   3.423   6.803   6.775
 7081SOL    HW222143   3.344   6.836   6.636
 7082SOL     OW22144   6.681   4.053   6.784
 7082SOL    HW122145   6.668   4.035   6.881
 7082SOL    HW222146   6.593   4.080   6.743
 7083SOL     OW22147   2.929   0.242   0.705
 7083SOL    HW122148   2.905   0.268   0.799
 7083SOL    HW222149   3.006   0.296   0.674
 7084SOL     OW22150   0.139   6.088   5.675
 7084SOL    HW122151   0.150   6.185   5.656
 7084SOL    HW222152   0.182   6.066   5.762
 7085SOL     OW22153   0.799   1.815   1.854
 7085SOL    HW122154   0.862   1.751   1.809
 7085SOL    HW222155   0.820   1.908   1.826
 7086SOL     OW22156   5.269   0.403   5.466
 7086SOL    HW122157   5.270   0.431   5.370
 7086SOL    HW222158   5.316   0.472   5.521
 7087SOL     OW22159   5.963   3.448   4.268
 7087SOL    HW122160   5.881   3.394   4.247
 7087SOL    HW222161   6.031   3.435   4.196
 7088SOL     OW22162   5.878   2.735   3.465
 7088SOL    HW122163   5.906   2.730   3.369
 7088SOL    HW222164   5.778   2.725   3.471
 7089SOL     OW22165   2.759   2.289   4.700
 7089SOL    HW122166   2.693   2.361   4.678
 7089SOL    HW222167   2.764   2.277   4.799
 7090SOL     OW22168   2.038   0.629   6.685
 7090SOL    HW122169   2.110   0.571   6.648
 7090SOL    HW222170   1.960   0.629   6.623
 7091SOL     OW22171   0.639   1.574   6.931
 7091SOL    HW122172   0.547   1.596   6.897
 7091SOL    HW222173   0.631   1.522   7.016
 7092SOL     OW22174   4.114   3.122   5.769
 7092SOL    HW122175   4.105   3.090   5.863
 7092SOL    HW222176   4.061   3.064   5.708
 7093SOL     OW22177   2.880   3.765   3.108
 7093SOL    HW122178   2.920   3.849   3.071
 7093SOL    HW222179   2.910   3.687   3.052
 7094SOL     OW22180   6.664   6.213   5.742
 7094SOL    HW122181   6.733   6.144   5.762
 7094SOL    HW222182   6.637   6.207   5.646
 7095SOL     OW22183   3.883   4.381   5.979
 7095SOL    HW122184   3.926   4.429   5.903
 7095SOL    HW222185   3.925   4.291   5.990
 7096SOL     OW22186   6.325   0.436   3.661
 7096SOL    HW122187   6.231   0.454   3.691
 7096SOL    HW222188   6.377   0.395   3.735
 7097SOL     OW22189   5.897   2.065   1.195
 7097SOL    HW122190   5.826   2.126   1.160
 7097SOL    HW222191   5.882   2.050   1.293
 7098SOL     OW22192   1.380   5.845   5.375
 7098SOL    HW122193   1.409   5.762   5.423
 7098SOL    HW222194   1.346   5.821   5.284
 7099SOL     OW22195   3.475   1.027   5.455
 7099SOL    HW122196   3.484   1.034   5.356
 7099SOL    HW222197   3.437   1.111   5.492
 7100SOL     OW22198   5.493   3.172   0.767
 7100SOL    HW122199   5.510   3.148   0.672
 7100SOL    HW222200   5.395   3.186   0.781
 7101SOL     OW22201   1.757   0.570   4.778
 7101SOL    HW122202   1.759   0.520   4.691
 7101SOL    HW222203   1.697   0.522   4.842
 7102SOL     OW22204   5.714   6.426   0.820
 7102SOL    HW122205   5.720   6.449   0.723
 7102SOL    HW222206   5.760   6.496   0.874
 7103SOL     OW22207   4.803   4.649   1.991
 7103SOL    HW122208   4.729   4.662   1.926
 7103SOL    HW222209   4.833   4.553   1.989
 7104SOL     OW22210   0.238   2.561   4.221
 7104SOL    HW122211   0.156   2.518   4.181
 7104SOL    HW222212   0.319   2.526   4.174
 7105SOL     OW22213   2.821   3.255   5.572
 7105SOL    HW122214   2.760   3.263   5.651
 7105SOL    HW222215   2.774   3.289   5.490
 7106SOL     OW22216   4.124   3.567   3.032
 7106SOL    HW122217   4.144   3.565   2.934
 7106SOL    HW222218   4.057   3.496   3.053
 7107SOL     OW22219   4.533   0.844   0.790
 7107SOL    HW122220   4.552   0.890   0.876
 7107SOL    HW222221   4.610   0.785   0.765
 7108SOL     OW22222   4.145   6.009   2.707
 7108SOL    HW122223   4.134   5.921   2.662
 7108SOL    HW222224   4.241   6.036   2.705
 7109SOL     OW22225   2.876   0.438   6.210
 7109SOL    HW122226   2.784   0.430   6.172
 7109SOL    HW222227   2.943   0.411   6.141
 7110SOL     OW22228   2.735   5.792   4.262
 7110SOL    HW122229   2.768   5.866   4.321
 7110SOL    HW222230   2.762   5.811   4.167
 7111SOL     OW22231   1.407   2.869   4.987
 7111SOL    HW122232   1.354   2.952   5.002
 7111SOL    HW222233   1.354   2.789   5.015
 7112SOL     OW22234   1.449   4.653   4.704
 7112SOL    HW122235   1.353   4.641   4.729
 7112SOL    HW222236   1.481   4.743   4.735
 7113SOL     OW22237   4.107   3.548   4.745
 7113SOL    HW122238   4.070   3.635   4.776
 7113SOL    HW222239   4.132   3.492   4.824
 7114SOL     OW22240   4.751   6.346   1.528
 7114SOL    HW122241   4.693   6.298   1.462
 7114SOL    HW222242   4.760   6.291   1.611
 7115SOL     OW22243   5.333   3.163   1.139
 7115SOL    HW122244   5.275   3.196   1.213
 7115SOL    HW222245   5.283   3.094   1.086
 7116SOL     OW22246   6.409   3.847   3.561
 7116SOL    HW122247   6.506   3.865   3.548
 7116SOL    HW222248   6.362   3.850   3.473
 7117SOL     OW22249   0.027   6.376   5.301
 7117SOL    HW122250   0.067   6.293   5.262
 7117SOL    HW222251   0.100   6.440   5.325
 7118SOL     OW22252   2.948   4.577   0.530
 7118SOL    HW122253   2.966   4.478   0.530
 7118SOL    HW222254   3.008   4.621   0.464
 7119SOL     OW22255   5.188   2.443   3.651
 7119SOL    HW122256   5.264   2.462   3.713
 7119SOL    HW222257   5.173   2.344   3.647
 7120SOL     OW22258   3.681   1.619   2.233
 7120SOL    HW122259   3.715   1.660   2.149
 7120SOL    HW222260   3.581   1.615   2.231
 7121SOL     OW22261   0.814   0.228   3.313
 7121SOL    HW122262   0.839   0.137   3.346
 7121SOL    HW222263   0.770   0.221   3.224
 7122SOL     OW22264   1.052   0.161   5.383
 7122SOL    HW122265   1.147   0.184   5.406
 7122SOL    HW222266   0.996   0.160   5.466
 7123SOL     OW22267   1.928   4.029   2.962
 7123SOL    HW122268   1.896   4.123   2.947
 7123SOL    HW222269   1.904   3.973   2.883
 7124SOL     OW22270   6.765   2.008   1.367
 7124SOL    HW122271   6.726   1.964   1.286
 7124SOL    HW222272   6.820   1.942   1.418
 7125SOL     OW22273   0.025   6.686   1.073
 7125SOL    HW122274   0.099   6.627   1.106
 7125SOL    HW222275   0.056   6.738   0.994
 7126SOL     OW22276   3.500   5.076   0.332
 7126SOL    HW122277   3.510   4.977   0.322
 7126SOL    HW222278   3.421   5.107   0.279
 7127SOL     OW22279   1.540   4.876   5.588
 7127SOL    HW122280   1.548   4.935   5.669
 7127SOL    HW222281   1.535   4.781   5.617
 7128SOL     OW22282   2.559   5.038   0.100
 7128SOL    HW122283   2.589   4.959   0.153
 7128SOL    HW222284   2.531   5.111   0.162
 7129SOL     OW22285   2.230   1.863   0.067
 7129SOL    HW122286   2.183   1.787   0.021
 7129SOL    HW222287   2.260   1.929   7.017
 7130SOL     OW22288   4.404   5.446   5.000
 7130SOL    HW122289   4.460   5.396   4.933
 7130SOL    HW222290   4.322   5.481   4.956
 7131SOL     OW22291   2.924   0.249   0.969
 7131SOL    HW122292   2.866   0.182   1.016
 7131SOL    HW222293   2.956   0.317   1.034
 7132SOL     OW22294   4.266   4.338   6.942
 7132SOL    HW122295   4.187   4.398   6.937
 7132SOL    HW222296   4.268   4.293   0.014
 7133SOL     OW22297   5.135   5.935   6.199
 7133SOL    HW122298   5.195   5.912   6.276
 7133SOL    HW222299   5.076   5.857   6.178
 7134SOL     OW22300   5.194   0.006   2.043
 7134SOL    HW122301   5.268   0.006   2.111
 7134SOL    HW222302   5.154   0.098   2.038
 7135SOL     OW22303   1.644   2.654   2.896
 7135SOL    HW122304   1.741   2.672   2.911
 7135SOL    HW222305   1.596   2.740   2.883
 7136SOL     OW22306   2.407   2.992   1.154
 7136SOL    HW122307   2.322   2.959   1.114
 7136SOL    HW222308   2.462   2.914   1.184
 7137SOL     OW22309   4.126   0.149   6.303
 7137SOL    HW122310   4.131   0.249   6.293
 7137SOL    HW222311   4.034   0.124   6.333
 7138SOL     OW22312   2.217   2.307   0.518
 7138SOL    HW122313   2.151   2.358   0.462
 7138SOL    HW222314   2.258   2.369   0.585
 7139SOL     OW22315   5.734   4.237   1.448
 7139SOL    HW122316   5.684   4.321   1.430
 7139SOL    HW222317   5.832   4.258   1.457
 7140SOL     OW22318   6.207   3.704   3.050
 7140SOL    HW122319   6.142   3.719   3.124
 7140SOL    HW222320   6.300   3.703   3.087
 7141SOL     OW22321   3.776   6.194   1.184
 7141SOL    HW122322   3.802   6.240   1.269
 7141SOL    HW222323   3.812   6.100   1.185
 7142SOL     OW22324   4.314   0.249   3.452
 7142SOL    HW122325   4.276   0.342   3.446
 7142SOL    HW222326   4.355   0.224   3.364
 7143SOL     OW22327   1.314   2.763   5.894
 7143SOL    HW122328   1.359   2.684   5.936
 7143SOL    HW222329   1.275   2.736   5.806
 7144SOL     OW22330   1.850   2.651   2.123
 7144SOL    HW122331   1.768   2.707   2.111
 7144SOL    HW222332   1.836   2.590   2.201
 7145SOL     OW22333   4.581   0.160   0.309
 7145SOL    HW122334   4.609   0.252   0.281
 7145SOL    HW222335   4.640   0.128   0.383
 7146SOL     OW22336   2.071   0.135   0.687
 7146SOL    HW122337   1.972   0.121   0.693
 7146SOL    HW222338   2.109   0.144   0.779
 7147SOL     OW22339   6.931   6.833   2.962
 7147SOL    HW122340   6.898   6.890   3.036
 7147SOL    HW222341   6.893   6.865   2.875
 7148SOL     OW22342   0.527   5.940   1.237
 7148SOL    HW122343   0.445   5.925   1.183
 7148SOL    HW222344   0.604   5.960   1.177
 7149SOL     OW22345   6.128   6.222   3.395
 7149SOL    HW122346   6.225   6.234   3.375
 7149SOL    HW222347   6.087   6.160   3.328
 7150SOL     OW22348   3.182   2.394   1.651
 7150SOL    HW122349   3.105   2.376   1.713
 7150SOL    HW222350   3.263   2.347   1.685
 7151SOL     OW22351   2.803   6.247   0.462
 7151SOL    HW122352   2.865   6.187   0.513
 7151SOL    HW222353   2.852   6.289   0.386
 7152SOL     OW22354   0.781   0.486   5.321
 7152SOL    HW122355   0.855   0.513   5.383
 7152SOL    HW222356   0.708   0.555   5.325
 7153SOL     OW22357   4.069   5.429   1.692
 7153SOL    HW122358   3.990   5.421   1.752
 7153SOL    HW222359   4.080   5.525   1.664
 7154SOL     OW22360   4.388   0.136   3.808
 7154SOL    HW122361   4.487   0.137   3.819
 7154SOL    HW222362   4.358   0.046   3.777
 7155SOL     OW22363   1.782   3.317   1.329
 7155SOL    HW122364   1.796   3.306   1.428
 7155SOL    HW222365   1.869   3.302   1.281
 7156SOL     OW22366   6.760   2.997   4.133
 7156SOL    HW122367   6.787   2.901   4.131
 7156SOL    HW222368   6.810   3.048   4.064
 7157SOL     OW22369   0.477   3.597   1.404
 7157SOL    HW122370   0.474   3.681   1.458
 7157SOL    HW222371   0.397   3.540   1.426
 7158SOL     OW22372   1.479   0.285   4.061
 7158SOL    HW122373   1.540   0.306   3.984
 7158SOL    HW222374   1.462   0.186   4.063
 7159SOL     OW22375   0.449   5.176   2.365
 7159SOL    HW122376   0.451   5.176   2.265
 7159SOL    HW222377   0.489   5.261   2.400
 7160SOL     OW22378   5.606   0.179   2.755
 7160SOL    HW122379   5.655   0.221   2.679
 7160SOL    HW222380   5.632   0.225   2.840
 7161SOL     OW22381   3.177   4.113   4.065
 7161SOL    HW122382   3.096   4.087   4.012
 7161SOL    HW222383   3.165   4.083   4.160
 7162SOL     OW22384   1.071   5.167   6.379
 7162SOL    HW122385   1.160   5.204   6.405
 7162SOL    HW222386   1.021   5.234   6.325
 7163SOL     OW22387   2.887   6.508   2.335
 7163SOL    HW122388   2.880   6.592   2.389
 7163SOL    HW222389   2.921   6.434   2.393
 7164SOL     OW22390   2.559   0.233   3.961
 7164SOL    HW122391   2.572   0.259   3.865
 7164SOL    HW222392   2.612   0.294   4.020
 7165SOL     OW22393   6.270   0.963   2.840
 7165SOL    HW122394   6.344   0.947   2.774
 7165SOL    HW222395   6.264   1.060   2.861
 7166SOL     OW22396   5.457   2.083   1.082
 7166SOL    HW122397   5.363   2.063   1.110
 7166SOL    HW222398   5.472   2.182   1.084
 7167SOL     OW22399   5.412   3.608   4.033
 7167SOL    HW122400   5.398   3.515   4.001
 7167SOL    HW222401   5.334   3.665   4.005
 7168SOL     OW22402   1.431   2.981   3.038
 7168SOL    HW122403   1.405   2.934   2.954
 7168SOL    HW222404   1.351   3.024   3.079
 7169SOL     OW22405   0.457   2.600   5.324
 7169SOL    HW122406   0.417   2.688   5.349
 7169SOL    HW222407   0.535   2.580   5.384
 7170SOL     OW22408   4.682   0.383   4.003
 7170SOL    HW122409   4.726   0.470   3.981
 7170SOL    HW222410   4.723   0.345   4.086
 7171SOL     OW22411   5.925   3.655   0.235
 7171SOL    HW122412   5.942   3.574   0.178
 7171SOL    HW222413   5.881   3.726   0.179
 7172SOL     OW22414   1.184   6.741   4.343
 7172SOL    HW122415   1.273   6.765   4.303
 7172SOL    HW222416   1.138   6.825   4.374
 7173SOL     OW22417   6.513   4.220   6.359
 7173SOL    HW122418   6.429   4.262   6.393
 7173SOL    HW222419   6.592   4.260   6.405
 7174SOL     OW22420   1.732   4.227   0.310
 7174SOL    HW122421   1.784   4.171   0.245
 7174SOL    HW222422   1.636   4.232   0.281
 7175SOL     OW22423   5.644   2.864   6.772
 7175SOL    HW122424   5.646   2.788   6.707
 7175SOL    HW222425   5.550   2.898   6.782
 7176SOL     OW22426   0.021   0.409   3.121
 7176SOL    HW122427   6.939   0.402   3.136
 7176SOL    HW222428   0.044   0.502   3.095
 7177SOL     OW22429   1.550   4.928   4.747
 7177SOL    HW122430   1.477   4.980   4.704
 7177SOL    HW222431   1.583   4.976   4.828
 7178SOL     OW22432   1.467   1.716   5.712
 7178SOL    HW122433   1.543   1.678   5.764
 7178SOL    HW222434   1.394   1.648   5.705
 7179SOL     OW22435   2.151   3.794   4.550
 7179SOL    HW122436   2.120   3.705   4.583
 7179SOL    HW222437   2.173   3.852   4.628
 7180SOL     OW22438   1.992   5.348   0.633
 7180SOL    HW122439   2.055   5.313   0.563
 7180SOL    HW222440   1.968   5.443   0.611
 7181SOL     OW22441   2.189   6.767   0.115
 7181SOL    HW122442   2.165   6.760   0.018
 7181SOL    HW222443   2.226   6.857   0.134
 7182SOL     OW22444   0.626   2.589   4.502
 7182SOL    HW122445   0.647   2.540   4.587
 7182SOL    HW222446   0.531   2.572   4.476
 7183SOL     OW22447   2.336   6.035   0.347
 7183SOL    HW122448   2.266   5.975   0.308
 7183SOL    HW222449   2.295   6.094   0.416
 7184SOL     OW22450   6.798   1.059   3.590
 7184SOL    HW122451   6.810   1.075   3.687
 7184SOL    HW222452   6.849   1.128   3.538
 7185SOL     OW22453   5.610   0.104   4.997
 7185SOL    HW122454   5.618   0.188   5.050
 7185SOL    HW222455   5.533   0.111   4.934
 7186SOL     OW22456   6.866   1.640   0.422
 7186SOL    HW122457   6.873   1.706   0.497
 7186SOL    HW222458   6.782   1.587   0.432
 7187SOL     OW22459   4.286   4.802   6.519
 7187SOL    HW122460   4.268   4.739   6.594
 7187SOL    HW222461   4.301   4.751   6.435
 7188SOL     OW22462   5.965   0.791   0.310
 7188SOL    HW122463   5.909   0.805   0.228
 7188SOL    HW222464   5.910   0.749   0.382
 7189SOL     OW22465   0.044   1.089   5.914
 7189SOL    HW122466   7.004   1.019   5.956
 7189SOL    HW222467   0.015   1.104   5.819
 7190SOL     OW22468   0.310   3.245   2.407
 7190SOL    HW122469   0.210   3.249   2.419
 7190SOL    HW222470   0.339   3.321   2.349
 7191SOL     OW22471   0.749   4.512   2.985
 7191SOL    HW122472   0.715   4.535   3.076
 7191SOL    HW222473   0.753   4.595   2.929
 7192SOL     OW22474   2.780   4.294   5.967
 7192SOL    HW122475   2.692   4.277   6.011
 7192SOL    HW222476   2.813   4.385   5.992
 7193SOL     OW22477   0.419   2.540   2.395
 7193SOL    HW122478   0.443   2.571   2.303
 7193SOL    HW222479   0.401   2.620   2.453
 7194SOL     OW22480   2.706   2.177   0.330
 7194SOL    HW122481   2.660   2.091   0.310
 7194SOL    HW222482   2.638   2.251   0.336
 7195SOL     OW22483   0.459   3.876   6.481
 7195SOL    HW122484   0.414   3.886   6.570
 7195SOL    HW222485   0.522   3.799   6.484
 7196SOL     OW22486   2.981   4.262   1.192
 7196SOL    HW122487   2.908   4.279   1.125
 7196SOL    HW222488   3.063   4.232   1.144
 7197SOL     OW22489   0.329   2.407   6.338
 7197SOL    HW122490   0.262   2.418   6.265
 7197SOL    HW222491   0.362   2.497   6.367
 7198SOL     OW22492   6.707   0.519   0.746
 7198SOL    HW122493   6.776   0.463   0.700
 7198SOL    HW222494   6.749   0.602   0.781
 7199SOL     OW22495   1.992   0.939   2.138
 7199SOL    HW122496   2.086   0.962   2.116
 7199SOL    HW222497   1.989   0.850   2.183
 7200SOL     OW22498   2.449   2.326   6.586
 7200SOL    HW122499   2.353   2.306   6.603
 7200SOL    HW222500   2.457   2.404   6.525
 7201SOL     OW22501   0.821   5.593   4.865
 7201SOL    HW122502   0.747   5.578   4.931
 7201SOL    HW222503   0.827   5.515   4.803
 7202SOL     OW22504   5.235   0.053   6.986
 7202SOL    HW122505   5.153   0.069   0.023
 7202SOL    HW222506   5.248   6.972   6.974
 7203SOL     OW22507   0.315   1.831   0.844
 7203SOL    HW122508   0.308   1.759   0.774
 7203SOL    HW222509   0.357   1.912   0.804
 7204SOL     OW22510   0.471   0.141   5.729
 7204SOL    HW122511   0.390   0.177   5.683
 7204SOL    HW222512   0.553   0.167   5.677
 7205SOL     OW22513   0.864   4.860   3.959
 7205SOL    HW122514   0.859   4.777   4.014
 7205SOL    HW222515   0.912   4.931   4.009
 7206SOL     OW22516   1.242   0.458   1.803
 7206SOL    HW122517   1.168   0.467   1.736
 7206SOL    HW222518   1.216   0.390   1.872
 7207SOL     OW22519   3.735   0.095   2.718
 7207SOL    HW122520   3.741   0.182   2.669
 7207SOL    HW222521   3.726   0.021   2.652
 7208SOL     OW22522   4.174   6.970   3.192
 7208SOL    HW122523   4.226   0.038   3.195
 7208SOL    HW222524   4.099   6.974   3.259
 7209SOL     OW22525   3.230   3.416   1.344
 7209SOL    HW122526   3.305   3.402   1.408
 7209SOL    HW222527   3.266   3.449   1.256
 7210SOL     OW22528   4.329   1.213   3.905
 7210SOL    HW122529   4.292   1.203   3.813
 7210SOL    HW222530   4.262   1.181   3.972
 7211SOL     OW22531   3.051   6.258   4.473
 7211SOL    HW122532   3.057   6.354   4.445
 7211SOL    HW222533   2.998   6.207   4.405
 7212SOL     OW22534   0.330   6.018   4.728
 7212SOL    HW122535   0.298   5.950   4.794
 7212SOL    HW222536   0.297   5.994   4.637
 7213SOL     OW22537   5.254   6.295   0.198
 7213SOL    HW122538   5.335   6.238   0.199
 7213SOL    HW222539   5.227   6.314   0.104
 7214SOL     OW22540   6.408   5.773   5.685
 7214SOL    HW122541   6.506   5.794   5.683
 7214SOL    HW222542   6.357   5.851   5.650
 7215SOL     OW22543   0.065   3.928   5.115
 7215SOL    HW122544   7.006   3.863   5.119
 7215SOL    HW222545   0.152   3.877   5.119
 7216SOL     OW22546   3.235   6.528   6.988
 7216SOL    HW122547   3.211   6.439   6.950
 7216SOL    HW222548   3.333   6.544   6.979
 7217SOL     OW22549   2.353   4.451   3.144
 7217SOL    HW122550   2.389   4.527   3.089
 7217SOL    HW222551   2.328   4.376   3.084
 7218SOL     OW22552   5.363   2.741   5.383
 7218SOL    HW122553   5.328   2.660   5.335
 7218SOL    HW222554   5.301   2.818   5.368
 7219SOL     OW22555   4.526   0.390   3.614
 7219SOL    HW122556   4.512   0.486   3.592
 7219SOL    HW222557   4.454   0.335   3.572
 7220SOL     OW22558   1.217   5.196   5.186
 7220SOL    HW122559   1.233   5.150   5.098
 7220SOL    HW222560   1.301   5.192   5.241
 7221SOL     OW22561   3.459   6.061   4.688
 7221SOL    HW122562   3.466   6.002   4.608
 7221SOL    HW222563   3.495   6.152   4.665
 7222SOL     OW22564   5.855   6.986   2.912
 7222SOL    HW122565   5.886   6.923   2.983
 7222SOL    HW222566   5.795   0.038   2.953
 7223SOL     OW22567   2.895   1.229   1.103
 7223SOL    HW122568   2.958   1.273   1.167
 7223SOL    HW222569   2.806   1.274   1.107
 7224SOL     OW22570   5.815   1.708   3.785
 7224SOL    HW122571   5.835   1.706   3.687
 7224SOL    HW222572   5.897   1.736   3.835
 7225SOL     OW22573   1.121   5.259   0.436
 7225SOL    HW122574   1.121   5.306   0.348
 7225SOL    HW222575   1.171   5.314   0.503
 7226SOL     OW22576   6.781   1.543   1.130
 7226SOL    HW122577   6.806   1.452   1.098
 7226SOL    HW222578   6.761   1.539   1.228
 7227SOL     OW22579   1.646   1.741   0.912
 7227SOL    HW122580   1.722   1.682   0.884
 7227SOL    HW222581   1.592   1.766   0.832
 7228SOL     OW22582   1.201   1.923   2.895
 7228SOL    HW122583   1.200   1.980   2.978
 7228SOL    HW222584   1.133   1.956   2.831
 7229SOL     OW22585   1.268   6.048   5.940
 7229SOL    HW122586   1.188   5.992   5.964
 7229SOL    HW222587   1.328   6.056   6.020
 7230SOL     OW22588   3.896   5.303   4.660
 7230SOL    HW122589   3.870   5.282   4.754
 7230SOL    HW222590   3.859   5.233   4.599
 7231SOL     OW22591   4.244   0.834   6.950
 7231SOL    HW122592   4.219   0.910   6.890
 7231SOL    HW222593   4.336   0.801   6.925
 7232SOL     OW22594   5.261   5.937   3.130
 7232SOL    HW122595   5.171   5.896   3.116
 7232SOL    HW222596   5.314   5.880   3.193
 7233SOL     OW22597   0.429   1.563   4.297
 7233SOL    HW122598   0.482   1.501   4.239
 7233SOL    HW222599   0.491   1.623   4.347
 7234SOL     OW22600   5.573   3.297   3.568
 7234SOL    HW122601   5.670   3.295   3.593
 7234SOL    HW222602   5.539   3.391   3.574
 7235SOL     OW22603   6.547   4.330   2.139
 7235SOL    HW122604   6.562   4.401   2.071
 7235SOL    HW222605   6.489   4.366   2.212
 7236SOL     OW22606   2.123   1.843   1.190
 7236SOL    HW122607   2.101   1.775   1.260
 7236SOL    HW222608   2.061   1.921   1.199
 7237SOL     OW22609   4.342   1.044   4.674
 7237SOL    HW122610   4.369   0.948   4.664
 7237SOL    HW222611   4.357   1.092   4.588
 7238SOL     OW22612   3.974   1.719   1.286
 7238SOL    HW122613   4.005   1.628   1.314
 7238SOL    HW222614   3.919   1.711   1.203
 7239SOL     OW22615   1.400   2.444   2.920
 7239SOL    HW122616   1.337   2.420   2.847
 7239SOL    HW222617   1.445   2.531   2.898
 7240SOL     OW22618   1.640   5.858   5.964
 7240SOL    HW122619   1.730   5.828   5.995
 7240SOL    HW222620   1.624   5.952   5.995
 7241SOL     OW22621   1.600   1.088   0.433
 7241SOL    HW122622   1.561   1.130   0.351
 7241SOL    HW222623   1.670   1.021   0.406
 7242SOL     OW22624   6.636   5.888   0.411
 7242SOL    HW122625   6.542   5.893   0.443
 7242SOL    HW222626   6.636   5.873   0.312
 7243SOL     OW22627   6.375   4.534   6.100
 7243SOL    HW122628   6.402   4.571   6.012
 7243SOL    HW222629   6.309   4.461   6.087
 7244SOL     OW22630   6.035   1.633   1.866
 7244SOL    HW122631   6.040   1.636   1.766
 7244SOL    HW222632   6.004   1.722   1.901
 7245SOL     OW22633   1.238   1.774   4.589
 7245SOL    HW122634   1.165   1.707   4.598
 7245SOL    HW222635   1.280   1.766   4.499
 7246SOL     OW22636   6.698   0.332   4.593
 7246SOL    HW122637   6.722   0.242   4.556
 7246SOL    HW222638   6.688   0.327   4.692
 7247SOL     OW22639   2.701   0.168   4.405
 7247SOL    HW122640   2.678   0.076   4.371
 7247SOL    HW222641   2.773   0.207   4.348
 7248SOL     OW22642   2.259   1.483   3.558
 7248SOL    HW122643   2.351   1.472   3.597
 7248SOL    HW222644   2.266   1.528   3.469
 7249SOL     OW22645   6.562   4.445   2.663
 7249SOL    HW122646   6.649   4.493   2.664
 7249SOL    HW222647   6.569   4.364   2.605
 7250SOL     OW22648   4.620   0.027   6.444
 7250SOL    HW122649   4.681   0.023   6.365
 7250SOL    HW222650   4.634   6.963   6.501
 7251SOL     OW22651   0.429   6.495   5.745
 7251SOL    HW122652   0.378   6.521   5.663
 7251SOL    HW222653   0.512   6.446   5.719
 7252SOL     OW22654   3.430   3.537   2.856
 7252SOL    HW122655   3.517   3.556   2.901
 7252SOL    HW222656   3.427   3.440   2.830
 7253SOL     OW22657   2.592   6.716   6.223
 7253SOL    HW122658   2.515   6.779   6.218
 7253SOL    HW222659   2.567   6.629   6.181
 7254SOL     OW22660   4.395   5.034   3.751
 7254SOL    HW122661   4.314   4.975   3.762
 7254SOL    HW222662   4.477   4.984   3.779
 7255SOL     OW22663   3.481   3.116   0.711
 7255SOL    HW122664   3.424   3.192   0.740
 7255SOL    HW222665   3.568   3.150   0.677
 7256SOL     OW22666   4.028   4.931   4.138
 7256SOL    HW122667   3.983   4.944   4.226
 7256SOL    HW222668   4.127   4.946   4.149
 7257SOL     OW22669   5.624   3.107   3.863
 7257SOL    HW122670   5.644   3.033   3.927
 7257SOL    HW222671   5.528   3.102   3.834
 7258SOL     OW22672   4.010   1.649   3.468
 7258SOL    HW122673   3.919   1.691   3.474
 7258SOL    HW222674   4.080   1.721   3.474
 7259SOL     OW22675   2.766   3.455   0.852
 7259SOL    HW122676   2.687   3.514   0.843
 7259SOL    HW222677   2.742   3.362   0.823
 7260SOL     OW22678   3.421   1.818   1.817
 7260SOL    HW122679   3.367   1.893   1.855
 7260SOL    HW222680   3.510   1.814   1.863
 7261SOL     OW22681   1.421   2.534   1.403
 7261SOL    HW122682   1.368   2.473   1.462
 7261SOL    HW222683   1.483   2.590   1.458
 7262SOL     OW22684   5.279   1.450   5.624
 7262SOL    HW122685   5.273   1.441   5.724
 7262SOL    HW222686   5.369   1.419   5.594
 7263SOL     OW22687   1.058   6.807   0.994
 7263SOL    HW122688   0.964   6.835   0.980
 7263SOL    HW222689   1.066   6.708   0.985
 7264SOL     OW22690   5.495   1.029   6.238
 7264SOL    HW122691   5.585   1.071   6.249
 7264SOL    HW222692   5.486   0.953   6.302
 7265SOL     OW22693   5.474   5.417   5.783
 7265SOL    HW122694   5.534   5.355   5.733
 7265SOL    HW222695   5.528   5.488   5.829
 7266SOL     OW22696   5.823   0.128   1.409
 7266SOL    HW122697   5.826   0.123   1.309
 7266SOL    HW222698   5.843   0.222   1.438
 7267SOL     OW22699   6.347   5.774   5.302
 7267SOL    HW122700   6.254   5.739   5.304
 7267SOL    HW222701   6.347   5.872   5.321
 7268SOL     OW22702   5.194   5.038   3.055
 7268SOL    HW122703   5.255   4.978   3.106
 7268SOL    HW222704   5.220   5.133   3.072
 7269SOL     OW22705   0.269   6.258   0.843
 7269SOL    HW122706   0.312   6.168   0.841
 7269SOL    HW222707   0.266   6.295   0.750
 7270SOL     OW22708   0.911   3.495   5.224
 7270SOL    HW122709   0.879   3.513   5.317
 7270SOL    HW222710   0.891   3.400   5.200
 7271SOL     OW22711   0.010   6.237   3.511
 7271SOL    HW122712   6.963   6.242   3.434
 7271SOL    HW222713   0.061   6.322   3.518
 7272SOL     OW22714   5.357   5.296   2.204
 7272SOL    HW122715   5.305   5.283   2.288
 7272SOL    HW222716   5.417   5.217   2.189
 7273SOL     OW22717   5.497   3.970   1.755
 7273SOL    HW122718   5.538   4.049   1.709
 7273SOL    HW222719   5.398   3.971   1.741
 7274SOL     OW22720   0.758   5.888   7.010
 7274SOL    HW122721   0.838   5.830   7.004
 7274SOL    HW222722   0.712   5.892   6.921
 7275SOL     OW22723   6.799   0.274   2.923
 7275SOL    HW122724   6.746   0.359   2.916
 7275SOL    HW222725   6.808   0.249   3.019
 7276SOL     OW22726   3.617   1.639   2.737
 7276SOL    HW122727   3.566   1.564   2.695
 7276SOL    HW222728   3.567   1.724   2.724
 7277SOL     OW22729   4.403   0.888   4.210
 7277SOL    HW122730   4.304   0.900   4.205
 7277SOL    HW222731   4.431   0.888   4.306
 7278SOL     OW22732   3.329   2.152   1.499
 7278SOL    HW122733   3.354   2.188   1.589
 7278SOL    HW222734   3.356   2.056   1.492
 7279SOL     OW22735   4.400   3.422   6.143
 7279SOL    HW122736   4.337   3.350   6.173
 7279SOL    HW222737   4.381   3.506   6.195
 7280SOL     OW22738   0.270   1.479   4.081
 7280SOL    HW122739   0.172   1.469   4.097
 7280SOL    HW222740   0.314   1.510   4.165
 7281SOL     OW22741   1.813   0.764   0.301
 7281SOL    HW122742   1.741   0.737   0.366
 7281SOL    HW222743   1.776   0.765   0.209
 7282SOL     OW22744   6.017   6.777   1.466
 7282SOL    HW122745   6.058   6.687   1.484
 7282SOL    HW222746   5.976   6.777   1.375
 7283SOL     OW22747   3.458   0.348   1.708
 7283SOL    HW122748   3.419   0.440   1.717
 7283SOL    HW222749   3.427   0.292   1.785
 7284SOL     OW22750   6.915   1.934   5.196
 7284SOL    HW122751   6.917   1.873   5.117
 7284SOL    HW222752   6.833   1.917   5.250
 7285SOL     OW22753   5.814   3.527   1.373
 7285SOL    HW122754   5.791   3.439   1.414
 7285SOL    HW222755   5.730   3.580   1.359
 7286SOL     OW22756   1.270   0.916   1.072
 7286SOL    HW122757   1.194   0.949   1.016
 7286SOL    HW222758   1.333   0.863   1.017
 7287SOL     OW22759   6.578   2.835   5.024
 7287SOL    HW122760   6.593   2.887   5.109
 7287SOL    HW222761   6.606   2.740   5.038
 7288SOL     OW22762   1.395   2.124   1.377
 7288SOL    HW122763   1.461   2.056   1.409
 7288SOL    HW222764   1.444   2.203   1.340
 7289SOL     OW22765   5.861   2.038   3.611
 7289SOL    HW122766   5.874   2.013   3.515
 7289SOL    HW222767   5.942   2.013   3.663
 7290SOL     OW22768   2.314   1.091   5.058
 7290SOL    HW122769   2.241   1.022   5.057
 7290SOL    HW222770   2.384   1.064   5.124
 7291SOL     OW22771   1.834   6.835   0.435
 7291SOL    HW122772   1.759   6.831   0.501
 7291SOL    HW222773   1.908   6.891   0.471
 7292SOL     OW22774   3.164   0.135   2.909
 7292SOL    HW122775   3.178   0.089   2.821
 7292SOL    HW222776   3.167   0.234   2.896
 7293SOL     OW22777   1.205   1.594   5.745
 7293SOL    HW122778   1.131   1.651   5.781
 7293SOL    HW222779   1.212   1.609   5.646
 7294SOL     OW22780   3.057   4.778   0.734
 7294SOL    HW122781   3.133   4.810   0.676
 7294SOL    HW222782   3.031   4.686   0.706
 7295SOL     OW22783   6.835   4.316   0.719
 7295SOL    HW122784   6.907   4.366   0.670
 7295SOL    HW222785   6.784   4.259   0.654
 7296SOL     OW22786   4.307   5.433   1.567
 7296SOL    HW122787   4.278   5.407   1.475
 7296SOL    HW222788   4.227   5.442   1.626
 7297SOL     OW22789   2.723   6.558   1.181
 7297SOL    HW122790   2.675   6.594   1.261
 7297SOL    HW222791   2.751   6.633   1.121
 7298SOL     OW22792   4.807   5.087   6.142
 7298SOL    HW122793   4.858   5.023   6.085
 7298SOL    HW222794   4.861   5.111   6.223
 7299SOL     OW22795   1.219   2.263   1.070
 7299SOL    HW122796   1.136   2.281   1.017
 7299SOL    HW222797   1.283   2.340   1.060
 7300SOL     OW22798   0.812   6.742   2.401
 7300SOL    HW122799   0.782   6.837   2.411
 7300SOL    HW222800   0.841   6.726   2.307
 7301SOL     OW22801   5.822   2.505   5.438
 7301SOL    HW122802   5.759   2.579   5.414
 7301SOL    HW222803   5.904   2.512   5.382
 7302SOL     OW22804   0.125   2.173   6.367
 7302SOL    HW122805   0.054   2.111   6.400
 7302SOL    HW222806   0.082   2.258   6.334
 7303SOL     OW22807   3.811   1.199   6.476
 7303SOL    HW122808   3.853   1.284   6.508
 7303SOL    HW222809   3.722   1.219   6.435
 7304SOL     OW22810   2.971   5.108   1.501
 7304SOL    HW122811   2.875   5.132   1.498
 7304SOL    HW222812   2.983   5.023   1.552
 7305SOL     OW22813   5.085   2.281   1.326
 7305SOL    HW122814   5.159   2.310   1.387
 7305SOL    HW222815   5.102   2.316   1.234
 7306SOL     OW22816   3.673   1.619   1.582
 7306SOL    HW122817   3.668   1.546   1.513
 7306SOL    HW222818   3.693   1.706   1.537
 7307SOL     OW22819   3.918   6.580   2.262
 7307SOL    HW122820   3.832   6.628   2.278
 7307SOL    HW222821   3.973   6.630   2.197
 7308SOL     OW22822   6.363   1.676   4.399
 7308SOL    HW122823   6.287   1.688   4.336
 7308SOL    HW222824   6.441   1.731   4.368
 7309SOL     OW22825   4.257   6.070   1.442
 7309SOL    HW122826   4.269   5.972   1.452
 7309SOL    HW222827   4.183   6.101   1.502
 7310SOL     OW22828   2.013   3.260   0.460
 7310SOL    HW122829   1.991   3.349   0.501
 7310SOL    HW222830   1.995   3.188   0.527
 7311SOL     OW22831   1.979   0.966   0.683
 7311SOL    HW122832   2.000   1.044   0.743
 7311SOL    HW222833   1.963   0.999   0.590
 7312SOL     OW22834   1.027   2.743   4.867
 7312SOL    HW122835   0.929   2.732   4.849
 7312SOL    HW222836   1.048   2.838   4.886
 7313SOL     OW22837   2.117   1.248   0.445
 7313SOL    HW122838   2.091   1.151   0.442
 7313SOL    HW222839   2.205   1.260   0.399
 7314SOL     OW22840   6.887   4.063   5.787
 7314SOL    HW122841   6.966   4.049   5.729
 7314SOL    HW222842   6.916   4.067   5.883
 7315SOL     OW22843   5.044   5.882   1.855
 7315SOL    HW122844   5.072   5.974   1.828
 7315SOL    HW222845   5.075   5.816   1.785
 7316SOL     OW22846   3.208   2.757   6.661
 7316SOL    HW122847   3.152   2.675   6.675
 7316SOL    HW222848   3.237   2.762   6.566
 7317SOL     OW22849   3.796   1.227   1.839
 7317SOL    HW122850   3.697   1.242   1.831
 7317SOL    HW222851   3.835   1.213   1.749
 7318SOL     OW22852   3.048   0.148   1.952
 7318SOL    HW122853   2.983   0.220   1.927
 7318SOL    HW222854   3.001   0.076   2.002
 7319SOL     OW22855   5.667   3.093   0.017
 7319SOL    HW122856   5.570   3.118   0.025
 7319SOL    HW222857   5.674   2.996   7.012
 7320SOL     OW22858   0.245   3.862   1.109
 7320SOL    HW122859   0.291   3.774   1.098
 7320SOL    HW222860   0.181   3.858   1.186
 7321SOL     OW22861   2.182   6.573   5.563
 7321SOL    HW122862   2.149   6.668   5.558
 7321SOL    HW222863   2.128   6.516   5.501
 7322SOL     OW22864   0.071   2.511   3.301
 7322SOL    HW122865   0.083   2.418   3.335
 7322SOL    HW222866   0.018   2.564   3.368
 7323SOL     OW22867   2.155   2.980   1.682
 7323SOL    HW122868   2.212   2.929   1.617
 7323SOL    HW222869   2.152   3.076   1.655
 7324SOL     OW22870   5.721   4.640   2.074
 7324SOL    HW122871   5.717   4.661   1.977
 7324SOL    HW222872   5.810   4.666   2.111
 7325SOL     OW22873   2.938   0.586   5.754
 7325SOL    HW122874   2.971   0.508   5.807
 7325SOL    HW222875   2.870   0.554   5.688
 7326SOL     OW22876   3.738   6.084   5.651
 7326SOL    HW122877   3.793   6.118   5.726
 7326SOL    HW222878   3.716   6.159   5.589
 7327SOL     OW22879   6.128   3.189   5.091
 7327SOL    HW122880   6.224   3.194   5.063
 7327SOL    HW222881   6.074   3.144   5.020
 7328SOL     OW22882   4.708   6.942   5.884
 7328SOL    HW122883   4.649   6.861   5.893
 7328SOL    HW222884   4.803   6.915   5.899
 7329SOL     OW22885   0.958   3.946   0.627
 7329SOL    HW122886   1.013   3.935   0.710
 7329SOL    HW222887   0.889   4.017   0.641
 7330SOL     OW22888   2.321   3.340   0.421
 7330SOL    HW122889   2.371   3.291   0.350
 7330SOL    HW222890   2.243   3.285   0.452
 7331SOL     OW22891   5.654   6.182   1.448
 7331SOL    HW122892   5.626   6.110   1.512
 7331SOL    HW222893   5.575   6.209   1.392
 7332SOL     OW22894   2.998   4.431   6.829
 7332SOL    HW122895   2.936   4.508   6.841
 7332SOL    HW222896   3.046   4.441   6.742
 7333SOL     OW22897   6.494   2.968   3.252
 7333SOL    HW122898   6.570   2.922   3.207
 7333SOL    HW222899   6.430   2.900   3.287
 7334SOL     OW22900   1.876   6.336   6.218
 7334SOL    HW122901   1.917   6.356   6.129
 7334SOL    HW222902   1.838   6.243   6.216
 7335SOL     OW22903   0.292   3.143   2.889
 7335SOL    HW122904   0.223   3.170   2.957
 7335SOL    HW222905   0.306   3.219   2.825
 7336SOL     OW22906   2.388   6.422   2.228
 7336SOL    HW122907   2.450   6.497   2.205
 7336SOL    HW222908   2.420   6.338   2.186
 7337SOL     OW22909   1.945   2.927   1.840
 7337SOL    HW122910   2.023   2.957   1.785
 7337SOL    HW222911   1.903   3.006   1.885
 7338SOL     OW22912   5.867   2.204   1.793
 7338SOL    HW122913   5.846   2.113   1.759
 7338SOL    HW222914   5.866   2.269   1.717
 7339SOL     OW22915   6.076   0.424   5.180
 7339SOL    HW122916   6.071   0.499   5.246
 7339SOL    HW222917   6.007   0.356   5.201
 7340SOL     OW22918   4.053   1.351   0.089
 7340SOL    HW122919   4.060   1.252   0.102
 7340SOL    HW222920   3.962   1.382   0.116
 7341SOL     OW22921   0.743   4.615   4.749
 7341SOL    HW122922   0.753   4.515   4.750
 7341SOL    HW222923   0.772   4.652   4.837
 7342SOL     OW22924   6.917   6.352   6.919
 7342SOL    HW122925   6.836   6.402   6.948
 7342SOL    HW222926   6.913   6.258   6.953
 7343SOL     OW22927   5.141   4.270   1.412
 7343SOL    HW122928   5.213   4.206   1.385
 7343SOL    HW222929   5.164   4.311   1.500
 7344SOL     OW22930   1.670   0.735   5.560
 7344SOL    HW122931   1.654   0.679   5.641
 7344SOL    HW222932   1.602   0.712   5.490
 7345SOL     OW22933   5.001   6.301   5.719
 7345SOL    HW122934   5.033   6.310   5.625
 7345SOL    HW222935   4.908   6.262   5.719
 7346SOL     OW22936   3.904   4.059   1.411
 7346SOL    HW122937   3.893   4.131   1.342
 7346SOL    HW222938   3.847   3.980   1.386
 7347SOL     OW22939   0.569   3.053   0.974
 7347SOL    HW122940   0.640   3.087   1.036
 7347SOL    HW222941   0.490   3.022   1.026
 7348SOL     OW22942   1.280   3.285   3.601
 7348SOL    HW122943   1.331   3.206   3.568
 7348SOL    HW222944   1.290   3.293   3.700
 7349SOL     OW22945   4.448   2.078   0.599
 7349SOL    HW122946   4.494   2.039   0.519
 7349SOL    HW222947   4.494   2.047   0.683
 7350SOL     OW22948   1.572   3.318   5.107
 7350SOL    HW122949   1.600   3.376   5.030
 7350SOL    HW222950   1.646   3.255   5.131
 7351SOL     OW22951   4.701   6.187   5.420
 7351SOL    HW122952   4.655   6.121   5.361
 7351SOL    HW222953   4.791   6.152   5.446
 7352SOL     OW22954   1.591   2.938   2.765
 7352SOL    HW122955   1.507   2.988   2.742
 7352SOL    HW222956   1.634   2.905   2.681
 7353SOL     OW22957   0.271   0.028   6.225
 7353SOL    HW122958   0.238   7.000   6.309
 7353SOL    HW222959   0.355   7.001   6.194
 7354SOL     OW22960   1.100   1.966   0.103
 7354SOL    HW122961   1.049   1.908   0.167
 7354SOL    HW222962   1.194   1.932   0.094
 7355SOL     OW22963   1.348   1.334   0.356
 7355SOL    HW122964   1.283   1.410   0.343
 7355SOL    HW222965   1.428   1.349   0.299
 7356SOL     OW22966   4.147   3.378   5.726
 7356SOL    HW122967   4.200   3.438   5.786
 7356SOL    HW222968   4.137   3.288   5.769
 7357SOL     OW22969   4.624   0.500   2.031
 7357SOL    HW122970   4.584   0.465   1.947
 7357SOL    HW222971   4.639   0.599   2.023
 7358SOL     OW22972   0.396   2.807   2.512
 7358SOL    HW122973   0.432   2.900   2.505
 7358SOL    HW222974   0.355   2.794   2.602
 7359SOL     OW22975   2.729   2.807   6.324
 7359SOL    HW122976   2.639   2.766   6.343
 7359SOL    HW222977   2.739   2.891   6.378
 7360SOL     OW22978   3.547   4.057   5.972
 7360SOL    HW122979   3.483   4.064   6.049
 7360SOL    HW222980   3.496   4.067   5.886
 7361SOL     OW22981   4.485   0.474   2.290
 7361SOL    HW122982   4.534   0.472   2.202
 7361SOL    HW222983   4.522   0.404   2.351
 7362SOL     OW22984   1.183   5.722   4.693
 7362SOL    HW122985   1.146   5.692   4.605
 7362SOL    HW222986   1.136   5.806   4.722
 7363SOL     OW22987   4.009   1.443   1.233
 7363SOL    HW122988   4.084   1.472   1.174
 7363SOL    HW222989   3.931   1.415   1.177
 7364SOL     OW22990   4.640   0.572   1.208
 7364SOL    HW122991   4.573   0.585   1.282
 7364SOL    HW222992   4.689   0.658   1.192
 7365SOL     OW22993   1.601   6.911   1.517
 7365SOL    HW122994   1.682   6.888   1.463
 7365SOL    HW222995   1.519   6.892   1.464
 7366SOL     OW22996   2.176   5.751   6.912
 7366SOL    HW122997   2.240   5.680   6.883
 7366SOL    HW222998   2.219   5.809   6.981
 7367SOL     OW22999   4.598   3.629   1.505
 7367SOL    HW123000   4.578   3.536   1.538
 7367SOL    HW223001   4.572   3.695   1.575
 7368SOL     OW23002   3.927   2.980   3.622
 7368SOL    HW123003   3.845   2.940   3.663
 7368SOL    HW223004   3.956   3.059   3.676
 7369SOL     OW23005   4.452   2.801   6.966
 7369SOL    HW123006   4.471   2.777   0.043
 7369SOL    HW223007   4.501   2.739   6.904
 7370SOL     OW23008   2.800   0.637   5.039
 7370SOL    HW123009   2.875   0.672   4.983
 7370SOL    HW223010   2.743   0.713   5.071
 7371SOL     OW23011   1.890   5.944   3.722
 7371SOL    HW123012   1.896   6.023   3.662
 7371SOL    HW223013   1.909   5.861   3.669
 7372SOL     OW23014   3.746   1.629   5.564
 7372SOL    HW123015   3.733   1.722   5.597
 7372SOL    HW223016   3.839   1.620   5.527
 7373SOL     OW23017   5.475   1.347   4.375
 7373SOL    HW123018   5.524   1.409   4.437
 7373SOL    HW223019   5.525   1.340   4.289
 7374SOL     OW23020   2.920   1.745   6.013
 7374SOL    HW123021   2.971   1.830   5.999
 7374SOL    HW223022   2.984   1.671   6.034
 7375SOL     OW23023   2.010   3.072   2.790
 7375SOL    HW123024   2.086   3.059   2.855
 7375SOL    HW223025   1.931   3.020   2.822
 7376SOL     OW23026   3.525   1.562   0.314
 7376SOL    HW123027   3.449   1.505   0.281
 7376SOL    HW223028   3.603   1.504   0.335
 7377SOL     OW23029   5.273   5.271   1.273
 7377SOL    HW123030   5.357   5.223   1.295
 7377SOL    HW223031   5.288   5.370   1.283
 7378SOL     OW23032   0.742   1.027   5.339
 7378SOL    HW123033   0.680   1.085   5.393
 7378SOL    HW223034   0.835   1.039   5.372
 7379SOL     OW23035   2.887   2.157   2.636
 7379SOL    HW123036   2.905   2.151   2.734
 7379SOL    HW223037   2.835   2.240   2.617
 7380SOL     OW23038   0.405   2.900   5.710
 7380SOL    HW123039   0.398   2.857   5.621
 7380SOL    HW223040   0.500   2.895   5.742
 7381SOL     OW23041   4.763   3.954   1.729
 7381SOL    HW123042   4.764   4.011   1.811
 7381SOL    HW223043   4.830   3.988   1.664
 7382SOL     OW23044   7.006   5.647   6.251
 7382SOL    HW123045   0.040   5.583   6.194
 7382SOL    HW223046   6.923   5.603   6.284
 7383SOL     OW23047   0.940   6.820   1.457
 7383SOL    HW123048   0.999   6.899   1.438
 7383SOL    HW223049   0.988   6.758   1.520
 7384SOL     OW23050   5.418   0.451   2.967
 7384SOL    HW123051   5.401   0.458   2.869
 7384SOL    HW223052   5.461   0.363   2.987
 7385SOL     OW23053   4.462   5.815   1.938
 7385SOL    HW123054   4.446   5.772   2.027
 7385SOL    HW223055   4.558   5.840   1.930
 7386SOL     OW23056   1.024   2.041   5.699
 7386SOL    HW123057   1.109   2.053   5.648
 7386SOL    HW223058   0.950   2.019   5.636
 7387SOL     OW23059   4.461   6.199   4.215
 7387SOL    HW123060   4.402   6.279   4.230
 7387SOL    HW223061   4.475   6.186   4.117
 7388SOL     OW23062   0.159   4.669   2.940
 7388SOL    HW123063   0.228   4.605   2.907
 7388SOL    HW223064   0.163   4.673   3.040
 7389SOL     OW23065   0.694   3.341   6.449
 7389SOL    HW123066   0.759   3.304   6.383
 7389SOL    HW223067   0.698   3.288   6.534
 7390SOL     OW23068   2.146   1.637   6.940
 7390SOL    HW123069   2.125   1.607   6.847
 7390SOL    HW223070   2.220   1.581   6.978
 7391SOL     OW23071   4.558   4.070   5.520
 7391SOL    HW123072   4.645   4.111   5.492
 7391SOL    HW223073   4.576   3.985   5.569
 7392SOL     OW23074   2.622   6.148   6.926
 7392SOL    HW123075   2.527   6.121   6.909
 7392SOL    HW223076   2.653   6.107   7.011
 7393SOL     OW23077   5.252   4.712   1.502
 7393SOL    HW123078   5.252   4.731   1.600
 7393SOL    HW223079   5.261   4.798   1.451
 7394SOL     OW23080   3.082   2.674   5.808
 7394SOL    HW123081   2.988   2.655   5.837
 7394SOL    HW223082   3.090   2.770   5.782
 7395SOL     OW23083   2.377   1.873   0.275
 7395SOL    HW123084   2.375   1.786   0.324
 7395SOL    HW223085   2.318   1.867   0.195
 7396SOL     OW23086   0.791   6.556   0.421
 7396SOL    HW123087   0.881   6.513   0.416
 7396SOL    HW223088   0.723   6.498   0.375
 7397SOL     OW23089   4.281   5.094   4.686
 7397SOL    HW123090   4.302   4.996   4.681
 7397SOL    HW223091   4.207   5.114   4.622
 7398SOL     OW23092   2.267   4.946   4.545
 7398SOL    HW123093   2.252   4.858   4.501
 7398SOL    HW223094   2.229   4.944   4.638
 7399SOL     OW23095   1.274   2.379   5.747
 7399SOL    HW123096   1.182   2.402   5.779
 7399SOL    HW223097   1.289   2.419   5.657
 7400SOL     OW23098   3.712   3.458   5.789
 7400SOL    HW123099   3.780   3.523   5.757
 7400SOL    HW223100   3.715   3.453   5.889
 7401SOL     OW23101   1.426   0.570   4.586
 7401SOL    HW123102   1.391   0.548   4.495
 7401SOL    HW223103   1.447   0.486   4.635
 7402SOL     OW23104   3.259   5.870   6.076
 7402SOL    HW123105   3.320   5.890   5.999
 7402SOL    HW223106   3.206   5.788   6.057
 7403SOL     OW23107   2.162   3.904   2.499
 7403SOL    HW123108   2.115   3.970   2.440
 7403SOL    HW223109   2.145   3.926   2.595
 7404SOL     OW23110   2.340   5.159   1.077
 7404SOL    HW123111   2.326   5.178   1.174
 7404SOL    HW223112   2.391   5.073   1.067
 7405SOL     OW23113   3.654   4.937   4.174
 7405SOL    HW123114   3.666   5.015   4.113
 7405SOL    HW223115   3.567   4.892   4.154
 7406SOL     OW23116   0.661   3.265   3.194
 7406SOL    HW123117   0.651   3.189   3.259
 7406SOL    HW223118   0.676   3.350   3.244
 7407SOL     OW23119   0.163   6.234   4.796
 7407SOL    HW123120   0.242   6.175   4.784
 7407SOL    HW223121   0.107   6.199   4.872
 7408SOL     OW23122   1.979   4.101   6.435
 7408SOL    HW123123   2.027   4.042   6.370
 7408SOL    HW223124   1.975   4.194   6.400
 7409SOL     OW23125   0.522   1.475   6.198
 7409SOL    HW123126   0.599   1.445   6.140
 7409SOL    HW223127   0.554   1.545   6.261
 7410SOL     OW23128   0.315   5.740   0.809
 7410SOL    HW123129   0.223   5.703   0.802
 7410SOL    HW223130   0.370   5.683   0.870
 7411SOL     OW23131   2.901   0.270   4.253
 7411SOL    HW123132   2.948   0.193   4.210
 7411SOL    HW223133   2.857   0.325   4.182
 7412SOL     OW23134   4.827   0.639   2.314
 7412SOL    HW123135   4.912   0.692   2.310
 7412SOL    HW223136   4.805   0.618   2.409
 7413SOL     OW23137   4.925   6.115   4.785
 7413SOL    HW123138   5.012   6.100   4.833
 7413SOL    HW223139   4.920   6.211   4.755
 7414SOL     OW23140   0.666   0.407   3.788
 7414SOL    HW123141   0.593   0.340   3.774
 7414SOL    HW223142   0.671   0.467   3.708
 7415SOL     OW23143   1.694   3.914   3.991
 7415SOL    HW123144   1.688   3.931   4.089
 7415SOL    HW223145   1.790   3.912   3.964
 7416SOL     OW23146   2.585   1.313   3.999
 7416SOL    HW123147   2.652   1.239   3.989
 7416SOL    HW223148   2.631   1.395   4.034
 7417SOL     OW23149   2.250   0.755   6.298
 7417SOL    HW123150   2.206   0.772   6.210
 7417SOL    HW223151   2.195   0.691   6.351
 7418SOL     OW23152   3.302   5.596   0.991
 7418SOL    HW123153   3.282   5.673   1.051
 7418SOL    HW223154   3.388   5.613   0.943
 7419SOL     OW23155   5.606   3.145   4.896
 7419SOL    HW123156   5.528   3.207   4.909
 7419SOL    HW223157   5.579   3.070   4.835
 7420SOL     OW23158   0.787   6.937   2.092
 7420SOL    HW123159   0.781   6.838   2.091
 7420SOL    HW223160   0.744   6.973   2.175
 7421SOL     OW23161   3.392   3.396   0.740
 7421SOL    HW123162   3.455   3.414   0.816
 7421SOL    HW223163   3.425   3.442   0.658
 7422SOL     OW23164   0.305   2.886   2.772
 7422SOL    HW123165   0.350   2.823   2.836
 7422SOL    HW223166   0.291   2.974   2.816
 7423SOL     OW23167   6.424   4.718   5.458
 7423SOL    HW123168   6.482   4.656   5.406
 7423SOL    HW223169   6.457   4.812   5.448
 7424SOL     OW23170   0.031   0.287   5.158
 7424SOL    HW123171   6.994   0.356   5.110
 7424SOL    HW223172   6.988   0.218   5.197
 7425SOL     OW23173   4.548   5.521   6.403
 7425SOL    HW123174   4.478   5.536   6.473
 7425SOL    HW223175   4.504   5.500   6.316
 7426SOL     OW23176   2.253   0.834   5.816
 7426SOL    HW123177   2.230   0.838   5.718
 7426SOL    HW223178   2.171   0.813   5.869
 7427SOL     OW23179   3.424   6.797   4.083
 7427SOL    HW123180   3.429   6.879   4.140
 7427SOL    HW223181   3.514   6.755   4.078
 7428SOL     OW23182   4.342   1.079   6.357
 7428SOL    HW123183   4.311   1.174   6.361
 7428SOL    HW223184   4.268   1.022   6.322
 7429SOL     OW23185   6.426   6.546   2.954
 7429SOL    HW123186   6.357   6.486   2.915
 7429SOL    HW223187   6.403   6.566   3.050
 7430SOL     OW23188   0.965   3.654   6.915
 7430SOL    HW123189   0.976   3.700   7.003
 7430SOL    HW223190   0.972   3.721   6.841
 7431SOL     OW23191   0.567   3.164   2.800
 7431SOL    HW123192   0.544   3.081   2.850
 7431SOL    HW223193   0.552   3.244   2.858
 7432SOL     OW23194   0.302   0.401   2.928
 7432SOL    HW123195   0.253   0.464   2.869
 7432SOL    HW223196   0.357   0.452   2.994
 7433SOL     OW23197   4.838   5.036   6.454
 7433SOL    HW123198   4.767   5.106   6.464
 7433SOL    HW223199   4.920   5.078   6.414
 7434SOL     OW23200   5.697   0.226   5.801
 7434SOL    HW123201   5.665   0.232   5.896
 7434SOL    HW223202   5.789   0.264   5.794
 7435SOL     OW23203   3.689   5.912   0.491
 7435SOL    HW123204   3.640   5.873   0.413
 7435SOL    HW223205   3.622   5.951   0.555
 7436SOL     OW23206   5.669   3.515   7.005
 7436SOL    HW123207   5.612   3.543   0.065
 7436SOL    HW223208   5.624   3.540   6.919
 7437SOL     OW23209   1.074   5.921   0.524
 7437SOL    HW123210   1.012   5.917   0.446
 7437SOL    HW223211   1.163   5.956   0.493
 7438SOL     OW23212   0.519   5.268   0.077
 7438SOL    HW123213   0.530   5.266   0.177
 7438SOL    HW223214   0.587   5.208   0.035
 7439SOL     OW23215   1.727   5.770   4.823
 7439SOL    HW123216   1.632   5.754   4.796
 7439SOL    HW223217   1.782   5.690   4.802
 7440SOL     OW23218   0.061   3.513   4.515
 7440SOL    HW123219   7.004   3.530   4.450
 7440SOL    HW223220   0.023   3.495   4.605
 7441SOL     OW23221   5.406   6.441   4.253
 7441SOL    HW123222   5.367   6.420   4.343
 7441SOL    HW223223   5.506   6.445   4.261
 7442SOL     OW23224   0.214   0.892   6.115
 7442SOL    HW123225   0.206   0.881   6.016
 7442SOL    HW223226   0.226   0.803   6.158
 7443SOL     OW23227   0.099   0.276   2.416
 7443SOL    HW123228   0.089   0.361   2.365
 7443SOL    HW223229   0.113   0.297   2.513
 7444SOL     OW23230   6.332   3.056   5.695
 7444SOL    HW123231   6.358   3.106   5.613
 7444SOL    HW223232   6.238   3.081   5.720
 7445SOL     OW23233   3.390   1.195   1.335
 7445SOL    HW123234   3.384   1.142   1.250
 7445SOL    HW223235   3.378   1.292   1.315
 7446SOL     OW23236   5.518   4.289   0.724
 7446SOL    HW123237   5.422   4.263   0.733
 7446SOL    HW223238   5.575   4.208   0.734
 7447SOL     OW23239   0.815   3.641   5.968
 7447SOL    HW123240   0.906   3.632   6.008
 7447SOL    HW223241   0.789   3.555   5.924
 7448SOL     OW23242   6.283   6.869   5.474
 7448SOL    HW123243   6.310   6.946   5.531
 7448SOL    HW223244   6.352   6.797   5.480
 7449SOL     OW23245   6.520   3.277   1.776
 7449SOL    HW123246   6.424   3.304   1.781
 7449SOL    HW223247   6.575   3.355   1.745
 7450SOL     OW23248   5.399   1.951   4.712
 7450SOL    HW123249   5.468   2.010   4.754
 7450SOL    HW223250   5.326   1.932   4.777
 7451SOL     OW23251   0.529   6.855   3.446
 7451SOL    HW123252   0.534   6.897   3.355
 7451SOL    HW223253   0.604   6.790   3.457
 7452SOL     OW23254   0.706   6.163   5.085
 7452SOL    HW123255   0.773   6.224   5.043
 7452SOL    HW223256   0.649   6.123   5.013
 7453SOL     OW23257   4.491   6.674   5.577
 7453SOL    HW123258   4.441   6.591   5.554
 7453SOL    HW223259   4.489   6.688   5.676
 7454SOL     OW23260   0.481   2.626   2.135
 7454SOL    HW123261   0.459   2.709   2.083
 7454SOL    HW223262   0.581   2.617   2.142
 7455SOL     OW23263   6.831   1.697   2.216
 7455SOL    HW123264   6.915   1.688   2.270
 7455SOL    HW223265   6.788   1.607   2.208
 7456SOL     OW23266   0.081   1.876   4.439
 7456SOL    HW123267   0.039   1.918   4.519
 7456SOL    HW223268   0.153   1.935   4.404
 7457SOL     OW23269   3.923   0.323   5.747
 7457SOL    HW123270   4.014   0.366   5.738
 7457SOL    HW223271   3.933   0.224   5.748
 7458SOL     OW23272   2.204   0.053   5.877
 7458SOL    HW123273   2.126   7.011   5.895
 7458SOL    HW223274   2.289   0.002   5.889
 7459SOL     OW23275   5.215   0.601   1.706
 7459SOL    HW123276   5.226   0.553   1.793
 7459SOL    HW223277   5.301   0.647   1.682
 7460SOL     OW23278   1.948   5.638   1.173
 7460SOL    HW123279   2.017   5.568   1.194
 7460SOL    HW223280   1.984   5.700   1.104
 7461SOL     OW23281   6.211   1.756   5.903
 7461SOL    HW123282   6.260   1.839   5.928
 7461SOL    HW223283   6.117   1.779   5.878
 7462SOL     OW23284   1.228   3.884   2.504
 7462SOL    HW123285   1.170   3.803   2.518
 7462SOL    HW223286   1.267   3.881   2.413
 7463SOL     OW23287   2.933   4.835   0.969
 7463SOL    HW123288   2.978   4.807   0.883
 7463SOL    HW223289   3.003   4.851   1.039
 7464SOL     OW23290   4.956   0.679   6.320
 7464SOL    HW123291   5.055   0.691   6.328
 7464SOL    HW223292   4.928   0.595   6.366
 7465SOL     OW23293   0.839   5.349   0.242
 7465SOL    HW123294   0.816   5.445   0.233
 7465SOL    HW223295   0.861   5.311   0.152
 7466SOL     OW23296   0.753   0.598   6.020
 7466SOL    HW123297   0.726   0.524   6.082
 7466SOL    HW223298   0.830   0.648   6.059
 7467SOL     OW23299   7.006   2.248   0.695
 7467SOL    HW123300   0.023   2.262   0.788
 7467SOL    HW223301   0.054   2.192   0.644
 7468SOL     OW23302   6.064   2.289   3.872
 7468SOL    HW123303   6.133   2.262   3.805
 7468SOL    HW223304   6.057   2.389   3.876
 7469SOL     OW23305   0.161   0.877   0.676
 7469SOL    HW123306   0.074   0.908   0.716
 7469SOL    HW223307   0.229   0.950   0.683
 7470SOL     OW23308   0.028   3.233   4.147
 7470SOL    HW123309   6.985   3.188   4.081
 7470SOL    HW223310   0.111   3.264   4.101
 7471SOL     OW23311   6.794   5.984   5.838
 7471SOL    HW123312   6.761   5.992   5.932
 7471SOL    HW223313   6.868   5.916   5.834
 7472SOL     OW23314   6.117   0.432   4.334
 7472SOL    HW123315   6.168   0.348   4.350
 7472SOL    HW223316   6.062   0.422   4.251
 7473SOL     OW23317   6.621   4.471   3.155
 7473SOL    HW123318   6.551   4.416   3.111
 7473SOL    HW223319   6.601   4.480   3.252
 7474SOL     OW23320   2.005   1.461   5.336
 7474SOL    HW123321   2.014   1.538   5.399
 7474SOL    HW223322   2.046   1.380   5.377
 7475SOL     OW23323   4.247   1.783   2.409
 7475SOL    HW123324   4.282   1.870   2.375
 7475SOL    HW223325   4.208   1.730   2.333
 7476SOL     OW23326   2.941   5.432   3.366
 7476SOL    HW123327   2.979   5.521   3.342
 7476SOL    HW223328   2.864   5.444   3.430
 7477SOL     OW23329   6.969   0.784   5.370
 7477SOL    HW123330   0.023   0.783   5.301
 7477SOL    HW223331   6.909   0.863   5.355
 7478SOL     OW23332   4.940   5.735   6.165
 7478SOL    HW123333   4.997   5.658   6.137
 7478SOL    HW223334   4.919   5.727   6.262
 7479SOL     OW23335   4.142   2.443   1.779
 7479SOL    HW123336   4.160   2.365   1.839
 7479SOL    HW223337   4.228   2.473   1.737
 7480SOL     OW23338   7.006   4.132   1.811
 7480SOL    HW123339   6.961   4.043   1.798
 7480SOL    HW223340   6.989   4.165   1.903
 7481SOL     OW23341   6.012   5.116   1.335
 7481SOL    HW123342   6.109   5.139   1.325
 7481SOL    HW223343   6.002   5.037   1.395
 7482SOL     OW23344   4.105   2.239   3.186
 7482SOL    HW123345   4.185   2.259   3.129
 7482SOL    HW223346   4.057   2.324   3.208
 7483SOL     OW23347   4.999   3.182   4.799
 7483SOL    HW123348   4.971   3.233   4.880
 7483SOL    HW223349   4.967   3.088   4.806
 7484SOL     OW23350   0.887   1.383   3.628
 7484SOL    HW123351   0.950   1.391   3.550
 7484SOL    HW223352   0.881   1.287   3.656
 7485SOL     OW23353   3.330   0.506   4.972
 7485SOL    HW123354   3.244   0.490   4.924
 7485SOL    HW223355   3.380   0.580   4.927
 7486SOL     OW23356   2.207   0.474   6.566
 7486SOL    HW123357   2.172   0.461   6.473
 7486SOL    HW223358   2.300   0.437   6.571
 7487SOL     OW23359   2.470   6.395   2.750
 7487SOL    HW123360   2.372   6.405   2.766
 7487SOL    HW223361   2.521   6.431   2.828
 7488SOL     OW23362   1.708   6.731   4.001
 7488SOL    HW123363   1.662   6.653   4.043
 7488SOL    HW223364   1.776   6.699   3.935
 7489SOL     OW23365   5.177   2.373   4.084
 7489SOL    HW123366   5.109   2.412   4.146
 7489SOL    HW223367   5.236   2.446   4.049
 7490SOL     OW23368   1.353   0.858   1.871
 7490SOL    HW123369   1.379   0.766   1.841
 7490SOL    HW223370   1.434   0.914   1.881
 7491SOL     OW23371   6.122   3.034   6.255
 7491SOL    HW123372   6.042   3.093   6.245
 7491SOL    HW223373   6.115   2.982   6.340
 7492SOL     OW23374   1.820   0.746   3.388
 7492SOL    HW123375   1.825   0.678   3.462
 7492SOL    HW223376   1.725   0.759   3.362
 7493SOL     OW23377   0.153   3.387   6.828
 7493SOL    HW123378   0.177   3.332   6.749
 7493SOL    HW223379   0.230   3.389   6.892
 7494SOL     OW23380   5.155   0.987   2.813
 7494SOL    HW123381   5.233   0.975   2.873
 7494SOL    HW223382   5.081   1.034   2.861
 7495SOL     OW23383   1.578   1.340   0.247
 7495SOL    HW123384   1.598   1.431   0.283
 7495SOL    HW223385   1.658   1.306   0.198
 7496SOL     OW23386   6.786   3.376   6.280
 7496SOL    HW123387   6.806   3.278   6.289
 7496SOL    HW223388   6.816   3.423   6.362
 7497SOL     OW23389   2.293   4.506   0.213
 7497SOL    HW123390   2.281   4.440   0.287
 7497SOL    HW223391   2.382   4.551   0.222
 7498SOL     OW23392   2.567   1.283   5.565
 7498SOL    HW123393   2.519   1.371   5.568
 7498SOL    HW223394   2.505   1.211   5.595
 7499SOL     OW23395   3.416   2.085   2.901
 7499SOL    HW123396   3.322   2.113   2.882
 7499SOL    HW223397   3.424   2.054   2.995
 7500SOL     OW23398   3.102   5.402   3.801
 7500SOL    HW123399   3.185   5.458   3.793
 7500SOL    HW223400   3.094   5.343   3.720
 7501SOL     OW23401   5.793   4.314   4.626
 7501SOL    HW123402   5.740   4.280   4.704
 7501SOL    HW223403   5.748   4.289   4.541
 7502SOL     OW23404   1.692   6.961   3.761
 7502SOL    HW123405   1.648   6.914   3.837
 7502SOL    HW223406   1.763   6.903   3.722
 7503SOL     OW23407   3.329   1.507   0.821
 7503SOL    HW123408   3.289   1.465   0.740
 7503SOL    HW223409   3.279   1.590   0.845
 7504SOL     OW23410   1.447   0.290   3.006
 7504SOL    HW123411   1.425   0.373   3.057
 7504SOL    HW223412   1.390   0.285   2.924
 7505SOL     OW23413   1.820   1.690   5.564
 7505SOL    HW123414   1.833   1.762   5.632
 7505SOL    HW223415   1.841   1.601   5.604
 7506SOL     OW23416   5.289   0.610   3.147
 7506SOL    HW123417   5.344   0.556   3.083
 7506SOL    HW223418   5.342   0.628   3.230
 7507SOL     OW23419   1.095   0.555   2.135
 7507SOL    HW123420   1.032   0.613   2.083
 7507SOL    HW223421   1.100   0.465   2.093
 7508SOL     OW23422   1.055   6.409   1.966
 7508SOL    HW123423   1.035   6.373   2.057
 7508SOL    HW223424   1.137   6.365   1.930
 7509SOL     OW23425   5.216   4.667   0.219
 7509SOL    HW123426   5.156   4.588   0.208
 7509SOL    HW223427   5.282   4.648   0.292
 7510SOL     OW23428   3.833   4.073   5.591
 7510SOL    HW123429   3.786   4.060   5.504
 7510SOL    HW223430   3.832   3.987   5.643
 7511SOL     OW23431   2.958   6.897   3.772
 7511SOL    HW123432   2.887   6.827   3.782
 7511SOL    HW223433   3.047   6.852   3.764
 7512SOL     OW23434   2.990   6.120   6.482
 7512SOL    HW123435   3.078   6.108   6.529
 7512SOL    HW223436   2.917   6.085   6.540
 7513SOL     OW23437   2.322   0.626   1.607
 7513SOL    HW123438   2.261   0.695   1.645
 7513SOL    HW223439   2.394   0.671   1.554
 7514SOL     OW23440   2.529   5.658   1.275
 7514SOL    HW123441   2.584   5.575   1.268
 7514SOL    HW223442   2.537   5.711   1.191
 7515SOL     OW23443   6.824   4.869   2.643
 7515SOL    HW123444   6.730   4.902   2.657
 7515SOL    HW223445   6.887   4.926   2.696
 7516SOL     OW23446   6.121   6.476   5.893
 7516SOL    HW123447   6.157   6.439   5.979
 7516SOL    HW223448   6.165   6.429   5.817
 7517SOL     OW23449   0.072   3.057   0.484
 7517SOL    HW123450   0.072   2.987   0.412
 7517SOL    HW223451   7.007   3.045   0.541
 7518SOL     OW23452   4.262   5.124   3.218
 7518SOL    HW123453   4.195   5.119   3.144
 7518SOL    HW223454   4.322   5.044   3.214
 7519SOL     OW23455   6.839   6.952   3.814
 7519SOL    HW123456   6.920   6.975   3.868
 7519SOL    HW223457   6.807   6.861   3.840
 7520SOL     OW23458   3.032   0.778   2.252
 7520SOL    HW123459   3.025   0.740   2.159
 7520SOL    HW223460   2.941   0.776   2.295
 7521SOL     OW23461   5.103   4.185   6.512
 7521SOL    HW123462   5.175   4.220   6.573
 7521SOL    HW223463   5.018   4.236   6.528
 7522SOL     OW23464   2.381   0.955   6.442
 7522SOL    HW123465   2.320   0.911   6.376
 7522SOL    HW223466   2.454   0.892   6.468
 7523SOL     OW23467   6.032   0.230   5.616
 7523SOL    HW123468   6.037   0.242   5.715
 7523SOL    HW223469   5.939   0.246   5.585
 7524SOL     OW23470   2.188   1.943   5.662
 7524SOL    HW123471   2.250   1.983   5.730
 7524SOL    HW223472   2.237   1.874   5.609
 7525SOL     OW23473   3.972   0.711   6.480
 7525SOL    HW123474   3.937   0.634   6.426
 7525SOL    HW223475   3.908   0.787   6.477
 7526SOL     OW23476   2.787   3.277   1.787
 7526SOL    HW123477   2.689   3.283   1.805
 7526SOL    HW223478   2.806   3.195   1.734
 7527SOL     OW23479   3.731   5.964   3.144
 7527SOL    HW123480   3.782   6.048   3.123
 7527SOL    HW223481   3.646   5.988   3.191
 7528SOL     OW23482   5.175   1.296   6.807
 7528SOL    HW123483   5.076   1.308   6.811
 7528SOL    HW223484   5.218   1.349   6.881
 7529SOL     OW23485   4.909   0.871   4.641
 7529SOL    HW123486   4.833   0.927   4.674
 7529SOL    HW223487   4.976   0.929   4.596
 7530SOL     OW23488   0.703   3.720   3.226
 7530SOL    HW123489   0.651   3.804   3.238
 7530SOL    HW223490   0.756   3.725   3.142
 7531SOL     OW23491   5.088   2.928   4.430
 7531SOL    HW123492   5.090   2.899   4.334
 7531SOL    HW223493   5.123   2.853   4.487
 7532SOL     OW23494   5.694   4.973   0.291
 7532SOL    HW123495   5.756   4.936   0.222
 7532SOL    HW223496   5.642   4.898   0.333
 7533SOL     OW23497   2.341   2.007   2.279
 7533SOL    HW123498   2.397   2.003   2.196
 7533SOL    HW223499   2.374   2.082   2.337
 7534SOL     OW23500   4.432   6.037   5.300
 7534SOL    HW123501   4.480   6.013   5.216
 7534SOL    HW223502   4.360   6.103   5.281
 7535SOL     OW23503   1.706   6.830   5.175
 7535SOL    HW123504   1.686   6.885   5.093
 7535SOL    HW223505   1.632   6.764   5.189
 7536SOL     OW23506   4.671   4.275   4.560
 7536SOL    HW123507   4.722   4.344   4.611
 7536SOL    HW223508   4.613   4.319   4.492
 7537SOL     OW23509   3.308   5.842   2.720
 7537SOL    HW123510   3.217   5.858   2.681
 7537SOL    HW223511   3.373   5.820   2.647
 7538SOL     OW23512   2.442   3.077   1.653
 7538SOL    HW123513   2.453   3.174   1.673
 7538SOL    HW223514   2.356   3.062   1.606
 7539SOL     OW23515   0.794   3.516   4.300
 7539SOL    HW123516   0.699   3.489   4.316
 7539SOL    HW223517   0.835   3.456   4.230
 7540SOL     OW23518   4.084   0.367   4.865
 7540SOL    HW123519   4.022   0.423   4.919
 7540SOL    HW223520   4.054   0.271   4.868
 7541SOL     OW23521   0.185   4.307   4.658
 7541SOL    HW123522   0.170   4.218   4.701
 7541SOL    HW223523   0.114   4.371   4.688
 7542SOL     OW23524   0.997   5.337   6.768
 7542SOL    HW123525   1.006   5.247   6.725
 7542SOL    HW223526   1.052   5.403   6.717
 7543SOL     OW23527   3.566   2.144   0.050
 7543SOL    HW123528   3.653   2.148   0.002
 7543SOL    HW223529   3.582   2.122   0.146
 7544SOL     OW23530   0.178   2.279   2.640
 7544SOL    HW123531   0.224   2.201   2.683
 7544SOL    HW223532   0.207   2.286   2.545
 7545SOL     OW23533   6.551   5.744   0.871
 7545SOL    HW123534   6.518   5.839   0.875
 7545SOL    HW223535   6.503   5.690   0.940
 7546SOL     OW23536   2.980   1.578   2.011
 7546SOL    HW123537   2.988   1.480   1.993
 7546SOL    HW223538   2.884   1.604   2.017
 7547SOL     OW23539   5.294   1.027   0.784
 7547SOL    HW123540   5.201   0.992   0.774
 7547SOL    HW223541   5.353   0.985   0.715
 7548SOL     OW23542   3.990   2.076   0.174
 7548SOL    HW123543   3.943   2.113   0.254
 7548SOL    HW223544   3.997   1.976   0.183
 7549SOL     OW23545   5.082   2.135   0.938
 7549SOL    HW123546   5.095   2.126   0.839
 7549SOL    HW223547   5.000   2.085   0.966
 7550SOL     OW23548   2.628   5.200   2.407
 7550SOL    HW123549   2.601   5.271   2.473
 7550SOL    HW223550   2.707   5.231   2.355
 7551SOL     OW23551   5.350   3.908   6.854
 7551SOL    HW123552   5.397   3.905   6.942
 7551SOL    HW223553   5.407   3.864   6.784
 7552SOL     OW23554   1.480   5.568   2.692
 7552SOL    HW123555   1.435   5.545   2.778
 7552SOL    HW223556   1.412   5.570   2.618
 7553SOL     OW23557   4.410   6.378   5.883
 7553SOL    HW123558   4.442   6.310   5.949
 7553SOL    HW223559   4.471   6.379   5.804
 7554SOL     OW23560   4.512   1.403   0.653
 7554SOL    HW123561   4.554   1.361   0.573
 7554SOL    HW223562   4.548   1.360   0.736
 7555SOL     OW23563   2.153   4.841   6.030
 7555SOL    HW123564   2.234   4.830   6.087
 7555SOL    HW223565   2.176   4.897   5.950
 7556SOL     OW23566   1.593   2.710   0.314
 7556SOL    HW123567   1.531   2.633   0.303
 7556SOL    HW223568   1.558   2.772   0.384
 7557SOL     OW23569   4.880   1.609   5.919
 7557SOL    HW123570   4.959   1.633   5.863
 7557SOL    HW223571   4.896   1.520   5.961
 7558SOL     OW23572   1.392   2.734   4.350
 7558SOL    HW123573   1.390   2.689   4.260
 7558SOL    HW223574   1.485   2.732   4.386
 7559SOL     OW23575   5.290   4.656   6.545
 7559SOL    HW123576   5.301   4.574   6.489
 7559SOL    HW223577   5.359   4.656   6.618
 7560SOL     OW23578   5.067   6.501   0.785
 7560SOL    HW123579   5.082   6.410   0.745
 7560SOL    HW223580   5.017   6.558   0.720
 7561SOL     OW23581   1.491   3.478   6.850
 7561SOL    HW123582   1.443   3.521   6.926
 7561SOL    HW223583   1.506   3.545   6.777
 7562SOL     OW23584   6.943   6.499   3.858
 7562SOL    HW123585   6.870   6.455   3.806
 7562SOL    HW223586   7.001   6.429   3.900
 7563SOL     OW23587   2.816   0.029   1.114
 7563SOL    HW123588   2.782   6.985   1.042
 7563SOL    HW223589   2.757   0.020   1.195
 7564SOL     OW23590   4.921   0.797   3.266
 7564SOL    HW123591   4.831   0.829   3.294
 7564SOL    HW223592   4.947   0.716   3.319
 7565SOL     OW23593   5.221   3.207   0.817
 7565SOL    HW123594   5.133   3.229   0.774
 7565SOL    HW223595   5.207   3.136   0.886
 7566SOL     OW23596   5.731   4.763   2.956
 7566SOL    HW123597   5.690   4.676   2.930
 7566SOL    HW223598   5.825   4.768   2.922
 7567SOL     OW23599   1.448   2.267   4.457
 7567SOL    HW123600   1.393   2.290   4.377
 7567SOL    HW223601   1.389   2.261   4.537
 7568SOL     OW23602   5.609   6.118   2.382
 7568SOL    HW123603   5.704   6.094   2.401
 7568SOL    HW223604   5.606   6.184   2.307
 7569SOL     OW23605   3.898   5.712   5.902
 7569SOL    HW123606   3.979   5.658   5.924
 7569SOL    HW223607   3.818   5.671   5.946
 7570SOL     OW23608   5.791   3.366   5.230
 7570SOL    HW123609   5.794   3.457   5.187
 7570SOL    HW223610   5.705   3.355   5.279
 7571SOL     OW23611   4.583   5.546   3.592
 7571SOL    HW123612   4.626   5.484   3.528
 7571SOL    HW223613   4.617   5.528   3.684
 7572SOL     OW23614   4.996   1.019   1.784
 7572SOL    HW123615   4.982   1.003   1.882
 7572SOL    HW223616   5.000   1.117   1.766
 7573SOL     OW23617   0.385   7.012   4.863
 7573SOL    HW123618   0.430   6.993   4.776
 7573SOL    HW223619   0.427   0.075   4.905
 7574SOL     OW23620   5.852   1.038   5.510
 7574SOL    HW123621   5.952   1.040   5.501
 7574SOL    HW223622   5.827   0.971   5.579
 7575SOL     OW23623   4.902   6.961   6.715
 7575SOL    HW123624   4.999   6.980   6.697
 7575SOL    HW223625   4.868   0.009   6.783
 7576SOL     OW23626   5.063   4.662   6.144
 7576SOL    HW123627   5.026   4.574   6.111
 7576SOL    HW223628   4.987   4.718   6.178
 7577SOL     OW23629   0.603   0.016   6.986
 7577SOL    HW123630   0.571   6.957   6.930
 7577SOL    HW223631   0.645   0.085   6.928
 7578SOL     OW23632   2.074   5.295   1.806
 7578SOL    HW123633   2.046   5.338   1.892
 7578SOL    HW223634   2.142   5.354   1.761
 7579SOL     OW23635   6.216   0.921   1.721
 7579SOL    HW123636   6.316   0.920   1.724
 7579SOL    HW223637   6.183   1.015   1.725
 7580SOL     OW23638   1.247   3.769   4.222
 7580SOL    HW123639   1.184   3.781   4.145
 7580SOL    HW223640   1.275   3.859   4.257
 7581SOL     OW23641   6.934   0.798   1.190
 7581SOL    HW123642   6.906   0.786   1.285
 7581SOL    HW223643   0.010   0.765   1.179
 7582SOL     OW23644   3.866   1.139   1.537
 7582SOL    HW123645   3.880   1.055   1.590
 7582SOL    HW223646   3.768   1.154   1.525
 7583SOL     OW23647   6.395   3.149   1.499
 7583SOL    HW123648   6.451   3.161   1.417
 7583SOL    HW223649   6.451   3.108   1.571
 7584SOL     OW23650   2.891   6.489   1.427
 7584SOL    HW123651   2.840   6.421   1.376
 7584SOL    HW223652   2.952   6.539   1.366
 7585SOL     OW23653   1.309   2.886   6.904
 7585SOL    HW123654   1.334   2.850   6.994
 7585SOL    HW223655   1.381   2.947   6.871
 7586SOL     OW23656   2.460   1.083   3.433
 7586SOL    HW123657   2.385   1.077   3.499
 7586SOL    HW223658   2.425   1.067   3.341
 7587SOL     OW23659   2.358   2.060   0.519
 7587SOL    HW123660   2.290   2.129   0.494
 7587SOL    HW223661   2.358   1.987   0.451
 7588SOL     OW23662   1.557   2.823   3.234
 7588SOL    HW123663   1.522   2.893   3.173
 7588SOL    HW223664   1.591   2.865   3.318
 7589SOL     OW23665   1.006   0.041   2.402
 7589SOL    HW123666   0.996   0.106   2.327
 7589SOL    HW223667   0.916   0.022   2.442
 7590SOL     OW23668   4.173   1.936   6.225
 7590SOL    HW123669   4.122   1.890   6.152
 7590SOL    HW223670   4.109   1.972   6.293
 7591SOL     OW23671   0.265   3.712   0.710
 7591SOL    HW123672   0.289   3.660   0.628
 7591SOL    HW223673   0.233   3.649   0.781
 7592SOL     OW23674   6.681   4.672   5.164
 7592SOL    HW123675   6.687   4.753   5.221
 7592SOL    HW223676   6.688   4.698   5.067
 7593SOL     OW23677   5.939   3.329   0.898
 7593SOL    HW123678   5.841   3.336   0.883
 7593SOL    HW223679   5.977   3.419   0.918
 7594SOL     OW23680   0.966   5.253   2.425
 7594SOL    HW123681   1.031   5.310   2.374
 7594SOL    HW223682   1.010   5.219   2.508
 7595SOL     OW23683   6.769   2.735   6.104
 7595SOL    HW123684   6.740   2.655   6.052
 7595SOL    HW223685   6.689   2.775   6.150
 7596SOL     OW23686   4.293   5.628   4.120
 7596SOL    HW123687   4.318   5.600   4.027
 7596SOL    HW223688   4.293   5.728   4.126
 7597SOL     OW23689   3.173   6.369   2.954
 7597SOL    HW123690   3.216   6.459   2.948
 7597SOL    HW223691   3.184   6.321   2.868
 7598SOL     OW23692   6.834   1.487   3.363
 7598SOL    HW123693   6.858   1.582   3.379
 7598SOL    HW223694   6.753   1.463   3.418
 7599SOL     OW23695   5.156   2.247   2.574
 7599SOL    HW123696   5.093   2.311   2.529
 7599SOL    HW223697   5.150   2.158   2.529
 7600SOL     OW23698   1.812   1.687   2.424
 7600SOL    HW123699   1.724   1.714   2.463
 7600SOL    HW223700   1.843   1.757   2.360
 7601SOL     OW23701   1.659   5.386   3.014
 7601SOL    HW123702   1.753   5.388   2.981
 7601SOL    HW223703   1.634   5.475   3.050
 7602SOL     OW23704   1.893   4.351   5.984
 7602SOL    HW123705   1.932   4.411   5.914
 7602SOL    HW223706   1.948   4.268   5.992
 7603SOL     OW23707   1.285   5.816   6.364
 7603SOL    HW123708   1.204   5.852   6.319
 7603SOL    HW223709   1.317   5.734   6.317
 7604SOL     OW23710   1.860   4.283   4.440
 7604SOL    HW123711   1.845   4.355   4.373
 7604SOL    HW223712   1.776   4.266   4.490
 7605SOL     OW23713   0.990   0.119   1.360
 7605SOL    HW123714   0.892   0.110   1.345
 7605SOL    HW223715   1.033   0.153   1.277
 7606SOL     OW23716   5.449   3.558   5.130
 7606SOL    HW123717   5.353   3.531   5.137
 7606SOL    HW223718   5.482   3.588   5.220
 7607SOL     OW23719   3.272   4.895   6.784
 7607SOL    HW123720   3.332   4.967   6.748
 7607SOL    HW223721   3.326   4.814   6.806
 7608SOL     OW23722   4.047   3.762   2.602
 7608SOL    HW123723   3.960   3.732   2.641
 7608SOL    HW223724   4.099   3.683   2.570
 7609SOL     OW23725   1.362   3.458   4.110
 7609SOL    HW123726   1.300   3.503   4.174
 7609SOL    HW223727   1.457   3.477   4.136
 7610SOL     OW23728   4.360   5.162   6.308
 7610SOL    HW123729   4.404   5.170   6.397
 7610SOL    HW223730   4.431   5.161   6.236
 7611SOL     OW23731   6.603   2.911   1.163
 7611SOL    HW123732   6.525   2.850   1.165
 7611SOL    HW223733   6.648   2.905   1.073
 7612SOL     OW23734   4.805   2.787   3.735
 7612SOL    HW123735   4.863   2.804   3.656
 7612SOL    HW223736   4.784   2.874   3.781
 7613SOL     OW23737   6.686   3.409   0.991
 7613SOL    HW123738   6.628   3.330   0.974
 7613SOL    HW223739   6.696   3.423   1.090
 7614SOL     OW23740   4.905   2.848   1.203
 7614SOL    HW123741   4.903   2.749   1.190
 7614SOL    HW223742   4.814   2.880   1.229
 7615SOL     OW23743   3.684   5.104   0.099
 7615SOL    HW123744   3.768   5.128   0.148
 7615SOL    HW223745   3.604   5.135   0.151
 7616SOL     OW23746   5.898   5.979   4.299
 7616SOL    HW123747   5.860   6.069   4.319
 7616SOL    HW223748   5.988   5.989   4.256
 7617SOL     OW23749   3.969   5.145   2.524
 7617SOL    HW123750   3.923   5.136   2.612
 7617SOL    HW223751   3.958   5.060   2.471
 7618SOL     OW23752   0.450   1.173   5.784
 7618SOL    HW123753   0.475   1.081   5.814
 7618SOL    HW223754   0.375   1.208   5.840
 7619SOL     OW23755   5.906   2.916   5.263
 7619SOL    HW123756   5.837   2.871   5.319
 7619SOL    HW223757   5.863   2.960   5.184
 7620SOL     OW23758   3.735   5.918   0.790
 7620SOL    HW123759   3.718   5.909   0.692
 7620SOL    HW223760   3.830   5.894   0.810
 7621SOL     OW23761   6.746   1.344   0.738
 7621SOL    HW123762   6.840   1.345   0.704
 7621SOL    HW223763   6.745   1.303   0.829
 7622SOL     OW23764   4.694   5.724   0.976
 7622SOL    HW123765   4.763   5.788   1.011
 7622SOL    HW223766   4.733   5.633   0.972
 7623SOL     OW23767   4.455   4.560   6.937
 7623SOL    HW123768   4.397   4.503   6.995
 7623SOL    HW223769   4.531   4.506   6.902
 7624SOL     OW23770   6.679   3.200   4.985
 7624SOL    HW123771   6.750   3.146   5.030
 7624SOL    HW223772   6.717   3.286   4.953
 7625SOL     OW23773   4.847   0.561   1.396
 7625SOL    HW123774   4.795   0.540   1.312
 7625SOL    HW223775   4.807   0.641   1.440
 7626SOL     OW23776   5.916   6.972   4.448
 7626SOL    HW123777   5.894   0.029   4.385
 7626SOL    HW223778   5.870   6.988   4.536
 7627SOL     OW23779   4.777   3.216   0.033
 7627SOL    HW123780   4.826   3.205   6.963
 7627SOL    HW223781   4.764   3.126   0.075
 7628SOL     OW23782   3.545   1.945   2.057
 7628SOL    HW123783   3.599   1.863   2.038
 7628SOL    HW223784   3.584   2.024   2.010
 7629SOL     OW23785   6.905   6.218   3.278
 7629SOL    HW123786   6.835   6.146   3.282
 7629SOL    HW223787   6.938   6.227   3.183
 7630SOL     OW23788   6.781   6.613   1.066
 7630SOL    HW123789   6.802   6.520   1.038
 7630SOL    HW223790   6.863   6.670   1.057
 7631SOL     OW23791   0.825   1.579   6.521
 7631SOL    HW123792   0.820   1.548   6.616
 7631SOL    HW223793   0.893   1.524   6.472
 7632SOL     OW23794   3.512   3.023   1.756
 7632SOL    HW123795   3.585   2.956   1.740
 7632SOL    HW223796   3.550   3.116   1.746
 7633SOL     OW23797   5.604   0.741   1.153
 7633SOL    HW123798   5.573   0.769   1.244
 7633SOL    HW223799   5.567   0.804   1.085
 7634SOL     OW23800   0.871   2.198   2.462
 7634SOL    HW123801   0.810   2.248   2.523
 7634SOL    HW223802   0.953   2.170   2.512
 7635SOL     OW23803   3.882   4.988   4.959
 7635SOL    HW123804   3.872   5.083   4.929
 7635SOL    HW223805   3.803   4.962   5.013
 7636SOL     OW23806   1.544   2.696   3.823
 7636SOL    HW123807   1.544   2.603   3.859
 7636SOL    HW223808   1.582   2.758   3.892
 7637SOL     OW23809   2.059   5.270   2.507
 7637SOL    HW123810   2.069   5.261   2.607
 7637SOL    HW223811   2.097   5.188   2.463
 7638SOL     OW23812   2.750   6.170   1.009
 7638SOL    HW123813   2.663   6.204   0.975
 7638SOL    HW223814   2.769   6.080   0.970
 7639SOL     OW23815   1.134   2.305   0.758
 7639SOL    HW123816   1.229   2.334   0.745
 7639SOL    HW223817   1.083   2.380   0.801
 7640SOL     OW23818   3.445   1.223   5.657
 7640SOL    HW123819   3.426   1.285   5.734
 7640SOL    HW223820   3.538   1.187   5.666
 7641SOL     OW23821   1.105   4.117   2.588
 7641SOL    HW123822   1.150   4.032   2.560
 7641SOL    HW223823   1.158   4.195   2.555
 7642SOL     OW23824   3.440   0.899   3.326
 7642SOL    HW123825   3.411   0.979   3.274
 7642SOL    HW223826   3.449   0.821   3.264
 7643SOL     OW23827   5.074   2.787   4.198
 7643SOL    HW123828   5.036   2.777   4.106
 7643SOL    HW223829   5.058   2.703   4.250
 7644SOL     OW23830   5.670   2.027   2.425
 7644SOL    HW123831   5.599   1.967   2.462
 7644SOL    HW223832   5.652   2.122   2.453
 7645SOL     OW23833   4.399   3.209   5.485
 7645SOL    HW123834   4.438   3.299   5.503
 7645SOL    HW223835   4.368   3.168   5.570
 7646SOL     OW23836   1.206   3.857   3.080
 7646SOL    HW123837   1.144   3.913   3.136
 7646SOL    HW223838   1.272   3.812   3.140
 7647SOL     OW23839   6.840   3.185   3.399
 7647SOL    HW123840   6.867   3.237   3.480
 7647SOL    HW223841   6.892   3.099   3.396
 7648SOL     OW23842   2.742   1.642   3.037
 7648SOL    HW123843   2.708   1.621   2.945
 7648SOL    HW223844   2.827   1.695   3.030
 7649SOL     OW23845   1.147   1.150   2.482
 7649SOL    HW123846   1.175   1.116   2.572
 7649SOL    HW223847   1.048   1.162   2.481
 7650SOL     OW23848   4.545   1.712   0.452
 7650SOL    HW123849   4.535   1.793   0.395
 7650SOL    HW223850   4.462   1.699   0.507
 7651SOL     OW23851   1.956   0.640   3.828
 7651SOL    HW123852   2.022   0.715   3.835
 7651SOL    HW223853   2.005   0.553   3.818
 7652SOL     OW23854   5.920   3.450   5.752
 7652SOL    HW123855   5.915   3.395   5.669
 7652SOL    HW223856   5.899   3.393   5.831
 7653SOL     OW23857   1.032   1.877   6.756
 7653SOL    HW123858   0.974   1.925   6.690
 7653SOL    HW223859   0.984   1.870   6.844
 7654SOL     OW23860   4.752   2.884   4.151
 7654SOL    HW123861   4.791   2.924   4.235
 7654SOL    HW223862   4.715   2.794   4.171
 7655SOL     OW23863   4.627   0.010   2.991
 7655SOL    HW123864   4.565   6.948   2.990
 7655SOL    HW223865   4.684   0.008   2.909
 7656SOL     OW23866   2.757   3.944   6.074
 7656SOL    HW123867   2.797   3.982   5.990
 7656SOL    HW223868   2.819   3.961   6.151
 7657SOL     OW23869   1.117   2.696   3.941
 7657SOL    HW123870   1.179   2.698   3.862
 7657SOL    HW223871   1.049   2.623   3.928
 7658SOL     OW23872   4.242   0.063   6.029
 7658SOL    HW123873   4.288   0.034   6.113
 7658SOL    HW223874   4.193   0.148   6.046
 7659SOL     OW23875   6.257   5.110   6.164
 7659SOL    HW123876   6.299   5.026   6.200
 7659SOL    HW223877   6.234   5.171   6.239
 7660SOL     OW23878   0.621   6.006   4.023
 7660SOL    HW123879   0.596   5.953   4.104
 7660SOL    HW223880   0.538   6.034   3.975
 7661SOL     OW23881   5.846   2.775   4.826
 7661SOL    HW123882   5.926   2.715   4.829
 7661SOL    HW223883   5.875   2.869   4.844
 7662SOL     OW23884   1.390   2.846   3.522
 7662SOL    HW123885   1.422   2.941   3.524
 7662SOL    HW223886   1.469   2.785   3.529
 7663SOL     OW23887   0.332   5.227   5.488
 7663SOL    HW123888   0.329   5.326   5.498
 7663SOL    HW223889   0.238   5.192   5.477
 7664SOL     OW23890   3.758   6.787   1.585
 7664SOL    HW123891   3.709   6.701   1.604
 7664SOL    HW223892   3.699   6.847   1.531
 7665SOL     OW23893   6.088   6.974   4.750
 7665SOL    HW123894   6.125   6.932   4.667
 7665SOL    HW223895   6.161   6.983   4.818
 7666SOL     OW23896   0.640   5.523   1.810
 7666SOL    HW123897   0.608   5.473   1.729
 7666SOL    HW223898   0.734   5.554   1.794
 7667SOL     OW23899   4.871   6.740   2.070
 7667SOL    HW123900   4.951   6.789   2.103
 7667SOL    HW223901   4.830   6.688   2.146
 7668SOL     OW23902   3.429   4.691   6.855
 7668SOL    HW123903   3.411   4.706   6.952
 7668SOL    HW223904   3.522   4.721   6.833
 7669SOL     OW23905   4.859   1.631   5.087
 7669SOL    HW123906   4.824   1.555   5.142
 7669SOL    HW223907   4.791   1.656   5.018
 7670SOL     OW23908   1.021   5.076   6.636
 7670SOL    HW123909   1.034   5.106   6.541
 7670SOL    HW223910   1.017   4.977   6.640
 7671SOL     OW23911   4.699   1.171   2.497
 7671SOL    HW123912   4.721   1.231   2.574
 7671SOL    HW223913   4.600   1.174   2.480
 7672SOL     OW23914   0.515   6.700   2.529
 7672SOL    HW123915   0.467   6.774   2.482
 7672SOL    HW223916   0.534   6.626   2.465
 7673SOL     OW23917   1.515   6.282   0.503
 7673SOL    HW123918   1.455   6.337   0.445
 7673SOL    HW223919   1.464   6.207   0.543
 7674SOL     OW23920   5.695   1.287   2.759
 7674SOL    HW123921   5.728   1.379   2.778
 7674SOL    HW223922   5.599   1.279   2.784
 7675SOL     OW23923   6.410   6.557   2.252
 7675SOL    HW123924   6.401   6.536   2.154
 7675SOL    HW223925   6.506   6.554   2.278
 7676SOL     OW23926   2.440   2.222   0.740
 7676SOL    HW123927   2.481   2.158   0.805
 7676SOL    HW223928   2.429   2.177   0.651
 7677SOL     OW23929   0.221   4.900   1.459
 7677SOL    HW123930   0.271   4.818   1.483
 7677SOL    HW223931   0.129   4.897   1.499
 7678SOL     OW23932   1.836   2.982   4.438
 7678SOL    HW123933   1.754   2.926   4.438
 7678SOL    HW223934   1.844   3.028   4.349
 7679SOL     OW23935   3.060   5.497   5.799
 7679SOL    HW123936   3.012   5.413   5.774
 7679SOL    HW223937   3.147   5.473   5.842
 7680SOL     OW23938   1.380   0.938   0.579
 7680SOL    HW123939   1.321   0.883   0.521
 7680SOL    HW223940   1.466   0.958   0.531
 7681SOL     OW23941   2.590   0.820   0.702
 7681SOL    HW123942   2.668   0.831   0.764
 7681SOL    HW223943   2.557   0.910   0.674
 7682SOL     OW23944   3.449   0.105   2.552
 7682SOL    HW123945   3.523   0.047   2.519
 7682SOL    HW223946   3.436   0.181   2.488
 7683SOL     OW23947   5.120   1.551   4.352
 7683SOL    HW123948   5.051   1.621   4.333
 7683SOL    HW223949   5.208   1.595   4.369
 7684SOL     OW23950   3.395   1.882   1.534
 7684SOL    HW123951   3.412   1.872   1.632
 7684SOL    HW223952   3.316   1.825   1.508
 7685SOL     OW23953   3.164   1.846   6.210
 7685SOL    HW123954   3.206   1.882   6.127
 7685SOL    HW223955   3.136   1.923   6.269
 7686SOL     OW23956   6.755   6.298   2.527
 7686SOL    HW123957   6.841   6.329   2.568
 7686SOL    HW223958   6.776   6.246   2.444
 7687SOL     OW23959   5.862   5.420   3.648
 7687SOL    HW123960   5.950   5.417   3.602
 7687SOL    HW223961   5.790   5.387   3.586
 7688SOL     OW23962   0.816   5.819   5.957
 7688SOL    HW123963   0.827   5.722   5.937
 7688SOL    HW223964   0.766   5.863   5.883
 7689SOL     OW23965   5.955   6.373   2.453
 7689SOL    HW123966   5.893   6.303   2.417
 7689SOL    HW223967   5.972   6.356   2.550
 7690SOL     OW23968   5.380   5.341   0.248
 7690SOL    HW123969   5.470   5.301   0.231
 7690SOL    HW223970   5.385   5.400   0.329
 7691SOL     OW23971   5.120   4.192   4.052
 7691SOL    HW123972   5.188   4.266   4.053
 7691SOL    HW223973   5.146   4.125   3.982
 7692SOL     OW23974   0.849   6.188   1.930
 7692SOL    HW123975   0.887   6.191   1.837
 7692SOL    HW223976   0.831   6.093   1.956
 7693SOL     OW23977   3.848   6.420   1.506
 7693SOL    HW123978   3.833   6.413   1.604
 7693SOL    HW223979   3.944   6.442   1.488
 7694SOL     OW23980   6.406   4.363   4.429
 7694SOL    HW123981   6.437   4.446   4.474
 7694SOL    HW223982   6.469   4.339   4.355
 7695SOL     OW23983   4.810   0.782   1.144
 7695SOL    HW123984   4.895   0.754   1.100
 7695SOL    HW223985   4.830   0.832   1.228
 7696SOL     OW23986   0.394   0.250   5.400
 7696SOL    HW123987   0.487   0.230   5.368
 7696SOL    HW223988   0.330   0.239   5.323
 7697SOL     OW23989   2.605   6.671   2.359
 7697SOL    HW123990   2.509   6.697   2.359
 7697SOL    HW223991   2.622   6.601   2.428
 7698SOL     OW23992   5.958   1.340   4.117
 7698SOL    HW123993   5.926   1.246   4.128
 7698SOL    HW223994   5.886   1.404   4.145
 7699SOL     OW23995   3.377   5.864   6.337
 7699SOL    HW123996   3.322   5.880   6.255
 7699SOL    HW223997   3.370   5.769   6.365
 7700SOL     OW23998   4.369   6.146   3.486
 7700SOL    HW123999   4.327   6.162   3.575
 7700SOL    HW224000   4.442   6.213   3.471
 7701SOL     OW24001   6.651   1.935   0.121
 7701SOL    HW124002   6.595   1.989   0.057
 7701SOL    HW224003   6.595   1.908   0.199
 7702SOL     OW24004   3.473   6.739   5.309
 7702SOL    HW124005   3.560   6.760   5.265
 7702SOL    HW224006   3.489   6.718   5.406
 7703SOL     OW24007   6.633   6.559   6.644
 7703SOL    HW124008   6.682   6.474   6.621
 7703SOL    HW224009   6.696   6.636   6.637
 7704SOL     OW24010   5.510   6.024   4.930
 7704SOL    HW124011   5.593   6.030   4.875
 7704SOL    HW224012   5.535   6.011   5.026
 7705SOL     OW24013   3.219   5.555   6.830
 7705SOL    HW124014   3.124   5.566   6.800
 7705SOL    HW224015   3.221   5.540   6.929
 7706SOL     OW24016   4.726   3.150   5.483
 7706SOL    HW124017   4.698   3.219   5.416
 7706SOL    HW224018   4.688   3.173   5.573
 7707SOL     OW24019   6.481   5.530   5.343
 7707SOL    HW124020   6.433   5.618   5.342
 7707SOL    HW224021   6.417   5.457   5.368
 7708SOL     OW24022   0.766   6.583   6.169
 7708SOL    HW124023   0.669   6.608   6.172
 7708SOL    HW224024   0.775   6.485   6.182
 7709SOL     OW24025   6.061   4.607   2.061
 7709SOL    HW124026   6.030   4.637   2.151
 7709SOL    HW224027   6.159   4.590   2.063
 7710SOL     OW24028   2.888   1.803   0.406
 7710SOL    HW124029   2.939   1.875   0.360
 7710SOL    HW224030   2.950   1.729   0.432
 7711SOL     OW24031   6.055   6.844   5.852
 7711SOL    HW124032   6.000   6.908   5.797
 7711SOL    HW224033   6.003   6.760   5.866
 7712SOL     OW24034   6.123   5.485   2.027
 7712SOL    HW124035   6.094   5.483   1.931
 7712SOL    HW224036   6.073   5.556   2.075
 7713SOL     OW24037   1.899   4.159   1.450
 7713SOL    HW124038   1.897   4.060   1.437
 7713SOL    HW224039   1.902   4.204   1.361
 7714SOL     OW24040   6.690   3.883   5.517
 7714SOL    HW124041   6.727   3.828   5.592
 7714SOL    HW224042   6.764   3.928   5.468
 7715SOL     OW24043   3.287   1.908   0.560
 7715SOL    HW124044   3.199   1.893   0.605
 7715SOL    HW224045   3.336   1.821   0.552
 7716SOL     OW24046   6.662   3.970   2.702
 7716SOL    HW124047   6.670   3.962   2.603
 7716SOL    HW224048   6.671   3.879   2.743
 7717SOL     OW24049   1.914   1.137   5.235
 7717SOL    HW124050   1.981   1.063   5.225
 7717SOL    HW224051   1.868   1.128   5.323
 7718SOL     OW24052   0.622   3.439   4.052
 7718SOL    HW124053   0.569   3.485   3.980
 7718SOL    HW224054   0.571   3.358   4.084
 7719SOL     OW24055   6.487   4.222   4.996
 7719SOL    HW124056   6.527   4.229   4.904
 7719SOL    HW224057   6.514   4.135   5.037
 7720SOL     OW24058   0.236   1.258   0.073
 7720SOL    HW124059   0.192   1.343   0.045
 7720SOL    HW224060   0.177   1.208   0.136
 7721SOL     OW24061   0.306   5.275   2.573
 7721SOL    HW124062   0.347   5.228   2.495
 7721SOL    HW224063   0.362   5.259   2.655
 7722SOL     OW24064   1.017   4.780   3.642
 7722SOL    HW124065   1.092   4.715   3.627
 7722SOL    HW224066   0.938   4.732   3.679
 7723SOL     OW24067   4.962   3.399   6.459
 7723SOL    HW124068   5.041   3.337   6.449
 7723SOL    HW224069   4.956   3.458   6.378
 7724SOL     OW24070   3.368   3.801   1.338
 7724SOL    HW124071   3.389   3.859   1.259
 7724SOL    HW224072   3.452   3.785   1.390
 7725SOL     OW24073   6.402   0.833   2.622
 7725SOL    HW124074   6.351   0.807   2.540
 7725SOL    HW224075   6.468   0.904   2.599
 7726SOL     OW24076   1.538   5.628   5.059
 7726SOL    HW124077   1.440   5.609   5.059
 7726SOL    HW224078   1.553   5.724   5.036
 7727SOL     OW24079   0.215   1.409   2.626
 7727SOL    HW124080   0.134   1.350   2.623
 7727SOL    HW224081   0.277   1.376   2.697
 7728SOL     OW24082   1.283   4.257   4.935
 7728SOL    HW124083   1.293   4.355   4.954
 7728SOL    HW224084   1.188   4.237   4.910
 7729SOL     OW24085   5.734   2.620   0.796
 7729SOL    HW124086   5.658   2.574   0.750
 7729SOL    HW224087   5.812   2.559   0.801
 7730SOL     OW24088   5.850   5.628   0.133
 7730SOL    HW124089   5.788   5.592   0.063
 7730SOL    HW224090   5.862   5.727   0.120
 7731SOL     OW24091   6.648   1.337   0.478
 7731SOL    HW124092   6.712   1.268   0.446
 7731SOL    HW224093   6.659   1.349   0.577
 7732SOL     OW24094   5.219   6.760   0.813
 7732SOL    HW124095   5.178   6.675   0.780
 7732SOL    HW224096   5.152   6.834   0.806
 7733SOL     OW24097   4.740   6.404   3.256
 7733SOL    HW124098   4.839   6.401   3.255
 7733SOL    HW224099   4.708   6.494   3.226
 7734SOL     OW24100   1.921   4.929   2.781
 7734SOL    HW124101   1.864   4.957   2.859
 7734SOL    HW224102   1.863   4.916   2.701
 7735SOL     OW24103   4.389   6.561   6.927
 7735SOL    HW124104   4.374   6.465   6.905
 7735SOL    HW224105   4.309   6.615   6.899
 7736SOL     OW24106   3.948   3.666   6.921
 7736SOL    HW124107   3.865   3.665   6.865
 7736SOL    HW224108   4.025   3.633   6.867
 7737SOL     OW24109   3.305   6.756   2.283
 7737SOL    HW124110   3.304   6.693   2.361
 7737SOL    HW224111   3.235   6.826   2.297
 7738SOL     OW24112   2.953   5.818   6.706
 7738SOL    HW124113   3.028   5.866   6.752
 7738SOL    HW224114   2.991   5.751   6.642
 7739SOL     OW24115   0.280   2.781   1.325
 7739SOL    HW124116   0.258   2.683   1.331
 7739SOL    HW224117   0.197   2.835   1.338
 7740SOL     OW24118   2.332   1.588   2.752
 7740SOL    HW124119   2.295   1.556   2.665
 7740SOL    HW224120   2.258   1.607   2.816
 7741SOL     OW24121   1.051   5.099   6.004
 7741SOL    HW124122   0.972   5.107   5.944
 7741SOL    HW224123   1.034   5.027   6.072
 7742SOL     OW24124   4.107   1.902   3.432
 7742SOL    HW124125   4.163   1.929   3.510
 7742SOL    HW224126   4.045   1.977   3.408
 7743SOL     OW24127   5.801   1.386   6.435
 7743SOL    HW124128   5.763   1.328   6.363
 7743SOL    HW224129   5.830   1.329   6.512
 7744SOL     OW24130   0.907   6.905   3.932
 7744SOL    HW124131   0.879   6.814   3.961
 7744SOL    HW224132   0.972   6.943   3.999
 7745SOL     OW24133   3.629   1.476   6.625
 7745SOL    HW124134   3.591   1.423   6.701
 7745SOL    HW224135   3.729   1.468   6.626
 7746SOL     OW24136   1.843   0.399   0.153
 7746SOL    HW124137   1.747   0.413   0.177
 7746SOL    HW224138   1.886   0.487   0.132
 7747SOL     OW24139   5.478   6.048   1.638
 7747SOL    HW124140   5.466   5.949   1.649
 7747SOL    HW224141   5.397   6.086   1.593
 7748SOL     OW24142   2.954   3.806   4.521
 7748SOL    HW124143   2.965   3.890   4.575
 7748SOL    HW224144   2.936   3.729   4.582
 7749SOL     OW24145   3.093   3.780   5.901
 7749SOL    HW124146   3.063   3.811   5.811
 7749SOL    HW224147   3.121   3.858   5.956
 7750SOL     OW24148   0.373   6.265   1.262
 7750SOL    HW124149   0.342   6.218   1.345
 7750SOL    HW224150   0.465   6.300   1.277
 7751SOL     OW24151   1.630   2.864   2.112
 7751SOL    HW124152   1.615   2.951   2.065
 7751SOL    HW224153   1.596   2.871   2.206
 7752SOL     OW24154   5.525   6.587   5.893
 7752SOL    HW124155   5.516   6.551   5.800
 7752SOL    HW224156   5.548   6.512   5.956
 7753SOL     OW24157   2.254   0.785   3.586
 7753SOL    HW124158   2.352   0.767   3.581
 7753SOL    HW224159   2.220   0.810   3.495
 7754SOL     OW24160   3.408   6.637   1.940
 7754SOL    HW124161   3.421   6.555   1.995
 7754SOL    HW224162   3.412   6.718   1.999
 7755SOL     OW24163   1.872   1.999   5.222
 7755SOL    HW124164   1.890   1.929   5.153
 7755SOL    HW224165   1.841   2.083   5.178
 7756SOL     OW24166   2.791   6.270   2.867
 7756SOL    HW124167   2.811   6.356   2.820
 7756SOL    HW224168   2.837   6.269   2.955
 7757SOL     OW24169   5.759   5.037   6.791
 7757SOL    HW124170   5.857   5.039   6.771
 7757SOL    HW224171   5.733   5.119   6.841
 7758SOL     OW24172   1.928   0.864   5.493
 7758SOL    HW124173   1.976   0.899   5.574
 7758SOL    HW224174   1.843   0.821   5.521
 7759SOL     OW24175   1.593   1.887   5.509
 7759SOL    HW124176   1.543   1.821   5.565
 7759SOL    HW224177   1.672   1.843   5.467
 7760SOL     OW24178   5.796   3.090   2.928
 7760SOL    HW124179   5.719   3.150   2.904
 7760SOL    HW224180   5.845   3.063   2.846
 7761SOL     OW24181   0.403   0.536   4.603
 7761SOL    HW124182   0.435   0.629   4.584
 7761SOL    HW224183   0.392   0.487   4.516
 7762SOL     OW24184   2.956   6.694   4.023
 7762SOL    HW124185   2.939   6.604   3.982
 7762SOL    HW224186   3.038   6.735   3.982
 7763SOL     OW24187   1.957   0.647   6.153
 7763SOL    HW124188   1.928   0.707   6.227
 7763SOL    HW224189   1.972   0.701   6.070
 7764SOL     OW24190   3.481   3.226   4.051
 7764SOL    HW124191   3.408   3.286   4.017
 7764SOL    HW224192   3.468   3.210   4.149
 7765SOL     OW24193   6.160   3.624   5.043
 7765SOL    HW124194   6.233   3.615   5.110
 7765SOL    HW224195   6.164   3.715   5.002
 7766SOL     OW24196   0.076   3.832   6.973
 7766SOL    HW124197   0.096   3.748   6.921
 7766SOL    HW224198   0.013   3.889   6.920
 7767SOL     OW24199   5.082   6.273   2.629
 7767SOL    HW124200   5.005   6.336   2.636
 7767SOL    HW224201   5.128   6.267   2.717
 7768SOL     OW24202   4.118   4.888   2.663
 7768SOL    HW124203   4.086   4.831   2.739
 7768SOL    HW224204   4.050   4.888   2.590
 7769SOL     OW24205   3.956   1.699   3.017
 7769SOL    HW124206   3.859   1.675   3.011
 7769SOL    HW224207   3.968   1.796   2.996
 7770SOL     OW24208   1.980   4.249   3.850
 7770SOL    HW124209   1.934   4.337   3.856
 7770SOL    HW224210   2.076   4.263   3.828
 7771SOL     OW24211   3.763   1.830   5.214
 7771SOL    HW124212   3.813   1.744   5.215
 7771SOL    HW224213   3.671   1.816   5.250
 7772SOL     OW24214   4.449   0.277   2.874
 7772SOL    HW124215   4.492   0.189   2.891
 7772SOL    HW224216   4.359   0.279   2.918
 7773SOL     OW24217   2.558   5.738   5.235
 7773SOL    HW124218   2.656   5.755   5.249
 7773SOL    HW224219   2.513   5.727   5.324
 7774SOL     OW24220   5.111   2.152   4.239
 7774SOL    HW124221   5.145   2.158   4.333
 7774SOL    HW224222   5.140   2.233   4.188
 7775SOL     OW24223   4.574   6.063   0.913
 7775SOL    HW124224   4.653   6.006   0.931
 7775SOL    HW224225   4.490   6.013   0.935
 7776SOL     OW24226   0.505   5.626   5.970
 7776SOL    HW124227   0.544   5.597   6.057
 7776SOL    HW224228   0.444   5.555   5.935
 7777SOL     OW24229   6.167   6.438   4.171
 7777SOL    HW124230   6.158   6.340   4.153
 7777SOL    HW224231   6.079   6.483   4.157
 7778SOL     OW24232   5.477   4.448   0.217
 7778SOL    HW124233   5.529   4.431   0.301
 7778SOL    HW224234   5.501   4.538   0.181
 7779SOL     OW24235   2.633   2.012   1.509
 7779SOL    HW124236   2.635   2.110   1.525
 7779SOL    HW224237   2.539   1.979   1.511
 7780SOL     OW24238   1.109   4.915   5.347
 7780SOL    HW124239   1.073   5.008   5.348
 7780SOL    HW224240   1.205   4.916   5.374
 7781SOL     OW24241   2.612   4.679   1.038
 7781SOL    HW124242   2.706   4.653   1.014
 7781SOL    HW224243   2.581   4.623   1.114
 7782SOL     OW24244   5.160   5.259   4.214
 7782SOL    HW124245   5.154   5.326   4.288
 7782SOL    HW224246   5.183   5.169   4.252
 7783SOL     OW24247   0.925   6.335   4.939
 7783SOL    HW124248   0.894   6.343   4.845
 7783SOL    HW224249   1.019   6.299   4.940
 7784SOL     OW24250   3.449   2.567   1.658
 7784SOL    HW124251   3.542   2.546   1.690
 7784SOL    HW224252   3.405   2.629   1.723
 7785SOL     OW24253   1.683   6.395   4.657
 7785SOL    HW124254   1.664   6.344   4.741
 7785SOL    HW224255   1.698   6.491   4.680
 7786SOL     OW24256   3.547   6.300   0.759
 7786SOL    HW124257   3.595   6.372   0.710
 7786SOL    HW224258   3.562   6.310   0.857
 7787SOL     OW24259   1.828   2.906   6.270
 7787SOL    HW124260   1.831   2.813   6.308
 7787SOL    HW224261   1.753   2.913   6.204
 7788SOL     OW24262   1.993   5.100   1.337
 7788SOL    HW124263   2.040   5.042   1.403
 7788SOL    HW224264   2.037   5.093   1.248
 7789SOL     OW24265   2.365   6.862   6.216
 7789SOL    HW124266   2.360   6.956   6.250
 7789SOL    HW224267   2.279   6.815   6.238
 7790SOL     OW24268   5.358   5.737   3.330
 7790SOL    HW124269   5.329   5.642   3.330
 7790SOL    HW224270   5.452   5.744   3.363
 7791SOL     OW24271   2.805   5.154   2.851
 7791SOL    HW124272   2.834   5.149   2.756
 7791SOL    HW224273   2.761   5.068   2.877
 7792SOL     OW24274   1.551   5.654   4.370
 7792SOL    HW124275   1.539   5.650   4.469
 7792SOL    HW224276   1.646   5.634   4.347
 7793SOL     OW24277   4.085   1.077   1.295
 7793SOL    HW124278   4.054   1.121   1.379
 7793SOL    HW224279   4.061   1.134   1.217
 7794SOL     OW24280   6.268   3.985   2.548
 7794SOL    HW124281   6.202   3.967   2.474
 7794SOL    HW224282   6.297   3.898   2.587
 7795SOL     OW24283   1.823   3.915   5.152
 7795SOL    HW124284   1.834   3.816   5.164
 7795SOL    HW224285   1.770   3.952   5.228
 7796SOL     OW24286   3.697   2.892   4.626
 7796SOL    HW124287   3.768   2.823   4.609
 7796SOL    HW224288   3.732   2.960   4.690
 7797SOL     OW24289   1.688   0.061   1.700
 7797SOL    HW124290   1.703   7.001   1.762
 7797SOL    HW224291   1.655   0.027   1.612
 7798SOL     OW24292   1.478   3.528   3.798
 7798SOL    HW124293   1.480   3.603   3.865
 7798SOL    HW224294   1.452   3.443   3.844
 7799SOL     OW24295   1.807   5.942   2.953
 7799SOL    HW124296   1.840   5.947   2.859
 7799SOL    HW224297   1.745   5.863   2.962
 7800SOL     OW24298   1.000   5.928   2.240
 7800SOL    HW124299   1.007   5.962   2.147
 7800SOL    HW224300   0.985   5.829   2.238
 7801SOL     OW24301   1.846   1.830   1.657
 7801SOL    HW124302   1.801   1.840   1.568
 7801SOL    HW224303   1.850   1.919   1.702
 7802SOL     OW24304   5.811   2.917   1.048
 7802SOL    HW124305   5.810   2.817   1.041
 7802SOL    HW224306   5.723   2.953   1.015
 7803SOL     OW24307   4.262   2.266   5.747
 7803SOL    HW124308   4.243   2.248   5.843
 7803SOL    HW224309   4.175   2.268   5.696
 7804SOL     OW24310   4.521   2.080   5.231
 7804SOL    HW124311   4.552   2.122   5.145
 7804SOL    HW224312   4.600   2.059   5.288
 7805SOL     OW24313   5.559   3.241   1.455
 7805SOL    HW124314   5.567   3.312   1.386
 7805SOL    HW224315   5.621   3.165   1.433
 7806SOL     OW24316   6.465   2.109   6.495
 7806SOL    HW124317   6.503   2.200   6.512
 7806SOL    HW224318   6.403   2.085   6.569
 7807SOL     OW24319   1.479   4.798   5.873
 7807SOL    HW124320   1.502   4.728   5.805
 7807SOL    HW224321   1.537   4.787   5.954
 7808SOL     OW24322   6.183   3.376   4.446
 7808SOL    HW124323   6.097   3.345   4.487
 7808SOL    HW224324   6.174   3.378   4.347
 7809SOL     OW24325   4.149   5.020   4.421
 7809SOL    HW124326   4.091   5.080   4.367
 7809SOL    HW224327   4.092   4.963   4.482
 7810SOL     OW24328   3.355   6.716   4.640
 7810SOL    HW124329   3.417   6.720   4.719
 7810SOL    HW224330   3.261   6.702   4.672
 7811SOL     OW24331   1.500   5.521   2.058
 7811SOL    HW124332   1.445   5.603   2.074
 7811SOL    HW224333   1.439   5.444   2.037
 7812SOL     OW24334   0.013   2.187   4.455
 7812SOL    HW124335   6.997   2.138   4.536
 7812SOL    HW224336   0.080   2.131   4.408
 7813SOL     OW24337   4.113   2.312   0.131
 7813SOL    HW124338   4.070   2.222   0.126
 7813SOL    HW224339   4.076   2.362   0.210
 7814SOL     OW24340   0.411   3.684   3.495
 7814SOL    HW124341   0.407   3.587   3.518
 7814SOL    HW224342   0.319   3.718   3.474
 7815SOL     OW24343   6.078   1.443   4.605
 7815SOL    HW124344   6.092   1.406   4.513
 7815SOL    HW224345   5.985   1.424   4.635
 7816SOL     OW24346   1.465   2.276   6.433
 7816SOL    HW124347   1.514   2.360   6.455
 7816SOL    HW224348   1.374   2.299   6.397
 7817SOL     OW24349   4.845   4.177   4.199
 7817SOL    HW124350   4.832   4.225   4.285
 7817SOL    HW224351   4.882   4.086   4.216
 7818SOL     OW24352   4.810   0.210   2.605
 7818SOL    HW124353   4.861   0.291   2.635
 7818SOL    HW224354   4.871   0.132   2.598
 7819SOL     OW24355   6.746   4.268   3.594
 7819SOL    HW124356   6.689   4.293   3.672
 7819SOL    HW224357   6.837   4.243   3.626
 7820SOL     OW24358   1.615   1.130   5.123
 7820SOL    HW124359   1.703   1.161   5.160
 7820SOL    HW224360   1.541   1.180   5.168
 7821SOL     OW24361   5.175   5.387   6.783
 7821SOL    HW124362   5.132   5.379   6.693
 7821SOL    HW224363   5.175   5.298   6.828
 7822SOL     OW24364   0.827   1.255   0.272
 7822SOL    HW124365   0.927   1.256   0.283
 7822SOL    HW224366   0.789   1.178   0.322
 7823SOL     OW24367   2.939   3.555   6.040
 7823SOL    HW124368   2.995   3.613   5.980
 7823SOL    HW224369   2.847   3.594   6.047
 7824SOL     OW24370   5.569   1.334   4.040
 7824SOL    HW124371   5.506   1.277   3.987
 7824SOL    HW224372   5.632   1.381   3.979
 7825SOL     OW24373   1.030   3.411   0.656
 7825SOL    HW124374   1.065   3.355   0.731
 7825SOL    HW224375   1.106   3.459   0.611
 7826SOL     OW24376   5.958   1.616   6.937
 7826SOL    HW124377   5.909   1.651   6.857
 7826SOL    HW224378   5.915   1.532   6.969
 7827SOL     OW24379   3.239   4.851   1.418
 7827SOL    HW124380   3.273   4.933   1.463
 7827SOL    HW224381   3.175   4.804   1.479
 7828SOL     OW24382   0.732   5.148   6.984
 7828SOL    HW124383   0.784   5.114   0.044
 7828SOL    HW224384   0.742   5.084   6.907
 7829SOL     OW24385   1.871   2.979   6.913
 7829SOL    HW124386   1.929   3.058   6.930
 7829SOL    HW224387   1.800   3.003   6.846
 7830SOL     OW24388   3.854   3.633   6.113
 7830SOL    HW124389   3.931   3.636   6.049
 7830SOL    HW224390   3.777   3.684   6.076
 7831SOL     OW24391   1.261   5.605   1.160
 7831SOL    HW124392   1.317   5.552   1.096
 7831SOL    HW224393   1.171   5.621   1.119
 7832SOL     OW24394   4.125   1.295   4.186
 7832SOL    HW124395   4.046   1.233   4.191
 7832SOL    HW224396   4.097   1.380   4.141
 7833SOL     OW24397   0.479   1.224   6.662
 7833SOL    HW124398   0.389   1.195   6.630
 7833SOL    HW224399   0.496   1.317   6.632
 7834SOL     OW24400   6.798   0.756   3.622
 7834SOL    HW124401   6.803   0.856   3.620
 7834SOL    HW224402   6.702   0.728   3.615
 7835SOL     OW24403   2.398   2.072   5.209
 7835SOL    HW124404   2.325   2.088   5.276
 7835SOL    HW224405   2.385   2.133   5.131
 7836SOL     OW24406   3.011   2.844   5.362
 7836SOL    HW124407   3.045   2.759   5.322
 7836SOL    HW224408   3.088   2.902   5.390
 7837SOL     OW24409   6.831   5.680   1.183
 7837SOL    HW124410   6.908   5.667   1.246
 7837SOL    HW224411   6.757   5.617   1.207
 7838SOL     OW24412   4.008   6.374   6.943
 7838SOL    HW124413   3.938   6.394   6.875
 7838SOL    HW224414   4.098   6.388   6.902
 7839SOL     OW24415   5.909   4.329   5.101
 7839SOL    HW124416   5.912   4.400   5.171
 7839SOL    HW224417   5.996   4.329   5.051
 7840SOL     OW24418   5.663   2.986   4.281
 7840SOL    HW124419   5.703   2.898   4.308
 7840SOL    HW224420   5.605   3.021   4.354
 7841SOL     OW24421   4.390   1.807   6.626
 7841SOL    HW124422   4.444   1.877   6.674
 7841SOL    HW224423   4.333   1.758   6.692
 7842SOL     OW24424   1.783   2.146   2.885
 7842SOL    HW124425   1.824   2.055   2.884
 7842SOL    HW224426   1.683   2.137   2.891
 7843SOL     OW24427   5.499   4.590   2.225
 7843SOL    HW124428   5.589   4.585   2.181
 7843SOL    HW224429   5.456   4.500   2.223
 7844SOL     OW24430   4.385   6.853   3.334
 7844SOL    HW124431   4.462   6.915   3.348
 7844SOL    HW224432   4.316   6.897   3.277
 7845SOL     OW24433   6.026   1.792   3.918
 7845SOL    HW124434   6.044   1.890   3.930
 7845SOL    HW224435   5.984   1.755   4.000
 7846SOL     OW24436   0.789   1.083   2.768
 7846SOL    HW124437   0.741   0.999   2.745
 7846SOL    HW224438   0.850   1.067   2.846
 7847SOL     OW24439   6.704   1.930   3.057
 7847SOL    HW124440   6.802   1.912   3.067
 7847SOL    HW224441   6.689   2.027   3.039
 7848SOL     OW24442   2.779   2.846   0.840
 7848SOL    HW124443   2.812   2.911   0.772
 7848SOL    HW224444   2.684   2.821   0.819
 7849SOL     OW24445   5.182   3.789   2.984
 7849SOL    HW124446   5.275   3.775   2.952
 7849SOL    HW224447   5.166   3.886   3.002
 7850SOL     OW24448   0.961   1.986   4.389
 7850SOL    HW124449   1.033   2.053   4.368
 7850SOL    HW224450   0.941   1.932   4.308
 7851SOL     OW24451   6.153   0.853   2.064
 7851SOL    HW124452   6.164   0.952   2.069
 7851SOL    HW224453   6.083   0.824   2.130
 7852SOL     OW24454   2.765   1.091   5.893
 7852SOL    HW124455   2.771   1.033   5.811
 7852SOL    HW224456   2.698   1.053   5.956
 7853SOL     OW24457   4.663   2.009   2.008
 7853SOL    HW124458   4.589   2.062   1.966
 7853SOL    HW224459   4.631   1.915   2.025
 7854SOL     OW24460   3.287   3.077   0.486
 7854SOL    HW124461   3.251   2.985   0.468
 7854SOL    HW224462   3.362   3.071   0.552
 7855SOL     OW24463   3.581   5.546   4.918
 7855SOL    HW124464   3.676   5.538   4.886
 7855SOL    HW224465   3.522   5.488   4.862
 7856SOL     OW24466   5.907   4.528   5.285
 7856SOL    HW124467   5.878   4.507   5.378
 7856SOL    HW224468   5.844   4.595   5.245
 7857SOL     OW24469   6.309   2.499   5.773
 7857SOL    HW124470   6.292   2.449   5.859
 7857SOL    HW224471   6.242   2.470   5.705
 7858SOL     OW24472   5.313   4.835   3.198
 7858SOL    HW124473   5.295   4.738   3.185
 7858SOL    HW224474   5.322   4.854   3.296
 7859SOL     OW24475   5.444   3.253   6.867
 7859SOL    HW124476   5.423   3.155   6.873
 7859SOL    HW224477   5.381   3.304   6.925
 7860SOL     OW24478   4.663   0.678   2.812
 7860SOL    HW124479   4.734   0.747   2.798
 7860SOL    HW224480   4.586   0.718   2.862
 7861SOL     OW24481   3.806   5.187   2.122
 7861SOL    HW124482   3.789   5.236   2.208
 7861SOL    HW224483   3.874   5.237   2.069
 7862SOL     OW24484   3.066   4.319   1.673
 7862SOL    HW124485   3.045   4.226   1.704
 7862SOL    HW224486   3.015   4.385   1.727
 7863SOL     OW24487   0.265   5.432   4.007
 7863SOL    HW124488   0.294   5.482   4.088
 7863SOL    HW224489   0.337   5.434   3.938
 7864SOL     OW24490   0.408   5.349   5.233
 7864SOL    HW124491   0.462   5.432   5.243
 7864SOL    HW224492   0.403   5.301   5.321
 7865SOL     OW24493   5.623   0.382   4.225
 7865SOL    HW124494   5.636   0.300   4.170
 7865SOL    HW224495   5.531   0.419   4.209
 7866SOL     OW24496   2.268   2.263   6.236
 7866SOL    HW124497   2.361   2.233   6.215
 7866SOL    HW224498   2.203   2.192   6.210
 7867SOL     OW24499   5.161   6.851   2.909
 7867SOL    HW124500   5.134   6.855   2.813
 7867SOL    HW224501   5.260   6.832   2.916
 7868SOL     OW24502   5.786   0.153   2.302
 7868SOL    HW124503   5.810   0.070   2.353
 7868SOL    HW224504   5.855   0.169   2.232
 7869SOL     OW24505   5.602   3.976   0.130
 7869SOL    HW124506   5.682   3.938   0.085
 7869SOL    HW224507   5.563   4.049   0.074
 7870SOL     OW24508   3.992   5.208   4.288
 7870SOL    HW124509   4.022   5.296   4.323
 7870SOL    HW224510   3.945   5.220   4.200
 7871SOL     OW24511   5.306   3.007   2.635
 7871SOL    HW124512   5.260   2.965   2.713
 7871SOL    HW224513   5.246   3.076   2.594
 7872SOL     OW24514   2.264   4.107   2.966
 7872SOL    HW124515   2.169   4.137   2.958
 7872SOL    HW224516   2.325   4.183   2.945
 7873SOL     OW24517   5.942   0.453   6.034
 7873SOL    HW124518   6.000   0.499   6.102
 7873SOL    HW224519   5.848   0.450   6.066
 7874SOL     OW24520   5.391   1.730   0.225
 7874SOL    HW124521   5.454   1.655   0.206
 7874SOL    HW224522   5.360   1.770   0.139
 7875SOL     OW24523   5.072   2.169   6.270
 7875SOL    HW124524   5.149   2.120   6.311
 7875SOL    HW224525   5.107   2.234   6.202
 7876SOL     OW24526   0.221   6.742   4.960
 7876SOL    HW124527   0.208   6.644   4.946
 7876SOL    HW224528   0.312   6.769   4.927
 7877SOL     OW24529   0.520   2.174   2.502
 7877SOL    HW124530   0.551   2.242   2.569
 7877SOL    HW224531   0.445   2.212   2.449
 7878SOL     OW24532   5.534   5.066   4.011
 7878SOL    HW124533   5.605   5.123   4.052
 7878SOL    HW224534   5.475   5.123   3.954
 7879SOL     OW24535   4.315   5.526   3.470
 7879SOL    HW124536   4.248   5.599   3.482
 7879SOL    HW224537   4.386   5.533   3.540
 7880SOL     OW24538   2.247   5.070   1.927
 7880SOL    HW124539   2.174   5.128   1.892
 7880SOL    HW224540   2.313   5.126   1.977
 7881SOL     OW24541   5.570   4.035   5.212
 7881SOL    HW124542   5.535   4.001   5.125
 7881SOL    HW224543   5.519   3.994   5.287
 7882SOL     OW24544   0.914   3.304   3.057
 7882SOL    HW124545   0.836   3.267   3.109
 7882SOL    HW224546   0.926   3.400   3.079
 7883SOL     OW24547   1.531   0.446   0.570
 7883SOL    HW124548   1.562   0.373   0.509
 7883SOL    HW224549   1.442   0.422   0.608
 7884SOL     OW24550   2.250   4.099   3.650
 7884SOL    HW124551   2.246   4.151   3.564
 7884SOL    HW224552   2.232   4.003   3.632
 7885SOL     OW24553   6.307   5.654   1.316
 7885SOL    HW124554   6.227   5.675   1.372
 7885SOL    HW224555   6.373   5.729   1.321
 7886SOL     OW24556   3.603   5.638   0.654
 7886SOL    HW124557   3.630   5.672   0.564
 7886SOL    HW224558   3.540   5.704   0.697
 7887SOL     OW24559   3.196   2.604   5.312
 7887SOL    HW124560   3.179   2.532   5.245
 7887SOL    HW224561   3.293   2.626   5.315
 7888SOL     OW24562   6.643   6.660   4.922
 7888SOL    HW124563   6.546   6.671   4.900
 7888SOL    HW224564   6.665   6.563   4.926
 7889SOL     OW24565   1.084   5.002   6.982
 7889SOL    HW124566   0.989   4.974   6.967
 7889SOL    HW224567   1.121   4.955   0.044
 7890SOL     OW24568   0.427   3.147   3.548
 7890SOL    HW124569   0.493   3.109   3.613
 7890SOL    HW224570   0.414   3.084   3.473
 7891SOL     OW24571   2.088   4.346   4.557
 7891SOL    HW124572   2.158   4.285   4.520
 7891SOL    HW224573   2.001   4.329   4.510
 7892SOL     OW24574   1.925   1.831   4.054
 7892SOL    HW124575   1.838   1.855   4.095
 7892SOL    HW224576   1.936   1.732   4.054
 7893SOL     OW24577   6.305   6.449   1.561
 7893SOL    HW124578   6.290   6.424   1.466
 7893SOL    HW224579   6.399   6.479   1.574
 7894SOL     OW24580   3.717   6.928   0.953
 7894SOL    HW124581   3.769   6.885   0.879
 7894SOL    HW224582   3.780   6.978   1.013
 7895SOL     OW24583   5.213   0.528   4.945
 7895SOL    HW124584   5.235   0.521   4.848
 7895SOL    HW224585   5.127   0.578   4.957
 7896SOL     OW24586   4.053   3.122   1.072
 7896SOL    HW124587   4.144   3.081   1.076
 7896SOL    HW224588   4.059   3.220   1.093
 7897SOL     OW24589   3.435   2.729   1.044
 7897SOL    HW124590   3.423   2.793   0.968
 7897SOL    HW224591   3.411   2.775   1.129
 7898SOL     OW24592   3.661   0.897   3.785
 7898SOL    HW124593   3.669   0.888   3.685
 7898SOL    HW224594   3.664   0.993   3.810
 7899SOL     OW24595   6.088   0.680   1.067
 7899SOL    HW124596   6.165   0.648   1.122
 7899SOL    HW224597   6.016   0.714   1.126
 7900SOL     OW24598   1.514   5.351   1.787
 7900SOL    HW124599   1.585   5.415   1.819
 7900SOL    HW224600   1.557   5.280   1.731
 7901SOL     OW24601   3.993   1.141   6.280
 7901SOL    HW124602   3.955   1.097   6.198
 7901SOL    HW224603   3.921   1.148   6.350
 7902SOL     OW24604   6.452   6.900   1.684
 7902SOL    HW124605   6.550   6.896   1.703
 7902SOL    HW224606   6.420   6.994   1.694
 7903SOL     OW24607   4.247   1.699   2.787
 7903SOL    HW124608   4.179   1.627   2.770
 7903SOL    HW224609   4.202   1.788   2.785
 7904SOL     OW24610   5.732   6.197   2.741
 7904SOL    HW124611   5.774   6.253   2.812
 7904SOL    HW224612   5.652   6.243   2.704
 7905SOL     OW24613   5.796   2.094   0.577
 7905SOL    HW124614   5.829   2.002   0.553
 7905SOL    HW224615   5.831   2.119   0.667
 7906SOL     OW24616   0.573   5.284   0.339
 7906SOL    HW124617   0.539   5.349   0.407
 7906SOL    HW224618   0.664   5.312   0.309
 7907SOL     OW24619   5.369   2.153   3.382
 7907SOL    HW124620   5.434   2.135   3.309
 7907SOL    HW224621   5.412   2.134   3.471
 7908SOL     OW24622   1.714   0.991   5.681
 7908SOL    HW124623   1.711   0.894   5.660
 7908SOL    HW224624   1.683   1.006   5.775
 7909SOL     OW24625   4.530   4.472   4.266
 7909SOL    HW124626   4.474   4.547   4.231
 7909SOL    HW224627   4.596   4.507   4.332
 7910SOL     OW24628   2.769   2.993   6.517
 7910SOL    HW124629   2.720   2.994   6.605
 7910SOL    HW224630   2.835   3.068   6.515
 7911SOL     OW24631   0.969   4.205   0.162
 7911SOL    HW124632   0.870   4.195   0.152
 7911SOL    HW224633   0.989   4.270   0.235
 7912SOL     OW24634   6.334   4.722   0.548
 7912SOL    HW124635   6.348   4.642   0.489
 7912SOL    HW224636   6.369   4.804   0.502
 7913SOL     OW24637   1.191   4.125   1.954
 7913SOL    HW124638   1.136   4.138   1.871
 7913SOL    HW224639   1.286   4.107   1.929
 7914SOL     OW24640   0.563   4.936   0.201
 7914SOL    HW124641   0.651   4.973   0.231
 7914SOL    HW224642   0.518   4.891   0.278
 7915SOL     OW24643   4.779   2.545   1.681
 7915SOL    HW124644   4.815   2.637   1.691
 7915SOL    HW224645   4.799   2.492   1.763
 7916SOL     OW24646   0.152   5.464   5.181
 7916SOL    HW124647   0.160   5.401   5.104
 7916SOL    HW224648   0.231   5.453   5.242
 7917SOL     OW24649   3.073   3.089   5.052
 7917SOL    HW124650   2.986   3.063   5.094
 7917SOL    HW224651   3.145   3.026   5.080
 7918SOL     OW24652   0.387   0.638   4.925
 7918SOL    HW124653   0.348   0.561   4.974
 7918SOL    HW224654   0.401   0.614   4.829
 7919SOL     OW24655   1.175   4.233   3.281
 7919SOL    HW124656   1.103   4.239   3.212
 7919SOL    HW224657   1.204   4.325   3.306
 7920SOL     OW24658   0.309   0.270   0.704
 7920SOL    HW124659   0.347   0.336   0.769
 7920SOL    HW224660   0.279   0.317   0.621
 7921SOL     OW24661   5.240   6.072   2.356
 7921SOL    HW124662   5.291   6.128   2.291
 7921SOL    HW224663   5.155   6.118   2.381
 7922SOL     OW24664   6.978   6.101   1.301
 7922SOL    HW124665   0.032   6.047   1.345
 7922SOL    HW224666   6.984   6.088   1.202
 7923SOL     OW24667   3.671   0.409   6.550
 7923SOL    HW124668   3.576   0.398   6.579
 7923SOL    HW224669   3.698   0.505   6.563
 7924SOL     OW24670   5.018   0.006   2.573
 7924SOL    HW124671   5.073   6.944   2.600
 7924SOL    HW224672   5.072   0.064   2.512
 7925SOL     OW24673   0.939   0.749   6.580
 7925SOL    HW124674   0.882   0.792   6.650
 7925SOL    HW224675   0.883   0.686   6.526
 7926SOL     OW24676   4.559   1.476   5.679
 7926SOL    HW124677   4.604   1.546   5.624
 7926SOL    HW224678   4.627   1.410   5.710
 7927SOL     OW24679   4.101   6.124   3.387
 7927SOL    HW124680   4.201   6.130   3.394
 7927SOL    HW224681   4.074   6.114   3.292
 7928SOL     OW24682   1.575   1.533   4.708
 7928SOL    HW124683   1.505   1.470   4.742
 7928SOL    HW224684   1.535   1.623   4.693
 7929SOL     OW24685   4.702   4.377   5.578
 7929SOL    HW124686   4.771   4.418   5.637
 7929SOL    HW224687   4.744   4.308   5.519
 7930SOL     OW24688   4.414   5.580   4.335
 7930SOL    HW124689   4.428   5.668   4.380
 7930SOL    HW224690   4.366   5.595   4.248
 7931SOL     OW24691   3.413   2.746   0.274
 7931SOL    HW124692   3.470   2.749   0.355
 7931SOL    HW224693   3.432   2.826   0.216
 7932SOL     OW24694   1.417   6.631   6.823
 7932SOL    HW124695   1.397   6.587   6.736
 7932SOL    HW224696   1.513   6.615   6.847
 7933SOL     OW24697   0.210   5.947   6.508
 7933SOL    HW124698   0.117   5.949   6.472
 7933SOL    HW224699   0.212   5.993   6.597
 7934SOL     OW24700   2.046   4.927   6.581
 7934SOL    HW124701   2.027   4.889   6.491
 7934SOL    HW224702   1.960   4.933   6.633
 7935SOL     OW24703   6.025   6.500   1.395
 7935SOL    HW124704   5.971   6.557   1.333
 7935SOL    HW224705   5.966   6.429   1.433
 7936SOL     OW24706   3.878   5.540   2.044
 7936SOL    HW124707   3.897   5.450   2.004
 7936SOL    HW224708   3.953   5.566   2.104
 7937SOL     OW24709   6.444   6.315   3.633
 7937SOL    HW124710   6.481   6.372   3.706
 7937SOL    HW224711   6.505   6.237   3.618
 7938SOL     OW24712   6.929   5.750   4.046
 7938SOL    HW124713   6.852   5.687   4.043
 7938SOL    HW224714   6.903   5.837   4.005
 7939SOL     OW24715   1.276   2.537   4.488
 7939SOL    HW124716   1.300   2.604   4.419
 7939SOL    HW224717   1.279   2.579   4.579
 7940SOL     OW24718   1.878   3.275   1.603
 7940SOL    HW124719   1.806   3.280   1.671
 7940SOL    HW224720   1.967   3.291   1.646
 7941SOL     OW24721   6.270   0.477   1.749
 7941SOL    HW124722   6.370   0.488   1.746
 7941SOL    HW224723   6.228   0.568   1.752
 7942SOL     OW24724   6.661   5.136   2.686
 7942SOL    HW124725   6.750   5.171   2.716
 7942SOL    HW224726   6.589   5.170   2.746
 7943SOL     OW24727   6.946   3.473   6.489
 7943SOL    HW124728   7.011   3.397   6.484
 7943SOL    HW224729   6.984   3.547   6.545
 7944SOL     OW24730   0.711   2.241   0.862
 7944SOL    HW124731   0.664   2.288   0.788
 7944SOL    HW224732   0.786   2.185   0.825
 7945SOL     OW24733   6.091   5.137   1.670
 7945SOL    HW124734   6.176   5.139   1.722
 7945SOL    HW224735   6.017   5.104   1.728
 7946SOL     OW24736   3.591   0.591   6.270
 7946SOL    HW124737   3.542   0.575   6.356
 7946SOL    HW224738   3.560   0.677   6.230
 7947SOL     OW24739   3.748   2.303   6.633
 7947SOL    HW124740   3.763   2.401   6.620
 7947SOL    HW224741   3.836   2.259   6.652
 7948SOL     OW24742   1.276   6.686   1.148
 7948SOL    HW124743   1.237   6.599   1.116
 7948SOL    HW224744   1.246   6.760   1.087
 7949SOL     OW24745   4.537   4.484   4.798
 7949SOL    HW124746   4.479   4.483   4.879
 7949SOL    HW224747   4.554   4.390   4.768
 7950SOL     OW24748   4.816   5.065   3.743
 7950SOL    HW124749   4.790   5.140   3.805
 7950SOL    HW224750   4.766   4.983   3.768
 7951SOL     OW24751   2.251   4.064   1.886
 7951SOL    HW124752   2.290   4.019   1.806
 7951SOL    HW224753   2.152   4.056   1.884
 7952SOL     OW24754   0.042   3.647   6.767
 7952SOL    HW124755   0.081   3.555   6.772
 7952SOL    HW224756   6.972   3.650   6.816
 7953SOL     OW24757   2.956   2.181   3.477
 7953SOL    HW124758   3.044   2.134   3.479
 7953SOL    HW224759   2.883   2.115   3.460
 7954SOL     OW24760   3.156   4.522   6.305
 7954SOL    HW124761   3.119   4.601   6.354
 7954SOL    HW224762   3.226   4.478   6.361
 7955SOL     OW24763   1.906   0.800   6.356
 7955SOL    HW124764   1.870   0.730   6.417
 7955SOL    HW224765   1.881   0.891   6.389
 7956SOL     OW24766   4.280   6.557   2.544
 7956SOL    HW124767   4.212   6.562   2.470
 7956SOL    HW224768   4.235   6.579   2.631
 7957SOL     OW24769   1.017   0.674   1.190
 7957SOL    HW124770   1.077   0.662   1.111
 7957SOL    HW224771   1.060   0.633   1.271
 7958SOL     OW24772   3.840   4.944   5.359
 7958SOL    HW124773   3.757   5.000   5.363
 7958SOL    HW224774   3.918   5.001   5.335
 7959SOL     OW24775   4.562   5.899   0.417
 7959SOL    HW124776   4.636   5.887   0.351
 7959SOL    HW224777   4.565   5.991   0.455
 7960SOL     OW24778   2.656   1.658   5.910
 7960SOL    HW124779   2.739   1.685   5.958
 7960SOL    HW224780   2.577   1.669   5.970
 7961SOL     OW24781   6.611   1.096   0.973
 7961SOL    HW124782   6.540   1.155   0.937
 7961SOL    HW224783   6.571   1.009   1.002
 7962SOL     OW24784   0.987   0.423   6.258
 7962SOL    HW124785   1.086   0.412   6.268
 7962SOL    HW224786   0.965   0.520   6.248
 7963SOL     OW24787   6.490   6.645   3.850
 7963SOL    HW124788   6.440   6.691   3.923
 7963SOL    HW224789   6.458   6.679   3.761
 7964SOL     OW24790   0.382   4.435   2.494
 7964SOL    HW124791   0.377   4.335   2.495
 7964SOL    HW224792   0.294   4.473   2.522
 7965SOL     OW24793   4.533   2.645   5.397
 7965SOL    HW124794   4.469   2.591   5.452
 7965SOL    HW224795   4.591   2.700   5.457
 7966SOL     OW24796   1.903   3.096   5.622
 7966SOL    HW124797   1.944   3.074   5.710
 7966SOL    HW224798   1.964   3.156   5.571
 7967SOL     OW24799   3.333   6.639   2.532
 7967SOL    HW124800   3.425   6.643   2.573
 7967SOL    HW224801   3.275   6.578   2.586
 7968SOL     OW24802   1.795   2.820   3.717
 7968SOL    HW124803   1.732   2.771   3.658
 7968SOL    HW224804   1.794   2.779   3.808
 7969SOL     OW24805   4.007   6.140   0.077
 7969SOL    HW124806   3.999   6.213   0.009
 7969SOL    HW224807   3.948   6.064   0.051
 7970SOL     OW24808   6.668   2.805   2.643
 7970SOL    HW124809   6.684   2.727   2.583
 7970SOL    HW224810   6.584   2.851   2.617
 7971SOL     OW24811   3.184   2.278   0.664
 7971SOL    HW124812   3.161   2.309   0.572
 7971SOL    HW224813   3.102   2.244   0.710
 7972SOL     OW24814   2.193   3.178   6.709
 7972SOL    HW124815   2.115   3.116   6.704
 7972SOL    HW224816   2.271   3.130   6.751
 7973SOL     OW24817   4.376   4.872   4.460
 7973SOL    HW124818   4.364   4.776   4.488
 7973SOL    HW224819   4.287   4.915   4.448
 7974SOL     OW24820   6.291   0.736   5.452
 7974SOL    HW124821   6.259   0.755   5.545
 7974SOL    HW224822   6.325   0.642   5.447
 7975SOL     OW24823   6.373   1.396   2.292
 7975SOL    HW124824   6.346   1.453   2.370
 7975SOL    HW224825   6.362   1.449   2.208
 7976SOL     OW24826   0.402   0.396   6.043
 7976SOL    HW124827   0.378   0.452   5.964
 7976SOL    HW224828   0.350   0.311   6.042
 7977SOL     OW24829   4.912   5.957   2.652
 7977SOL    HW124830   4.814   5.942   2.642
 7977SOL    HW224831   4.959   5.936   2.567
 7978SOL     OW24832   5.519   3.782   6.686
 7978SOL    HW124833   5.543   3.701   6.740
 7978SOL    HW224834   5.591   3.798   6.618
 7979SOL     OW24835   4.416   6.002   4.993
 7979SOL    HW124836   4.448   6.093   4.970
 7979SOL    HW224837   4.319   5.993   4.967
 7980SOL     OW24838   3.220   5.515   0.080
 7980SOL    HW124839   3.261   5.558   0.161
 7980SOL    HW224840   3.125   5.491   0.100
 7981SOL     OW24841   0.634   5.072   1.209
 7981SOL    HW124842   0.586   5.146   1.257
 7981SOL    HW224843   0.654   5.100   1.115
 7982SOL     OW24844   1.310   1.369   6.641
 7982SOL    HW124845   1.323   1.446   6.703
 7982SOL    HW224846   1.360   1.385   6.556
 7983SOL     OW24847   5.799   2.422   1.608
 7983SOL    HW124848   5.707   2.387   1.587
 7983SOL    HW224849   5.850   2.433   1.522
 7984SOL     OW24850   0.905   1.271   0.621
 7984SOL    HW124851   0.955   1.268   0.708
 7984SOL    HW224852   0.944   1.341   0.562
 7985SOL     OW24853   2.730   1.026   4.377
 7985SOL    HW124854   2.828   1.019   4.357
 7985SOL    HW224855   2.679   0.964   4.317
 7986SOL     OW24856   3.257   1.358   6.122
 7986SOL    HW124857   3.342   1.397   6.157
 7986SOL    HW224858   3.212   1.423   6.062
 7987SOL     OW24859   1.272   2.635   6.477
 7987SOL    HW124860   1.316   2.723   6.496
 7987SOL    HW224861   1.173   2.648   6.471
 7988SOL     OW24862   0.730   2.150   3.608
 7988SOL    HW124863   0.707   2.092   3.686
 7988SOL    HW224864   0.828   2.171   3.610
 7989SOL     OW24865   3.213   2.821   6.108
 7989SOL    HW124866   3.223   2.875   6.191
 7989SOL    HW224867   3.243   2.875   6.029
 7990SOL     OW24868   0.773   3.882   4.701
 7990SOL    HW124869   0.817   3.968   4.672
 7990SOL    HW224870   0.802   3.808   4.640
 7991SOL     OW24871   5.717   6.717   3.549
 7991SOL    HW124872   5.761   6.643   3.499
 7991SOL    HW224873   5.634   6.683   3.593
 7992SOL     OW24874   1.145   0.170   1.092
 7992SOL    HW124875   1.181   0.098   1.033
 7992SOL    HW224876   1.218   0.235   1.114
 7993SOL     OW24877   0.651   6.768   0.559
 7993SOL    HW124878   0.723   6.811   0.614
 7993SOL    HW224879   0.690   6.692   0.507
 7994SOL     OW24880   4.122   0.096   3.539
 7994SOL    HW124881   4.203   0.144   3.506
 7994SOL    HW224882   4.148   0.030   3.610
 7995SOL     OW24883   5.039   6.080   3.805
 7995SOL    HW124884   5.039   6.014   3.729
 7995SOL    HW224885   4.962   6.060   3.866
 7996SOL     OW24886   2.490   6.608   4.835
 7996SOL    HW124887   2.580   6.637   4.802
 7996SOL    HW224888   2.446   6.684   4.882
 7997SOL     OW24889   0.018   1.618   0.999
 7997SOL    HW124890   6.975   1.611   1.079
 7997SOL    HW224891   0.093   1.552   1.008
 7998SOL     OW24892   3.181   6.848   0.775
 7998SOL    HW124893   3.176   6.930   0.831
 7998SOL    HW224894   3.106   6.848   0.709
 7999SOL     OW24895   1.037   0.219   6.070
 7999SOL    HW124896   0.973   0.278   6.119
 7999SOL    HW224897   1.051   0.254   5.977
 8000SOL     OW24898   4.867   0.457   6.766
 8000SOL    HW124899   4.887   0.553   6.788
 8000SOL    HW224900   4.769   0.442   6.774
 8001SOL     OW24901   4.665   6.383   1.079
 8001SOL    HW124902   4.719   6.383   0.995
 8001SOL    HW224903   4.569   6.400   1.058
 8002SOL     OW24904   1.465   1.423   5.840
 8002SOL    HW124905   1.477   1.418   5.740
 8002SOL    HW224906   1.539   1.476   5.880
 8003SOL     OW24907   3.296   5.178   2.350
 8003SOL    HW124908   3.263   5.163   2.257
 8003SOL    HW224909   3.396   5.182   2.350
 8004SOL     OW24910   2.140   3.450   2.998
 8004SOL    HW124911   2.094   3.369   2.963
 8004SOL    HW224912   2.125   3.527   2.935
 8005SOL     OW24913   3.045   0.829   1.366
 8005SOL    HW124914   3.099   0.910   1.388
 8005SOL    HW224915   2.976   0.852   1.298
 8006SOL     OW24916   1.821   6.705   6.009
 8006SOL    HW124917   1.885   6.651   5.954
 8006SOL    HW224918   1.825   6.676   6.104
 8007SOL     OW24919   6.593   0.596   4.332
 8007SOL    HW124920   6.573   0.499   4.344
 8007SOL    HW224921   6.508   0.648   4.344
 8008SOL     OW24922   3.864   5.238   6.365
 8008SOL    HW124923   3.923   5.173   6.317
 8008SOL    HW224924   3.849   5.319   6.308
 8009SOL     OW24925   5.783   0.886   2.474
 8009SOL    HW124926   5.732   0.926   2.550
 8009SOL    HW224927   5.881   0.888   2.495
 8010SOL     OW24928   1.660   1.613   5.884
 8010SOL    HW124929   1.747   1.594   5.838
 8010SOL    HW224930   1.677   1.672   5.962
 8011SOL     OW24931   3.028   2.572   1.234
 8011SOL    HW124932   3.018   2.508   1.310
 8011SOL    HW224933   3.110   2.549   1.181
 8012SOL     OW24934   1.934   3.851   1.383
 8012SOL    HW124935   2.001   3.877   1.453
 8012SOL    HW224936   1.845   3.836   1.426
 8013SOL     OW24937   1.459   5.221   3.424
 8013SOL    HW124938   1.369   5.263   3.408
 8013SOL    HW224939   1.477   5.155   3.352
 8014SOL     OW24940   1.215   6.060   5.467
 8014SOL    HW124941   1.152   6.100   5.401
 8014SOL    HW224942   1.273   5.993   5.421
 8015SOL     OW24943   3.223   0.637   6.322
 8015SOL    HW124944   3.217   0.712   6.388
 8015SOL    HW224945   3.180   0.664   6.236
 8016SOL     OW24946   4.777   0.432   5.581
 8016SOL    HW124947   4.781   0.357   5.646
 8016SOL    HW224948   4.686   0.438   5.542
 8017SOL     OW24949   5.802   0.099   0.633
 8017SOL    HW124950   5.769   0.169   0.696
 8017SOL    HW224951   5.724   0.057   0.586
 8018SOL     OW24952   3.428   2.027   6.233
 8018SOL    HW124953   3.360   2.017   6.306
 8018SOL    HW224954   3.434   1.942   6.181
 8019SOL     OW24955   2.423   4.161   0.141
 8019SOL    HW124956   2.423   4.064   0.116
 8019SOL    HW224957   2.339   4.203   0.109
 8020SOL     OW24958   5.876   0.803   1.242
 8020SOL    HW124959   5.907   0.798   1.337
 8020SOL    HW224960   5.785   0.764   1.234
 8021SOL     OW24961   1.011   2.573   1.258
 8021SOL    HW124962   0.915   2.555   1.238
 8021SOL    HW224963   1.041   2.654   1.208
 8022SOL     OW24964   5.530   6.927   3.065
 8022SOL    HW124965   5.486   6.880   2.989
 8022SOL    HW224966   5.465   6.990   3.108
 8023SOL     OW24967   5.742   5.161   2.475
 8023SOL    HW124968   5.687   5.082   2.501
 8023SOL    HW224969   5.684   5.242   2.472
 8024SOL     OW24970   1.826   4.841   6.350
 8024SOL    HW124971   1.855   4.747   6.330
 8024SOL    HW224972   1.840   4.898   6.269
 8025SOL     OW24973   1.680   6.429   6.516
 8025SOL    HW124974   1.770   6.394   6.490
 8025SOL    HW224975   1.685   6.528   6.530
 8026SOL     OW24976   0.280   4.452   6.820
 8026SOL    HW124977   0.196   4.506   6.811
 8026SOL    HW224978   0.295   4.398   6.737
 8027SOL     OW24979   4.705   1.036   4.678
 8027SOL    HW124980   4.606   1.050   4.673
 8027SOL    HW224981   4.752   1.124   4.674
 8028SOL     OW24982   3.841   5.527   5.354
 8028SOL    HW124983   3.856   5.428   5.366
 8028SOL    HW224984   3.750   5.542   5.316
 8029SOL     OW24985   4.589   2.940   1.192
 8029SOL    HW124986   4.554   2.848   1.176
 8029SOL    HW224987   4.532   2.986   1.260
 8030SOL     OW24988   4.439   4.619   0.748
 8030SOL    HW124989   4.427   4.570   0.662
 8030SOL    HW224990   4.352   4.660   0.775
 8031SOL     OW24991   6.370   6.536   1.979
 8031SOL    HW124992   6.453   6.503   1.934
 8031SOL    HW224993   6.338   6.619   1.934
 8032SOL     OW24994   6.665   4.603   1.402
 8032SOL    HW124995   6.618   4.649   1.326
 8032SOL    HW224996   6.619   4.626   1.488
 8033SOL     OW24997   5.056   1.190   5.696
 8033SOL    HW124998   5.075   1.222   5.603
 8033SOL    HW224999   5.092   1.256   5.762
 8034SOL     OW25000   4.785   0.141   4.556
 8034SOL    HW125001   4.750   0.109   4.469
 8034SOL    HW225002   4.819   0.235   4.546
 8035SOL     OW25003   5.329   1.732   4.240
 8035SOL    HW125004   5.368   1.788   4.312
 8035SOL    HW225005   5.401   1.675   4.199
 8036SOL     OW25006   6.942   3.899   3.334
 8036SOL    HW125007   6.910   3.978   3.386
 8036SOL    HW225008   0.018   3.877   3.361
 8037SOL     OW25009   1.740   3.245   0.518
 8037SOL    HW125010   1.740   3.330   0.467
 8037SOL    HW225011   1.802   3.179   0.475
 8038SOL     OW25012   4.455   6.795   2.870
 8038SOL    HW125013   4.364   6.830   2.893
 8038SOL    HW225014   4.455   6.763   2.775
 8039SOL     OW25015   0.772   1.540   4.833
 8039SOL    HW125016   0.778   1.638   4.813
 8039SOL    HW225017   0.688   1.521   4.883
 8040SOL     OW25018   1.757   5.329   6.908
 8040SOL    HW125019   1.700   5.252   6.878
 8040SOL    HW225020   1.810   5.363   6.831
 8041SOL     OW25021   2.587   1.861   2.643
 8041SOL    HW125022   2.591   1.788   2.711
 8041SOL    HW225023   2.501   1.854   2.592
 8042SOL     OW25024   3.374   2.919   3.936
 8042SOL    HW125025   3.334   2.880   3.853
 8042SOL    HW225026   3.307   2.978   3.981
 8043SOL     OW25027   3.636   6.466   1.352
 8043SOL    HW125028   3.729   6.461   1.387
 8043SOL    HW225029   3.590   6.378   1.366
 8044SOL     OW25030   3.933   2.033   1.101
 8044SOL    HW125031   3.988   2.084   1.035
 8044SOL    HW225032   3.836   2.042   1.077
 8045SOL     OW25033   5.233   2.284   2.980
 8045SOL    HW125034   5.274   2.266   2.890
 8045SOL    HW225035   5.153   2.225   2.992
 8046SOL     OW25036   0.258   5.357   1.351
 8046SOL    HW125037   0.233   5.287   1.284
 8046SOL    HW225038   0.357   5.358   1.363
 8047SOL     OW25039   4.387   5.814   4.452
 8047SOL    HW125040   4.316   5.857   4.508
 8047SOL    HW225041   4.430   5.883   4.395
 8048SOL     OW25042   5.174   1.020   5.449
 8048SOL    HW125043   5.263   1.064   5.439
 8048SOL    HW225044   5.150   1.015   5.546
 8049SOL     OW25045   0.676   0.276   0.533
 8049SOL    HW125046   0.621   0.195   0.515
 8049SOL    HW225047   0.687   0.329   0.449
 8050SOL     OW25048   1.584   3.994   3.555
 8050SOL    HW125049   1.644   4.047   3.615
 8050SOL    HW225050   1.528   3.932   3.610
 8051SOL     OW25051   4.940   5.997   3.526
 8051SOL    HW125052   4.981   6.085   3.551
 8051SOL    HW225053   5.013   5.932   3.504
 8052SOL     OW25054   4.040   1.449   1.761
 8052SOL    HW125055   3.944   1.472   1.779
 8052SOL    HW225056   4.049   1.419   1.666
 8053SOL     OW25057   2.886   3.544   3.770
 8053SOL    HW125058   2.866   3.577   3.862
 8053SOL    HW225059   2.875   3.619   3.705
 8054SOL     OW25060   5.613   6.449   4.507
 8054SOL    HW125061   5.666   6.369   4.477
 8054SOL    HW225062   5.599   6.445   4.605
 8055SOL     OW25063   0.687   6.967   5.273
 8055SOL    HW125064   0.670   0.041   5.237
 8055SOL    HW225065   0.785   6.948   5.273
 8056SOL     OW25066   2.525   1.035   3.726
 8056SOL    HW125067   2.607   1.079   3.763
 8056SOL    HW225068   2.544   1.003   3.633
 8057SOL     OW25069   2.869   2.301   2.889
 8057SOL    HW125070   2.789   2.361   2.897
 8057SOL    HW225071   2.902   2.276   2.980
 8058SOL     OW25072   3.514   0.119   2.889
 8058SOL    HW125073   3.440   0.064   2.850
 8058SOL    HW225074   3.597   0.107   2.835
 8059SOL     OW25075   3.286   1.871   5.146
 8059SOL    HW125076   3.378   1.862   5.110
 8059SOL    HW225077   3.221   1.826   5.085
 8060SOL     OW25078   6.097   2.418   4.927
 8060SOL    HW125079   6.078   2.432   5.024
 8060SOL    HW225080   6.077   2.324   4.902
 8061SOL     OW25081   0.457   1.099   2.883
 8061SOL    HW125082   0.482   1.192   2.855
 8061SOL    HW225083   0.481   1.035   2.810
 8062SOL     OW25084   3.890   4.841   3.668
 8062SOL    HW125085   3.847   4.752   3.682
 8062SOL    HW225086   3.885   4.894   3.753
 8063SOL     OW25087   1.559   2.370   1.774
 8063SOL    HW125088   1.557   2.455   1.827
 8063SOL    HW225089   1.466   2.343   1.750
 8064SOL     OW25090   0.054   3.624   1.760
 8064SOL    HW125091   0.050   3.627   1.860
 8064SOL    HW225092   0.113   3.549   1.731
 8065SOL     OW25093   2.520   5.536   3.729
 8065SOL    HW125094   2.427   5.500   3.723
 8065SOL    HW225095   2.569   5.489   3.802
 8066SOL     OW25096   0.635   1.910   4.980
 8066SOL    HW125097   0.544   1.951   4.988
 8066SOL    HW225098   0.635   1.843   4.906
 8067SOL     OW25099   4.825   2.814   2.116
 8067SOL    HW125100   4.804   2.897   2.064
 8067SOL    HW225101   4.877   2.839   2.198
 8068SOL     OW25102   0.163   3.487   1.408
 8068SOL    HW125103   0.123   3.578   1.407
 8068SOL    HW225104   0.232   3.482   1.480
 8069SOL     OW25105   2.900   5.670   1.520
 8069SOL    HW125106   2.804   5.688   1.540
 8069SOL    HW225107   2.949   5.653   1.606
 8070SOL     OW25108   4.305   3.236   0.387
 8070SOL    HW125109   4.345   3.263   0.300
 8070SOL    HW225110   4.372   3.253   0.460
 8071SOL     OW25111   3.070   6.317   4.824
 8071SOL    HW125112   3.060   6.305   4.923
 8071SOL    HW225113   3.167   6.331   4.802
 8072SOL     OW25114   3.879   1.710   1.005
 8072SOL    HW125115   3.839   1.620   0.984
 8072SOL    HW225116   3.941   1.736   0.931
 8073SOL     OW25117   3.108   5.233   4.750
 8073SOL    HW125118   3.151   5.189   4.828
 8073SOL    HW225119   3.102   5.332   4.766
 8074SOL     OW25120   3.753   2.908   0.649
 8074SOL    HW125121   3.827   2.851   0.613
 8074SOL    HW225122   3.789   2.966   0.722
 8075SOL     OW25123   6.953   0.264   0.931
 8075SOL    HW125124   6.949   0.165   0.943
 8075SOL    HW225125   6.983   0.285   0.838
 8076SOL     OW25126   6.238   1.329   5.577
 8076SOL    HW125127   6.185   1.358   5.657
 8076SOL    HW225128   6.281   1.409   5.535
 8077SOL     OW25129   3.177   6.146   2.775
 8077SOL    HW125130   3.246   6.077   2.751
 8077SOL    HW225131   3.110   6.106   2.837
 8078SOL     OW25132   6.970   1.929   0.440
 8078SOL    HW125133   6.941   1.977   0.356
 8078SOL    HW225134   0.030   1.977   0.481
 8079SOL     OW25135   5.137   2.177   3.663
 8079SOL    HW125136   5.039   2.160   3.677
 8079SOL    HW225137   5.187   2.157   3.747
 8080SOL     OW25138   0.983   2.461   0.915
 8080SOL    HW125139   1.003   2.559   0.917
 8080SOL    HW225140   0.889   2.446   0.946
 8081SOL     OW25141   6.129   5.887   5.470
 8081SOL    HW125142   6.063   5.812   5.478
 8081SOL    HW225143   6.094   5.954   5.405
 8082SOL     OW25144   4.314   6.977   2.649
 8082SOL    HW125145   4.278   6.950   2.560
 8082SOL    HW225146   4.414   6.974   2.648
 8083SOL     OW25147   4.871   3.101   3.128
 8083SOL    HW125148   4.836   3.031   3.191
 8083SOL    HW225149   4.885   3.187   3.177
 8084SOL     OW25150   4.146   6.969   0.107
 8084SOL    HW125151   4.120   0.005   0.026
 8084SOL    HW225152   4.071   6.972   0.173
 8085SOL     OW25153   6.915   6.409   1.783
 8085SOL    HW125154   6.908   6.394   1.684
 8085SOL    HW225155   7.008   6.436   1.806
 8086SOL     OW25156   5.828   0.543   2.996
 8086SOL    HW125157   5.891   0.571   2.924
 8086SOL    HW225158   5.857   0.584   3.083
 8087SOL     OW25159   2.783   1.269   0.182
 8087SOL    HW125160   2.690   1.303   0.202
 8087SOL    HW225161   2.850   1.329   0.227
 8088SOL     OW25162   5.563   2.158   1.368
 8088SOL    HW125163   5.532   2.065   1.345
 8088SOL    HW225164   5.596   2.203   1.285
 8089SOL     OW25165   5.535   2.507   0.626
 8089SOL    HW125166   5.545   2.421   0.576
 8089SOL    HW225167   5.540   2.584   0.562
 8090SOL     OW25168   4.236   1.807   0.392
 8090SOL    HW125169   4.214   1.831   0.487
 8090SOL    HW225170   4.172   1.737   0.361
 8091SOL     OW25171   2.241   3.570   5.176
 8091SOL    HW125172   2.284   3.651   5.216
 8091SOL    HW225173   2.196   3.595   5.091
 8092SOL     OW25174   5.818   1.971   4.818
 8092SOL    HW125175   5.787   1.879   4.792
 8092SOL    HW225176   5.900   1.994   4.766
 8093SOL     OW25177   3.863   5.527   2.621
 8093SOL    HW125178   3.863   5.540   2.521
 8093SOL    HW225179   3.932   5.459   2.645
 8094SOL     OW25180   1.516   3.667   4.826
 8094SOL    HW125181   1.601   3.716   4.808
 8094SOL    HW225182   1.483   3.625   4.741
 8095SOL     OW25183   0.381   4.387   4.473
 8095SOL    HW125184   0.428   4.460   4.524
 8095SOL    HW225185   0.305   4.352   4.528
 8096SOL     OW25186   2.162   6.447   3.216
 8096SOL    HW125187   2.105   6.519   3.256
 8096SOL    HW225188   2.217   6.486   3.142
 8097SOL     OW25189   4.118   0.179   3.848
 8097SOL    HW125190   4.093   0.267   3.806
 8097SOL    HW225191   4.217   0.167   3.843
 8098SOL     OW25192   1.543   0.036   3.090
 8098SOL    HW125193   1.486   0.117   3.071
 8098SOL    HW225194   1.640   0.062   3.087
 8099SOL     OW25195   3.668   6.880   4.614
 8099SOL    HW125196   3.737   6.841   4.675
 8099SOL    HW225197   3.629   6.962   4.657
 8100SOL     OW25198   6.234   1.110   0.437
 8100SOL    HW125199   6.295   1.172   0.488
 8100SOL    HW225200   6.260   1.110   0.341
 8101SOL     OW25201   2.153   6.622   2.535
 8101SOL    HW125202   2.058   6.653   2.541
 8101SOL    HW225203   2.172   6.559   2.611
 8102SOL     OW25204   0.631   4.357   4.002
 8102SOL    HW125205   0.597   4.291   4.068
 8102SOL    HW225206   0.730   4.344   3.989
 8103SOL     OW25207   3.458   0.031   0.952
 8103SOL    HW125208   3.386   6.988   0.987
 8103SOL    HW225209   3.547   7.006   0.969
 8104SOL     OW25210   3.784   0.389   6.001
 8104SOL    HW125211   3.688   0.411   5.982
 8104SOL    HW225212   3.829   0.360   5.917
 8105SOL     OW25213   0.800   2.838   3.179
 8105SOL    HW125214   0.740   2.906   3.222
 8105SOL    HW225215   0.892   2.847   3.218
 8106SOL     OW25216   2.540   6.153   2.986
 8106SOL    HW125217   2.464   6.123   2.926
 8106SOL    HW225218   2.606   6.204   2.932
 8107SOL     OW25219   0.439   4.892   4.542
 8107SOL    HW125220   0.491   4.887   4.627
 8107SOL    HW225221   0.412   4.987   4.525
 8108SOL     OW25222   5.999   3.013   5.508
 8108SOL    HW125223   6.090   3.054   5.514
 8108SOL    HW225224   5.980   2.987   5.413
 8109SOL     OW25225   0.988   3.681   5.063
 8109SOL    HW125226   1.040   3.657   4.981
 8109SOL    HW225227   0.973   3.599   5.118
 8110SOL     OW25228   3.012   6.009   1.440
 8110SOL    HW125229   3.035   6.106   1.439
 8110SOL    HW225230   3.081   5.959   1.493
 8111SOL     OW25231   4.921   0.592   4.828
 8111SOL    HW125232   4.977   0.654   4.774
 8111SOL    HW225233   4.846   0.642   4.871
 8112SOL     OW25234   2.107   2.225   4.560
 8112SOL    HW125235   2.106   2.158   4.485
 8112SOL    HW225236   2.140   2.313   4.527
 8113SOL     OW25237   2.694   3.239   0.610
 8113SOL    HW125238   2.673   3.335   0.592
 8113SOL    HW225239   2.664   3.215   0.703
 8114SOL     OW25240   1.599   3.775   2.549
 8114SOL    HW125241   1.696   3.783   2.572
 8114SOL    HW225242   1.546   3.838   2.605
 8115SOL     OW25243   3.375   0.800   0.034
 8115SOL    HW125244   3.429   0.721   0.061
 8115SOL    HW225245   3.280   0.773   0.019
 8116SOL     OW25246   4.791   5.136   5.746
 8116SOL    HW125247   4.862   5.125   5.675
 8116SOL    HW225248   4.709   5.176   5.704
 8117SOL     OW25249   1.259   0.988   3.454
 8117SOL    HW125250   1.283   0.897   3.487
 8117SOL    HW225251   1.171   1.016   3.493
 8118SOL     OW25252   5.730   4.239   5.284
 8118SOL    HW125253   5.669   4.169   5.247
 8118SOL    HW225254   5.792   4.271   5.212
 8119SOL     OW25255   5.435   5.174   5.920
 8119SOL    HW125256   5.430   5.269   5.887
 8119SOL    HW225257   5.369   5.118   5.870
 8120SOL     OW25258   2.916   5.342   0.455
 8120SOL    HW125259   2.854   5.269   0.484
 8120SOL    HW225260   2.879   5.430   0.484
 8121SOL     OW25261   0.478   4.833   1.700
 8121SOL    HW125262   0.548   4.896   1.667
 8121SOL    HW225263   0.466   4.845   1.799
 8122SOL     OW25264   0.892   5.486   2.625
 8122SOL    HW125265   0.849   5.563   2.577
 8122SOL    HW225266   0.857   5.400   2.589
 8123SOL     OW25267   6.643   1.057   6.022
 8123SOL    HW125268   6.663   0.996   6.098
 8123SOL    HW225269   6.544   1.066   6.011
 8124SOL     OW25270   5.830   6.634   1.237
 8124SOL    HW125271   5.743   6.586   1.245
 8124SOL    HW225272   5.820   6.708   1.170
 8125SOL     OW25273   1.273   1.586   3.498
 8125SOL    HW125274   1.337   1.646   3.546
 8125SOL    HW225275   1.233   1.636   3.421
 8126SOL     OW25276   5.071   4.745   2.659
 8126SOL    HW125277   4.993   4.807   2.642
 8126SOL    HW225278   5.070   4.671   2.592
 8127SOL     OW25279   2.736   5.024   6.229
 8127SOL    HW125280   2.669   5.034   6.302
 8127SOL    HW225281   2.827   5.012   6.269
 8128SOL     OW25282   2.860   1.126   1.799
 8128SOL    HW125283   2.795   1.126   1.875
 8128SOL    HW225284   2.824   1.068   1.725
 8129SOL     OW25285   4.674   0.913   6.602
 8129SOL    HW125286   4.655   0.830   6.550
 8129SOL    HW225287   4.770   0.912   6.632
 8130SOL     OW25288   6.985   2.989   6.623
 8130SOL    HW125289   6.968   3.075   6.672
 8130SOL    HW225290   0.060   2.957   6.645
 8131SOL     OW25291   3.066   2.028   0.918
 8131SOL    HW125292   3.144   2.090   0.933
 8131SOL    HW225293   3.042   1.984   1.004
 8132SOL     OW25294   5.997   6.978   6.178
 8132SOL    HW125295   5.925   6.958   6.112
 8132SOL    HW225296   6.079   6.926   6.155
 8133SOL     OW25297   2.683   4.990   1.806
 8133SOL    HW125298   2.761   4.937   1.840
 8133SOL    HW225299   2.657   5.058   1.875
 8134SOL     OW25300   0.203   2.565   5.650
 8134SOL    HW125301   0.296   2.531   5.639
 8134SOL    HW225302   0.202   2.637   5.720
 8135SOL     OW25303   2.731   5.772   1.878
 8135SOL    HW125304   2.733   5.678   1.913
 8135SOL    HW225305   2.820   5.815   1.892
 8136SOL     OW25306   4.410   5.423   2.886
 8136SOL    HW125307   4.317   5.415   2.849
 8136SOL    HW225308   4.406   5.442   2.984
 8137SOL     OW25309   3.413   1.214   4.936
 8137SOL    HW125310   3.409   1.312   4.920
 8137SOL    HW225311   3.473   1.171   4.869
 8138SOL     OW25312   5.993   1.229   6.901
 8138SOL    HW125313   5.993   1.205   6.998
 8138SOL    HW225314   5.964   1.149   6.848
 8139SOL     OW25315   0.203   0.976   2.596
 8139SOL    HW125316   0.303   0.972   2.597
 8139SOL    HW225317   0.168   0.952   2.686
 8140SOL     OW25318   4.697   0.202   1.123
 8140SOL    HW125319   4.790   0.165   1.116
 8140SOL    HW225320   4.697   0.281   1.184
 8141SOL     OW25321   4.934   6.677   5.630
 8141SOL    HW125322   4.859   6.636   5.681
 8141SOL    HW225323   4.902   6.761   5.587
 8142SOL     OW25324   1.246   4.725   6.973
 8142SOL    HW125325   1.153   4.711   6.941
 8142SOL    HW225326   1.310   4.676   6.914
 8143SOL     OW25327   6.915   4.537   0.972
 8143SOL    HW125328   6.830   4.491   0.947
 8143SOL    HW225329   6.898   4.602   1.046
 8144SOL     OW25330   6.567   6.697   6.299
 8144SOL    HW125331   6.535   6.784   6.263
 8144SOL    HW225332   6.504   6.664   6.369
 8145SOL     OW25333   5.837   5.560   1.426
 8145SOL    HW125334   5.849   5.638   1.487
 8145SOL    HW225335   5.921   5.505   1.425
 8146SOL     OW25336   4.508   0.903   5.231
 8146SOL    HW125337   4.442   0.855   5.174
 8146SOL    HW225338   4.464   0.984   5.271
 8147SOL     OW25339   6.497   2.109   2.031
 8147SOL    HW125340   6.438   2.085   1.954
 8147SOL    HW225341   6.591   2.083   2.010
 8148SOL     OW25342   4.968   4.324   0.482
 8148SOL    HW125343   4.930   4.270   0.407
 8148SOL    HW225344   4.928   4.416   0.481
 8149SOL     OW25345   3.059   6.075   2.287
 8149SOL    HW125346   3.018   6.083   2.196
 8149SOL    HW225347   3.060   6.165   2.331
 8150SOL     OW25348   2.285   4.153   1.143
 8150SOL    HW125349   2.192   4.183   1.122
 8150SOL    HW225350   2.333   4.132   1.058
 8151SOL     OW25351   5.530   3.887   2.040
 8151SOL    HW125352   5.590   3.807   2.045
 8151SOL    HW225353   5.536   3.928   1.949
 8152SOL     OW25354   6.284   2.301   2.627
 8152SOL    HW125355   6.268   2.374   2.560
 8152SOL    HW225356   6.372   2.256   2.608
 8153SOL     OW25357   1.537   0.322   3.787
 8153SOL    HW125358   1.444   0.285   3.788
 8153SOL    HW225359   1.538   0.409   3.738
 8154SOL     OW25360   3.504   5.317   2.144
 8154SOL    HW125361   3.536   5.237   2.195
 8154SOL    HW225362   3.522   5.400   2.196
 8155SOL     OW25363   1.650   3.340   1.732
 8155SOL    HW125364   1.564   3.294   1.754
 8155SOL    HW225365   1.655   3.427   1.781
 8156SOL     OW25366   5.852   6.160   0.867
 8156SOL    HW125367   5.913   6.239   0.856
 8156SOL    HW225368   5.766   6.177   0.818
 8157SOL     OW25369   6.608   4.817   6.087
 8157SOL    HW125370   6.708   4.825   6.083
 8157SOL    HW225371   6.568   4.868   6.012
 8158SOL     OW25372   5.036   4.852   0.488
 8158SOL    HW125373   5.068   4.786   0.420
 8158SOL    HW225374   4.962   4.812   0.542
 8159SOL     OW25375   2.739   5.778   2.827
 8159SOL    HW125376   2.761   5.863   2.874
 8159SOL    HW225377   2.675   5.796   2.752
 8160SOL     OW25378   5.022   1.067   3.268
 8160SOL    HW125379   5.076   1.097   3.189
 8160SOL    HW225380   5.005   0.969   3.261
 8161SOL     OW25381   5.664   2.575   6.683
 8161SOL    HW125382   5.707   2.489   6.709
 8161SOL    HW225383   5.570   2.577   6.716
 8162SOL     OW25384   5.775   6.567   6.717
 8162SOL    HW125385   5.856   6.536   6.768
 8162SOL    HW225386   5.777   6.528   6.625
 8163SOL     OW25387   2.658   3.963   5.329
 8163SOL    HW125388   2.657   4.059   5.356
 8163SOL    HW225389   2.584   3.947   5.263
 8164SOL     OW25390   5.278   2.145   0.395
 8164SOL    HW125391   5.232   2.115   0.312
 8164SOL    HW225392   5.359   2.088   0.411
 8165SOL     OW25393   0.746   3.753   6.522
 8165SOL    HW125394   0.711   3.671   6.570
 8165SOL    HW225395   0.825   3.789   6.572
 8166SOL     OW25396   1.279   0.724   3.210
 8166SOL    HW125397   1.301   0.630   3.183
 8166SOL    HW225398   1.192   0.751   3.169
 8167SOL     OW25399   6.720   6.955   4.139
 8167SOL    HW125400   6.695   0.008   4.072
 8167SOL    HW225401   6.723   6.866   4.094
 8168SOL     OW25402   1.817   1.557   3.381
 8168SOL    HW125403   1.869   1.609   3.313
 8168SOL    HW225404   1.761   1.488   3.334
 8169SOL     OW25405   5.187   1.630   1.253
 8169SOL    HW125406   5.139   1.708   1.292
 8169SOL    HW225407   5.217   1.569   1.326
 8170SOL     OW25408   0.999   4.611   2.670
 8170SOL    HW125409   0.906   4.635   2.642
 8170SOL    HW225410   1.064   4.646   2.602
 8171SOL     OW25411   1.779   1.923   6.410
 8171SOL    HW125412   1.683   1.925   6.382
 8171SOL    HW225413   1.786   1.878   6.499
 8172SOL     OW25414   1.110   2.001   2.283
 8172SOL    HW125415   1.133   1.927   2.219
 8172SOL    HW225416   1.050   1.966   2.354
 8173SOL     OW25417   5.334   1.083   2.154
 8173SOL    HW125418   5.284   1.038   2.080
 8173SOL    HW225419   5.391   1.015   2.201
 8174SOL     OW25420   6.033   2.708   1.159
 8174SOL    HW125421   5.953   2.673   1.112
 8174SOL    HW225422   6.038   2.807   1.147
 8175SOL     OW25423   0.102   2.273   5.559
 8175SOL    HW125424   0.028   2.253   5.624
 8175SOL    HW225425   0.147   2.358   5.585
 8176SOL     OW25426   2.333   5.294   2.071
 8176SOL    HW125427   2.357   5.299   2.168
 8176SOL    HW225428   2.299   5.384   2.041
 8177SOL     OW25429   3.432   6.492   3.800
 8177SOL    HW125430   3.458   6.446   3.715
 8177SOL    HW225431   3.387   6.426   3.861
 8178SOL     OW25432   2.747   6.111   6.673
 8178SOL    HW125433   2.724   6.150   6.762
 8178SOL    HW225434   2.666   6.067   6.634
 8179SOL     OW25435   5.225   1.933   5.295
 8179SOL    HW125436   5.129   1.911   5.282
 8179SOL    HW225437   5.279   1.849   5.299
 8180SOL     OW25438   6.777   0.005   4.768
 8180SOL    HW125439   6.855   0.026   4.828
 8180SOL    HW225440   6.783   0.062   4.686
 8181SOL     OW25441   2.116   1.565   0.519
 8181SOL    HW125442   2.027   1.520   0.515
 8181SOL    HW225443   2.178   1.510   0.576
 8182SOL     OW25444   3.706   3.192   5.705
 8182SOL    HW125445   3.793   3.170   5.660
 8182SOL    HW225446   3.700   3.290   5.722
 8183SOL     OW25447   6.783   2.218   5.075
 8183SOL    HW125448   6.864   2.243   5.021
 8183SOL    HW225449   6.806   2.220   5.172
 8184SOL     OW25450   6.194   1.368   6.783
 8184SOL    HW125451   6.121   1.300   6.791
 8184SOL    HW225452   6.216   1.404   6.873
 8185SOL     OW25453   2.760   6.637   0.193
 8185SOL    HW125454   2.703   6.685   0.260
 8185SOL    HW225455   2.709   6.562   0.153
 8186SOL     OW25456   3.894   5.932   5.421
 8186SOL    HW125457   3.805   5.926   5.376
 8186SOL    HW225458   3.882   5.962   5.515
 8187SOL     OW25459   1.432   2.234   5.090
 8187SOL    HW125460   1.528   2.230   5.063
 8187SOL    HW225461   1.426   2.267   5.184
 8188SOL     OW25462   5.507   2.970   3.141
 8188SOL    HW125463   5.429   2.916   3.172
 8188SOL    HW225464   5.514   3.053   3.197
 8189SOL     OW25465   4.724   4.575   2.803
 8189SOL    HW125466   4.705   4.499   2.865
 8189SOL    HW225467   4.777   4.645   2.851
 8190SOL     OW25468   4.443   5.325   4.028
 8190SOL    HW125469   4.414   5.394   3.962
 8190SOL    HW225470   4.364   5.273   4.059
 8191SOL     OW25471   4.109   6.530   1.865
 8191SOL    HW125472   4.150   6.600   1.807
 8191SOL    HW225473   4.170   6.452   1.872
 8192SOL     OW25474   4.048   5.060   0.461
 8192SOL    HW125475   4.021   5.088   0.553
 8192SOL    HW225476   4.138   5.097   0.440
 8193SOL     OW25477   0.094   6.301   4.270
 8193SOL    HW125478   0.085   6.264   4.362
 8193SOL    HW225479   0.149   6.385   4.273
 8194SOL     OW25480   5.491   2.362   1.061
 8194SOL    HW125481   5.483   2.417   1.144
 8194SOL    HW225482   5.457   2.415   0.983
 8195SOL     OW25483   1.454   0.181   1.772
 8195SOL    HW125484   1.492   0.209   1.859
 8195SOL    HW225485   1.526   0.140   1.715
 8196SOL     OW25486   3.830   6.212   5.886
 8196SOL    HW125487   3.764   6.288   5.884
 8196SOL    HW225488   3.920   6.248   5.909
 8197SOL     OW25489   4.391   2.224   0.170
 8197SOL    HW125490   4.308   2.281   0.162
 8197SOL    HW225491   4.364   2.128   0.178
 8198SOL     OW25492   3.615   6.831   3.386
 8198SOL    HW125493   3.643   6.764   3.455
 8198SOL    HW225494   3.610   6.787   3.296
 8199SOL     OW25495   5.374   2.786   6.613
 8199SOL    HW125496   5.315   2.705   6.609
 8199SOL    HW225497   5.419   2.798   6.524
 8200SOL     OW25498   4.941   4.042   1.558
 8200SOL    HW125499   4.955   4.017   1.463
 8200SOL    HW225500   5.001   4.117   1.583
 8201SOL     OW25501   5.770   0.344   3.508
 8201SOL    HW125502   5.725   0.365   3.421
 8201SOL    HW225503   5.855   0.295   3.491
 8202SOL     OW25504   6.786   5.915   4.747
 8202SOL    HW125505   6.810   6.012   4.747
 8202SOL    HW225506   6.837   5.868   4.820
 8203SOL     OW25507   4.855   2.247   0.416
 8203SOL    HW125508   4.921   2.312   0.453
 8203SOL    HW225509   4.871   2.157   0.455
 8204SOL     OW25510   2.848   5.370   6.770
 8204SOL    HW125511   2.796   5.291   6.738
 8204SOL    HW225512   2.816   5.397   6.860
 8205SOL     OW25513   0.350   4.686   0.936
 8205SOL    HW125514   0.423   4.745   0.904
 8205SOL    HW225515   0.287   4.739   0.994
 8206SOL     OW25516   4.911   2.538   6.142
 8206SOL    HW125517   4.812   2.551   6.146
 8206SOL    HW225518   4.931   2.453   6.093
 8207SOL     OW25519   3.499   3.625   5.035
 8207SOL    HW125520   3.541   3.632   4.945
 8207SOL    HW225521   3.407   3.663   5.032
 8208SOL     OW25522   2.126   0.114   1.365
 8208SOL    HW125523   2.084   0.074   1.446
 8208SOL    HW225524   2.067   0.186   1.329
 8209SOL     OW25525   0.718   1.437   6.022
 8209SOL    HW125526   0.714   1.411   5.925
 8209SOL    HW225527   0.804   1.484   6.040
 8210SOL     OW25528   2.555   0.555   1.058
 8210SOL    HW125529   2.585   0.471   1.011
 8210SOL    HW225530   2.628   0.589   1.116
 8211SOL     OW25531   3.704   4.011   2.303
 8211SOL    HW125532   3.675   4.104   2.280
 8211SOL    HW225533   3.677   3.948   2.230
 8212SOL     OW25534   2.910   1.555   1.164
 8212SOL    HW125535   2.890   1.563   1.067
 8212SOL    HW225536   2.852   1.618   1.215
 8213SOL     OW25537   5.897   4.682   2.325
 8213SOL    HW125538   5.903   4.618   2.401
 8213SOL    HW225539   5.947   4.766   2.346
 8214SOL     OW25540   0.278   5.576   4.250
 8214SOL    HW125541   0.349   5.584   4.319
 8214SOL    HW225542   0.224   5.660   4.247
 8215SOL     OW25543   2.811   5.776   6.272
 8215SOL    HW125544   2.894   5.754   6.220
 8215SOL    HW225545   2.745   5.702   6.260
 8216SOL     OW25546   4.737   5.888   3.798
 8216SOL    HW125547   4.807   5.820   3.778
 8216SOL    HW225548   4.683   5.859   3.876
 8217SOL     OW25549   2.337   3.960   1.626
 8217SOL    HW125550   2.386   3.874   1.619
 8217SOL    HW225551   2.345   4.010   1.539
 8218SOL     OW25552   0.765   6.549   4.842
 8218SOL    HW125553   0.725   6.620   4.900
 8218SOL    HW225554   0.797   6.473   4.898
 8219SOL     OW25555   3.879   3.063   0.868
 8219SOL    HW125556   3.926   3.122   0.802
 8219SOL    HW225557   3.918   3.077   0.959
 8220SOL     OW25558   3.316   3.557   4.757
 8220SOL    HW125559   3.285   3.562   4.663
 8220SOL    HW225560   3.285   3.638   4.807
 8221SOL     OW25561   6.364   5.735   3.513
 8221SOL    HW125562   6.272   5.695   3.508
 8221SOL    HW225563   6.392   5.767   3.423
 8222SOL     OW25564   5.281   1.739   1.625
 8222SOL    HW125565   5.231   1.793   1.692
 8222SOL    HW225566   5.216   1.685   1.571
 8223SOL     OW25567   0.977   4.204   5.255
 8223SOL    HW125568   1.054   4.257   5.291
 8223SOL    HW225569   1.011   4.115   5.223
 8224SOL     OW25570   5.802   2.830   1.857
 8224SOL    HW125571   5.706   2.807   1.848
 8224SOL    HW225572   5.817   2.875   1.945
 8225SOL     OW25573   4.035   1.348   1.488
 8225SOL    HW125574   4.016   1.387   1.398
 8225SOL    HW225575   3.985   1.262   1.499
 8226SOL     OW25576   3.476   0.037   0.679
 8226SOL    HW125577   3.460   0.049   0.777
 8226SOL    HW225578   3.526   0.115   0.643
 8227SOL     OW25579   6.839   1.147   2.638
 8227SOL    HW125580   6.791   1.192   2.714
 8227SOL    HW225581   6.800   1.056   2.624
 8228SOL     OW25582   0.246   1.720   6.614
 8228SOL    HW125583   0.171   1.677   6.665
 8228SOL    HW225584   0.252   1.679   6.523
 8229SOL     OW25585   3.831   4.264   1.260
 8229SOL    HW125586   3.760   4.328   1.231
 8229SOL    HW225587   3.897   4.252   1.187
 8230SOL     OW25588   3.969   6.351   5.103
 8230SOL    HW125589   4.024   6.432   5.086
 8230SOL    HW225590   3.900   6.372   5.172
 8231SOL     OW25591   2.925   3.228   1.521
 8231SOL    HW125592   3.021   3.217   1.547
 8231SOL    HW225593   2.894   3.320   1.544
 8232SOL     OW25594   5.935   1.948   2.453
 8232SOL    HW125595   5.936   1.873   2.387
 8232SOL    HW225596   5.843   1.988   2.456
 8233SOL     OW25597   1.727   6.818   6.783
 8233SOL    HW125598   1.784   6.869   6.847
 8233SOL    HW225599   1.691   6.736   6.829
 8234SOL     OW25600   3.150   4.103   0.071
 8234SOL    HW125601   3.133   4.005   0.063
 8234SOL    HW225602   3.111   4.137   0.157
 8235SOL     OW25603   0.408   3.785   7.014
 8235SOL    HW125604   0.434   3.861   6.954
 8235SOL    HW225605   0.356   3.820   0.075
 8236SOL     OW25606   6.694   4.706   6.956
 8236SOL    HW125607   6.657   4.761   6.882
 8236SOL    HW225608   6.734   4.622   6.919
 8237SOL     OW25609   4.540   6.253   6.160
 8237SOL    HW125610   4.550   6.278   6.256
 8237SOL    HW225611   4.501   6.161   6.154
 8238SOL     OW25612   0.791   5.408   6.965
 8238SOL    HW125613   0.867   5.400   6.901
 8238SOL    HW225614   0.736   5.325   6.963
 8239SOL     OW25615   0.613   0.719   5.296
 8239SOL    HW125616   0.515   0.706   5.311
 8239SOL    HW225617   0.638   0.814   5.317
 8240SOL     OW25618   3.069   3.947   3.033
 8240SOL    HW125619   3.093   3.856   3.067
 8240SOL    HW225620   3.084   4.015   3.105
 8241SOL     OW25621   2.773   4.885   5.727
 8241SOL    HW125622   2.683   4.846   5.705
 8241SOL    HW225623   2.769   4.928   5.817
 8242SOL     OW25624   0.480   3.597   5.630
 8242SOL    HW125625   0.534   3.515   5.612
 8242SOL    HW225626   0.474   3.613   5.728
 8243SOL     OW25627   6.833   3.721   1.332
 8243SOL    HW125628   6.784   3.710   1.246
 8243SOL    HW225629   6.775   3.769   1.398
 8244SOL     OW25630   0.388   0.211   3.463
 8244SOL    HW125631   0.303   0.217   3.411
 8244SOL    HW225632   0.457   0.271   3.422
 8245SOL     OW25633   3.141   2.113   2.505
 8245SOL    HW125634   3.195   2.180   2.558
 8245SOL    HW225635   3.046   2.117   2.534
 8246SOL     OW25636   0.497   3.552   6.434
 8246SOL    HW125637   0.471   3.520   6.525
 8246SOL    HW225638   0.590   3.520   6.413
 8247SOL     OW25639   1.927   6.944   3.387
 8247SOL    HW125640   1.990   6.953   3.311
 8247SOL    HW225641   1.944   7.016   3.454
 8248SOL     OW25642   0.714   4.196   4.820
 8248SOL    HW125643   0.797   4.191   4.874
 8248SOL    HW225644   0.638   4.156   4.872
 8249SOL     OW25645   2.264   1.285   5.827
 8249SOL    HW125646   2.301   1.210   5.882
 8249SOL    HW225647   2.336   1.354   5.813
 8250SOL     OW25648   2.294   2.217   1.519
 8250SOL    HW125649   2.318   2.128   1.556
 8250SOL    HW225650   2.227   2.206   1.446
 8251SOL     OW25651   5.296   2.584   4.006
 8251SOL    HW125652   5.301   2.581   3.906
 8251SOL    HW225653   5.378   2.628   4.042
 8252SOL     OW25654   4.302   2.099   6.478
 8252SOL    HW125655   4.252   2.029   6.528
 8252SOL    HW225656   4.366   2.145   6.540
 8253SOL     OW25657   3.681   5.639   5.554
 8253SOL    HW125658   3.649   5.622   5.461
 8253SOL    HW225659   3.778   5.617   5.560
 8254SOL     OW25660   4.984   4.708   5.458
 8254SOL    HW125661   4.962   4.746   5.548
 8254SOL    HW225662   5.083   4.699   5.449
 8255SOL     OW25663   1.152   6.290   5.156
 8255SOL    HW125664   1.245   6.295   5.192
 8255SOL    HW225665   1.125   6.380   5.121
 8256SOL     OW25666   6.992   6.173   2.768
 8256SOL    HW125667   0.024   6.093   2.802
 8256SOL    HW225668   0.028   6.219   2.698
 8257SOL     OW25669   5.440   3.946   3.231
 8257SOL    HW125670   5.462   4.021   3.293
 8257SOL    HW225671   5.402   3.982   3.146
 8258SOL     OW25672   4.796   2.780   1.836
 8258SOL    HW125673   4.732   2.829   1.777
 8258SOL    HW225674   4.792   2.818   1.928
 8259SOL     OW25675   3.592   2.281   5.509
 8259SOL    HW125676   3.622   2.191   5.479
 8259SOL    HW225677   3.502   2.301   5.470
 8260SOL     OW25678   2.499   0.192   1.595
 8260SOL    HW125679   2.416   0.147   1.627
 8260SOL    HW225680   2.481   0.234   1.506
 8261SOL     OW25681   5.251   6.622   3.121
 8261SOL    HW125682   5.247   6.697   3.188
 8261SOL    HW225683   5.162   6.614   3.075
 8262SOL     OW25684   1.295   4.606   0.349
 8262SOL    HW125685   1.238   4.584   0.270
 8262SOL    HW225686   1.284   4.702   0.373
 8263SOL     OW25687   6.927   2.882   6.911
 8263SOL    HW125688   6.850   2.939   6.939
 8263SOL    HW225689   6.919   2.792   6.954
 8264SOL     OW25690   1.460   6.637   1.346
 8264SOL    HW125691   1.388   6.629   1.416
 8264SOL    HW225692   1.418   6.640   1.256
 8265SOL     OW25693   5.523   0.237   2.268
 8265SOL    HW125694   5.523   0.277   2.176
 8265SOL    HW225695   5.616   0.209   2.292
 8266SOL     OW25696   2.141   0.995   4.105
 8266SOL    HW125697   2.079   1.021   4.030
 8266SOL    HW225698   2.206   1.069   4.121
 8267SOL     OW25699   0.972   3.656   1.560
 8267SOL    HW125700   0.927   3.569   1.542
 8267SOL    HW225701   0.926   3.728   1.507
 8268SOL     OW25702   2.959   6.146   6.203
 8268SOL    HW125703   3.050   6.170   6.170
 8268SOL    HW225704   2.966   6.103   6.293
 8269SOL     OW25705   4.744   2.847   3.189
 8269SOL    HW125706   4.807   2.844   3.112
 8269SOL    HW225707   4.651   2.828   3.158
 8270SOL     OW25708   3.078   5.626   4.957
 8270SOL    HW125709   3.045   5.533   4.969
 8270SOL    HW225710   3.000   5.689   4.955
 8271SOL     OW25711   6.643   6.888   2.993
 8271SOL    HW125712   6.704   6.923   3.065
 8271SOL    HW225713   6.549   6.918   3.012
 8272SOL     OW25714   6.494   1.389   2.815
 8272SOL    HW125715   6.444   1.339   2.744
 8272SOL    HW225716   6.526   1.477   2.778
 8273SOL     OW25717   3.257   0.891   0.677
 8273SOL    HW125718   3.340   0.938   0.646
 8273SOL    HW225719   3.259   0.884   0.777
 8274SOL     OW25720   4.062   5.487   4.321
 8274SOL    HW125721   4.049   5.503   4.419
 8274SOL    HW225722   4.158   5.501   4.298
 8275SOL     OW25723   5.625   0.553   3.990
 8275SOL    HW125724   5.665   0.484   3.930
 8275SOL    HW225725   5.632   0.523   4.086
 8276SOL     OW25726   0.570   1.734   5.531
 8276SOL    HW125727   0.526   1.791   5.600
 8276SOL    HW225728   0.581   1.787   5.446
 8277SOL     OW25729   1.103   6.050   6.270
 8277SOL    HW125730   1.082   6.020   6.177
 8277SOL    HW225731   1.019   6.065   6.321
 8278SOL     OW25732   3.512   1.746   0.128
 8278SOL    HW125733   3.538   1.662   0.176
 8278SOL    HW225734   3.594   1.787   0.087
 8279SOL     OW25735   6.671   6.423   5.076
 8279SOL    HW125736   6.702   6.475   5.155
 8279SOL    HW225737   6.571   6.431   5.067
 8280SOL     OW25738   3.577   2.727   0.492
 8280SOL    HW125739   3.647   2.786   0.530
 8280SOL    HW225740   3.568   2.645   0.549
 8281SOL     OW25741   2.194   4.540   1.733
 8281SOL    HW125742   2.275   4.548   1.676
 8281SOL    HW225743   2.140   4.461   1.704
 8282SOL     OW25744   3.533   4.365   0.002
 8282SOL    HW125745   3.577   4.370   6.929
 8282SOL    HW225746   3.596   4.325   0.068
 8283SOL     OW25747   1.485   4.595   4.386
 8283SOL    HW125748   1.405   4.637   4.344
 8283SOL    HW225749   1.470   4.587   4.485
 8284SOL     OW25750   1.698   3.888   2.165
 8284SOL    HW125751   1.663   3.801   2.199
 8284SOL    HW225752   1.718   3.880   2.068
 8285SOL     OW25753   4.105   3.904   5.447
 8285SOL    HW125754   4.082   3.858   5.361
 8285SOL    HW225755   4.086   4.002   5.438
 8286SOL     OW25756   5.261   1.595   4.831
 8286SOL    HW125757   5.285   1.501   4.805
 8286SOL    HW225758   5.248   1.600   4.930
 8287SOL     OW25759   0.935   5.093   4.581
 8287SOL    HW125760   0.836   5.076   4.585
 8287SOL    HW225761   0.953   5.172   4.522
 8288SOL     OW25762   2.081   2.623   2.688
 8288SOL    HW125763   2.090   2.627   2.589
 8288SOL    HW225764   2.053   2.531   2.716
 8289SOL     OW25765   6.594   7.009   6.279
 8289SOL    HW125766   6.504   6.977   6.309
 8289SOL    HW225767   6.585   0.041   6.193
 8290SOL     OW25768   5.180   1.811   1.032
 8290SOL    HW125769   5.199   1.742   1.102
 8290SOL    HW225770   5.251   1.807   0.961
 8291SOL     OW25771   5.930   5.307   6.175
 8291SOL    HW125772   5.877   5.271   6.098
 8291SOL    HW225773   6.028   5.301   6.153
 8292SOL     OW25774   2.892   5.414   6.481
 8292SOL    HW125775   2.918   5.509   6.460
 8292SOL    HW225776   2.921   5.392   6.574
 8293SOL     OW25777   2.373   5.106   1.367
 8293SOL    HW125778   2.359   5.100   1.466
 8293SOL    HW225779   2.356   5.016   1.326
 8294SOL     OW25780   6.844   3.344   4.810
 8294SOL    HW125781   6.846   3.436   4.770
 8294SOL    HW225782   6.787   3.284   4.753
 8295SOL     OW25783   4.952   3.608   3.140
 8295SOL    HW125784   5.042   3.568   3.162
 8295SOL    HW225785   4.919   3.572   3.054
 8296SOL     OW25786   2.897   5.789   0.408
 8296SOL    HW125787   2.983   5.737   0.406
 8296SOL    HW225788   2.890   5.845   0.326
 8297SOL     OW25789   6.403   2.966   2.592
 8297SOL    HW125790   6.380   2.981   2.689
 8297SOL    HW225791   6.391   3.051   2.542
 8298SOL     OW25792   6.799   0.697   0.972
 8298SOL    HW125793   6.846   0.722   1.057
 8298SOL    HW225794   6.712   0.747   0.967
 8299SOL     OW25795   6.937   3.013   2.268
 8299SOL    HW125796   6.916   2.921   2.233
 8299SOL    HW225797   0.016   3.017   2.293
 8300SOL     OW25798   0.492   6.697   4.302
 8300SOL    HW125799   0.424   6.651   4.245
 8300SOL    HW225800   0.491   6.795   4.283
 8301SOL     OW25801   4.900   1.459   6.840
 8301SOL    HW125802   4.818   1.405   6.860
 8301SOL    HW225803   4.909   1.471   6.742
 8302SOL     OW25804   5.190   6.724   5.966
 8302SOL    HW125805   5.238   6.673   5.894
 8302SOL    HW225806   5.176   6.665   6.045
 8303SOL     OW25807   5.956   0.328   3.222
 8303SOL    HW125808   5.983   0.262   3.292
 8303SOL    HW225809   6.031   0.392   3.206
 8304SOL     OW25810   5.667   4.789   1.188
 8304SOL    HW125811   5.723   4.852   1.134
 8304SOL    HW225812   5.638   4.713   1.130
 8305SOL     OW25813   4.560   5.071   4.312
 8305SOL    HW125814   4.484   5.098   4.253
 8305SOL    HW225815   4.526   5.011   4.385
 8306SOL     OW25816   6.042   1.177   3.231
 8306SOL    HW125817   5.979   1.237   3.280
 8306SOL    HW225818   6.045   1.203   3.135
 8307SOL     OW25819   3.695   5.282   1.684
 8307SOL    HW125820   3.655   5.219   1.618
 8307SOL    HW225821   3.787   5.252   1.707
 8308SOL     OW25822   2.306   5.939   0.035
 8308SOL    HW125823   2.391   5.905   0.076
 8308SOL    HW225824   2.326   5.982   6.964
 8309SOL     OW25825   6.197   5.702   2.734
 8309SOL    HW125826   6.125   5.699   2.804
 8309SOL    HW225827   6.191   5.621   2.676
 8310SOL     OW25828   1.516   5.437   1.447
 8310SOL    HW125829   1.615   5.448   1.434
 8310SOL    HW225830   1.498   5.352   1.496
 8311SOL     OW25831   6.407   1.047   4.670
 8311SOL    HW125832   6.337   1.031   4.740
 8311SOL    HW225833   6.373   1.114   4.604
 8312SOL     OW25834   5.494   0.789   6.375
 8312SOL    HW125835   5.557   0.812   6.448
 8312SOL    HW225836   5.414   0.741   6.412
 8313SOL     OW25837   5.423   0.683   5.883
 8313SOL    HW125838   5.472   0.720   5.962
 8313SOL    HW225839   5.334   0.649   5.912
 8314SOL     OW25840   6.241   0.162   6.278
 8314SOL    HW125841   6.281   0.071   6.289
 8314SOL    HW225842   6.172   0.176   6.348
 8315SOL     OW25843   3.850   3.027   3.013
 8315SOL    HW125844   3.877   3.045   3.108
 8315SOL    HW225845   3.766   2.972   3.013
 8316SOL     OW25846   1.777   3.049   1.460
 8316SOL    HW125847   1.814   3.130   1.506
 8316SOL    HW225848   1.848   2.978   1.454
 8317SOL     OW25849   1.467   2.154   2.962
 8317SOL    HW125850   1.444   2.119   2.871
 8317SOL    HW225851   1.420   2.241   2.978
 8318SOL     OW25852   4.351   1.456   6.266
 8318SOL    HW125853   4.289   1.404   6.326
 8318SOL    HW225854   4.332   1.553   6.276
 8319SOL     OW25855   1.559   0.863   0.956
 8319SOL    HW125856   1.645   0.914   0.948
 8319SOL    HW225857   1.575   0.768   0.927
 8320SOL     OW25858   3.209   3.732   3.131
 8320SOL    HW125859   3.256   3.713   3.045
 8320SOL    HW225860   3.272   3.778   3.194
 8321SOL     OW25861   6.770   6.853   6.999
 8321SOL    HW125862   6.752   6.921   6.928
 8321SOL    HW225863   6.812   6.898   0.061
 8322SOL     OW25864   6.452   1.277   0.874
 8322SOL    HW125865   6.421   1.359   0.922
 8322SOL    HW225866   6.403   1.269   0.787
 8323SOL     OW25867   4.083   4.829   1.761
 8323SOL    HW125868   4.128   4.742   1.743
 8323SOL    HW225869   3.987   4.823   1.733
 8324SOL     OW25870   5.510   0.471   0.768
 8324SOL    HW125871   5.513   0.543   0.698
 8324SOL    HW225872   5.431   0.485   0.828
 8325SOL     OW25873   1.314   3.539   5.329
 8325SOL    HW125874   1.283   3.607   5.395
 8325SOL    HW225875   1.381   3.580   5.268
 8326SOL     OW25876   4.058   4.223   6.185
 8326SOL    HW125877   4.005   4.212   6.269
 8326SOL    HW225878   4.024   4.161   6.115
 8327SOL     OW25879   0.534   0.905   5.561
 8327SOL    HW125880   0.503   0.895   5.655
 8327SOL    HW225881   0.630   0.876   5.554
 8328SOL     OW25882   2.706   6.327   6.232
 8328SOL    HW125883   2.701   6.385   6.151
 8328SOL    HW225884   2.797   6.286   6.238
 8329SOL     OW25885   0.663   2.201   4.537
 8329SOL    HW125886   0.726   2.249   4.476
 8329SOL    HW225887   0.569   2.211   4.504
 8330SOL     OW25888   3.220   1.653   6.978
 8330SOL    HW125889   3.208   1.594   0.040
 8330SOL    HW225890   3.282   1.729   7.002
 8331SOL     OW25891   3.485   0.667   0.603
 8331SOL    HW125892   3.478   0.757   0.559
 8331SOL    HW225893   3.556   0.613   0.558
 8332SOL     OW25894   5.930   5.684   2.137
 8332SOL    HW125895   5.874   5.613   2.180
 8332SOL    HW225896   5.900   5.774   2.169
 8333SOL     OW25897   1.475   4.895   0.006
 8333SOL    HW125898   1.398   4.932   0.058
 8333SOL    HW225899   1.449   4.807   6.984
 8334SOL     OW25900   3.562   2.018   5.407
 8334SOL    HW125901   3.480   1.996   5.459
 8334SOL    HW225902   3.537   2.054   5.318
 8335SOL     OW25903   4.676   1.500   0.338
 8335SOL    HW125904   4.627   1.581   0.370
 8335SOL    HW225905   4.770   1.503   0.371
 8336SOL     OW25906   0.549   3.917   2.912
 8336SOL    HW125907   0.599   3.868   2.841
 8336SOL    HW225908   0.607   3.989   2.950
 8337SOL     OW25909   0.276   6.638   3.861
 8337SOL    HW125910   0.368   6.659   3.828
 8337SOL    HW225911   0.208   6.679   3.800
 8338SOL     OW25912   3.421   5.445   1.332
 8338SOL    HW125913   3.341   5.412   1.281
 8338SOL    HW225914   3.495   5.378   1.323
 8339SOL     OW25915   6.896   0.352   2.100
 8339SOL    HW125916   6.929   0.269   2.145
 8339SOL    HW225917   6.957   0.374   2.023
 8340SOL     OW25918   5.001   3.870   0.932
 8340SOL    HW125919   5.050   3.932   0.993
 8340SOL    HW225920   4.903   3.879   0.947
 8341SOL     OW25921   2.873   0.455   6.828
 8341SOL    HW125922   2.925   0.537   6.853
 8341SOL    HW225923   2.935   0.386   6.791
 8342SOL     OW25924   4.644   0.024   0.069
 8342SOL    HW125925   4.679   6.952   0.095
 8342SOL    HW225926   4.629   0.079   0.152
 8343SOL     OW25927   0.183   5.754   3.295
 8343SOL    HW125928   0.125   5.835   3.300
 8343SOL    HW225929   0.170   5.709   3.207
 8344SOL     OW25930   6.532   5.695   4.659
 8344SOL    HW125931   6.508   5.790   4.638
 8344SOL    HW225932   6.538   5.643   4.574
 8345SOL     OW25933   3.403   2.009   2.469
 8345SOL    HW125934   3.306   2.036   2.464
 8345SOL    HW225935   3.452   2.044   2.390
 8346SOL     OW25936   3.575   4.775   0.306
 8346SOL    HW125937   3.595   4.724   0.389
 8346SOL    HW225938   3.660   4.797   0.258
 8347SOL     OW25939   3.063   6.254   5.444
 8347SOL    HW125940   3.021   6.328   5.392
 8347SOL    HW225941   3.162   6.262   5.441
 8348SOL     OW25942   2.140   0.732   1.253
 8348SOL    HW125943   2.059   0.681   1.224
 8348SOL    HW225944   2.119   0.787   1.333
 8349SOL     OW25945   1.194   6.596   2.348
 8349SOL    HW125946   1.145   6.563   2.429
 8349SOL    HW225947   1.215   6.693   2.358
 8350SOL     OW25948   2.933   6.773   5.844
 8350SOL    HW125949   2.914   6.870   5.829
 8350SOL    HW225950   3.032   6.759   5.855
 8351SOL     OW25951   4.941   5.521   4.497
 8351SOL    HW125952   5.027   5.490   4.457
 8351SOL    HW225953   4.881   5.557   4.425
 8352SOL     OW25954   0.772   0.035   3.524
 8352SOL    HW125955   0.792   6.956   3.510
 8352SOL    HW225956   0.679   0.045   3.561
 8353SOL     OW25957   0.857   3.977   0.920
 8353SOL    HW125958   0.953   4.005   0.924
 8353SOL    HW225959   0.851   3.879   0.937
 8354SOL     OW25960   3.363   0.093   4.427
 8354SOL    HW125961   3.326   0.001   4.413
 8354SOL    HW225962   3.381   0.136   4.338
 8355SOL     OW25963   2.437   1.361   5.037
 8355SOL    HW125964   2.441   1.409   5.125
 8355SOL    HW225965   2.386   1.276   5.048
 8356SOL     OW25966   1.097   6.814   1.945
 8356SOL    HW125967   1.059   6.779   2.031
 8356SOL    HW225968   1.171   6.879   1.965
 8357SOL     OW25969   3.806   6.819   5.601
 8357SOL    HW125970   3.828   6.744   5.539
 8357SOL    HW225971   3.885   6.880   5.607
 8358SOL     OW25972   1.731   3.792   4.724
 8358SOL    HW125973   1.803   3.723   4.726
 8358SOL    HW225974   1.769   3.879   4.693
 8359SOL     OW25975   3.242   1.076   4.647
 8359SOL    HW125976   3.319   1.017   4.673
 8359SOL    HW225977   3.266   1.171   4.665
 8360SOL     OW25978   4.076   0.384   0.285
 8360SOL    HW125979   4.047   0.317   0.217
 8360SOL    HW225980   4.081   0.340   0.375
 8361SOL     OW25981   3.678   0.460   1.548
 8361SOL    HW125982   3.658   0.456   1.450
 8361SOL    HW225983   3.615   0.400   1.597
 8362SOL     OW25984   5.010   1.789   1.426
 8362SOL    HW125985   5.008   1.883   1.461
 8362SOL    HW225986   4.984   1.725   1.498
 8363SOL     OW25987   4.887   2.735   0.114
 8363SOL    HW125988   4.827   2.812   0.134
 8363SOL    HW225989   4.840   2.649   0.138
 8364SOL     OW25990   7.013   1.759   4.218
 8364SOL    HW125991   6.997   1.664   4.245
 8364SOL    HW225992   0.044   1.806   4.292
 8365SOL     OW25993   1.526   2.294   2.593
 8365SOL    HW125994   1.522   2.388   2.626
 8365SOL    HW225995   1.483   2.289   2.502
 8366SOL     OW25996   2.785   5.048   0.911
 8366SOL    HW125997   2.848   4.974   0.933
 8366SOL    HW225998   2.721   5.018   0.840
 8367SOL     OW25999   3.332   5.711   4.959
 8367SOL    HW126000   3.248   5.666   4.928
 8367SOL    HW226001   3.408   5.647   4.952
 8368SOL     OW26002   0.843   6.559   0.040
 8368SOL    HW126003   0.829   6.461   0.029
 8368SOL    HW226004   0.875   6.598   6.972
 8369SOL     OW26005   0.699   0.169   6.350
 8369SOL    HW126006   0.662   0.223   6.274
 8369SOL    HW226007   0.796   0.152   6.336
 8370SOL     OW26008   2.827   1.545   5.708
 8370SOL    HW126009   2.925   1.565   5.710
 8370SOL    HW226010   2.779   1.606   5.770
 8371SOL     OW26011   2.380   4.442   0.778
 8371SOL    HW126012   2.460   4.382   0.786
 8371SOL    HW226013   2.302   4.390   0.746
 8372SOL     OW26014   1.882   5.608   1.600
 8372SOL    HW126015   1.969   5.651   1.622
 8372SOL    HW226016   1.825   5.603   1.683
 8373SOL     OW26017   1.508   6.495   3.777
 8373SOL    HW126018   1.513   6.396   3.765
 8373SOL    HW226019   1.587   6.538   3.734
 8374SOL     OW26020   0.245   0.127   5.182
 8374SOL    HW126021   0.182   0.196   5.146
 8374SOL    HW226022   0.281   0.072   5.107
 8375SOL     OW26023   4.237   6.216   5.271
 8375SOL    HW126024   4.239   6.316   5.268
 8375SOL    HW226025   4.148   6.184   5.240
 8376SOL     OW26026   0.964   1.132   4.389
 8376SOL    HW126027   1.024   1.065   4.432
 8376SOL    HW226028   0.877   1.089   4.365
 8377SOL     OW26029   5.726   6.113   0.593
 8377SOL    HW126030   5.711   6.207   0.561
 8377SOL    HW226031   5.823   6.091   0.588
 8378SOL     OW26032   3.517   4.924   3.049
 8378SOL    HW126033   3.582   4.861   3.092
 8378SOL    HW226034   3.424   4.889   3.060
 8379SOL     OW26035   5.082   3.157   1.599
 8379SOL    HW126036   5.125   3.237   1.642
 8379SOL    HW226037   5.020   3.113   1.665
 8380SOL     OW26038   0.577   0.400   1.068
 8380SOL    HW126039   0.493   0.414   1.120
 8380SOL    HW226040   0.611   0.308   1.084
 8381SOL     OW26041   0.376   2.202   4.513
 8381SOL    HW126042   0.353   2.129   4.449
 8381SOL    HW226043   0.356   2.291   4.471
 8382SOL     OW26044   2.375   6.746   2.060
 8382SOL    HW126045   2.452   6.705   2.012
 8382SOL    HW226046   2.337   6.820   2.006
 8383SOL     OW26047   3.182   6.989   6.109
 8383SOL    HW126048   3.166   6.945   6.021
 8383SOL    HW226049   3.178   6.920   6.182
 8384SOL     OW26050   6.036   1.781   1.604
 8384SOL    HW126051   6.071   1.874   1.593
 8384SOL    HW226052   6.086   1.719   1.543
 8385SOL     OW26053   4.904   2.405   6.955
 8385SOL    HW126054   4.914   2.336   6.883
 8385SOL    HW226055   4.847   2.369   0.011
 8386SOL     OW26056   1.831   6.377   1.803
 8386SOL    HW126057   1.834   6.410   1.708
 8386SOL    HW226058   1.924   6.376   1.840
 8387SOL     OW26059   0.954   1.482   1.022
 8387SOL    HW126060   0.855   1.482   1.003
 8387SOL    HW226061   0.989   1.389   1.014
 8388SOL     OW26062   2.426   6.874   0.349
 8388SOL    HW126063   2.508   6.859   0.406
 8388SOL    HW226064   2.358   6.924   0.402
 8389SOL     OW26065   0.200   3.342   3.961
 8389SOL    HW126066   0.289   3.377   3.931
 8389SOL    HW226067   0.142   3.329   3.881
 8390SOL     OW26068   3.825   6.730   0.195
 8390SOL    HW126069   3.765   6.679   0.256
 8390SOL    HW226070   3.870   6.803   0.246
 8391SOL     OW26071   5.380   5.497   1.412
 8391SOL    HW126072   5.468   5.545   1.415
 8391SOL    HW226073   5.325   5.525   1.490
 8392SOL     OW26074   0.046   5.191   5.503
 8392SOL    HW126075   0.059   5.114   5.566
 8392SOL    HW226076   0.033   5.275   5.555
 8393SOL     OW26077   0.455   0.180   2.950
 8393SOL    HW126078   0.401   0.259   2.921
 8393SOL    HW226079   0.402   0.097   2.934
 8394SOL     OW26080   0.584   3.132   1.902
 8394SOL    HW126081   0.634   3.177   1.976
 8394SOL    HW226082   0.527   3.059   1.940
 8395SOL     OW26083   1.530   6.308   4.434
 8395SOL    HW126084   1.458   6.376   4.447
 8395SOL    HW226085   1.599   6.318   4.505
 8396SOL     OW26086   4.069   5.367   2.678
 8396SOL    HW126087   4.070   5.276   2.636
 8396SOL    HW226088   4.097   5.359   2.774
 8397SOL     OW26089   2.270   1.001   2.905
 8397SOL    HW126090   2.170   1.001   2.908
 8397SOL    HW226091   2.300   1.058   2.829
 8398SOL     OW26092   4.755   2.598   6.548
 8398SOL    HW126093   4.818   2.668   6.580
 8398SOL    HW226094   4.807   2.521   6.511
 8399SOL     OW26095   5.980   0.021   0.838
 8399SOL    HW126096   5.928   0.048   0.757
 8399SOL    HW226097   6.041   0.096   0.865
 8400SOL     OW26098   1.303   0.844   4.302
 8400SOL    HW126099   1.310   0.825   4.204
 8400SOL    HW226100   1.297   0.943   4.316
 8401SOL     OW26101   3.441   1.772   6.040
 8401SOL    HW126102   3.456   1.718   5.958
 8401SOL    HW226103   3.444   1.712   6.120
 8402SOL     OW26104   3.880   1.801   6.304
 8402SOL    HW126105   3.838   1.788   6.394
 8402SOL    HW226106   3.813   1.840   6.241
 8403SOL     OW26107   0.548   2.078   4.077
 8403SOL    HW126108   0.626   2.121   4.122
 8403SOL    HW226109   0.499   2.022   4.143
 8404SOL     OW26110   4.363   6.983   6.323
 8404SOL    HW126111   4.440   7.007   6.382
 8404SOL    HW226112   4.291   0.035   6.333
 8405SOL     OW26113   2.619   0.973   6.078
 8405SOL    HW126114   2.557   0.897   6.100
 8405SOL    HW226115   2.683   0.987   6.153
 8406SOL     OW26116   5.326   0.062   0.696
 8406SOL    HW126117   5.385   7.014   0.744
 8406SOL    HW226118   5.335   0.048   0.597
 8407SOL     OW26119   4.011   6.200   3.897
 8407SOL    HW126120   3.947   6.123   3.895
 8407SOL    HW226121   4.033   6.227   3.803
 8408SOL     OW26122   5.751   3.280   1.984
 8408SOL    HW126123   5.661   3.249   1.952
 8408SOL    HW226124   5.819   3.264   1.912
 8409SOL     OW26125   5.825   3.253   3.688
 8409SOL    HW126126   5.763   3.183   3.720
 8409SOL    HW226127   5.854   3.310   3.765
 8410SOL     OW26128   5.154   0.279   1.779
 8410SOL    HW126129   5.120   0.267   1.872
 8410SOL    HW226130   5.079   0.306   1.719
 8411SOL     OW26131   0.246   5.394   6.796
 8411SOL    HW126132   0.244   5.297   6.820
 8411SOL    HW226133   0.247   5.449   6.879
 8412SOL     OW26134   3.614   2.116   1.704
 8412SOL    HW126135   3.617   2.170   1.621
 8412SOL    HW226136   3.662   2.164   1.777
 8413SOL     OW26137   3.792   5.853   6.980
 8413SOL    HW126138   3.771   5.790   6.906
 8413SOL    HW226139   3.779   5.806   0.051
 8414SOL     OW26140   4.138   5.454   3.248
 8414SOL    HW126141   4.158   5.535   3.193
 8414SOL    HW226142   4.181   5.464   3.338
 8415SOL     OW26143   6.702   6.054   3.292
 8415SOL    HW126144   6.718   5.955   3.288
 8415SOL    HW226145   6.609   6.074   3.262
 8416SOL     OW26146   5.608   3.289   2.852
 8416SOL    HW126147   5.658   3.316   2.934
 8416SOL    HW226148   5.521   3.247   2.878
 8417SOL     OW26149   1.545   5.288   5.729
 8417SOL    HW126150   1.458   5.307   5.683
 8417SOL    HW226151   1.541   5.197   5.771
 8418SOL     OW26152   5.863   5.314   1.095
 8418SOL    HW126153   5.951   5.360   1.104
 8418SOL    HW226154   5.869   5.243   1.025
 8419SOL     OW26155   5.162   0.574   2.490
 8419SOL    HW126156   5.120   0.654   2.533
 8419SOL    HW226157   5.244   0.548   2.540
 8420SOL     OW26158   4.030   6.881   0.356
 8420SOL    HW126159   4.078   6.805   0.400
 8420SOL    HW226160   4.052   6.966   0.403
 8421SOL     OW26161   2.705   5.727   6.932
 8421SOL    HW126162   2.804   5.743   6.925
 8421SOL    HW226163   2.686   5.630   6.913
 8422SOL     OW26164   4.248   0.859   1.306
 8422SOL    HW126165   4.341   0.895   1.305
 8422SOL    HW226166   4.186   0.928   1.268
 8423SOL     OW26167   4.159   4.702   5.650
 8423SOL    HW126168   4.108   4.785   5.669
 8423SOL    HW226169   4.245   4.703   5.701
 8424SOL     OW26170   1.928   2.317   3.043
 8424SOL    HW126171   1.899   2.241   2.984
 8424SOL    HW226172   1.859   2.389   3.041
 8425SOL     OW26173   5.065   5.987   0.386
 8425SOL    HW126174   5.002   6.064   0.400
 8425SOL    HW226175   5.098   5.989   0.292
 8426SOL     OW26176   3.176   3.796   4.076
 8426SOL    HW126177   3.121   3.797   4.159
 8426SOL    HW226178   3.262   3.749   4.094
 8427SOL     OW26179   3.640   3.257   4.952
 8427SOL    HW126180   3.675   3.170   4.917
 8427SOL    HW226181   3.601   3.244   5.043
 8428SOL     OW26182   0.225   4.202   1.724
 8428SOL    HW126183   0.126   4.199   1.734
 8428SOL    HW226184   0.268   4.207   1.814
 8429SOL     OW26185   1.887   4.439   3.382
 8429SOL    HW126186   1.799   4.432   3.336
 8429SOL    HW226187   1.914   4.535   3.389
 8430SOL     OW26188   3.483   5.002   4.480
 8430SOL    HW126189   3.395   4.981   4.521
 8430SOL    HW226190   3.507   5.098   4.499
 8431SOL     OW26191   3.134   5.421   0.835
 8431SOL    HW126192   3.199   5.368   0.780
 8431SOL    HW226193   3.185   5.480   0.897
 8432SOL     OW26194   5.614   6.425   6.142
 8432SOL    HW126195   5.543   6.358   6.122
 8432SOL    HW226196   5.679   6.386   6.207
 8433SOL     OW26197   5.803   1.723   0.161
 8433SOL    HW126198   5.882   1.700   0.105
 8433SOL    HW226199   5.797   1.822   0.170
 8434SOL     OW26200   3.087   6.729   4.760
 8434SOL    HW126201   3.098   6.792   4.836
 8434SOL    HW226202   3.016   6.661   4.783
 8435SOL     OW26203   5.914   0.791   1.508
 8435SOL    HW126204   6.014   0.790   1.519
 8435SOL    HW226205   5.872   0.738   1.582
 8436SOL     OW26206   3.504   0.043   4.166
 8436SOL    HW126207   3.594   0.072   4.200
 8436SOL    HW226208   3.486   0.090   4.079
 8437SOL     OW26209   2.525   6.981   3.972
 8437SOL    HW126210   2.573   6.931   4.044
 8437SOL    HW226211   2.556   0.058   3.969
 8438SOL     OW26212   2.468   4.838   2.160
 8438SOL    HW126213   2.505   4.775   2.228
 8438SOL    HW226214   2.525   4.920   2.157
 8439SOL     OW26215   6.265   5.175   2.289
 8439SOL    HW126216   6.177   5.219   2.309
 8439SOL    HW226217   6.315   5.161   2.374
 8440SOL     OW26218   0.611   1.976   3.442
 8440SOL    HW126219   0.614   2.059   3.498
 8440SOL    HW226220   0.600   2.001   3.346
 8441SOL     OW26221   6.188   6.863   0.468
 8441SOL    HW126222   6.267   6.849   0.529
 8441SOL    HW226223   6.150   6.954   0.485
 8442SOL     OW26224   3.324   1.960   5.584
 8442SOL    HW126225   3.263   2.022   5.535
 8442SOL    HW226226   3.270   1.891   5.632
 8443SOL     OW26227   1.696   5.652   3.698
 8443SOL    HW126228   1.716   5.661   3.601
 8443SOL    HW226229   1.667   5.741   3.734
 8444SOL     OW26230   2.636   6.048   3.737
 8444SOL    HW126231   2.687   6.126   3.776
 8444SOL    HW226232   2.652   5.967   3.793
 8445SOL     OW26233   3.938   5.816   0.514
 8445SOL    HW126234   3.941   5.773   0.605
 8445SOL    HW226235   3.848   5.859   0.501
 8446SOL     OW26236   4.507   5.273   6.697
 8446SOL    HW126237   4.471   5.192   6.650
 8446SOL    HW226238   4.436   5.312   6.755
 8447SOL     OW26239   4.927   2.351   2.398
 8447SOL    HW126240   4.881   2.266   2.423
 8447SOL    HW226241   4.870   2.429   2.424
 8448SOL     OW26242   4.777   6.183   3.973
 8448SOL    HW126243   4.713   6.176   3.896
 8448SOL    HW226244   4.785   6.278   4.001
 8449SOL     OW26245   6.743   2.127   4.097
 8449SOL    HW126246   6.760   2.182   4.179
 8449SOL    HW226247   6.667   2.166   4.045
 8450SOL     OW26248   1.296   6.010   1.416
 8450SOL    HW126249   1.337   6.101   1.412
 8450SOL    HW226250   1.279   5.977   1.324
 8451SOL     OW26251   4.516   2.464   6.887
 8451SOL    HW126252   4.437   2.463   6.949
 8451SOL    HW226253   4.563   2.375   6.894
 8452SOL     OW26254   6.412   1.046   3.195
 8452SOL    HW126255   6.508   1.067   3.216
 8452SOL    HW226256   6.384   1.097   3.114
 8453SOL     OW26257   6.703   4.306   6.049
 8453SOL    HW126258   6.764   4.227   6.056
 8453SOL    HW226259   6.707   4.359   6.133
 8454SOL     OW26260   0.046   6.627   0.638
 8454SOL    HW126261   0.089   6.678   0.712
 8454SOL    HW226262   6.982   6.581   0.672
 8455SOL     OW26263   5.718   2.703   1.371
 8455SOL    HW126264   5.812   2.699   1.405
 8455SOL    HW226265   5.673   2.785   1.409
 8456SOL     OW26266   4.929   6.052   2.902
 8456SOL    HW126267   4.847   6.110   2.908
 8456SOL    HW226268   4.936   6.013   2.810
 8457SOL     OW26269   6.569   6.594   4.447
 8457SOL    HW126270   6.631   6.648   4.391
 8457SOL    HW226271   6.560   6.636   4.538
 8458SOL     OW26272   2.781   1.449   6.784
 8458SOL    HW126273   2.875   1.420   6.765
 8458SOL    HW226274   2.769   1.545   6.758
 8459SOL     OW26275   3.054   6.624   1.903
 8459SOL    HW126276   3.027   6.669   1.818
 8459SOL    HW226277   3.076   6.528   1.885
 8460SOL     OW26278   4.608   3.721   5.342
 8460SOL    HW126279   4.635   3.664   5.265
 8460SOL    HW226280   4.508   3.729   5.344
 8461SOL     OW26281   0.005   4.039   3.935
 8461SOL    HW126282   0.011   4.086   4.023
 8461SOL    HW226283   0.000   3.940   3.951
 8462SOL     OW26284   3.378   2.470   0.244
 8462SOL    HW126285   3.405   2.565   0.258
 8462SOL    HW226286   3.392   2.444   0.149
 8463SOL     OW26287   6.409   6.845   0.636
 8463SOL    HW126288   6.459   6.895   0.565
 8463SOL    HW226289   6.471   6.782   0.682
 8464SOL     OW26290   5.503   3.679   5.395
 8464SOL    HW126291   5.598   3.712   5.400
 8464SOL    HW226292   5.446   3.733   5.457
 8465SOL     OW26293   1.366   2.683   0.919
 8465SOL    HW126294   1.392   2.610   0.983
 8465SOL    HW226295   1.297   2.741   0.961
 8466SOL     OW26296   0.987   6.588   5.283
 8466SOL    HW126297   1.025   6.660   5.341
 8466SOL    HW226298   0.893   6.568   5.312
 8467SOL     OW26299   4.342   0.297   1.456
 8467SOL    HW126300   4.329   0.230   1.382
 8467SOL    HW226301   4.437   0.327   1.457
 8468SOL     OW26302   4.625   2.688   6.802
 8468SOL    HW126303   4.669   2.675   6.713
 8468SOL    HW226304   4.579   2.604   6.829
 8469SOL     OW26305   3.979   1.292   5.805
 8469SOL    HW126306   4.041   1.225   5.846
 8469SOL    HW226307   4.008   1.311   5.711
 8470SOL     OW26308   1.586   4.372   6.989
 8470SOL    HW126309   1.491   4.382   6.959
 8470SOL    HW226310   1.595   4.403   0.066
 8471SOL     OW26311   3.598   0.672   4.178
 8471SOL    HW126312   3.678   0.728   4.157
 8471SOL    HW226313   3.612   0.579   4.146
 8472SOL     OW26314   6.872   0.549   5.462
 8472SOL    HW126315   6.911   0.636   5.433
 8472SOL    HW226316   6.839   0.499   5.382
 8473SOL     OW26317   6.743   5.791   0.665
 8473SOL    HW126318   6.691   5.852   0.605
 8473SOL    HW226319   6.692   5.707   0.680
 8474SOL     OW26320   3.416   3.295   2.676
 8474SOL    HW126321   3.395   3.385   2.638
 8474SOL    HW226322   3.365   3.225   2.626
 8475SOL     OW26323   6.727   2.433   3.728
 8475SOL    HW126324   6.639   2.478   3.742
 8475SOL    HW226325   6.786   2.450   3.807
 8476SOL     OW26326   6.667   2.040   0.784
 8476SOL    HW126327   6.669   2.099   0.704
 8476SOL    HW226328   6.583   2.057   0.837
 8477SOL     OW26329   4.882   6.915   1.583
 8477SOL    HW126330   4.808   6.865   1.539
 8477SOL    HW226331   4.928   6.856   1.650
 8478SOL     OW26332   1.924   0.034   6.284
 8478SOL    HW126333   1.891   0.094   6.211
 8478SOL    HW226334   1.872   6.966   6.283
 8479SOL     OW26335   0.436   3.128   0.736
 8479SOL    HW126336   0.485   3.198   0.684
 8479SOL    HW226337   0.487   3.106   0.818
 8480SOL     OW26338   4.665   2.061   6.492
 8480SOL    HW126339   4.635   2.012   6.574
 8480SOL    HW226340   4.595   2.053   6.421
 8481SOL     OW26341   4.509   2.517   4.948
 8481SOL    HW126342   4.535   2.448   4.880
 8481SOL    HW226343   4.412   2.504   4.972
 8482SOL     OW26344   4.514   5.715   2.188
 8482SOL    HW126345   4.545   5.702   2.282
 8482SOL    HW226346   4.593   5.728   2.129
 8483SOL     OW26347   4.333   6.549   2.060
 8483SOL    HW126348   4.318   6.481   1.988
 8483SOL    HW226349   4.373   6.631   2.019
 8484SOL     OW26350   0.025   6.298   3.004
 8484SOL    HW126351   0.020   6.238   2.924
 8484SOL    HW226352   7.016   6.391   2.978
 8485SOL     OW26353   3.884   2.782   0.331
 8485SOL    HW126354   3.835   2.865   0.305
 8485SOL    HW226355   3.931   2.744   0.251
 8486SOL     OW26356   2.399   1.760   2.396
 8486SOL    HW126357   2.333   1.689   2.375
 8486SOL    HW226358   2.383   1.839   2.336
 8487SOL     OW26359   5.755   1.397   5.878
 8487SOL    HW126360   5.752   1.469   5.809
 8487SOL    HW226361   5.795   1.314   5.838
 8488SOL     OW26362   5.138   5.892   0.817
 8488SOL    HW126363   5.196   5.973   0.801
 8488SOL    HW226364   5.102   5.860   0.730
 8489SOL     OW26365   6.175   2.029   1.563
 8489SOL    HW126366   6.217   2.001   1.477
 8489SOL    HW226367   6.244   2.070   1.623
 8490SOL     OW26368   4.856   6.990   4.056
 8490SOL    HW126369   4.827   6.894   4.046
 8490SOL    HW226370   4.952   6.998   4.028
 8491SOL     OW26371   3.307   5.681   1.486
 8491SOL    HW126372   3.320   5.582   1.484
 8491SOL    HW226373   3.241   5.707   1.415
 8492SOL     OW26374   4.722   3.984   5.232
 8492SOL    HW126375   4.665   3.901   5.234
 8492SOL    HW226376   4.702   4.039   5.313
 8493SOL     OW26377   2.104   2.909   6.665
 8493SOL    HW126378   2.198   2.880   6.680
 8493SOL    HW226379   2.093   2.939   6.570
 8494SOL     OW26380   4.036   5.635   1.473
 8494SOL    HW126381   4.111   5.700   1.486
 8494SOL    HW226382   3.949   5.685   1.469
 8495SOL     OW26383   5.879   4.870   2.567
 8495SOL    HW126384   5.861   4.823   2.654
 8495SOL    HW226385   5.793   4.906   2.531
 8496SOL     OW26386   1.337   2.073   1.962
 8496SOL    HW126387   1.415   2.022   1.925
 8496SOL    HW226388   1.257   2.060   1.904
 8497SOL     OW26389   6.569   0.956   3.464
 8497SOL    HW126390   6.648   0.970   3.524
 8497SOL    HW226391   6.540   1.045   3.427
 8498SOL     OW26392   6.439   6.110   3.257
 8498SOL    HW126393   6.430   6.203   3.293
 8498SOL    HW226394   6.381   6.100   3.176
 8499SOL     OW26395   2.047   4.621   6.420
 8499SOL    HW126396   2.009   4.618   6.327
 8499SOL    HW226397   1.973   4.615   6.487
 8500SOL     OW26398   1.672   5.951   5.483
 8500SOL    HW126399   1.615   5.887   5.433
 8500SOL    HW226400   1.634   5.965   5.575
 8501SOL     OW26401   6.971   2.604   0.122
 8501SOL    HW126402   6.952   2.569   0.030
 8501SOL    HW226403   0.053   2.605   0.137
 8502SOL     OW26404   0.704   3.278   1.198
 8502SOL    HW126405   0.765   3.241   1.129
 8502SOL    HW226406   0.743   3.361   1.237
 8503SOL     OW26407   0.681   6.452   3.919
 8503SOL    HW126408   0.666   6.387   3.995
 8503SOL    HW226409   0.698   6.543   3.957
 8504SOL     OW26410   2.390   4.491   2.632
 8504SOL    HW126411   2.462   4.538   2.581
 8504SOL    HW226412   2.305   4.543   2.623
 8505SOL     OW26413   5.654   3.713   3.570
 8505SOL    HW126414   5.638   3.738   3.475
 8505SOL    HW226415   5.744   3.670   3.579
 8506SOL     OW26416   0.554   0.826   6.714
 8506SOL    HW126417   0.596   0.910   6.680
 8506SOL    HW226418   0.461   0.845   6.744
 8507SOL     OW26419   3.443   0.665   5.200
 8507SOL    HW126420   3.470   0.591   5.138
 8507SOL    HW226421   3.467   0.753   5.158
 8508SOL     OW26422   5.466   1.803   4.497
 8508SOL    HW126423   5.557   1.818   4.457
 8508SOL    HW226424   5.449   1.872   4.567
 8509SOL     OW26425   4.202   1.426   4.412
 8509SOL    HW126426   4.147   1.508   4.430
 8509SOL    HW226427   4.175   1.386   4.324
 8510SOL     OW26428   6.097   4.134   2.719
 8510SOL    HW126429   6.159   4.083   2.660
 8510SOL    HW226430   6.147   4.210   2.762
 8511SOL     OW26431   6.052   3.931   2.373
 8511SOL    HW126432   6.021   3.840   2.401
 8511SOL    HW226433   6.079   3.929   2.277
 8512SOL     OW26434   2.854   1.979   1.896
 8512SOL    HW126435   2.902   2.022   1.973
 8512SOL    HW226436   2.914   1.914   1.851
 8513SOL     OW26437   5.879   5.131   0.881
 8513SOL    HW126438   5.843   5.153   0.790
 8513SOL    HW226439   5.973   5.099   0.873
 8514SOL     OW26440   2.565   2.582   4.124
 8514SOL    HW126441   2.612   2.635   4.194
 8514SOL    HW226442   2.585   2.485   4.136
 8515SOL     OW26443   4.378   2.428   0.900
 8515SOL    HW126444   4.332   2.342   0.881
 8515SOL    HW226445   4.476   2.419   0.883
 8516SOL     OW26446   6.122   2.245   1.917
 8516SOL    HW126447   6.130   2.240   2.016
 8516SOL    HW226448   6.025   2.240   1.891
 8517SOL     OW26449   1.000   2.715   6.394
 8517SOL    HW126450   0.984   2.616   6.394
 8517SOL    HW226451   1.018   2.746   6.301
 8518SOL     OW26452   4.514   4.566   0.251
 8518SOL    HW126453   4.419   4.588   0.271
 8518SOL    HW226454   4.573   4.609   0.319
 8519SOL     OW26455   1.530   4.631   1.738
 8519SOL    HW126456   1.592   4.702   1.705
 8519SOL    HW226457   1.470   4.601   1.663
 8520SOL     OW26458   3.014   2.578   0.488
 8520SOL    HW126459   2.990   2.565   0.584
 8520SOL    HW226460   3.032   2.675   0.472
 8521SOL     OW26461   1.756   5.401   6.482
 8521SOL    HW126462   1.741   5.302   6.485
 8521SOL    HW226463   1.796   5.430   6.569
 8522SOL     OW26464   1.466   6.348   1.560
 8522SOL    HW126465   1.434   6.421   1.620
 8522SOL    HW226466   1.409   6.345   1.478
 8523SOL     OW26467   3.129   0.134   6.346
 8523SOL    HW126468   3.184   0.095   6.273
 8523SOL    HW226469   3.033   0.133   6.320
 8524SOL     OW26470   0.631   2.469   4.756
 8524SOL    HW126471   0.535   2.483   4.781
 8524SOL    HW226472   0.639   2.387   4.699
 8525SOL     OW26473   6.450   3.774   3.190
 8525SOL    HW126474   6.500   3.840   3.133
 8525SOL    HW226475   6.508   3.744   3.266
 8526SOL     OW26476   3.430   5.351   0.107
 8526SOL    HW126477   3.370   5.431   0.097
 8526SOL    HW226478   3.377   5.273   0.140
 8527SOL     OW26479   2.900   0.777   5.930
 8527SOL    HW126480   2.913   0.863   5.880
 8527SOL    HW226481   2.910   0.700   5.867
 8528SOL     OW26482   4.557   2.839   5.986
 8528SOL    HW126483   4.501   2.907   6.034
 8528SOL    HW226484   4.654   2.860   5.998
 8529SOL     OW26485   0.399   0.005   1.109
 8529SOL    HW126486   0.357   6.989   1.194
 8529SOL    HW226487   0.327   0.033   1.046
 8530SOL     OW26488   2.676   3.326   5.290
 8530SOL    HW126489   2.619   3.266   5.235
 8530SOL    HW226490   2.742   3.373   5.230
 8531SOL     OW26491   6.584   4.963   2.231
 8531SOL    HW126492   6.614   4.872   2.201
 8531SOL    HW226493   6.655   5.005   2.287
 8532SOL     OW26494   4.031   4.935   4.683
 8532SOL    HW126495   4.060   4.917   4.777
 8532SOL    HW226496   3.931   4.937   4.680
 8533SOL     OW26497   2.087   0.249   5.499
 8533SOL    HW126498   2.139   0.164   5.494
 8533SOL    HW226499   2.067   0.281   5.406
 8534SOL     OW26500   6.125   3.048   4.517
 8534SOL    HW126501   6.042   3.099   4.495
 8534SOL    HW226502   6.101   2.955   4.545
 8535SOL     OW26503   6.942   1.646   5.370
 8535SOL    HW126504   6.890   1.716   5.322
 8535SOL    HW226505   6.881   1.598   5.434
 8536SOL     OW26506   5.579   2.122   4.845
 8536SOL    HW126507   5.661   2.066   4.849
 8536SOL    HW226508   5.524   2.107   4.928
 8537SOL     OW26509   5.471   1.826   2.462
 8537SOL    HW126510   5.402   1.869   2.405
 8537SOL    HW226511   5.481   1.730   2.435
 8538SOL     OW26512   0.632   1.705   6.337
 8538SOL    HW126513   0.685   1.674   6.416
 8538SOL    HW226514   0.694   1.735   6.265
 8539SOL     OW26515   6.219   1.117   2.083
 8539SOL    HW126516   6.282   1.077   2.149
 8539SOL    HW226517   6.272   1.158   2.008
 8540SOL     OW26518   4.961   1.130   0.513
 8540SOL    HW126519   4.909   1.168   0.436
 8540SOL    HW226520   4.989   1.204   0.574
 8541SOL     OW26521   2.866   2.243   4.188
 8541SOL    HW126522   2.782   2.189   4.185
 8541SOL    HW226523   2.916   2.222   4.272
 8542SOL     OW26524   2.556   4.637   6.853
 8542SOL    HW126525   2.499   4.555   6.849
 8542SOL    HW226526   2.548   4.688   6.767
 8543SOL     OW26527   3.352   1.349   0.174
 8543SOL    HW126528   3.267   1.369   0.222
 8543SOL    HW226529   3.333   1.343   0.075
 8544SOL     OW26530   5.440   2.731   5.034
 8544SOL    HW126531   5.422   2.645   5.082
 8544SOL    HW226532   5.365   2.749   4.970
 8545SOL     OW26533   4.416   0.103   4.499
 8545SOL    HW126534   4.380   0.120   4.591
 8545SOL    HW226535   4.504   0.149   4.488
 8546SOL     OW26536   0.731   0.496   2.935
 8546SOL    HW126537   0.829   0.496   2.914
 8546SOL    HW226538   0.681   0.539   2.860
 8547SOL     OW26539   1.004   6.668   6.807
 8547SOL    HW126540   1.006   6.762   6.841
 8547SOL    HW226541   1.012   6.669   6.707
 8548SOL     OW26542   6.730   3.074   5.555
 8548SOL    HW126543   6.797   3.059   5.482
 8548SOL    HW226544   6.722   2.991   5.611
 8549SOL     OW26545   0.937   3.021   4.671
 8549SOL    HW126546   0.864   2.970   4.625
 8549SOL    HW226547   1.026   2.993   4.633
 8550SOL     OW26548   1.229   5.358   0.217
 8550SOL    HW126549   1.328   5.344   0.215
 8550SOL    HW226550   1.188   5.319   0.135
 8551SOL     OW26551   2.429   3.041   6.801
 8551SOL    HW126552   2.437   3.025   6.899
 8551SOL    HW226553   2.517   3.071   6.765
 8552SOL     OW26554   1.896   0.175   2.775
 8552SOL    HW126555   1.947   0.261   2.784
 8552SOL    HW226556   1.899   0.125   2.862
 8553SOL     OW26557   4.541   5.104   0.094
 8553SOL    HW126558   4.625   5.080   0.045
 8553SOL    HW226559   4.480   5.025   0.095
 8554SOL     OW26560   0.704   4.630   0.544
 8554SOL    HW126561   0.638   4.578   0.597
 8554SOL    HW226562   0.723   4.583   0.458
 8555SOL     OW26563   2.885   0.639   3.565
 8555SOL    HW126564   2.883   0.643   3.466
 8555SOL    HW226565   2.976   0.610   3.596
 8556SOL     OW26566   2.027   6.120   4.938
 8556SOL    HW126567   2.121   6.109   4.970
 8556SOL    HW226568   2.013   6.068   4.854
 8557SOL     OW26569   6.716   6.615   2.142
 8557SOL    HW126570   6.693   6.574   2.230
 8557SOL    HW226571   6.815   6.610   2.129
 8558SOL     OW26572   2.822   4.908   3.045
 8558SOL    HW126573   2.733   4.934   3.081
 8558SOL    HW226574   2.879   4.989   3.035
 8559SOL     OW26575   1.999   0.256   2.421
 8559SOL    HW126576   2.055   0.174   2.431
 8559SOL    HW226577   1.903   0.230   2.417
 8560SOL     OW26578   0.944   6.195   1.652
 8560SOL    HW126579   1.016   6.127   1.636
 8560SOL    HW226580   0.865   6.174   1.594
 8561SOL     OW26581   3.387   0.359   2.908
 8561SOL    HW126582   3.442   0.277   2.927
 8561SOL    HW226583   3.411   0.393   2.817
 8562SOL     OW26584   4.132   6.273   6.128
 8562SOL    HW126585   4.156   6.263   6.224
 8562SOL    HW226586   4.138   6.369   6.102
 8563SOL     OW26587   1.321   4.899   1.154
 8563SOL    HW126588   1.277   4.813   1.178
 8563SOL    HW226589   1.326   4.907   1.055
 8564SOL     OW26590   2.890   0.384   5.062
 8564SOL    HW126591   2.844   0.471   5.045
 8564SOL    HW226592   2.986   0.391   5.034
 8565SOL     OW26593   3.570   5.283   1.055
 8565SOL    HW126594   3.477   5.282   1.020
 8565SOL    HW226595   3.606   5.376   1.053
 8566SOL     OW26596   0.748   6.603   1.458
 8566SOL    HW126597   0.788   6.693   1.442
 8566SOL    HW226598   0.820   6.539   1.484
 8567SOL     OW26599   0.535   1.785   3.163
 8567SOL    HW126600   0.499   1.767   3.254
 8567SOL    HW226601   0.487   1.864   3.123
 8568SOL     OW26602   5.924   1.228   6.612
 8568SOL    HW126603   5.908   1.287   6.690
 8568SOL    HW226604   5.920   1.132   6.642
 8569SOL     OW26605   4.663   1.757   5.795
 8569SOL    HW126606   4.729   1.701   5.843
 8569SOL    HW226607   4.682   1.754   5.697
 8570SOL     OW26608   2.050   1.654   4.788
 8570SOL    HW126609   1.967   1.648   4.732
 8570SOL    HW226610   2.063   1.569   4.839
 8571SOL     OW26611   0.090   5.955   5.440
 8571SOL    HW126612   0.123   5.960   5.534
 8571SOL    HW226613   0.092   5.860   5.409
 8572SOL     OW26614   2.645   4.663   6.037
 8572SOL    HW126615   2.672   4.759   6.028
 8572SOL    HW226616   2.688   4.625   6.119
 8573SOL     OW26617   3.510   6.086   6.259
 8573SOL    HW126618   3.447   6.019   6.297
 8573SOL    HW226619   3.505   6.083   6.159
 8574SOL     OW26620   6.964   6.647   6.316
 8574SOL    HW126621   6.960   6.710   6.393
 8574SOL    HW226622   0.031   6.663   6.264
 8575SOL     OW26623   2.040   2.625   3.772
 8575SOL    HW126624   1.968   2.628   3.702
 8575SOL    HW226625   2.097   2.544   3.757
 8576SOL     OW26626   1.234   4.232   5.427
 8576SOL    HW126627   1.302   4.305   5.425
 8576SOL    HW226628   1.181   4.238   5.511
 8577SOL     OW26629   1.419   6.745   4.210
 8577SOL    HW126630   1.506   6.696   4.202
 8577SOL    HW226631   1.384   6.765   4.119
 8578SOL     OW26632   5.980   6.575   4.640
 8578SOL    HW126633   5.974   6.477   4.657
 8578SOL    HW226634   5.959   6.625   4.724
 8579SOL     OW26635   2.100   0.493   2.109
 8579SOL    HW126636   2.108   0.499   2.208
 8579SOL    HW226637   2.050   0.410   2.085
 8580SOL     OW26638   2.490   5.829   1.067
 8580SOL    HW126639   2.440   5.916   1.065
 8580SOL    HW226640   2.462   5.774   0.988
 8581SOL     OW26641   3.482   3.451   1.490
 8581SOL    HW126642   3.491   3.470   1.393
 8581SOL    HW226643   3.476   3.536   1.541
 8582SOL     OW26644   4.785   4.069   4.694
 8582SOL    HW126645   4.734   4.146   4.657
 8582SOL    HW226646   4.764   4.059   4.791
 8583SOL     OW26647   4.677   0.757   4.505
 8583SOL    HW126648   4.751   0.812   4.545
 8583SOL    HW226649   4.681   0.764   4.406
 8584SOL     OW26650   0.220   5.552   6.557
 8584SOL    HW126651   0.157   5.627   6.578
 8584SOL    HW226652   0.236   5.498   6.639
 8585SOL     OW26653   6.725   0.314   6.814
 8585SOL    HW126654   6.801   0.311   6.749
 8585SOL    HW226655   6.666   0.391   6.792
 8586SOL     OW26656   3.476   6.854   2.111
 8586SOL    HW126657   3.396   6.829   2.166
 8586SOL    HW226658   3.503   6.948   2.131
 8587SOL     OW26659   1.369   0.569   4.294
 8587SOL    HW126660   1.409   0.558   4.203
 8587SOL    HW226661   1.366   0.666   4.318
 8588SOL     OW26662   4.026   0.643   0.380
 8588SOL    HW126663   4.082   0.566   0.351
 8588SOL    HW226664   4.085   0.714   0.418
 8589SOL     OW26665   5.246   2.665   5.678
 8589SOL    HW126666   5.208   2.573   5.676
 8589SOL    HW226667   5.288   2.685   5.590
 8590SOL     OW26668   0.057   6.597   2.712
 8590SOL    HW126669   0.041   6.512   2.663
 8590SOL    HW226670   0.154   6.604   2.736
 8591SOL     OW26671   0.462   4.283   0.264
 8591SOL    HW126672   0.399   4.333   0.204
 8591SOL    HW226673   0.435   4.295   0.359
 8592SOL     OW26674   5.908   2.588   7.005
 8592SOL    HW126675   5.820   2.553   0.020
 8592SOL    HW226676   5.931   2.544   6.918
 8593SOL     OW26677   2.755   1.443   0.594
 8593SOL    HW126678   2.733   1.512   0.525
 8593SOL    HW226679   2.793   1.488   0.674
 8594SOL     OW26680   4.522   2.391   5.203
 8594SOL    HW126681   4.614   2.358   5.223
 8594SOL    HW226682   4.526   2.459   5.130
 8595SOL     OW26683   0.466   1.363   3.231
 8595SOL    HW126684   0.497   1.277   3.272
 8595SOL    HW226685   0.450   1.431   3.303
 8596SOL     OW26686   1.020   4.617   2.980
 8596SOL    HW126687   1.021   4.616   2.880
 8596SOL    HW226688   0.936   4.575   3.013
 8597SOL     OW26689   4.578   2.071   1.115
 8597SOL    HW126690   4.621   2.018   1.188
 8597SOL    HW226691   4.517   2.140   1.154
 8598SOL     OW26692   6.047   0.076   0.511
 8598SOL    HW126693   5.959   0.093   0.555
 8598SOL    HW226694   6.065   0.148   0.444
 8599SOL     OW26695   1.362   2.470   4.899
 8599SOL    HW126696   1.327   2.527   4.973
 8599SOL    HW226697   1.345   2.374   4.920
 8600SOL     OW26698   5.351   4.387   5.850
 8600SOL    HW126699   5.331   4.466   5.909
 8600SOL    HW226700   5.383   4.419   5.761
 8601SOL     OW26701   1.024   1.633   4.652
 8601SOL    HW126702   0.999   1.600   4.743
 8601SOL    HW226703   0.957   1.598   4.585
 8602SOL     OW26704   3.360   5.976   2.267
 8602SOL    HW126705   3.348   6.034   2.347
 8602SOL    HW226706   3.273   5.932   2.244
 8603SOL     OW26707   4.966   6.164   1.008
 8603SOL    HW126708   5.019   6.127   1.084
 8603SOL    HW226709   5.023   6.226   0.954
 8604SOL     OW26710   0.496   2.872   4.783
 8604SOL    HW126711   0.409   2.825   4.766
 8604SOL    HW226712   0.481   2.946   4.848
 8605SOL     OW26713   2.458   5.431   4.080
 8605SOL    HW126714   2.541   5.445   4.025
 8605SOL    HW226715   2.427   5.336   4.070
 8606SOL     OW26716   1.442   3.379   6.554
 8606SOL    HW126717   1.395   3.296   6.584
 8606SOL    HW226718   1.411   3.457   6.609
 8607SOL     OW26719   3.257   5.200   6.542
 8607SOL    HW126720   3.317   5.255   6.484
 8607SOL    HW226721   3.255   5.106   6.507
 8608SOL     OW26722   2.963   4.834   2.559
 8608SOL    HW126723   2.980   4.785   2.645
 8608SOL    HW226724   2.981   4.932   2.574
 8609SOL     OW26725   5.379   0.882   2.956
 8609SOL    HW126726   5.347   0.792   2.929
 8609SOL    HW226727   5.429   0.875   3.042
 8610SOL     OW26728   0.760   1.830   2.881
 8610SOL    HW126729   0.737   1.741   2.920
 8610SOL    HW226730   0.679   1.868   2.836
 8611SOL     OW26731   3.122   2.147   4.817
 8611SOL    HW126732   3.048   2.081   4.799
 8611SOL    HW226733   3.092   2.211   4.887
 8612SOL     OW26734   2.680   3.230   0.331
 8612SOL    HW126735   2.766   3.190   0.300
 8612SOL    HW226736   2.673   3.222   0.430
 8613SOL     OW26737   2.888   1.477   1.586
 8613SOL    HW126738   2.822   1.410   1.552
 8613SOL    HW226739   2.978   1.435   1.592
 8614SOL     OW26740   1.188   2.758   3.388
 8614SOL    HW126741   1.155   2.821   3.317
 8614SOL    HW226742   1.275   2.791   3.424
 8615SOL     OW26743   3.976   1.667   5.005
 8615SOL    HW126744   3.927   1.752   4.986
 8615SOL    HW226745   3.927   1.590   4.964
 8616SOL     OW26746   3.159   4.611   1.739
 8616SOL    HW126747   3.069   4.584   1.775
 8616SOL    HW226748   3.180   4.704   1.768
 8617SOL     OW26749   6.728   1.630   5.590
 8617SOL    HW126750   6.744   1.631   5.688
 8617SOL    HW226751   6.718   1.724   5.557
 8618SOL     OW26752   5.939   4.710   1.054
 8618SOL    HW126753   5.919   4.801   1.092
 8618SOL    HW226754   5.881   4.694   0.974
 8619SOL     OW26755   3.671   4.863   2.242
 8619SOL    HW126756   3.662   4.814   2.156
 8619SOL    HW226757   3.580   4.886   2.277
 8620SOL     OW26758   1.303   0.458   3.201
 8620SOL    HW126759   1.339   0.427   3.289
 8620SOL    HW226760   1.220   0.407   3.179
 8621SOL     OW26761   5.810   1.847   2.960
 8621SOL    HW126762   5.713   1.836   2.937
 8621SOL    HW226763   5.859   1.880   2.880
 8622SOL     OW26764   5.555   3.383   1.094
 8622SOL    HW126765   5.531   3.459   1.155
 8622SOL    HW226766   5.478   3.319   1.089
 8623SOL     OW26767   0.833   3.692   4.504
 8623SOL    HW126768   0.823   3.599   4.468
 8623SOL    HW226769   0.927   3.724   4.489
 8624SOL     OW26770   1.892   3.968   4.540
 8624SOL    HW126771   1.972   3.911   4.518
 8624SOL    HW226772   1.913   4.063   4.517
 8625SOL     OW26773   4.563   0.942   6.255
 8625SOL    HW126774   4.588   0.994   6.173
 8625SOL    HW226775   4.477   0.976   6.291
 8626SOL     OW26776   3.221   2.957   6.348
 8626SOL    HW126777   3.278   3.038   6.336
 8626SOL    HW226778   3.128   2.985   6.372
 8627SOL     OW26779   0.629   1.469   3.459
 8627SOL    HW126780   0.712   1.506   3.417
 8627SOL    HW226781   0.649   1.378   3.496
 8628SOL     OW26782   6.541   6.193   0.573
 8628SOL    HW126783   6.554   6.275   0.629
 8628SOL    HW226784   6.449   6.156   0.588
 8629SOL     OW26785   2.082   5.837   4.798
 8629SOL    HW126786   2.098   5.761   4.861
 8629SOL    HW226787   2.170   5.874   4.768
 8630SOL     OW26788   5.303   4.651   3.946
 8630SOL    HW126789   5.301   4.557   3.979
 8630SOL    HW226790   5.355   4.708   4.010
 8631SOL     OW26791   0.646   5.333   6.343
 8631SOL    HW126792   0.589   5.263   6.300
 8631SOL    HW226793   0.737   5.333   6.300
 8632SOL     OW26794   4.107   4.870   4.969
 8632SOL    HW126795   4.010   4.895   4.978
 8632SOL    HW226796   4.146   4.855   5.060
 8633SOL     OW26797   5.811   2.238   5.542
 8633SOL    HW126798   5.770   2.198   5.624
 8633SOL    HW226799   5.773   2.329   5.527
 8634SOL     OW26800   5.037   3.580   0.312
 8634SOL    HW126801   5.023   3.677   0.333
 8634SOL    HW226802   5.022   3.526   0.395
 8635SOL     OW26803   5.208   3.295   6.447
 8635SOL    HW126804   5.178   3.202   6.425
 8635SOL    HW226805   5.292   3.315   6.397
 8636SOL     OW26806   5.729   5.879   0.819
 8636SOL    HW126807   5.637   5.901   0.853
 8636SOL    HW226808   5.733   5.899   0.721
 8637SOL     OW26809   2.884   0.784   6.658
 8637SOL    HW126810   2.874   0.869   6.606
 8637SOL    HW226811   2.829   0.790   6.742
 8638SOL     OW26812   3.512   2.147   5.172
 8638SOL    HW126813   3.450   2.116   5.100
 8638SOL    HW226814   3.495   2.244   5.190
 8639SOL     OW26815   5.268   2.416   0.385
 8639SOL    HW126816   5.235   2.465   0.465
 8639SOL    HW226817   5.262   2.317   0.401
 8640SOL     OW26818   4.172   4.057   6.742
 8640SOL    HW126819   4.147   4.046   6.838
 8640SOL    HW226820   4.218   4.145   6.729
 8641SOL     OW26821   4.624   4.863   3.830
 8641SOL    HW126822   4.707   4.873   3.884
 8641SOL    HW226823   4.593   4.768   3.834
 8642SOL     OW26824   1.029   6.104   3.538
 8642SOL    HW126825   1.101   6.168   3.512
 8642SOL    HW226826   1.015   6.037   3.465
 8643SOL     OW26827   3.130   0.789   6.529
 8643SOL    HW126828   3.047   0.801   6.583
 8643SOL    HW226829   3.207   0.768   6.590
 8644SOL     OW26830   5.155   2.142   5.119
 8644SOL    HW126831   5.158   2.064   5.181
 8644SOL    HW226832   5.085   2.126   5.049
 8645SOL     OW26833   4.298   4.537   1.349
 8645SOL    HW126834   4.292   4.446   1.390
 8645SOL    HW226835   4.243   4.540   1.266
 8646SOL     OW26836   6.866   2.077   0.220
 8646SOL    HW126837   6.801   2.009   0.185
 8646SOL    HW226838   6.922   2.113   0.145
 8647SOL     OW26839   2.955   5.197   6.314
 8647SOL    HW126840   2.973   5.266   6.384
 8647SOL    HW226841   2.922   5.242   6.230
 8648SOL     OW26842   6.827   0.017   2.810
 8648SOL    HW126843   6.838   0.110   2.845
 8648SOL    HW226844   6.738   6.999   2.838
 8649SOL     OW26845   5.643   5.529   5.997
 8649SOL    HW126846   5.637   5.599   6.068
 8649SOL    HW226847   5.619   5.440   6.036
 8650SOL     OW26848   1.971   4.832   4.201
 8650SOL    HW126849   2.014   4.916   4.232
 8650SOL    HW226850   1.943   4.777   4.280
 8651SOL     OW26851   4.323   0.536   0.207
 8651SOL    HW126852   4.334   0.494   0.117
 8651SOL    HW226853   4.250   0.489   0.257
 8652SOL     OW26854   1.856   5.408   3.666
 8652SOL    HW126855   1.831   5.500   3.698
 8652SOL    HW226856   1.883   5.352   3.744
 8653SOL     OW26857   6.730   0.961   6.248
 8653SOL    HW126858   6.806   0.929   6.303
 8653SOL    HW226859   6.651   0.900   6.259
 8654SOL     OW26860   0.617   5.043   1.967
 8654SOL    HW126861   0.653   5.049   1.874
 8654SOL    HW226862   0.651   4.961   2.011
 8655SOL     OW26863   6.375   1.211   4.354
 8655SOL    HW126864   6.291   1.161   4.333
 8655SOL    HW226865   6.455   1.157   4.326
 8656SOL     OW26866   6.654   6.933   0.953
 8656SOL    HW126867   6.623   6.994   0.881
 8656SOL    HW226868   6.600   6.949   1.036
 8657SOL     OW26869   4.812   5.437   0.055
 8657SOL    HW126870   4.884   5.502   0.031
 8657SOL    HW226871   4.844   5.377   0.128
 8658SOL     OW26872   6.532   6.190   0.244
 8658SOL    HW126873   6.615   6.165   0.293
 8658SOL    HW226874   6.461   6.121   0.261
 8659SOL     OW26875   4.810   2.119   2.461
 8659SOL    HW126876   4.751   2.141   2.383
 8659SOL    HW226877   4.851   2.028   2.447
 8660SOL     OW26878   0.037   3.663   2.034
 8660SOL    HW126879   0.096   3.594   2.076
 8660SOL    HW226880   6.959   3.644   2.058
 8661SOL     OW26881   6.479   3.992   1.191
 8661SOL    HW126882   6.522   3.915   1.145
 8661SOL    HW226883   6.408   3.959   1.254
 8662SOL     OW26884   4.132   5.797   1.091
 8662SOL    HW126885   4.156   5.711   1.047
 8662SOL    HW226886   4.213   5.855   1.100
 8663SOL     OW26887   2.851   5.776   2.395
 8663SOL    HW126888   2.924   5.843   2.383
 8663SOL    HW226889   2.889   5.692   2.434
 8664SOL     OW26890   1.895   6.508   1.584
 8664SOL    HW126891   1.976   6.471   1.539
 8664SOL    HW226892   1.822   6.518   1.517
 8665SOL     OW26893   5.496   5.603   5.165
 8665SOL    HW126894   5.582   5.653   5.156
 8665SOL    HW226895   5.458   5.586   5.074
 8666SOL     OW26896   5.959   1.188   3.558
 8666SOL    HW126897   5.893   1.113   3.561
 8666SOL    HW226898   5.940   1.245   3.478
 8667SOL     OW26899   3.747   2.151   3.662
 8667SOL    HW126900   3.815   2.160   3.588
 8667SOL    HW226901   3.795   2.140   3.749
 8668SOL     OW26902   4.882   3.391   3.580
 8668SOL    HW126903   4.870   3.451   3.659
 8668SOL    HW226904   4.866   3.296   3.607
 8669SOL     OW26905   1.241   6.310   6.236
 8669SOL    HW126906   1.294   6.319   6.151
 8669SOL    HW226907   1.258   6.219   6.276
 8670SOL     OW26908   4.353   4.780   6.065
 8670SOL    HW126909   4.430   4.834   6.031
 8670SOL    HW226910   4.312   4.729   5.989
 8671SOL     OW26911   5.196   1.873   2.958
 8671SOL    HW126912   5.122   1.931   2.923
 8671SOL    HW226913   5.265   1.860   2.887
 8672SOL     OW26914   1.134   5.487   3.917
 8672SOL    HW126915   1.190   5.407   3.896
 8672SOL    HW226916   1.045   5.458   3.951
 8673SOL     OW26917   5.081   2.899   7.015
 8673SOL    HW126918   5.015   2.827   0.018
 8673SOL    HW226919   5.166   2.883   0.048
 8674SOL     OW26920   4.731   6.245   2.943
 8674SOL    HW126921   4.764   6.310   3.012
 8674SOL    HW226922   4.643   6.208   2.972
 8675SOL     OW26923   3.866   2.140   4.916
 8675SOL    HW126924   3.947   2.198   4.905
 8675SOL    HW226925   3.831   2.149   5.010
 8676SOL     OW26926   5.638   6.707   3.219
 8676SOL    HW126927   5.554   6.752   3.190
 8676SOL    HW226928   5.681   6.759   3.293
 8677SOL     OW26929   2.087   5.619   6.121
 8677SOL    HW126930   2.132   5.544   6.170
 8677SOL    HW226931   2.155   5.675   6.074
 8678SOL     OW26932   0.038   0.391   1.859
 8678SOL    HW126933   7.007   0.370   1.774
 8678SOL    HW226934   0.126   0.435   1.837
 8679SOL     OW26935   0.331   1.983   3.116
 8679SOL    HW126936   0.382   2.047   3.174
 8679SOL    HW226937   0.253   1.947   3.167
 8680SOL     OW26938   7.003   3.299   6.996
 8680SOL    HW126939   0.041   3.300   6.913
 8680SOL    HW226940   0.035   3.343   0.053
 8681SOL     OW26941   4.650   5.176   0.955
 8681SOL    HW126942   4.558   5.212   0.939
 8681SOL    HW226943   4.675   5.187   1.051
 8682SOL     OW26944   5.696   6.615   2.658
 8682SOL    HW126945   5.784   6.616   2.609
 8682SOL    HW226946   5.699   6.680   2.733
 8683SOL     OW26947   1.715   2.127   4.354
 8683SOL    HW126948   1.625   2.159   4.383
 8683SOL    HW226949   1.785   2.165   4.414
 8684SOL     OW26950   6.265   2.716   5.079
 8684SOL    HW126951   6.250   2.734   5.176
 8684SOL    HW226952   6.322   2.635   5.068
 8685SOL     OW26953   6.895   2.069   6.486
 8685SOL    HW126954   6.844   1.989   6.457
 8685SOL    HW226955   6.965   2.042   6.552
 8686SOL     OW26956   0.091   1.162   3.021
 8686SOL    HW126957   0.162   1.232   3.028
 8686SOL    HW226958   0.032   1.167   3.102
 8687SOL     OW26959   4.601   5.254   2.153
 8687SOL    HW126960   4.624   5.276   2.248
 8687SOL    HW226961   4.656   5.309   2.092
 8688SOL     OW26962   0.381   5.399   5.893
 8688SOL    HW126963   0.307   5.336   5.870
 8688SOL    HW226964   0.463   5.375   5.840
 8689SOL     OW26965   3.845   3.446   1.341
 8689SOL    HW126966   3.804   3.537   1.332
 8689SOL    HW226967   3.774   3.376   1.332
 8690SOL     OW26968   1.690   4.135   3.786
 8690SOL    HW126969   1.656   4.121   3.878
 8690SOL    HW226970   1.789   4.118   3.784
 8691SOL     OW26971   4.047   1.985   5.910
 8691SOL    HW126972   4.060   1.897   5.954
 8691SOL    HW226973   4.113   2.051   5.947
 8692SOL     OW26974   2.943   1.393   4.840
 8692SOL    HW126975   2.844   1.403   4.842
 8692SOL    HW226976   2.967   1.298   4.861
 8693SOL     OW26977   5.110   0.230   0.624
 8693SOL    HW126978   5.175   0.173   0.676
 8693SOL    HW226979   5.159   0.278   0.552
 8694SOL     OW26980   5.238   0.787   4.704
 8694SOL    HW126981   5.282   0.698   4.695
 8694SOL    HW226982   5.184   0.806   4.622
 8695SOL     OW26983   4.381   2.767   5.755
 8695SOL    HW126984   4.426   2.708   5.688
 8695SOL    HW226985   4.444   2.784   5.831
 8696SOL     OW26986   2.111   5.132   5.264
 8696SOL    HW126987   2.143   5.223   5.240
 8696SOL    HW226988   2.175   5.063   5.230
 8697SOL     OW26989   0.438   3.542   5.898
 8697SOL    HW126990   0.353   3.579   5.860
 8697SOL    HW226991   0.436   3.550   5.997
 8698SOL     OW26992   4.790   6.138   5.063
 8698SOL    HW126993   4.837   6.181   5.140
 8698SOL    HW226994   4.857   6.111   4.994
 8699SOL     OW26995   0.627   2.859   5.169
 8699SOL    HW126996   0.566   2.779   5.172
 8699SOL    HW226997   0.600   2.918   5.093
 8700SOL     OW26998   1.175   0.336   4.688
 8700SOL    HW126999   1.124   0.418   4.714
 8700SOL    HW227000   1.122   0.283   4.622
 8701SOL     OW27001   1.484   0.980   6.717
 8701SOL    HW127002   1.417   0.959   6.789
 8701SOL    HW227003   1.437   1.017   6.637
 8702SOL     OW27004   5.682   4.796   1.489
 8702SOL    HW127005   5.715   4.815   1.396
 8702SOL    HW227006   5.626   4.873   1.520
 8703SOL     OW27007   2.899   5.150   0.041
 8703SOL    HW127008   2.978   5.096   0.012
 8703SOL    HW227009   2.829   5.147   6.988
 8704SOL     OW27010   0.425   4.104   3.521
 8704SOL    HW127011   0.341   4.103   3.576
 8704SOL    HW227012   0.490   4.168   3.562
 8705SOL     OW27013   5.221   0.924   6.582
 8705SOL    HW127014   5.239   0.989   6.509
 8705SOL    HW227015   5.255   0.961   6.669
 8706SOL     OW27016   5.181   2.538   6.914
 8706SOL    HW127017   5.208   2.451   6.874
 8706SOL    HW227018   5.088   2.562   6.883
 8707SOL     OW27019   0.635   1.359   5.737
 8707SOL    HW127020   0.609   1.421   5.663
 8707SOL    HW227021   0.554   1.311   5.771
 8708SOL     OW27022   4.021   1.539   2.794
 8708SOL    HW127023   4.011   1.604   2.869
 8708SOL    HW227024   3.949   1.555   2.727
 8709SOL     OW27025   6.956   6.761   0.414
 8709SOL    HW127026   7.017   6.719   0.481
 8709SOL    HW227027   6.937   6.696   0.341
 8710SOL     OW27028   1.953   3.048   3.619
 8710SOL    HW127029   1.905   2.964   3.646
 8710SOL    HW227030   1.980   3.041   3.523
 8711SOL     OW27031   1.821   6.623   2.848
 8711SOL    HW127032   1.804   6.716   2.814
 8711SOL    HW227033   1.910   6.621   2.894
 8712SOL     OW27034   3.716   1.806   4.718
 8712SOL    HW127035   3.646   1.735   4.712
 8712SOL    HW227036   3.746   1.816   4.813
 8713SOL     OW27037   6.357   3.293   3.098
 8713SOL    HW127038   6.446   3.329   3.128
 8713SOL    HW227039   6.346   3.310   3.000
 8714SOL     OW27040   1.148   6.952   5.639
 8714SOL    HW127041   1.092   0.011   5.672
 8714SOL    HW227042   1.194   6.909   5.716
 8715SOL     OW27043   4.221   0.733   0.997
 8715SOL    HW127044   4.126   0.754   0.973
 8715SOL    HW227045   4.280   0.809   0.972
 8716SOL     OW27046   6.726   7.017   1.223
 8716SOL    HW127047   6.631   0.021   1.243
 8716SOL    HW227048   6.757   0.054   1.145
 8717SOL     OW27049   2.923   3.858   4.998
 8717SOL    HW127050   2.981   3.865   4.917
 8717SOL    HW227051   2.857   3.784   4.986
 8718SOL     OW27052   1.309   2.996   5.353
 8718SOL    HW127053   1.337   3.092   5.362
 8718SOL    HW227054   1.275   2.980   5.261
 8719SOL     OW27055   4.403   0.111   6.897
 8719SOL    HW127056   4.478   0.060   6.940
 8719SOL    HW227057   4.424   0.126   6.801
 8720SOL     OW27058   0.081   5.724   6.009
 8720SOL    HW127059   0.044   5.706   6.100
 8720SOL    HW227060   0.160   5.785   6.017
 8721SOL     OW27061   6.377   2.613   1.894
 8721SOL    HW127062   6.437   2.538   1.921
 8721SOL    HW227063   6.295   2.612   1.952
 8722SOL     OW27064   3.772   1.283   1.162
 8722SOL    HW127065   3.689   1.229   1.152
 8722SOL    HW227066   3.851   1.228   1.132
 8723SOL     OW27067   4.721   6.821   1.854
 8723SOL    HW127068   4.780   6.767   1.913
 8723SOL    HW227069   4.746   6.806   1.759
 8724SOL     OW27070   5.452   6.948   4.582
 8724SOL    HW127071   5.433   6.982   4.490
 8724SOL    HW227072   5.377   6.889   4.613
 8725SOL     OW27073   1.825   5.712   5.693
 8725SOL    HW127074   1.775   5.718   5.607
 8725SOL    HW227075   1.765   5.736   5.769
 8726SOL     OW27076   0.244   0.981   3.242
 8726SOL    HW127077   0.285   0.895   3.210
 8726SOL    HW227078   0.242   1.047   3.168
 8727SOL     OW27079   5.340   0.348   2.431
 8727SOL    HW127080   5.402   0.347   2.353
 8727SOL    HW227081   5.248   0.324   2.401
 8728SOL     OW27082   6.462   0.883   2.294
 8728SOL    HW127083   6.561   0.900   2.294
 8728SOL    HW227084   6.416   0.956   2.345
 8729SOL     OW27085   3.595   4.803   5.695
 8729SOL    HW127086   3.557   4.893   5.712
 8729SOL    HW227087   3.675   4.811   5.635
 8730SOL     OW27088   5.561   4.278   2.634
 8730SOL    HW127089   5.614   4.323   2.563
 8730SOL    HW227090   5.488   4.339   2.666
 8731SOL     OW27091   1.254   3.089   2.647
 8731SOL    HW127092   1.208   3.005   2.618
 8731SOL    HW227093   1.186   3.161   2.662
 8732SOL     OW27094   5.724   4.909   1.825
 8732SOL    HW127095   5.635   4.888   1.867
 8732SOL    HW227096   5.797   4.886   1.890
 8733SOL     OW27097   1.948   5.815   1.377
 8733SOL    HW127098   1.915   5.762   1.455
 8733SOL    HW227099   1.976   5.752   1.304
 8734SOL     OW27100   0.620   4.113   2.515
 8734SOL    HW127101   0.641   4.022   2.480
 8734SOL    HW227102   0.612   4.177   2.439
 8735SOL     OW27103   0.786   2.550   0.087
 8735SOL    HW127104   0.710   2.594   0.135
 8735SOL    HW227105   0.768   2.451   0.080
 8736SOL     OW27106   0.106   5.353   0.650
 8736SOL    HW127107   0.089   5.447   0.681
 8736SOL    HW227108   0.061   5.339   0.562
 8737SOL     OW27109   1.858   6.566   0.362
 8737SOL    HW127110   1.946   6.593   0.401
 8737SOL    HW227111   1.794   6.643   0.367
 8738SOL     OW27112   2.861   5.819   4.007
 8738SOL    HW127113   2.799   5.769   3.946
 8738SOL    HW227114   2.945   5.765   4.021
 8739SOL     OW27115   5.405   5.487   6.641
 8739SOL    HW127116   5.317   5.460   6.680
 8739SOL    HW227117   5.478   5.435   6.686
 8740SOL     OW27118   3.993   1.328   4.597
 8740SOL    HW127119   3.915   1.383   4.564
 8740SOL    HW227120   4.069   1.337   4.533
 8741SOL     OW27121   2.244   1.474   2.524
 8741SOL    HW127122   2.170   1.407   2.529
 8741SOL    HW227123   2.324   1.433   2.479
 8742SOL     OW27124   4.866   6.592   1.705
 8742SOL    HW127125   4.832   6.588   1.611
 8742SOL    HW227126   4.798   6.554   1.767
 8743SOL     OW27127   1.390   6.989   2.115
 8743SOL    HW127128   1.350   0.001   2.028
 8743SOL    HW227129   1.414   6.892   2.110
 8744SOL     OW27130   3.773   2.991   0.210
 8744SOL    HW127131   3.742   3.075   0.255
 8744SOL    HW227132   3.847   3.013   0.147
 8745SOL     OW27133   6.325   2.013   5.936
 8745SOL    HW127134   6.300   2.031   6.031
 8745SOL    HW227135   6.420   2.039   5.920
 8746SOL     OW27136   4.574   5.377   4.280
 8746SOL    HW127137   4.507   5.444   4.311
 8746SOL    HW227138   4.553   5.349   4.187
 8747SOL     OW27139   0.055   2.085   3.528
 8747SOL    HW127140   6.981   2.118   3.505
 8747SOL    HW227141   0.081   2.121   3.618
 8748SOL     OW27142   0.288   1.160   4.239
 8748SOL    HW127143   0.332   1.082   4.195
 8748SOL    HW227144   0.202   1.131   4.281
 8749SOL     OW27145   2.282   0.700   5.064
 8749SOL    HW127146   2.344   0.630   5.029
 8749SOL    HW227147   2.331   0.759   5.128
 8750SOL     OW27148   3.160   4.080   4.962
 8750SOL    HW127149   3.250   4.099   5.003
 8750SOL    HW227150   3.089   4.120   5.019
 8751SOL     OW27151   6.280   1.953   2.218
 8751SOL    HW127152   6.269   2.032   2.157
 8751SOL    HW227153   6.245   1.977   2.309
 8752SOL     OW27154   3.550   2.914   6.274
 8752SOL    HW127155   3.517   2.839   6.216
 8752SOL    HW227156   3.491   2.994   6.260
 8753SOL     OW27157   3.387   1.683   6.300
 8753SOL    HW127158   3.302   1.727   6.274
 8753SOL    HW227159   3.394   1.679   6.400
 8754SOL     OW27160   1.843   3.699   5.882
 8754SOL    HW127161   1.748   3.708   5.852
 8754SOL    HW227162   1.877   3.609   5.856
 8755SOL     OW27163   2.572   1.099   0.928
 8755SOL    HW127164   2.662   1.092   0.885
 8755SOL    HW227165   2.502   1.109   0.857
 8756SOL     OW27166   1.444   3.074   4.488
 8756SOL    HW127167   1.454   3.065   4.389
 8756SOL    HW227168   1.429   2.984   4.528
 8757SOL     OW27169   3.513   5.952   6.586
 8757SOL    HW127170   3.424   5.932   6.543
 8757SOL    HW227171   3.550   5.867   6.624
 8758SOL     OW27172   5.169   6.190   2.887
 8758SOL    HW127173   5.090   6.131   2.900
 8758SOL    HW227174   5.177   6.252   2.966
 8759SOL     OW27175   4.386   3.197   6.426
 8759SOL    HW127176   4.480   3.232   6.419
 8759SOL    HW227177   4.385   3.116   6.485
 8760SOL     OW27178   2.965   0.938   5.706
 8760SOL    HW127179   3.049   0.975   5.667
 8760SOL    HW227180   2.924   0.874   5.641
 8761SOL     OW27181   5.896   2.477   1.325
 8761SOL    HW127182   5.960   2.526   1.385
 8761SOL    HW227183   5.881   2.531   1.242
 8762SOL     OW27184   0.925   4.893   3.430
 8762SOL    HW127185   0.938   4.853   3.520
 8762SOL    HW227186   0.886   4.985   3.439
 8763SOL     OW27187   6.345   6.915   6.303
 8763SOL    HW127188   6.288   6.875   6.232
 8763SOL    HW227189   6.310   6.889   6.393
 8764SOL     OW27190   4.897   0.153   5.493
 8764SOL    HW127191   4.812   0.123   5.536
 8764SOL    HW227192   4.895   0.252   5.478
 8765SOL     OW27193   5.118   0.399   3.838
 8765SOL    HW127194   5.193   0.459   3.807
 8765SOL    HW227195   5.078   0.437   3.921
 8766SOL     OW27196   4.383   4.638   4.598
 8766SOL    HW127197   4.324   4.665   4.675
 8766SOL    HW227198   4.458   4.581   4.632
 8767SOL     OW27199   5.212   5.815   2.615
 8767SOL    HW127200   5.275   5.892   2.622
 8767SOL    HW227201   5.152   5.828   2.536
 8768SOL     OW27202   1.386   2.541   0.283
 8768SOL    HW127203   1.314   2.570   0.346
 8768SOL    HW227204   1.390   2.441   0.281
 8769SOL     OW27205   6.952   0.894   3.234
 8769SOL    HW127206   0.020   0.915   3.282
 8769SOL    HW227207   6.910   0.813   3.275
 8770SOL     OW27208   4.461   4.563   2.083
 8770SOL    HW127209   4.497   4.471   2.066
 8770SOL    HW227210   4.488   4.624   2.009
 8771SOL     OW27211   1.233   1.700   6.605
 8771SOL    HW127212   1.150   1.732   6.650
 8771SOL    HW227213   1.304   1.683   6.673
 8772SOL     OW27214   4.478   0.667   6.847
 8772SOL    HW127215   4.481   0.573   6.881
 8772SOL    HW227216   4.546   0.722   6.896
 8773SOL     OW27217   5.749   2.904   4.023
 8773SOL    HW127218   5.847   2.923   4.017
 8773SOL    HW227219   5.717   2.922   4.115
 8774SOL     OW27220   1.560   1.045   0.023
 8774SOL    HW127221   1.629   0.974   0.008
 8774SOL    HW227222   1.594   1.133   7.008
 8775SOL     OW27223   5.399   0.565   5.626
 8775SOL    HW127224   5.410   0.592   5.721
 8775SOL    HW227225   5.465   0.615   5.570
 8776SOL     OW27226   4.706   3.153   0.632
 8776SOL    HW127227   4.714   3.162   0.533
 8776SOL    HW227228   4.649   3.228   0.668
 8777SOL     OW27229   6.109   3.884   3.666
 8777SOL    HW127230   6.186   3.859   3.608
 8777SOL    HW227231   6.087   3.808   3.727
 8778SOL     OW27232   5.591   3.119   6.137
 8778SOL    HW127233   5.668   3.102   6.199
 8778SOL    HW227234   5.625   3.133   6.044
 8779SOL     OW27235   2.858   5.089   2.589
 8779SOL    HW127236   2.767   5.092   2.547
 8779SOL    HW227237   2.910   5.170   2.561
 8780SOL     OW27238   0.925   6.637   2.689
 8780SOL    HW127239   0.863   6.703   2.732
 8780SOL    HW227240   0.941   6.664   2.594
 8781SOL     OW27241   4.629   0.921   4.074
 8781SOL    HW127242   4.654   1.012   4.041
 8781SOL    HW227243   4.541   0.926   4.120
 8782SOL     OW27244   6.651   6.823   1.962
 8782SOL    HW127245   6.653   6.910   2.011
 8782SOL    HW227246   6.670   6.749   2.027
 8783SOL     OW27247   6.411   3.903   3.851
 8783SOL    HW127248   6.417   3.899   3.751
 8783SOL    HW227249   6.394   3.997   3.879
 8784SOL     OW27250   0.063   5.446   5.683
 8784SOL    HW127251   6.998   5.424   5.735
 8784SOL    HW227252   0.073   5.545   5.675
 8785SOL     OW27253   5.330   5.049   0.249
 8785SOL    HW127254   5.247   5.026   0.198
 8785SOL    HW227255   5.350   5.146   0.236
 8786SOL     OW27256   2.997   0.989   0.613
 8786SOL    HW127257   3.095   0.975   0.624
 8786SOL    HW227258   2.972   0.973   0.517
 8787SOL     OW27259   2.997   1.316   1.959
 8787SOL    HW127260   3.075   1.265   1.996
 8787SOL    HW227261   2.949   1.260   1.891
 8788SOL     OW27262   6.361   0.096   5.624
 8788SOL    HW127263   6.345   0.062   5.717
 8788SOL    HW227264   6.303   0.176   5.607
 8789SOL     OW27265   5.948   6.021   4.635
 8789SOL    HW127266   5.905   5.937   4.602
 8789SOL    HW227267   6.040   6.028   4.597
 8790SOL     OW27268   6.829   0.528   6.420
 8790SOL    HW127269   6.883   0.446   6.437
 8790SOL    HW227270   6.818   0.541   6.322
 8791SOL     OW27271   5.250   6.819   5.139
 8791SOL    HW127272   5.263   6.918   5.137
 8791SOL    HW227273   5.278   6.780   5.051
 8792SOL     OW27274   2.857   5.677   3.540
 8792SOL    HW127275   2.768   5.642   3.511
 8792SOL    HW227276   2.860   5.776   3.523
 8793SOL     OW27277   0.925   4.365   2.471
 8793SOL    HW127278   0.913   4.291   2.538
 8793SOL    HW227279   1.019   4.365   2.438
 8794SOL     OW27280   5.094   0.125   2.849
 8794SOL    HW127281   5.148   0.093   2.927
 8794SOL    HW227282   5.117   0.069   2.768
 8795SOL     OW27283   0.960   4.263   5.859
 8795SOL    HW127284   0.959   4.163   5.855
 8795SOL    HW227285   0.980   4.292   5.953
 8796SOL     OW27286   4.514   2.005   4.358
 8796SOL    HW127287   4.509   2.010   4.458
 8796SOL    HW227288   4.527   1.910   4.330
 8797SOL     OW27289   0.520   0.385   0.070
 8797SOL    HW127290   0.425   0.391   0.099
 8797SOL    HW227291   0.530   0.315   7.017
 8798SOL     OW27292   4.887   6.100   6.274
 8798SOL    HW127293   4.978   6.070   6.302
 8798SOL    HW227294   4.890   6.195   6.245
 8799SOL     OW27295   2.721   4.678   3.490
 8799SOL    HW127296   2.671   4.672   3.404
 8799SOL    HW227297   2.697   4.600   3.548
 8800SOL     OW27298   6.021   4.363   6.356
 8800SOL    HW127299   6.005   4.293   6.287
 8800SOL    HW227300   5.982   4.450   6.325
 8801SOL     OW27301   6.805   1.002   4.213
 8801SOL    HW127302   6.779   1.037   4.303
 8801SOL    HW227303   6.723   0.978   4.161
 8802SOL     OW27304   2.333   0.077   6.387
 8802SOL    HW127305   2.243   0.110   6.413
 8802SOL    HW227306   2.370   0.020   6.462
 8803SOL     OW27307   0.099   6.237   0.169
 8803SOL    HW127308   0.067   6.168   0.105
 8803SOL    HW227309   0.143   6.312   0.119
 8804SOL     OW27310   2.497   6.516   1.779
 8804SOL    HW127311   2.588   6.495   1.742
 8804SOL    HW227312   2.499   6.507   1.878
 8805SOL     OW27313   3.552   5.907   3.710
 8805SOL    HW127314   3.556   5.820   3.662
 8805SOL    HW227315   3.499   5.973   3.657
 8806SOL     OW27316   3.320   4.799   1.836
 8806SOL    HW127317   3.349   4.891   1.861
 8806SOL    HW227318   3.400   4.744   1.813
 8807SOL     OW27319   5.338   0.317   0.161
 8807SOL    HW127320   5.422   0.365   0.137
 8807SOL    HW227321   5.333   0.307   0.260
 8808SOL     OW27322   6.101   3.168   6.852
 8808SOL    HW127323   6.043   3.129   6.923
 8808SOL    HW227324   6.166   3.100   6.821
 8809SOL     OW27325   3.649   5.108   3.370
 8809SOL    HW127326   3.551   5.118   3.351
 8809SOL    HW227327   3.692   5.198   3.368
 8810SOL     OW27328   6.165   0.457   4.927
 8810SOL    HW127329   6.132   0.445   5.020
 8810SOL    HW227330   6.095   0.425   4.863
 8811SOL     OW27331   3.506   1.488   2.509
 8811SOL    HW127332   3.473   1.403   2.468
 8811SOL    HW227333   3.443   1.563   2.485
 8812SOL     OW27334   2.279   0.608   0.328
 8812SOL    HW127335   2.291   0.518   0.287
 8812SOL    HW227336   2.330   0.613   0.414
 8813SOL     OW27337   2.346   5.722   2.714
 8813SOL    HW127338   2.293   5.747   2.795
 8813SOL    HW227339   2.386   5.632   2.728
 8814SOL     OW27340   6.586   0.375   0.510
 8814SOL    HW127341   6.499   0.327   0.526
 8814SOL    HW227342   6.615   0.420   0.595
 8815SOL     OW27343   5.565   6.878   1.082
 8815SOL    HW127344   5.578   6.908   1.176
 8815SOL    HW227345   5.499   6.803   1.079
 8816SOL     OW27346   1.228   6.262   0.772
 8816SOL    HW127347   1.214   6.357   0.742
 8816SOL    HW227348   1.298   6.219   0.715
 8817SOL     OW27349   0.177   4.771   3.843
 8817SOL    HW127350   0.165   4.865   3.812
 8817SOL    HW227351   0.180   4.770   3.943
 8818SOL     OW27352   0.783   4.667   4.429
 8818SOL    HW127353   0.729   4.591   4.463
 8818SOL    HW227354   0.795   4.735   4.501
 8819SOL     OW27355   5.247   4.746   5.347
 8819SOL    HW127356   5.271   4.837   5.311
 8819SOL    HW227357   5.262   4.678   5.275
 8820SOL     OW27358   2.352   1.031   5.335
 8820SOL    HW127359   2.412   0.953   5.319
 8820SOL    HW227360   2.407   1.112   5.355
 8821SOL     OW27361   1.964   6.145   0.887
 8821SOL    HW127362   1.914   6.215   0.938
 8821SOL    HW227363   1.910   6.114   0.809
 8822SOL     OW27364   0.820   0.581   4.259
 8822SOL    HW127365   0.901   0.639   4.269
 8822SOL    HW227366   0.794   0.546   4.349
 8823SOL     OW27367   2.007   1.064   2.804
 8823SOL    HW127368   1.989   1.160   2.827
 8823SOL    HW227369   1.993   1.050   2.706
 8824SOL     OW27370   1.374   1.841   0.179
 8824SOL    HW127371   1.465   1.852   0.139
 8824SOL    HW227372   1.377   1.772   0.251
 8825SOL     OW27373   2.002   0.997   1.868
 8825SOL    HW127374   1.982   0.975   1.964
 8825SOL    HW227375   2.018   1.095   1.860
 8826SOL     OW27376   0.870   3.788   0.425
 8826SOL    HW127377   0.775   3.795   0.394
 8826SOL    HW227378   0.888   3.856   0.495
 8827SOL     OW27379   4.778   0.908   2.683
 8827SOL    HW127380   4.700   0.904   2.621
 8827SOL    HW227381   4.863   0.914   2.630
 8828SOL     OW27382   4.081   5.600   6.381
 8828SOL    HW127383   4.166   5.552   6.361
 8828SOL    HW227384   4.008   5.565   6.323
 8829SOL     OW27385   4.974   2.808   1.466
 8829SOL    HW127386   4.918   2.726   1.455
 8829SOL    HW227387   4.976   2.859   1.380
 8830SOL     OW27388   1.400   2.086   2.696
 8830SOL    HW127389   1.443   2.172   2.668
 8830SOL    HW227390   1.387   2.028   2.615
 8831SOL     OW27391   4.827   2.250   3.594
 8831SOL    HW127392   4.865   2.250   3.502
 8831SOL    HW227393   4.762   2.326   3.603
 8832SOL     OW27394   6.919   6.547   2.916
 8832SOL    HW127395   6.978   6.565   2.836
 8832SOL    HW227396   6.896   6.633   2.960
 8833SOL     OW27397   2.630   5.526   6.204
 8833SOL    HW127398   2.639   5.447   6.265
 8833SOL    HW227399   2.698   5.518   6.131
 8834SOL     OW27400   5.843   4.014   5.102
 8834SOL    HW127401   5.819   3.947   5.032
 8834SOL    HW227402   5.767   4.025   5.166
 8835SOL     OW27403   4.791   0.802   5.641
 8835SOL    HW127404   4.838   0.777   5.557
 8835SOL    HW227405   4.717   0.737   5.659
 8836SOL     OW27406   4.960   1.874   0.325
 8836SOL    HW127407   4.993   1.785   0.355
 8836SOL    HW227408   5.035   1.927   0.285
 8837SOL     OW27409   0.192   6.751   2.513
 8837SOL    HW127410   0.135   6.794   2.582
 8837SOL    HW227411   0.277   6.718   2.555
 8838SOL     OW27412   1.805   4.903   3.532
 8838SOL    HW127413   1.735   4.968   3.562
 8838SOL    HW227414   1.867   4.883   3.607
 8839SOL     OW27415   4.940   5.591   1.843
 8839SOL    HW127416   4.858   5.643   1.817
 8839SOL    HW227417   4.967   5.532   1.767
 8840SOL     OW27418   0.194   1.602   3.092
 8840SOL    HW127419   0.219   1.537   3.020
 8840SOL    HW227420   0.209   1.559   3.181
 8841SOL     OW27421   0.455   0.676   4.152
 8841SOL    HW127422   0.520   0.600   4.159
 8841SOL    HW227423   0.362   0.641   4.166
 8842SOL     OW27424   3.641   2.876   2.837
 8842SOL    HW127425   3.621   2.974   2.838
 8842SOL    HW227426   3.617   2.836   2.925
 8843SOL     OW27427   1.678   3.666   5.610
 8843SOL    HW127428   1.753   3.716   5.566
 8843SOL    HW227429   1.711   3.577   5.642
 8844SOL     OW27430   0.858   1.429   5.520
 8844SOL    HW127431   0.948   1.400   5.489
 8844SOL    HW227432   0.805   1.350   5.549
 8845SOL     OW27433   3.553   3.791   0.954
 8845SOL    HW127434   3.592   3.839   0.875
 8845SOL    HW227435   3.466   3.833   0.979
 8846SOL     OW27436   3.857   4.923   4.361
 8846SOL    HW127437   3.832   4.918   4.457
 8846SOL    HW227438   3.774   4.917   4.305
 8847SOL     OW27439   2.650   1.591   2.794
 8847SOL    HW127440   2.555   1.585   2.763
 8847SOL    HW227441   2.687   1.499   2.806
 8848SOL     OW27442   2.523   2.053   2.089
 8848SOL    HW127443   2.515   1.968   2.038
 8848SOL    HW227444   2.570   2.121   2.033
 8849SOL     OW27445   3.107   5.669   3.463
 8849SOL    HW127446   3.171   5.665   3.540
 8849SOL    HW227447   3.014   5.683   3.497
 8850SOL     OW27448   1.628   1.337   6.631
 8850SOL    HW127449   1.627   1.402   6.555
 8850SOL    HW227450   1.537   1.296   6.641
 8851SOL     OW27451   0.894   5.458   2.048
 8851SOL    HW127452   0.920   5.414   1.962
 8851SOL    HW227453   0.839   5.395   2.102
 8852SOL     OW27454   4.899   3.793   5.748
 8852SOL    HW127455   4.883   3.700   5.713
 8852SOL    HW227456   4.900   3.791   5.848
 8853SOL     OW27457   2.855   1.182   6.829
 8853SOL    HW127458   2.807   1.267   6.808
 8853SOL    HW227459   2.804   1.131   6.899
 8854SOL     OW27460   3.753   1.714   5.923
 8854SOL    HW127461   3.674   1.686   5.869
 8854SOL    HW227462   3.771   1.811   5.909
 8855SOL     OW27463   0.663   6.035   0.907
 8855SOL    HW127464   0.711   6.119   0.884
 8855SOL    HW227465   0.724   5.957   0.891
 8856SOL     OW27466   0.056   0.126   6.468
 8856SOL    HW127467   0.095   0.218   6.460
 8856SOL    HW227468   6.997   0.117   6.404
 8857SOL     OW27469   7.009   1.466   4.222
 8857SOL    HW127470   6.938   1.397   4.204
 8857SOL    HW227471   0.008   1.472   4.320
 8858SOL     OW27472   0.936   2.401   5.149
 8858SOL    HW127473   0.891   2.396   5.060
 8858SOL    HW227474   0.966   2.310   5.177
 8859SOL     OW27475   6.578   0.391   3.904
 8859SOL    HW127476   6.639   0.415   3.828
 8859SOL    HW227477   6.585   0.292   3.922
 8860SOL     OW27478   0.476   3.068   2.525
 8860SOL    HW127479   0.411   3.132   2.484
 8860SOL    HW227480   0.512   3.108   2.610
 8861SOL     OW27481   4.362   1.687   5.883
 8861SOL    HW127482   4.439   1.705   5.822
 8861SOL    HW227483   4.321   1.599   5.858
 8862SOL     OW27484   5.580   1.045   3.778
 8862SOL    HW127485   5.493   1.013   3.815
 8862SOL    HW227486   5.654   0.992   3.820
 8863SOL     OW27487   1.450   5.068   4.330
 8863SOL    HW127488   1.499   5.147   4.367
 8863SOL    HW227489   1.480   4.985   4.379
 8864SOL     OW27490   3.457   4.004   5.705
 8864SOL    HW127491   3.382   4.069   5.711
 8864SOL    HW227492   3.432   3.931   5.642
 8865SOL     OW27493   3.063   1.207   6.241
 8865SOL    HW127494   3.128   1.280   6.220
 8865SOL    HW227495   3.015   1.180   6.157
 8866SOL     OW27496   5.291   0.065   3.145
 8866SOL    HW127497   5.315   0.111   3.230
 8866SOL    HW227498   5.314   0.123   3.067
 8867SOL     OW27499   5.921   3.518   2.033
 8867SOL    HW127500   5.977   3.523   1.951
 8867SOL    HW227501   5.864   3.436   2.029
 8868SOL     OW27502   6.789   2.625   0.986
 8868SOL    HW127503   6.874   2.576   0.969
 8868SOL    HW227504   6.718   2.560   1.012
 8869SOL     OW27505   4.329   6.142   4.685
 8869SOL    HW127506   4.402   6.119   4.620
 8869SOL    HW227507   4.364   6.209   4.751
 8870SOL     OW27508   3.778   0.623   6.781
 8870SOL    HW127509   3.847   0.662   6.843
 8870SOL    HW227510   3.722   0.697   6.743
 8871SOL     OW27511   1.641   0.800   3.879
 8871SOL    HW127512   1.683   0.891   3.875
 8871SOL    HW227513   1.703   0.738   3.927
 8872SOL     OW27514   1.722   4.202   4.735
 8872SOL    HW127515   1.626   4.207   4.707
 8872SOL    HW227516   1.727   4.181   4.832
 8873SOL     OW27517   1.347   6.046   1.772
 8873SOL    HW127518   1.429   6.004   1.735
 8873SOL    HW227519   1.268   6.021   1.716
 8874SOL     OW27520   2.079   5.542   2.580
 8874SOL    HW127521   2.101   5.577   2.489
 8874SOL    HW227522   2.065   5.444   2.575
 8875SOL     OW27523   6.913   2.993   5.316
 8875SOL    HW127524   6.913   3.033   5.224
 8875SOL    HW227525   6.991   2.932   5.327
 8876SOL     OW27526   1.968   6.950   4.641
 8876SOL    HW127527   2.027   6.877   4.675
 8876SOL    HW227528   1.947   7.013   4.715
 8877SOL     OW27529   3.082   0.979   3.925
 8877SOL    HW127530   3.018   0.962   3.849
 8877SOL    HW227531   3.030   0.994   4.009
 8878SOL     OW27532   6.609   5.057   0.054
 8878SOL    HW127533   6.652   5.017   6.991
 8878SOL    HW227534   6.662   5.033   0.135
 8879SOL     OW27535   5.105   4.457   1.662
 8879SOL    HW127536   5.040   4.525   1.630
 8879SOL    HW227537   5.184   4.503   1.704
 8880SOL     OW27538   4.996   5.918   4.480
 8880SOL    HW127539   4.917   5.866   4.447
 8880SOL    HW227540   4.970   6.014   4.490
 8881SOL     OW27541   5.923   6.804   3.747
 8881SOL    HW127542   5.924   6.718   3.696
 8881SOL    HW227543   5.848   6.803   3.813
 8882SOL     OW27544   5.650   1.250   1.303
 8882SOL    HW127545   5.637   1.349   1.295
 8882SOL    HW227546   5.642   1.208   1.213
 8883SOL     OW27547   1.519   6.102   6.101
 8883SOL    HW127548   1.515   6.202   6.101
 8883SOL    HW227549   1.500   6.068   6.193
 8884SOL     OW27550   6.270   4.039   6.290
 8884SOL    HW127551   6.181   4.047   6.244
 8884SOL    HW227552   6.333   4.107   6.253
 8885SOL     OW27553   6.864   3.668   0.725
 8885SOL    HW127554   6.934   3.606   0.760
 8885SOL    HW227555   6.776   3.646   0.766
 8886SOL     OW27556   3.137   6.875   5.024
 8886SOL    HW127557   3.167   6.800   5.083
 8886SOL    HW227558   3.082   6.939   5.078
 8887SOL     OW27559   3.394   1.436   1.252
 8887SOL    HW127560   3.430   1.429   1.159
 8887SOL    HW227561   3.425   1.522   1.293
 8888SOL     OW27562   1.986   1.866   6.181
 8888SOL    HW127563   2.024   1.939   6.125
 8888SOL    HW227564   1.927   1.905   6.252
 8889SOL     OW27565   6.774   0.408   6.177
 8889SOL    HW127566   6.873   0.423   6.176
 8889SOL    HW227567   6.756   0.309   6.177
 8890SOL     OW27568   6.663   5.845   3.851
 8890SOL    HW127569   6.579   5.873   3.897
 8890SOL    HW227570   6.730   5.919   3.854
 8891SOL     OW27571   5.031   3.811   6.658
 8891SOL    HW127572   5.117   3.832   6.612
 8891SOL    HW227573   5.043   3.730   6.715
 8892SOL     OW27574   3.724   5.501   3.529
 8892SOL    HW127575   3.781   5.461   3.601
 8892SOL    HW227576   3.727   5.441   3.448
 8893SOL     OW27577   0.592   5.884   3.352
 8893SOL    HW127578   0.543   5.919   3.273
 8893SOL    HW227579   0.537   5.898   3.434
 8894SOL     OW27580   4.253   2.773   6.581
 8894SOL    HW127581   4.200   2.844   6.629
 8894SOL    HW227582   4.226   2.773   6.484
 8895SOL     OW27583   6.260   2.529   2.490
 8895SOL    HW127584   6.302   2.579   2.566
 8895SOL    HW227585   6.169   2.565   2.472
 8896SOL     OW27586   2.350   3.409   5.391
 8896SOL    HW127587   2.445   3.397   5.363
 8896SOL    HW227588   2.305   3.474   5.330
 8897SOL     OW27589   1.711   2.597   3.260
 8897SOL    HW127590   1.660   2.516   3.232
 8897SOL    HW227591   1.653   2.678   3.250
 8898SOL     OW27592   5.246   2.934   2.890
 8898SOL    HW127593   5.237   2.842   2.927
 8898SOL    HW227594   5.155   2.974   2.877
 8899SOL     OW27595   1.877   5.650   0.817
 8899SOL    HW127596   1.800   5.679   0.875
 8899SOL    HW227597   1.963   5.684   0.856
 8900SOL     OW27598   6.124   3.261   2.630
 8900SOL    HW127599   6.039   3.222   2.664
 8900SOL    HW227600   6.105   3.330   2.560
 8901SOL     OW27601   1.898   0.862   4.494
 8901SOL    HW127602   1.898   0.774   4.448
 8901SOL    HW227603   1.969   0.921   4.455
 8902SOL     OW27604   2.029   0.075   0.367
 8902SOL    HW127605   2.064   0.124   0.286
 8902SOL    HW227606   2.106   0.036   0.418
 8903SOL     OW27607   0.959   1.622   5.134
 8903SOL    HW127608   0.959   1.579   5.044
 8903SOL    HW227609   1.049   1.661   5.152
 8904SOL     OW27610   5.904   6.513   4.148
 8904SOL    HW127611   5.866   6.548   4.234
 8904SOL    HW227612   5.847   6.544   4.072
 8905SOL     OW27613   1.171   4.543   4.046
 8905SOL    HW127614   1.185   4.444   4.035
 8905SOL    HW227615   1.212   4.591   3.969
 8906SOL     OW27616   0.454   6.101   0.044
 8906SOL    HW127617   0.449   6.197   0.017
 8906SOL    HW227618   0.361   6.063   0.049
 8907SOL     OW27619   2.651   2.338   5.101
 8907SOL    HW127620   2.674   2.367   5.193
 8907SOL    HW227621   2.571   2.278   5.103
 8908SOL     OW27622   1.170   4.138   6.420
 8908SOL    HW127623   1.247   4.180   6.467
 8908SOL    HW227624   1.094   4.203   6.415
 8909SOL     OW27625   2.908   0.726   6.225
 8909SOL    HW127626   2.884   0.637   6.265
 8909SOL    HW227627   2.894   0.722   6.126
 8910SOL     OW27628   0.168   2.402   6.109
 8910SOL    HW127629   0.078   2.363   6.086
 8910SOL    HW227630   0.238   2.361   6.050
 8911SOL     OW27631   3.867   2.172   4.502
 8911SOL    HW127632   3.846   2.118   4.420
 8911SOL    HW227633   3.783   2.215   4.535
 8912SOL     OW27634   3.300   3.306   0.357
 8912SOL    HW127635   3.305   3.218   0.406
 8912SOL    HW227636   3.256   3.292   0.269
 8913SOL     OW27637   5.225   5.037   5.760
 8913SOL    HW127638   5.146   5.080   5.716
 8913SOL    HW227639   5.203   4.943   5.784
 8914SOL     OW27640   4.498   0.225   4.915
 8914SOL    HW127641   4.523   0.281   4.994
 8914SOL    HW227642   4.580   0.203   4.863
 8915SOL     OW27643   0.781   2.986   4.063
 8915SOL    HW127644   0.702   2.960   4.008
 8915SOL    HW227645   0.756   2.988   4.160
 8916SOL     OW27646   6.975   3.918   0.658
 8916SOL    HW127647   0.019   3.935   0.735
 8916SOL    HW227648   6.914   3.842   0.680
 8917SOL     OW27649   6.772   3.567   0.406
 8917SOL    HW127650   6.816   3.634   0.465
 8917SOL    HW227651   6.805   3.579   0.312
 8918SOL     OW27652   6.119   4.235   1.122
 8918SOL    HW127653   6.099   4.308   1.187
 8918SOL    HW227654   6.036   4.181   1.106
 8919SOL     OW27655   3.887   4.320   0.626
 8919SOL    HW127656   3.953   4.260   0.580
 8919SOL    HW227657   3.809   4.265   0.658
 8920SOL     OW27658   0.496   0.239   6.830
 8920SOL    HW127659   0.544   0.228   6.742
 8920SOL    HW227660   0.428   0.167   6.840
 8921SOL     OW27661   1.961   2.383   2.758
 8921SOL    HW127662   1.894   2.369   2.684
 8921SOL    HW227663   1.929   2.337   2.841
 8922SOL     OW27664   3.917   5.120   1.676
 8922SOL    HW127665   3.863   5.041   1.705
 8922SOL    HW227666   3.989   5.090   1.613
 8923SOL     OW27667   1.798   3.114   6.456
 8923SOL    HW127668   1.734   3.148   6.525
 8923SOL    HW227669   1.768   3.025   6.424
 8924SOL     OW27670   3.943   5.312   5.625
 8924SOL    HW127671   3.934   5.411   5.634
 8924SOL    HW227672   3.936   5.269   5.715
 8925SOL     OW27673   1.020   1.502   2.448
 8925SOL    HW127674   0.964   1.574   2.491
 8925SOL    HW227675   1.030   1.426   2.512
 8926SOL     OW27676   6.994   3.452   6.014
 8926SOL    HW127677   0.034   3.372   6.002
 8926SOL    HW227678   6.908   3.426   6.056
 8927SOL     OW27679   0.192   1.476   4.598
 8927SOL    HW127680   0.180   1.435   4.689
 8927SOL    HW227681   0.262   1.425   4.548
 8928SOL     OW27682   0.671   0.331   6.118
 8928SOL    HW127683   0.574   0.354   6.111
 8928SOL    HW227684   0.702   0.289   6.032
 8929SOL     OW27685   6.074   2.793   4.568
 8929SOL    HW127686   6.120   2.757   4.650
 8929SOL    HW227687   5.982   2.756   4.563
 8930SOL     OW27688   1.529   3.707   3.995
 8930SOL    HW127689   1.580   3.789   3.972
 8930SOL    HW227690   1.561   3.670   4.082
 8931SOL     OW27691   2.460   2.827   0.456
 8931SOL    HW127692   2.426   2.854   0.546
 8931SOL    HW227693   2.383   2.825   0.391
 8932SOL     OW27694   6.393   0.810   1.289
 8932SOL    HW127695   6.385   0.831   1.192
 8932SOL    HW227696   6.487   0.827   1.319
 8933SOL     OW27697   1.479   3.004   5.931
 8933SOL    HW127698   1.504   3.100   5.943
 8933SOL    HW227699   1.443   2.989   5.839
 8934SOL     OW27700   3.721   4.918   4.614
 8934SOL    HW127701   3.646   4.922   4.548
 8934SOL    HW227702   3.686   4.941   4.705
 8935SOL     OW27703   6.458   4.537   1.043
 8935SOL    HW127704   6.478   4.597   1.121
 8935SOL    HW227705   6.543   4.515   0.995
 8936SOL     OW27706   0.682   3.482   2.472
 8936SOL    HW127707   0.732   3.568   2.454
 8936SOL    HW227708   0.747   3.411   2.499
 8937SOL     OW27709   0.099   6.627   4.311
 8937SOL    HW127710   0.005   6.601   4.333
 8937SOL    HW227711   0.129   6.700   4.372
 8938SOL     OW27712   0.270   0.454   0.498
 8938SOL    HW127713   0.233   0.512   0.570
 8938SOL    HW227714   0.328   0.508   0.437
 8939SOL     OW27715   5.777   4.774   4.486
 8939SOL    HW127716   5.814   4.867   4.485
 8939SOL    HW227717   5.836   4.715   4.541
 8940SOL     OW27718   5.999   1.523   2.113
 8940SOL    HW127719   6.002   1.569   2.024
 8940SOL    HW227720   5.917   1.466   2.118
 8941SOL     OW27721   5.838   2.666   4.580
 8941SOL    HW127722   5.863   2.569   4.580
 8941SOL    HW227723   5.799   2.691   4.669
 8942SOL     OW27724   6.390   5.399   5.799
 8942SOL    HW127725   6.348   5.489   5.785
 8942SOL    HW227726   6.467   5.409   5.862
 8943SOL     OW27727   3.842   5.483   0.601
 8943SOL    HW127728   3.913   5.508   0.535
 8943SOL    HW227729   3.772   5.554   0.603
 8944SOL     OW27730   5.524   5.870   4.514
 8944SOL    HW127731   5.457   5.830   4.577
 8944SOL    HW227732   5.479   5.899   4.430
 8945SOL     OW27733   0.606   1.720   4.045
 8945SOL    HW127734   0.532   1.742   3.980
 8945SOL    HW227735   0.664   1.648   4.006
 8946SOL     OW27736   2.739   0.945   3.530
 8946SOL    HW127737   2.800   0.996   3.469
 8946SOL    HW227738   2.780   0.942   3.622
 8947SOL     OW27739   2.715   3.346   5.854
 8947SOL    HW127740   2.722   3.433   5.804
 8947SOL    HW227741   2.621   3.313   5.850
 8948SOL     OW27742   5.847   5.948   3.767
 8948SOL    HW127743   5.917   5.892   3.810
 8948SOL    HW227744   5.840   6.035   3.815
 8949SOL     OW27745   4.122   6.355   0.722
 8949SOL    HW127746   4.190   6.392   0.785
 8949SOL    HW227747   4.031   6.388   0.748
 8950SOL     OW27748   3.675   4.200   0.176
 8950SOL    HW127749   3.587   4.187   0.221
 8950SOL    HW227750   3.747   4.212   0.245
 8951SOL     OW27751   2.263   0.900   4.593
 8951SOL    HW127752   2.314   0.936   4.671
 8951SOL    HW227753   2.186   0.960   4.572
 8952SOL     OW27754   0.822   5.223   3.308
 8952SOL    HW127755   0.827   5.215   3.407
 8952SOL    HW227756   0.772   5.306   3.283
 8953SOL     OW27757   1.165   4.229   0.593
 8953SOL    HW127758   1.169   4.242   0.494
 8953SOL    HW227759   1.250   4.185   0.623
 8954SOL     OW27760   6.755   6.877   4.407
 8954SOL    HW127761   6.855   6.867   4.413
 8954SOL    HW227762   6.730   6.901   4.313
 8955SOL     OW27763   6.730   4.592   3.464
 8955SOL    HW127764   6.693   4.587   3.556
 8955SOL    HW227765   6.821   4.550   3.462
 8956SOL     OW27766   1.924   1.482   6.044
 8956SOL    HW127767   1.929   1.542   5.964
 8956SOL    HW227768   1.885   1.394   6.018
 8957SOL     OW27769   1.775   4.833   1.680
 8957SOL    HW127770   1.806   4.827   1.775
 8957SOL    HW227771   1.799   4.922   1.642
 8958SOL     OW27772   0.327   2.504   4.852
 8958SOL    HW127773   0.284   2.421   4.816
 8958SOL    HW227774   0.350   2.490   4.948
 8959SOL     OW27775   1.599   4.292   2.206
 8959SOL    HW127776   1.662   4.229   2.249
 8959SOL    HW227777   1.644   4.380   2.191
 8960SOL     OW27778   4.536   5.861   3.604
 8960SOL    HW127779   4.615   5.867   3.665
 8960SOL    HW227780   4.557   5.909   3.518
 8961SOL     OW27781   3.069   1.419   3.495
 8961SOL    HW127782   3.086   1.495   3.559
 8961SOL    HW227783   3.018   1.453   3.416
 8962SOL     OW27784   6.142   5.491   2.350
 8962SOL    HW127785   6.157   5.584   2.318
 8962SOL    HW227786   6.078   5.444   2.288
 8963SOL     OW27787   3.546   0.311   4.909
 8963SOL    HW127788   3.470   0.374   4.928
 8963SOL    HW227789   3.590   0.336   4.822
 8964SOL     OW27790   5.932   3.010   3.440
 8964SOL    HW127791   5.957   3.039   3.348
 8964SOL    HW227792   5.895   2.917   3.437
 8965SOL     OW27793   2.276   5.517   0.306
 8965SOL    HW127794   2.285   5.615   0.291
 8965SOL    HW227795   2.309   5.494   0.397
 8966SOL     OW27796   6.941   3.947   6.780
 8966SOL    HW127797   6.990   3.898   6.708
 8966SOL    HW227798   6.845   3.958   6.754
 8967SOL     OW27799   3.901   0.675   1.879
 8967SOL    HW127800   3.939   0.670   1.787
 8967SOL    HW227801   3.929   0.594   1.931
 8968SOL     OW27802   4.302   5.740   2.626
 8968SOL    HW127803   4.205   5.749   2.649
 8968SOL    HW227804   4.338   5.828   2.596
 8969SOL     OW27805   6.541   0.230   3.296
 8969SOL    HW127806   6.478   0.291   3.249
 8969SOL    HW227807   6.498   0.140   3.308
 8970SOL     OW27808   2.406   3.388   6.730
 8970SOL    HW127809   2.324   3.332   6.732
 8970SOL    HW227810   2.438   3.398   6.636
 8971SOL     OW27811   5.832   5.144   1.760
 8971SOL    HW127812   5.782   5.177   1.681
 8971SOL    HW227813   5.817   5.045   1.770
 8972SOL     OW27814   4.249   3.613   0.236
 8972SOL    HW127815   4.308   3.690   0.259
 8972SOL    HW227816   4.226   3.617   0.139
 8973SOL     OW27817   6.888   3.611   3.345
 8973SOL    HW127818   6.896   3.711   3.347
 8973SOL    HW227819   6.905   3.578   3.252
 8974SOL     OW27820   1.213   3.377   3.879
 8974SOL    HW127821   1.117   3.355   3.860
 8974SOL    HW227822   1.239   3.338   3.967
 8975SOL     OW27823   0.925   6.301   0.173
 8975SOL    HW127824   0.922   6.251   0.260
 8975SOL    HW227825   1.020   6.305   0.140
 8976SOL     OW27826   0.445   5.075   0.463
 8976SOL    HW127827   0.484   5.115   0.546
 8976SOL    HW227828   0.470   5.130   0.383
 8977SOL     OW27829   6.853   3.195   6.786
 8977SOL    HW127830   6.816   3.281   6.752
 8977SOL    HW227831   6.899   3.211   6.874
 8978SOL     OW27832   4.993   6.926   4.418
 8978SOL    HW127833   5.044   6.971   4.344
 8978SOL    HW227834   4.997   6.982   4.500
 8979SOL     OW27835   0.569   4.515   5.068
 8979SOL    HW127836   0.662   4.478   5.057
 8979SOL    HW227837   0.563   4.603   5.021
 8980SOL     OW27838   4.631   2.760   4.937
 8980SOL    HW127839   4.672   2.773   5.027
 8980SOL    HW227840   4.591   2.668   4.932
 8981SOL     OW27841   4.239   1.773   4.973
 8981SOL    HW127842   4.217   1.834   4.897
 8981SOL    HW227843   4.155   1.734   5.010
 8982SOL     OW27844   1.834   1.564   1.773
 8982SOL    HW127845   1.865   1.498   1.704
 8982SOL    HW227846   1.823   1.654   1.730
 8983SOL     OW27847   0.920   5.425   0.598
 8983SOL    HW127848   0.945   5.350   0.537
 8983SOL    HW227849   0.875   5.497   0.545
 8984SOL     OW27850   6.043   6.510   3.681
 8984SOL    HW127851   6.128   6.497   3.733
 8984SOL    HW227852   5.966   6.474   3.733
 8985SOL     OW27853   2.168   1.292   0.967
 8985SOL    HW127854   2.136   1.229   1.037
 8985SOL    HW227855   2.158   1.386   1.000
 8986SOL     OW27856   4.235   4.982   2.181
 8986SOL    HW127857   4.328   5.005   2.151
 8986SOL    HW227858   4.220   5.020   2.273
 8987SOL     OW27859   4.326   6.983   0.827
 8987SOL    HW127860   4.238   6.997   0.782
 8987SOL    HW227861   4.346   0.045   0.886
 8988SOL     OW27862   1.762   4.409   0.525
 8988SOL    HW127863   1.797   4.390   0.433
 8988SOL    HW227864   1.670   4.448   0.519
 8989SOL     OW27865   4.732   4.184   1.858
 8989SOL    HW127866   4.639   4.191   1.825
 8989SOL    HW227867   4.751   4.260   1.920
 8990SOL     OW27868   2.260   5.847   2.487
 8990SOL    HW127869   2.289   5.804   2.573
 8990SOL    HW227870   2.306   5.936   2.478
 8991SOL     OW27871   1.736   1.752   6.615
 8991SOL    HW127872   1.701   1.691   6.544
 8991SOL    HW227873   1.665   1.817   6.641
 8992SOL     OW27874   6.521   2.382   6.585
 8992SOL    HW127875   6.511   2.425   6.495
 8992SOL    HW227876   6.548   2.452   6.652
 8993SOL     OW27877   4.850   2.804   2.965
 8993SOL    HW127878   4.862   2.901   2.945
 8993SOL    HW227879   4.874   2.750   2.884
 8994SOL     OW27880   0.642   4.873   4.733
 8994SOL    HW127881   0.617   4.897   4.828
 8994SOL    HW227882   0.690   4.786   4.732
 8995SOL     OW27883   1.150   2.562   6.739
 8995SOL    HW127884   1.152   2.625   6.661
 8995SOL    HW227885   1.175   2.611   6.822
 8996SOL     OW27886   6.589   5.159   1.757
 8996SOL    HW127887   6.595   5.229   1.829
 8996SOL    HW227888   6.657   5.088   1.775
 8997SOL     OW27889   4.226   1.543   6.598
 8997SOL    HW127890   4.308   1.511   6.646
 8997SOL    HW227891   4.253   1.584   6.511
 8998SOL     OW27892   0.125   3.361   5.284
 8998SOL    HW127893   0.123   3.307   5.367
 8998SOL    HW227894   0.044   3.341   5.228
 8999SOL     OW27895   5.321   0.017   0.436
 8999SOL    HW127896   5.244   6.971   0.427
 8999SOL    HW227897   5.383   0.003   0.359
 9000SOL     OW27898   2.372   4.413   6.802
 9000SOL    HW127899   2.312   4.452   6.871
 9000SOL    HW227900   2.318   4.360   6.736
 9001SOL     OW27901   0.496   5.524   2.758
 9001SOL    HW127902   0.413   5.501   2.809
 9001SOL    HW227903   0.573   5.530   2.821
 9002SOL     OW27904   6.762   4.758   4.900
 9002SOL    HW127905   6.721   4.739   4.811
 9002SOL    HW227906   6.862   4.760   4.892
 9003SOL     OW27907   4.989   2.582   1.114
 9003SOL    HW127908   4.915   2.590   1.047
 9003SOL    HW227909   5.036   2.495   1.102
 9004SOL     OW27910   5.056   6.857   1.851
 9004SOL    HW127911   5.107   6.888   1.931
 9004SOL    HW227912   4.973   6.809   1.881
 9005SOL     OW27913   5.066   1.757   4.958
 9005SOL    HW127914   5.091   1.697   4.882
 9005SOL    HW227915   4.993   1.714   5.012
 9006SOL     OW27916   2.584   6.422   0.542
 9006SOL    HW127917   2.591   6.465   0.452
 9006SOL    HW227918   2.655   6.352   0.551
 9007SOL     OW27919   3.653   6.674   3.972
 9007SOL    HW127920   3.607   6.588   3.994
 9007SOL    HW227921   3.749   6.656   3.950
 9008SOL     OW27922   6.874   5.318   3.136
 9008SOL    HW127923   6.954   5.319   3.196
 9008SOL    HW227924   6.844   5.412   3.120
 9009SOL     OW27925   2.687   0.615   0.512
 9009SOL    HW127926   2.688   0.624   0.413
 9009SOL    HW227927   2.607   0.663   0.549
 9010SOL     OW27928   0.881   6.826   4.647
 9010SOL    HW127929   0.922   6.884   4.577
 9010SOL    HW227930   0.953   6.772   4.691
 9011SOL     OW27931   4.049   2.113   1.622
 9011SOL    HW127932   4.011   2.021   1.633
 9011SOL    HW227933   3.974   2.180   1.623
 9012SOL     OW27934   3.373   4.361   1.189
 9012SOL    HW127935   3.386   4.276   1.239
 9012SOL    HW227936   3.366   4.342   1.091
 9013SOL     OW27937   0.241   6.357   3.872
 9013SOL    HW127938   0.242   6.457   3.874
 9013SOL    HW227939   0.229   6.325   3.778
 9014SOL     OW27940   0.873   0.628   0.036
 9014SOL    HW127941   0.812   0.707   0.050
 9014SOL    HW227942   0.925   0.611   0.120
 9015SOL     OW27943   6.294   2.005   0.897
 9015SOL    HW127944   6.305   1.929   0.833
 9015SOL    HW227945   6.215   1.988   0.957
 9016SOL     OW27946   0.615   6.543   6.496
 9016SOL    HW127947   0.666   6.629   6.501
 9016SOL    HW227948   0.567   6.538   6.408
 9017SOL     OW27949   4.543   2.567   1.852
 9017SOL    HW127950   4.593   2.648   1.823
 9017SOL    HW227951   4.585   2.530   1.936
 9018SOL     OW27952   4.780   1.273   5.726
 9018SOL    HW127953   4.871   1.311   5.714
 9018SOL    HW227954   4.785   1.189   5.780
 9019SOL     OW27955   0.381   0.333   1.475
 9019SOL    HW127956   0.413   0.399   1.543
 9019SOL    HW227957   0.390   0.371   1.384
 9020SOL     OW27958   1.419   3.493   1.556
 9020SOL    HW127959   1.329   3.507   1.516
 9020SOL    HW227960   1.489   3.500   1.485
 9021SOL     OW27961   6.604   0.123   3.688
 9021SOL    HW127962   6.643   0.213   3.669
 9021SOL    HW227963   6.671   0.052   3.664
 9022SOL     OW27964   2.830   1.363   0.860
 9022SOL    HW127965   2.810   1.277   0.813
 9022SOL    HW227966   2.889   1.345   0.939
 9023SOL     OW27967   3.308   3.191   2.242
 9023SOL    HW127968   3.220   3.203   2.194
 9023SOL    HW227969   3.292   3.192   2.341
 9024SOL     OW27970   0.395   5.159   5.040
 9024SOL    HW127971   0.380   5.230   5.108
 9024SOL    HW227972   0.366   5.192   4.950
 9025SOL     OW27973   0.601   5.766   0.411
 9025SOL    HW127974   0.552   5.824   0.476
 9025SOL    HW227975   0.587   5.802   0.318
 9026SOL     OW27976   3.902   3.652   2.181
 9026SOL    HW127977   3.971   3.644   2.109
 9026SOL    HW227978   3.942   3.698   2.260
 9027SOL     OW27979   1.051   1.818   4.012
 9027SOL    HW127980   1.136   1.834   4.063
 9027SOL    HW227981   1.020   1.904   3.972
 9028SOL     OW27982   2.703   3.865   6.384
 9028SOL    HW127983   2.652   3.903   6.307
 9028SOL    HW227984   2.801   3.869   6.364
 9029SOL     OW27985   3.448   5.246   4.990
 9029SOL    HW127986   3.483   5.159   4.955
 9029SOL    HW227987   3.502   5.273   5.070
 9030SOL     OW27988   1.998   1.544   3.612
 9030SOL    HW127989   1.947   1.549   3.526
 9030SOL    HW227990   2.095   1.525   3.592
 9031SOL     OW27991   4.548   6.093   4.513
 9031SOL    HW127992   4.627   6.046   4.552
 9031SOL    HW227993   4.559   6.100   4.414
 9032SOL     OW27994   3.263   2.870   1.204
 9032SOL    HW127995   3.190   2.834   1.261
 9032SOL    HW227996   3.224   2.907   1.120
 9033SOL     OW27997   1.873   5.186   3.841
 9033SOL    HW127998   1.884   5.087   3.856
 9033SOL    HW227999   1.778   5.205   3.818
 9034SOL     OW28000   2.710   0.584   5.294
 9034SOL    HW128001   2.730   0.595   5.196
 9034SOL    HW228002   2.643   0.511   5.306
 9035SOL     OW28003   1.149   5.009   5.742
 9035SOL    HW128004   1.142   5.086   5.679
 9035SOL    HW228005   1.192   5.040   5.827
 9036SOL     OW28006   1.735   1.132   5.464
 9036SOL    HW128007   1.746   1.226   5.499
 9036SOL    HW228008   1.735   1.068   5.541
 9037SOL     OW28009   1.593   3.553   5.933
 9037SOL    HW128010   1.660   3.479   5.931
 9037SOL    HW228011   1.531   3.539   6.010
 9038SOL     OW28012   4.953   6.808   5.884
 9038SOL    HW128013   5.049   6.811   5.912
 9038SOL    HW228014   4.946   6.768   5.793
 9039SOL     OW28015   2.509   4.570   4.267
 9039SOL    HW128016   2.496   4.472   4.259
 9039SOL    HW228017   2.573   4.590   4.341
 9040SOL     OW28018   2.400   2.224   2.433
 9040SOL    HW128019   2.448   2.307   2.404
 9040SOL    HW228020   2.385   2.227   2.532
 9041SOL     OW28021   0.614   2.118   2.002
 9041SOL    HW128022   0.668   2.159   1.928
 9041SOL    HW228023   0.662   2.129   2.089
 9042SOL     OW28024   2.382   7.004   3.468
 9042SOL    HW128025   2.388   0.013   3.371
 9042SOL    HW228026   2.327   0.055   3.517
 9043SOL     OW28027   3.039   1.600   6.283
 9043SOL    HW128028   3.092   1.681   6.258
 9043SOL    HW228029   2.960   1.628   6.338
 9044SOL     OW28030   5.682   2.001   1.667
 9044SOL    HW128031   5.594   2.037   1.700
 9044SOL    HW228032   5.703   1.916   1.715
 9045SOL     OW28033   2.960   1.643   2.594
 9045SOL    HW128034   2.915   1.588   2.524
 9045SOL    HW228035   2.926   1.737   2.590
 9046SOL     OW28036   3.559   3.858   4.812
 9046SOL    HW128037   3.562   3.774   4.758
 9046SOL    HW228038   3.647   3.905   4.804
 9047SOL     OW28039   0.845   2.870   5.768
 9047SOL    HW128040   0.858   2.956   5.718
 9047SOL    HW228041   0.933   2.822   5.774
 9048SOL     OW28042   6.286   2.356   6.009
 9048SOL    HW128043   6.199   2.315   6.038
 9048SOL    HW228044   6.361   2.315   6.061
 9049SOL     OW28045   3.712   0.136   6.054
 9049SOL    HW128046   3.641   0.131   6.125
 9049SOL    HW228047   3.743   0.231   6.046
 9050SOL     OW28048   0.063   4.312   5.690
 9050SOL    HW128049   0.077   4.226   5.640
 9050SOL    HW228050   0.110   4.307   5.777
 9051SOL     OW28051   4.034   5.874   0.818
 9051SOL    HW128052   4.070   5.842   0.906
 9051SOL    HW228053   4.100   5.938   0.777
 9052SOL     OW28054   1.683   2.193   3.217
 9052SOL    HW128055   1.710   2.109   3.170
 9052SOL    HW228056   1.676   2.268   3.150
 9053SOL     OW28057   1.577   1.759   3.036
 9053SOL    HW128058   1.564   1.664   3.064
 9053SOL    HW228059   1.646   1.802   3.095
 9054SOL     OW28060   1.672   0.262   2.399
 9054SOL    HW128061   1.628   0.316   2.328
 9054SOL    HW228062   1.642   0.167   2.392
 9055SOL     OW28063   6.279   3.241   3.835
 9055SOL    HW128064   6.320   3.315   3.781
 9055SOL    HW228065   6.336   3.222   3.914
 9056SOL     OW28066   6.972   0.689   1.453
 9056SOL    HW128067   6.914   0.662   1.531
 9056SOL    HW228068   0.046   0.711   1.486
 9057SOL     OW28069   5.973   5.085   5.695
 9057SOL    HW128070   6.054   5.068   5.640
 9057SOL    HW228071   5.994   5.070   5.792
 9058SOL     OW28072   1.943   1.814   3.618
 9058SOL    HW128073   1.960   1.717   3.629
 9058SOL    HW228074   1.846   1.834   3.637
 9059SOL     OW28075   1.315   1.621   4.904
 9059SOL    HW128076   1.229   1.581   4.873
 9059SOL    HW228077   1.301   1.669   4.990
 9060SOL     OW28078   6.734   3.163   2.417
 9060SOL    HW128079   6.751   3.108   2.499
 9060SOL    HW228080   6.789   3.126   2.342
 9061SOL     OW28081   3.121   5.839   2.164
 9061SOL    HW128082   3.088   5.839   2.069
 9061SOL    HW228083   3.098   5.926   2.207
 9062SOL     OW28084   1.912   5.846   2.203
 9062SOL    HW128085   1.951   5.888   2.120
 9062SOL    HW228086   1.819   5.815   2.184
 9063SOL     OW28087   2.287   7.017   2.796
 9063SOL    HW128088   2.385   0.017   2.788
 9063SOL    HW228089   2.239   0.086   2.813
 9064SOL     OW28090   6.249   3.421   5.752
 9064SOL    HW128091   6.264   3.519   5.737
 9064SOL    HW228092   6.166   3.393   5.703
 9065SOL     OW28093   2.929   6.369   6.407
 9065SOL    HW128094   2.894   6.419   6.486
 9065SOL    HW228095   2.954   6.276   6.434
 9066SOL     OW28096   5.495   6.947   0.240
 9066SOL    HW128097   5.542   6.914   0.158
 9066SOL    HW228098   5.562   6.966   0.311
 9067SOL     OW28099   6.255   0.445   4.005
 9067SOL    HW128100   6.343   0.474   4.043
 9067SOL    HW228101   6.268   0.362   3.951
 9068SOL     OW28102   2.713   0.235   5.549
 9068SOL    HW128103   2.779   0.264   5.618
 9068SOL    HW228104   2.749   0.259   5.458
 9069SOL     OW28105   2.596   2.363   1.924
 9069SOL    HW128106   2.535   2.435   1.958
 9069SOL    HW228107   2.686   2.373   1.966
 9070SOL     OW28108   1.017   3.296   5.965
 9070SOL    HW128109   1.096   3.247   5.928
 9070SOL    HW228110   1.036   3.394   5.968
 9071SOL     OW28111   5.609   0.226   0.813
 9071SOL    HW128112   5.540   0.155   0.829
 9071SOL    HW228113   5.564   0.309   0.780
 9072SOL     OW28114   6.315   1.139   2.342
 9072SOL    HW128115   6.237   1.129   2.404
 9072SOL    HW228116   6.327   1.235   2.317
 9073SOL     OW28117   3.303   6.512   0.501
 9073SOL    HW128118   3.288   6.440   0.569
 9073SOL    HW228119   3.216   6.536   0.458
 9074SOL     OW28120   2.298   1.101   1.716
 9074SOL    HW128121   2.340   1.011   1.713
 9074SOL    HW228122   2.356   1.164   1.767
 9075SOL     OW28123   1.281   1.406   2.290
 9075SOL    HW128124   1.221   1.347   2.343
 9075SOL    HW228125   1.280   1.377   2.194
 9076SOL     OW28126   6.117   1.874   5.123
 9076SOL    HW128127   6.082   1.911   5.209
 9076SOL    HW228128   6.092   1.777   5.116
 9077SOL     OW28129   5.608   6.787   6.667
 9077SOL    HW128130   5.651   6.697   6.676
 9077SOL    HW228131   5.637   6.846   6.742
 9078SOL     OW28132   4.317   3.664   6.301
 9078SOL    HW128133   4.243   3.726   6.327
 9078SOL    HW228134   4.367   3.636   6.383
 9079SOL     OW28135   2.424   6.532   3.917
 9079SOL    HW128136   2.404   6.593   3.840
 9079SOL    HW228137   2.492   6.465   3.889
 9080SOL     OW28138   5.554   2.165   0.181
 9080SOL    HW128139   5.499   2.140   0.101
 9080SOL    HW228140   5.620   2.235   0.156
 9081SOL     OW28141   4.089   6.502   2.978
 9081SOL    HW128142   4.098   6.534   2.883
 9081SOL    HW228143   4.079   6.402   2.978
 9082SOL     OW28144   2.595   6.513   5.133
 9082SOL    HW128145   2.581   6.490   5.037
 9082SOL    HW228146   2.688   6.487   5.160
 9083SOL     OW28147   3.887   4.731   5.893
 9083SOL    HW128148   3.904   4.636   5.869
 9083SOL    HW228149   3.858   4.782   5.812
 9084SOL     OW28150   3.094   3.920   5.650
 9084SOL    HW128151   3.106   4.018   5.664
 9084SOL    HW228152   3.081   3.902   5.552
 9085SOL     OW28153   1.966   4.697   1.265
 9085SOL    HW128154   1.910   4.704   1.182
 9085SOL    HW228155   2.007   4.786   1.285
 9086SOL     OW28156   0.737   4.206   0.334
 9086SOL    HW128157   0.641   4.208   0.306
 9086SOL    HW228158   0.744   4.162   0.424
 9087SOL     OW28159   4.613   2.656   2.143
 9087SOL    HW128160   4.530   2.689   2.098
 9087SOL    HW228161   4.690   2.714   2.117
 9088SOL     OW28162   5.305   6.068   0.698
 9088SOL    HW128163   5.393   6.115   0.711
 9088SOL    HW228164   5.313   6.004   0.621
 9089SOL     OW28165   4.856   6.549   5.171
 9089SOL    HW128166   4.807   6.536   5.257
 9089SOL    HW228167   4.902   6.638   5.173
 9090SOL     OW28168   0.081   6.979   3.345
 9090SOL    HW128169   0.168   6.930   3.344
 9090SOL    HW228170   0.050   6.990   3.440
 9091SOL     OW28171   3.400   3.957   1.113
 9091SOL    HW128172   3.456   4.029   1.153
 9091SOL    HW228173   3.327   3.997   1.058
 9092SOL     OW28174   0.007   1.614   0.745
 9092SOL    HW128175   0.009   1.610   0.844
 9092SOL    HW228176   6.968   1.692   0.716
 9093SOL     OW28177   1.249   6.583   6.293
 9093SOL    HW128178   1.311   6.621   6.224
 9093SOL    HW228179   1.226   6.489   6.269
 9094SOL     OW28180   6.240   5.285   2.756
 9094SOL    HW128181   6.203   5.373   2.726
 9094SOL    HW228182   6.164   5.223   2.780
 9095SOL     OW28183   4.546   4.375   5.946
 9095SOL    HW128184   4.446   4.384   5.943
 9095SOL    HW228185   4.579   4.399   6.038
 9096SOL     OW28186   5.850   3.730   1.592
 9096SOL    HW128187   5.886   3.650   1.545
 9096SOL    HW228188   5.820   3.704   1.684
 9097SOL     OW28189   0.842   1.797   6.986
 9097SOL    HW128190   0.796   1.710   6.968
 9097SOL    HW228191   0.887   1.793   0.058
 9098SOL     OW28192   3.760   1.994   5.883
 9098SOL    HW128193   3.858   2.008   5.890
 9098SOL    HW228194   3.713   2.051   5.951
 9099SOL     OW28195   2.653   2.578   5.654
 9099SOL    HW128196   2.720   2.506   5.640
 9099SOL    HW228197   2.692   2.666   5.626
 9100SOL     OW28198   0.579   3.771   4.108
 9100SOL    HW128199   0.559   3.844   4.042
 9100SOL    HW228200   0.677   3.751   4.106
 9101SOL     OW28201   2.152   2.494   2.993
 9101SOL    HW128202   2.244   2.476   2.958
 9101SOL    HW228203   2.106   2.407   3.010
 9102SOL     OW28204   2.706   6.953   1.907
 9102SOL    HW128205   2.781   6.898   1.945
 9102SOL    HW228206   2.695   0.019   1.962
 9103SOL     OW28207   6.496   3.316   6.426
 9103SOL    HW128208   6.580   3.276   6.387
 9103SOL    HW228209   6.418   3.293   6.367
 9104SOL     OW28210   0.432   6.755   2.088
 9104SOL    HW128211   0.462   6.806   2.008
 9104SOL    HW228212   0.435   6.657   2.068
 9105SOL     OW28213   1.368   1.556   6.818
 9105SOL    HW128214   1.326   1.616   6.886
 9105SOL    HW228215   1.453   1.518   6.854
 9106SOL     OW28216   0.261   2.936   0.806
 9106SOL    HW128217   0.353   2.969   0.788
 9106SOL    HW228218   0.249   2.845   0.768
 9107SOL     OW28219   3.659   0.932   5.903
 9107SOL    HW128220   3.742   0.878   5.917
 9107SOL    HW228221   3.679   1.008   5.840
 9108SOL     OW28222   4.779   4.027   5.798
 9108SOL    HW128223   4.776   3.949   5.736
 9108SOL    HW228224   4.872   4.039   5.833
 9109SOL     OW28225   6.754   2.552   3.486
 9109SOL    HW128226   6.819   2.495   3.536
 9109SOL    HW228227   6.682   2.582   3.548
 9110SOL     OW28228   1.538   5.048   4.078
 9110SOL    HW128229   1.501   5.023   4.168
 9110SOL    HW228230   1.618   4.990   4.058
 9111SOL     OW28231   4.601   2.086   0.848
 9111SOL    HW128232   4.662   2.014   0.817
 9111SOL    HW228233   4.565   2.062   0.939
 9112SOL     OW28234   0.805   5.348   2.979
 9112SOL    HW128235   0.750   5.360   3.061
 9112SOL    HW228236   0.795   5.254   2.945
 9113SOL     OW28237   4.601   1.619   2.872
 9113SOL    HW128238   4.592   1.637   2.970
 9113SOL    HW228239   4.583   1.703   2.821
 9114SOL     OW28240   0.952   4.662   2.180
 9114SOL    HW128241   1.016   4.586   2.166
 9114SOL    HW228242   0.875   4.631   2.237
 9115SOL     OW28243   0.220   5.907   4.125
 9115SOL    HW128244   0.135   5.957   4.108
 9115SOL    HW228245   0.246   5.855   4.043
 9116SOL     OW28246   0.081   1.036   1.798
 9116SOL    HW128247   0.032   1.071   1.878
 9116SOL    HW228248   0.107   0.941   1.815
 9117SOL     OW28249   5.130   2.337   0.150
 9117SOL    HW128250   5.129   2.379   0.059
 9117SOL    HW228251   5.198   2.384   0.207
 9118SOL     OW28252   6.887   3.642   0.135
 9118SOL    HW128253   6.873   3.627   0.037
 9118SOL    HW228254   6.982   3.622   0.159
 9119SOL     OW28255   4.231   0.420   2.483
 9119SOL    HW128256   4.304   0.486   2.497
 9119SOL    HW228257   4.270   0.331   2.457
 9120SOL     OW28258   6.227   2.016   6.194
 9120SOL    HW128259   6.209   2.053   6.285
 9120SOL    HW228260   6.217   1.917   6.195
 9121SOL     OW28261   4.264   0.783   5.169
 9121SOL    HW128262   4.236   0.846   5.241
 9121SOL    HW228263   4.214   0.696   5.179
 9122SOL     OW28264   2.375   4.320   2.244
 9122SOL    HW128265   2.433   4.401   2.256
 9122SOL    HW228266   2.337   4.293   2.333
 9123SOL     OW28267   2.288   0.371   3.395
 9123SOL    HW128268   2.351   0.438   3.435
 9123SOL    HW228269   2.205   0.418   3.364
 9124SOL     OW28270   5.523   6.151   0.216
 9124SOL    HW128271   5.617   6.183   0.227
 9124SOL    HW228272   5.513   6.062   0.262
 9125SOL     OW28273   5.086   4.460   0.112
 9125SOL    HW128274   5.168   4.415   0.075
 9125SOL    HW228275   5.021   4.390   0.142
 9126SOL     OW28276   6.045   3.531   1.224
 9126SOL    HW128277   5.964   3.518   1.281
 9126SOL    HW228278   6.126   3.498   1.273
 9127SOL     OW28279   6.582   1.793   6.252
 9127SOL    HW128280   6.584   1.749   6.162
 9127SOL    HW228281   6.534   1.735   6.317
 9128SOL     OW28282   6.008   2.724   5.572
 9128SOL    HW128283   5.955   2.666   5.634
 9128SOL    HW228284   5.974   2.818   5.578
 9129SOL     OW28285   0.243   2.589   0.153
 9129SOL    HW128286   0.252   2.507   0.096
 9129SOL    HW228287   0.223   2.562   0.247
 9130SOL     OW28288   0.656   2.754   6.369
 9130SOL    HW128289   0.566   2.769   6.410
 9130SOL    HW228290   0.725   2.802   6.422
 9131SOL     OW28291   5.672   2.927   5.858
 9131SOL    HW128292   5.582   2.903   5.895
 9131SOL    HW228293   5.741   2.920   5.930
 9132SOL     OW28294   0.500   5.646   4.400
 9132SOL    HW128295   0.534   5.709   4.329
 9132SOL    HW228296   0.578   5.606   4.449
 9133SOL     OW28297   4.129   6.468   1.518
 9133SOL    HW128298   4.117   6.565   1.538
 9133SOL    HW228299   4.225   6.449   1.499
 9134SOL     OW28300   3.591   5.592   1.550
 9134SOL    HW128301   3.536   5.578   1.468
 9134SOL    HW228302   3.631   5.505   1.579
 9135SOL     OW28303   6.506   0.171   1.506
 9135SOL    HW128304   6.436   0.157   1.436
 9135SOL    HW228305   6.462   0.178   1.596
 9136SOL     OW28306   5.190   6.475   7.003
 9136SOL    HW128307   5.218   6.548   0.048
 9136SOL    HW228308   5.091   6.479   6.990
 9137SOL     OW28309   5.023   1.355   0.707
 9137SOL    HW128310   4.990   1.443   0.740
 9137SOL    HW228311   5.122   1.357   0.697
 9138SOL     OW28312   0.023   5.655   6.749
 9138SOL    HW128313   6.989   5.569   6.752
 9138SOL    HW228314   6.978   5.729   6.722
 9139SOL     OW28315   1.918   2.216   3.437
 9139SOL    HW128316   1.899   2.127   3.397
 9139SOL    HW228317   1.835   2.273   3.431
 9140SOL     OW28318   7.011   3.421   2.686
 9140SOL    HW128319   6.982   3.495   2.626
 9140SOL    HW228320   6.947   3.413   2.762
 9141SOL     OW28321   5.561   0.019   1.346
 9141SOL    HW128322   5.642   0.046   1.398
 9141SOL    HW228323   5.506   6.972   1.399
 9142SOL     OW28324   0.858   3.154   0.992
 9142SOL    HW128325   0.913   3.143   0.909
 9142SOL    HW228326   0.915   3.135   1.072
 9143SOL     OW28327   6.116   2.921   0.464
 9143SOL    HW128328   6.077   2.913   0.373
 9143SOL    HW228329   6.202   2.972   0.460
 9144SOL     OW28330   2.562   5.041   4.934
 9144SOL    HW128331   2.605   5.081   4.853
 9144SOL    HW228332   2.564   4.941   4.926
 9145SOL     OW28333   0.301   5.547   0.004
 9145SOL    HW128334   0.325   5.591   0.090
 9145SOL    HW228335   0.383   5.513   6.977
 9146SOL     OW28336   5.421   3.062   3.568
 9146SOL    HW128337   5.350   3.051   3.498
 9146SOL    HW228338   5.465   3.151   3.556
 9147SOL     OW28339   5.725   6.878   5.067
 9147SOL    HW128340   5.668   6.958   5.047
 9147SOL    HW228341   5.735   6.868   5.166
 9148SOL     OW28342   5.020   6.285   2.112
 9148SOL    HW128343   5.042   6.382   2.109
 9148SOL    HW228344   5.009   6.256   2.208
 9149SOL     OW28345   5.071   3.845   2.482
 9149SOL    HW128346   5.015   3.818   2.404
 9149SOL    HW228347   5.167   3.829   2.462
 9150SOL     OW28348   2.994   5.113   1.212
 9150SOL    HW128349   2.949   5.169   1.143
 9150SOL    HW228350   2.970   5.146   1.303
 9151SOL     OW28351   1.150   4.512   3.651
 9151SOL    HW128352   1.201   4.484   3.570
 9151SOL    HW228353   1.213   4.552   3.718
 9152SOL     OW28354   2.240   4.114   4.504
 9152SOL    HW128355   2.242   4.040   4.437
 9152SOL    HW228356   2.229   4.076   4.596
 9153SOL     OW28357   0.570   3.160   0.260
 9153SOL    HW128358   0.612   3.197   0.177
 9153SOL    HW228359   0.471   3.162   0.250
 9154SOL     OW28360   5.558   4.822   5.465
 9154SOL    HW128361   5.635   4.852   5.520
 9154SOL    HW228362   5.478   4.879   5.486
 9155SOL     OW28363   1.554   4.201   2.808
 9155SOL    HW128364   1.496   4.124   2.834
 9155SOL    HW228365   1.613   4.175   2.732
 9156SOL     OW28366   0.325   2.137   0.799
 9156SOL    HW128367   0.261   2.200   0.845
 9156SOL    HW228368   0.401   2.117   0.860
 9157SOL     OW28369   2.608   4.283   6.685
 9157SOL    HW128370   2.670   4.266   6.762
 9157SOL    HW228371   2.522   4.321   6.719
 9158SOL     OW28372   6.451   4.016   4.652
 9158SOL    HW128373   6.482   3.958   4.576
 9158SOL    HW228374   6.370   4.066   4.623
 9159SOL     OW28375   1.413   0.826   2.644
 9159SOL    HW128376   1.513   0.826   2.653
 9159SOL    HW228377   1.386   0.892   2.574
 9160SOL     OW28378   0.187   6.608   6.148
 9160SOL    HW128379   0.215   6.694   6.103
 9160SOL    HW228380   0.230   6.531   6.102
 9161SOL     OW28381   5.199   5.127   3.460
 9161SOL    HW128382   5.264   5.129   3.385
 9161SOL    HW228383   5.182   5.221   3.493
 9162SOL     OW28384   4.286   0.503   3.381
 9162SOL    HW128385   4.262   0.545   3.468
 9162SOL    HW228386   4.241   0.550   3.306
 9163SOL     OW28387   6.780   2.294   4.300
 9163SOL    HW128388   6.875   2.305   4.328
 9163SOL    HW228389   6.720   2.308   4.379
 9164SOL     OW28390   1.568   0.717   6.674
 9164SOL    HW128391   1.633   0.679   6.740
 9164SOL    HW228392   1.555   0.814   6.693
 9165SOL     OW28393   5.774   1.612   6.041
 9165SOL    HW128394   5.754   1.589   6.136
 9165SOL    HW228395   5.778   1.528   5.987
 9166SOL     OW28396   4.198   6.181   1.161
 9166SOL    HW128397   4.239   6.101   1.118
 9166SOL    HW228398   4.185   6.163   1.259
 9167SOL     OW28399   2.369   2.197   5.661
 9167SOL    HW128400   2.285   2.249   5.645
 9167SOL    HW228401   2.373   2.169   5.757
 9168SOL     OW28402   6.497   6.074   6.548
 9168SOL    HW128403   6.521   6.116   6.635
 9168SOL    HW228404   6.566   6.007   6.523
 9169SOL     OW28405   6.840   6.777   6.691
 9169SOL    HW128406   6.851   6.697   6.750
 9169SOL    HW228407   6.811   6.855   6.746
 9170SOL     OW28408   2.057   0.072   6.524
 9170SOL    HW128409   2.012   0.054   6.437
 9170SOL    HW228410   2.025   0.159   6.562
 9171SOL     OW28411   3.270   6.100   0.760
 9171SOL    HW128412   3.202   6.031   0.738
 9171SOL    HW228413   3.361   6.066   0.735
 9172SOL     OW28414   4.741   1.119   3.926
 9172SOL    HW128415   4.713   1.205   3.884
 9172SOL    HW228416   4.805   1.072   3.866
 9173SOL     OW28417   5.947   4.328   5.666
 9173SOL    HW128418   5.964   4.257   5.598
 9173SOL    HW228419   6.028   4.386   5.674
 9174SOL     OW28420   0.379   5.627   0.270
 9174SOL    HW128421   0.440   5.702   0.245
 9174SOL    HW228422   0.430   5.556   0.318
 9175SOL     OW28423   1.348   6.817   6.583
 9175SOL    HW128424   1.263   6.831   6.533
 9175SOL    HW228425   1.329   6.778   6.673
 9176SOL     OW28426   2.946   0.604   2.028
 9176SOL    HW128427   2.963   0.673   1.958
 9176SOL    HW228428   2.918   0.519   1.985
 9177SOL     OW28429   0.941   3.711   4.174
 9177SOL    HW128430   1.015   3.650   4.145
 9177SOL    HW228431   0.869   3.657   4.218
 9178SOL     OW28432   2.164   5.203   6.761
 9178SOL    HW128433   2.100   5.266   6.718
 9178SOL    HW228434   2.167   5.220   6.859
 9179SOL     OW28435   1.653   5.640   4.039
 9179SOL    HW128436   1.651   5.724   3.984
 9179SOL    HW228437   1.747   5.605   4.042
 9180SOL     OW28438   6.210   2.288   3.391
 9180SOL    HW128439   6.226   2.304   3.293
 9180SOL    HW228440   6.294   2.304   3.442
 9181SOL     OW28441   6.087   2.665   4.863
 9181SOL    HW128442   6.094   2.566   4.848
 9181SOL    HW228443   6.146   2.691   4.940
 9182SOL     OW28444   2.756   6.773   3.013
 9182SOL    HW128445   2.726   6.755   3.107
 9182SOL    HW228446   2.855   6.778   3.010
 9183SOL     OW28447   4.597   4.710   6.359
 9183SOL    HW128448   4.564   4.798   6.394
 9183SOL    HW228449   4.687   4.722   6.318
 9184SOL     OW28450   4.013   2.533   0.955
 9184SOL    HW128451   3.926   2.576   0.934
 9184SOL    HW228452   4.075   2.544   0.877
 9185SOL     OW28453   6.926   6.524   4.688
 9185SOL    HW128454   6.874   6.483   4.614
 9185SOL    HW228455   6.908   6.623   4.691
 9186SOL     OW28456   5.482   0.206   4.590
 9186SOL    HW128457   5.542   0.241   4.518
 9186SOL    HW228458   5.487   0.106   4.590
 9187SOL     OW28459   3.587   2.093   0.306
 9187SOL    HW128460   3.606   2.027   0.379
 9187SOL    HW228461   3.512   2.153   0.334
 9188SOL     OW28462   2.078   0.328   1.085
 9188SOL    HW128463   2.128   0.413   1.066
 9188SOL    HW228464   2.051   0.326   1.181
 9189SOL     OW28465   3.529   6.301   2.498
 9189SOL    HW128466   3.517   6.348   2.411
 9189SOL    HW228467   3.589   6.222   2.485
 9190SOL     OW28468   0.624   2.735   5.865
 9190SOL    HW128469   0.699   2.781   5.819
 9190SOL    HW228470   0.608   2.777   5.954
 9191SOL     OW28471   5.765   1.083   6.386
 9191SOL    HW128472   5.860   1.098   6.416
 9191SOL    HW228473   5.748   1.135   6.303
 9192SOL     OW28474   6.807   2.439   6.327
 9192SOL    HW128475   6.847   2.529   6.312
 9192SOL    HW228476   6.818   2.413   6.423
 9193SOL     OW28477   4.050   3.184   4.800
 9193SOL    HW128478   4.134   3.131   4.813
 9193SOL    HW228479   4.030   3.192   4.703
 9194SOL     OW28480   2.799   0.127   2.652
 9194SOL    HW128481   2.776   0.098   2.559
 9194SOL    HW228482   2.801   0.226   2.656
 9195SOL     OW28483   1.608   3.327   2.934
 9195SOL    HW128484   1.680   3.311   2.867
 9195SOL    HW228485   1.521   3.294   2.897
 9196SOL     OW28486   5.287   6.705   3.870
 9196SOL    HW128487   5.207   6.686   3.813
 9196SOL    HW228488   5.312   6.623   3.921
 9197SOL     OW28489   3.268   5.115   1.005
 9197SOL    HW128490   3.214   5.195   1.028
 9197SOL    HW228491   3.289   5.063   1.088
 9198SOL     OW28492   6.365   4.147   0.101
 9198SOL    HW128493   6.331   4.114   0.189
 9198SOL    HW228494   6.299   4.211   0.062
 9199SOL     OW28495   0.356   2.416   5.881
 9199SOL    HW128496   0.316   2.490   5.936
 9199SOL    HW228497   0.419   2.455   5.814
 9200SOL     OW28498   2.769   6.077   5.573
 9200SOL    HW128499   2.804   6.133   5.648
 9200SOL    HW228500   2.846   6.037   5.523
 9201SOL     OW28501   0.089   3.234   0.262
 9201SOL    HW128502   7.010   3.228   0.236
 9201SOL    HW228503   0.098   3.210   0.359
 9202SOL     OW28504   0.762   5.541   4.446
 9202SOL    HW128505   0.807   5.617   4.491
 9202SOL    HW228506   0.759   5.558   4.347
 9203SOL     OW28507   6.100   2.916   6.502
 9203SOL    HW128508   6.033   2.947   6.569
 9203SOL    HW228509   6.182   2.974   6.507
 9204SOL     OW28510   4.871   3.447   4.123
 9204SOL    HW128511   4.879   3.349   4.103
 9204SOL    HW228512   4.898   3.463   4.218
 9205SOL     OW28513   5.152   5.668   3.013
 9205SOL    HW128514   5.066   5.669   3.063
 9205SOL    HW228515   5.135   5.654   2.916
 9206SOL     OW28516   3.061   6.375   3.531
 9206SOL    HW128517   3.127   6.450   3.526
 9206SOL    HW228518   3.061   6.337   3.624
 9207SOL     OW28519   3.997   4.937   0.079
 9207SOL    HW128520   4.059   5.008   0.044
 9207SOL    HW228521   4.022   4.848   0.041
 9208SOL     OW28522   5.919   3.911   2.073
 9208SOL    HW128523   6.017   3.933   2.071
 9208SOL    HW228524   5.901   3.851   2.151
 9209SOL     OW28525   4.420   0.646   1.386
 9209SOL    HW128526   4.422   0.641   1.486
 9209SOL    HW228527   4.347   0.709   1.358
 9210SOL     OW28528   0.813   0.741   1.369
 9210SOL    HW128529   0.897   0.729   1.315
 9210SOL    HW228530   0.754   0.808   1.324
 9211SOL     OW28531   5.708   3.252   6.815
 9211SOL    HW128532   5.734   3.181   6.880
 9211SOL    HW228533   5.608   3.260   6.812
 9212SOL     OW28534   5.057   4.347   4.287
 9212SOL    HW128535   5.003   4.330   4.370
 9212SOL    HW228536   5.030   4.281   4.216
 9213SOL     OW28537   4.708   5.810   4.448
 9213SOL    HW128538   4.743   5.846   4.534
 9213SOL    HW228539   4.665   5.883   4.396
 9214SOL     OW28540   0.080   2.752   5.307
 9214SOL    HW128541   0.033   2.667   5.282
 9214SOL    HW228542   0.147   2.775   5.236
 9215SOL     OW28543   1.332   4.372   2.723
 9215SOL    HW128544   1.397   4.320   2.778
 9215SOL    HW228545   1.248   4.386   2.775
 9216SOL     OW28546   2.403   6.691   3.708
 9216SOL    HW128547   2.473   6.762   3.710
 9216SOL    HW228548   2.439   6.610   3.662
 9217SOL     OW28549   6.242   2.563   0.298
 9217SOL    HW128550   6.142   2.560   0.303
 9217SOL    HW228551   6.272   2.508   0.220
 9218SOL     OW28552   4.271   0.873   0.251
 9218SOL    HW128553   4.351   0.842   0.303
 9218SOL    HW228554   4.289   0.864   0.153
 9219SOL     OW28555   4.913   3.773   6.421
 9219SOL    HW128556   4.955   3.786   6.510
 9219SOL    HW228557   4.827   3.722   6.432
 9220SOL     OW28558   1.542   6.375   2.284
 9220SOL    HW128559   1.488   6.312   2.340
 9220SOL    HW228560   1.491   6.398   2.201
 9221SOL     OW28561   2.617   6.854   3.747
 9221SOL    HW128562   2.610   6.907   3.663
 9221SOL    HW228563   2.582   6.909   3.824
 9222SOL     OW28564   2.540   5.636   4.973
 9222SOL    HW128565   2.542   5.690   5.057
 9222SOL    HW228566   2.620   5.576   4.969
 9223SOL     OW28567   1.449   3.023   4.145
 9223SOL    HW128568   1.367   3.070   4.111
 9223SOL    HW228569   1.424   2.931   4.175
 9224SOL     OW28570   1.352   4.790   3.515
 9224SOL    HW128571   1.330   4.843   3.597
 9224SOL    HW228572   1.339   4.848   3.434
 9225SOL     OW28573   3.538   6.077   5.986
 9225SOL    HW128574   3.535   6.161   5.933
 9225SOL    HW228575   3.619   6.024   5.960
 9226SOL     OW28576   0.486   6.692   1.288
 9226SOL    HW128577   0.430   6.622   1.242
 9226SOL    HW228578   0.482   6.678   1.386
 9227SOL     OW28579   2.305   6.110   1.276
 9227SOL    HW128580   2.288   6.200   1.236
 9227SOL    HW228581   2.220   6.056   1.273
 9228SOL     OW28582   2.604   1.969   0.187
 9228SOL    HW128583   2.664   1.899   0.150
 9228SOL    HW228584   2.521   1.926   0.223
 9229SOL     OW28585   0.958   4.461   5.460
 9229SOL    HW128586   1.026   4.524   5.423
 9229SOL    HW228587   0.872   4.511   5.475
 9230SOL     OW28588   5.220   3.069   3.391
 9230SOL    HW128589   5.122   3.083   3.406
 9230SOL    HW228590   5.234   2.985   3.339
 9231SOL     OW28591   1.444   2.949   5.622
 9231SOL    HW128592   1.487   3.033   5.656
 9231SOL    HW228593   1.401   2.966   5.534
 9232SOL     OW28594   3.170   5.045   7.014
 9232SOL    HW128595   3.175   5.139   6.980
 9232SOL    HW228596   3.206   4.982   6.945
 9233SOL     OW28597   6.864   6.351   0.981
 9233SOL    HW128598   6.822   6.268   0.945
 9233SOL    HW228599   6.953   6.330   1.021
 9234SOL     OW28600   2.875   5.525   0.760
 9234SOL    HW128601   2.896   5.620   0.782
 9234SOL    HW228602   2.959   5.472   0.755
 9235SOL     OW28603   2.014   2.654   3.147
 9235SOL    HW128604   2.088   2.600   3.107
 9235SOL    HW228605   1.956   2.595   3.203
 9236SOL     OW28606   1.639   4.039   0.529
 9236SOL    HW128607   1.684   4.120   0.490
 9236SOL    HW228608   1.703   3.990   0.588
 9237SOL     OW28609   0.286   5.469   2.914
 9237SOL    HW128610   0.201   5.496   2.869
 9237SOL    HW228611   0.269   5.391   2.974
 9238SOL     OW28612   2.440   2.848   5.926
 9238SOL    HW128613   2.511   2.917   5.917
 9238SOL    HW228614   2.409   2.845   6.021
 9239SOL     OW28615   0.247   4.355   5.895
 9239SOL    HW128616   0.259   4.349   5.994
 9239SOL    HW228617   0.334   4.380   5.853
 9240SOL     OW28618   4.937   3.210   2.116
 9240SOL    HW128619   4.881   3.137   2.076
 9240SOL    HW228620   4.898   3.299   2.092
 9241SOL     OW28621   0.343   4.813   0.497
 9241SOL    HW128622   0.401   4.894   0.502
 9241SOL    HW228623   0.247   4.841   0.490
 9242SOL     OW28624   1.625   3.792   1.343
 9242SOL    HW128625   1.549   3.834   1.392
 9242SOL    HW228626   1.657   3.854   1.272
 9243SOL     OW28627   6.685   0.356   1.438
 9243SOL    HW128628   6.639   0.438   1.403
 9243SOL    HW228629   6.617   0.287   1.462
 9244SOL     OW28630   2.970   5.710   6.067
 9244SOL    HW128631   2.973   5.802   6.028
 9244SOL    HW228632   2.916   5.651   6.008
 9245SOL     OW28633   0.912   5.117   3.589
 9245SOL    HW128634   0.966   5.181   3.644
 9245SOL    HW228635   0.838   5.080   3.645
 9246SOL     OW28636   6.174   0.064   2.576
 9246SOL    HW128637   6.110   0.114   2.634
 9246SOL    HW228638   6.192   0.117   2.493
 9247SOL     OW28639   2.523   6.163   3.294
 9247SOL    HW128640   2.522   6.161   3.194
 9247SOL    HW228641   2.455   6.229   3.327
 9248SOL     OW28642   2.933   1.932   4.464
 9248SOL    HW128643   2.866   1.940   4.391
 9248SOL    HW228644   3.009   1.875   4.432
 9249SOL     OW28645   3.900   4.750   1.283
 9249SOL    HW128646   3.942   4.826   1.333
 9249SOL    HW228647   3.953   4.667   1.299
 9250SOL     OW28648   5.619   3.423   4.675
 9250SOL    HW128649   5.653   3.516   4.662
 9250SOL    HW228650   5.695   3.362   4.698
 9251SOL     OW28651   4.210   2.093   2.493
 9251SOL    HW128652   4.244   2.032   2.564
 9251SOL    HW228653   4.179   2.040   2.414
 9252SOL     OW28654   5.565   0.750   4.414
 9252SOL    HW128655   5.638   0.734   4.348
 9252SOL    HW228656   5.574   0.687   4.491
 9253SOL     OW28657   5.599   5.226   5.544
 9253SOL    HW128658   5.539   5.150   5.521
 9253SOL    HW228659   5.561   5.311   5.509
 9254SOL     OW28660   4.765   5.456   3.054
 9254SOL    HW128661   4.831   5.520   3.092
 9254SOL    HW228662   4.674   5.475   3.091
 9255SOL     OW28663   5.120   3.783   7.005
 9255SOL    HW128664   5.146   3.783   6.908
 9255SOL    HW228665   5.203   3.782   0.044
 9256SOL     OW28666   3.136   0.328   2.564
 9256SOL    HW128667   3.144   0.334   2.664
 9256SOL    HW228668   3.086   0.408   2.530
 9257SOL     OW28669   6.448   4.912   3.492
 9257SOL    HW128670   6.450   4.991   3.552
 9257SOL    HW228671   6.516   4.924   3.419
 9258SOL     OW28672   4.146   3.451   2.209
 9258SOL    HW128673   4.112   3.360   2.234
 9258SOL    HW228674   4.238   3.442   2.170
 9259SOL     OW28675   0.254   1.655   0.632
 9259SOL    HW128676   0.171   1.628   0.680
 9259SOL    HW228677   0.235   1.662   0.534
 9260SOL     OW28678   6.074   2.012   5.374
 9260SOL    HW128679   6.123   2.053   5.451
 9260SOL    HW228680   6.012   2.079   5.335
 9261SOL     OW28681   3.705   1.354   0.348
 9261SOL    HW128682   3.641   1.285   0.381
 9261SOL    HW228683   3.785   1.355   0.408
 9262SOL     OW28684   6.807   5.659   5.212
 9262SOL    HW128685   6.892   5.669   5.162
 9262SOL    HW228686   6.738   5.720   5.173
 9263SOL     OW28687   4.259   6.953   2.371
 9263SOL    HW128688   4.297   0.026   2.391
 9263SOL    HW228689   4.174   6.963   2.319
 9264SOL     OW28690   4.783   4.078   0.920
 9264SOL    HW128691   4.851   4.122   0.861
 9264SOL    HW228692   4.721   4.023   0.864
 9265SOL     OW28693   3.486   2.587   6.745
 9265SOL    HW128694   3.575   2.608   6.785
 9265SOL    HW228695   3.414   2.633   6.797
 9266SOL     OW28696   1.226   6.200   1.044
 9266SOL    HW128697   1.222   6.209   0.944
 9266SOL    HW228698   1.133   6.199   1.081
 9267SOL     OW28699   6.920   1.707   5.018
 9267SOL    HW128700   7.007   1.737   4.979
 9267SOL    HW228701   6.855   1.688   4.944
 9268SOL     OW28702   1.650   6.762   2.405
 9268SOL    HW128703   1.669   6.750   2.308
 9268SOL    HW228704   1.614   6.677   2.443
 9269SOL     OW28705   4.875   1.425   6.539
 9269SOL    HW128706   4.897   1.466   6.450
 9269SOL    HW228707   4.900   1.328   6.539
 9270SOL     OW28708   4.195   6.688   6.209
 9270SOL    HW128709   4.256   6.718   6.283
 9270SOL    HW228710   4.114   6.747   6.208
 9271SOL     OW28711   6.064   0.284   1.088
 9271SOL    HW128712   6.000   0.294   1.012
 9271SOL    HW228713   6.025   0.226   1.158
 9272SOL     OW28714   1.073   5.733   5.400
 9272SOL    HW128715   1.042   5.642   5.372
 9272SOL    HW228716   1.153   5.725   5.459
 9273SOL     OW28717   5.857   5.839   2.987
 9273SOL    HW128718   5.945   5.794   2.983
 9273SOL    HW228719   5.787   5.775   3.018
 9274SOL     OW28720   6.567   1.587   0.405
 9274SOL    HW128721   6.471   1.577   0.433
 9274SOL    HW228722   6.603   1.497   0.378
 9275SOL     OW28723   6.524   0.607   0.010
 9275SOL    HW128724   6.448   0.656   6.984
 9275SOL    HW228725   6.610   0.640   6.988
 9276SOL     OW28726   2.061   4.452   1.356
 9276SOL    HW128727   2.000   4.521   1.316
 9276SOL    HW228728   2.065   4.372   1.296
 9277SOL     OW28729   4.531   4.605   1.156
 9277SOL    HW128730   4.559   4.654   1.073
 9277SOL    HW228731   4.434   4.585   1.152
 9278SOL     OW28732   1.824   6.828   5.732
 9278SOL    HW128733   1.821   6.730   5.754
 9278SOL    HW228734   1.786   6.843   5.641
 9279SOL     OW28735   2.887   0.276   1.619
 9279SOL    HW128736   2.945   0.288   1.539
 9279SOL    HW228737   2.842   0.186   1.615
 9280SOL     OW28738   2.160   1.584   2.308
 9280SOL    HW128739   2.088   1.642   2.268
 9280SOL    HW228740   2.134   1.559   2.401
 9281SOL     OW28741   2.927   3.955   6.594
 9281SOL    HW128742   2.965   3.863   6.604
 9281SOL    HW228743   2.958   4.013   6.670
 9282SOL     OW28744   5.563   1.199   3.184
 9282SOL    HW128745   5.643   1.208   3.124
 9282SOL    HW228746   5.555   1.281   3.241
 9283SOL     OW28747   4.919   0.522   4.270
 9283SOL    HW128748   4.846   0.456   4.289
 9283SOL    HW228749   4.880   0.613   4.257
 9284SOL     OW28750   2.861   3.069   5.244
 9284SOL    HW128751   2.785   3.059   5.309
 9284SOL    HW228752   2.934   3.122   5.286
 9285SOL     OW28753   4.857   3.382   1.408
 9285SOL    HW128754   4.950   3.419   1.415
 9285SOL    HW228755   4.803   3.438   1.346
 9286SOL     OW28756   5.497   5.846   1.109
 9286SOL    HW128757   5.547   5.776   1.057
 9286SOL    HW228758   5.475   5.923   1.048
 9287SOL     OW28759   3.619   4.959   6.426
 9287SOL    HW128760   3.689   5.031   6.434
 9287SOL    HW228761   3.651   4.876   6.472
 9288SOL     OW28762   4.409   1.357   2.707
 9288SOL    HW128763   4.506   1.332   2.701
 9288SOL    HW228764   4.393   1.440   2.654
 9289SOL     OW28765   4.295   0.518   1.611
 9289SOL    HW128766   4.323   0.444   1.550
 9289SOL    HW228767   4.278   0.481   1.702
 9290SOL     OW28768   5.232   0.865   3.595
 9290SOL    HW128769   5.239   0.938   3.662
 9290SOL    HW228770   5.147   0.814   3.609
 9291SOL     OW28771   1.310   5.360   5.611
 9291SOL    HW128772   1.225   5.315   5.584
 9291SOL    HW228773   1.319   5.446   5.561
 9292SOL     OW28774   2.396   2.581   5.747
 9292SOL    HW128775   2.487   2.584   5.705
 9292SOL    HW228776   2.380   2.666   5.796
 9293SOL     OW28777   6.714   3.426   6.721
 9293SOL    HW128778   6.615   3.425   6.738
 9293SOL    HW228779   6.731   3.443   6.624
 9294SOL     OW28780   5.101   0.957   6.029
 9294SOL    HW128781   5.012   0.989   5.995
 9294SOL    HW228782   5.153   1.036   6.063
 9295SOL     OW28783   5.336   0.443   5.201
 9295SOL    HW128784   5.296   0.445   5.110
 9295SOL    HW228785   5.373   0.352   5.219
 9296SOL     OW28786   1.917   5.423   6.715
 9296SOL    HW128787   1.923   5.523   6.722
 9296SOL    HW228788   1.990   5.390   6.656
 9297SOL     OW28789   1.191   6.895   2.887
 9297SOL    HW128790   1.151   6.986   2.882
 9297SOL    HW228791   1.266   6.888   2.821
 9298SOL     OW28792   1.129   6.438   6.818
 9298SOL    HW128793   1.098   6.416   6.725
 9298SOL    HW228794   1.098   6.530   6.843
 9299SOL     OW28795   0.284   2.018   4.334
 9299SOL    HW128796   0.365   1.958   4.332
 9299SOL    HW228797   0.259   2.041   4.240
 9300SOL     OW28798   0.498   4.459   5.835
 9300SOL    HW128799   0.591   4.430   5.812
 9300SOL    HW228800   0.499   4.556   5.858
 9301SOL     OW28801   5.696   5.548   4.564
 9301SOL    HW128802   5.723   5.641   4.538
 9301SOL    HW228803   5.602   5.550   4.598
 9302SOL     OW28804   2.158   3.538   3.999
 9302SOL    HW128805   2.147   3.551   4.098
 9302SOL    HW228806   2.166   3.441   3.978
 9303SOL     OW28807   3.092   3.926   0.590
 9303SOL    HW128808   3.157   3.981   0.538
 9303SOL    HW228809   3.070   3.973   0.675
 9304SOL     OW28810   4.124   4.541   1.796
 9304SOL    HW128811   4.040   4.497   1.764
 9304SOL    HW228812   4.201   4.479   1.779
 9305SOL     OW28813   3.840   1.215   0.696
 9305SOL    HW128814   3.905   1.252   0.763
 9305SOL    HW228815   3.749   1.253   0.713
 9306SOL     OW28816   1.019   3.851   5.346
 9306SOL    HW128817   0.978   3.874   5.434
 9306SOL    HW228818   0.994   3.758   5.321
 9307SOL     OW28819   1.108   4.184   1.055
 9307SOL    HW128820   1.116   4.278   1.023
 9307SOL    HW228821   1.163   4.172   1.137
 9308SOL     OW28822   1.551   3.493   1.321
 9308SOL    HW128823   1.591   3.584   1.332
 9308SOL    HW228824   1.624   3.427   1.306
 9309SOL     OW28825   3.400   5.780   5.861
 9309SOL    HW128826   3.389   5.682   5.876
 9309SOL    HW228827   3.480   5.797   5.804
 9310SOL     OW28828   5.622   5.679   5.548
 9310SOL    HW128829   5.580   5.753   5.495
 9310SOL    HW228830   5.611   5.698   5.645
 9311SOL     OW28831   4.977   4.678   1.016
 9311SOL    HW128832   5.045   4.607   0.996
 9311SOL    HW228833   4.889   4.634   1.034
 9312SOL     OW28834   1.234   3.071   1.133
 9312SOL    HW128835   1.299   3.120   1.075
 9312SOL    HW228836   1.270   3.063   1.226
 9313SOL     OW28837   6.920   0.235   1.652
 9313SOL    HW128838   6.823   0.221   1.672
 9313SOL    HW228839   6.929   0.292   1.570
 9314SOL     OW28840   6.447   3.755   6.896
 9314SOL    HW128841   6.507   3.742   6.817
 9314SOL    HW228842   6.496   3.802   6.969
 9315SOL     OW28843   6.834   0.017   5.416
 9315SOL    HW128844   6.837   6.934   5.411
 9315SOL    HW228845   6.824   0.054   5.324
 9316SOL     OW28846   5.856   6.235   5.615
 9316SOL    HW128847   5.897   6.144   5.626
 9316SOL    HW228848   5.770   6.239   5.666
 9317SOL     OW28849   4.363   5.516   3.820
 9317SOL    HW128850   4.340   5.595   3.764
 9317SOL    HW228851   4.406   5.446   3.763
 9318SOL     OW28852   6.280   0.726   6.454
 9318SOL    HW128853   6.231   0.714   6.541
 9318SOL    HW228854   6.367   0.676   6.457
 9319SOL     OW28855   2.341   3.251   1.109
 9319SOL    HW128856   2.380   3.308   1.182
 9319SOL    HW228857   2.384   3.161   1.111
 9320SOL     OW28858   3.856   0.622   5.394
 9320SOL    HW128859   3.955   0.629   5.405
 9320SOL    HW228860   3.826   0.529   5.416
 9321SOL     OW28861   1.015   0.567   4.810
 9321SOL    HW128862   0.978   0.647   4.858
 9321SOL    HW228863   0.995   0.485   4.863
 9322SOL     OW28864   0.214   3.673   6.471
 9322SOL    HW128865   0.305   3.713   6.457
 9322SOL    HW228866   0.215   3.578   6.441
 9323SOL     OW28867   0.891   1.255   4.755
 9323SOL    HW128868   0.841   1.336   4.788
 9323SOL    HW228869   0.830   1.197   4.702
 9324SOL     OW28870   1.721   4.109   2.369
 9324SOL    HW128871   1.693   4.101   2.465
 9324SOL    HW228872   1.700   4.024   2.321
 9325SOL     OW28873   6.441   0.313   6.692
 9325SOL    HW128874   6.381   0.300   6.771
 9325SOL    HW228875   6.485   0.403   6.699
 9326SOL     OW28876   2.668   4.787   0.200
 9326SOL    HW128877   2.685   4.694   0.233
 9326SOL    HW228878   2.705   4.853   0.266
 9327SOL     OW28879   4.345   0.184   2.429
 9327SOL    HW128880   4.326   0.143   2.518
 9327SOL    HW228881   4.444   0.187   2.415
 9328SOL     OW28882   2.295   0.735   4.168
 9328SOL    HW128883   2.229   0.810   4.155
 9328SOL    HW228884   2.260   0.652   4.126
 9329SOL     OW28885   5.957   4.086   0.949
 9329SOL    HW128886   6.033   4.078   0.885
 9329SOL    HW228887   5.932   3.995   0.982
 9330SOL     OW28888   6.912   0.542   5.744
 9330SOL    HW128889   6.890   0.446   5.762
 9330SOL    HW228890   6.897   0.562   5.648
 9331SOL     OW28891   2.759   1.261   6.350
 9331SOL    HW128892   2.844   1.280   6.302
 9331SOL    HW228893   2.704   1.345   6.356
 9332SOL     OW28894   3.163   4.786   0.434
 9332SOL    HW128895   3.210   4.873   0.447
 9332SOL    HW228896   3.129   4.780   0.340
 9333SOL     OW28897   3.422   5.526   6.137
 9333SOL    HW128898   3.452   5.433   6.160
 9333SOL    HW228899   3.383   5.527   6.045
 9334SOL     OW28900   4.264   6.596   4.864
 9334SOL    HW128901   4.361   6.619   4.874
 9334SOL    HW228902   4.254   6.497   4.863
 9335SOL     OW28903   1.453   1.303   6.408
 9335SOL    HW128904   1.412   1.303   6.317
 9335SOL    HW228905   1.553   1.305   6.399
 9336SOL     OW28906   4.330   0.377   4.761
 9336SOL    HW128907   4.397   0.315   4.802
 9336SOL    HW228908   4.244   0.370   4.812
 9337SOL     OW28909   4.345   1.222   5.134
 9337SOL    HW128910   4.336   1.206   5.036
 9337SOL    HW228911   4.322   1.138   5.184
 9338SOL     OW28912   6.076   0.029   1.310
 9338SOL    HW128913   6.136   6.997   1.373
 9338SOL    HW228914   5.989   0.048   1.356
 9339SOL     OW28915   6.079   6.188   0.104
 9339SOL    HW128916   6.127   6.145   0.027
 9339SOL    HW228917   6.098   6.286   0.105
 9340SOL     OW28918   4.028   4.871   3.193
 9340SOL    HW128919   3.954   4.856   3.257
 9340SOL    HW228920   4.043   4.969   3.181
 9341SOL     OW28921   5.430   4.911   1.270
 9341SOL    HW128922   5.470   4.998   1.240
 9341SOL    HW228923   5.500   4.840   1.270
 9342SOL     OW28924   2.759   6.586   4.459
 9342SOL    HW128925   2.820   6.550   4.530
 9342SOL    HW228926   2.809   6.651   4.402
 9343SOL     OW28927   4.728   4.210   2.209
 9343SOL    HW128928   4.710   4.194   2.306
 9343SOL    HW228929   4.644   4.243   2.165
 9344SOL     OW28930   5.529   6.474   1.657
 9344SOL    HW128931   5.525   6.401   1.725
 9344SOL    HW228932   5.463   6.456   1.584
 9345SOL     OW28933   6.873   5.175   0.700
 9345SOL    HW128934   6.946   5.234   0.735
 9345SOL    HW228935   6.820   5.225   0.632
 9346SOL     OW28936   4.617   0.830   2.181
 9346SOL    HW128937   4.669   0.757   2.227
 9346SOL    HW228938   4.606   0.807   2.085
 9347SOL     OW28939   3.175   5.331   0.491
 9347SOL    HW128940   3.200   5.256   0.551
 9347SOL    HW228941   3.079   5.321   0.463
 9348SOL     OW28942   2.963   5.452   3.032
 9348SOL    HW128943   2.889   5.413   3.087
 9348SOL    HW228944   2.963   5.551   3.040
 9349SOL     OW28945   6.408   5.013   1.993
 9349SOL    HW128946   6.371   5.106   2.000
 9349SOL    HW228947   6.473   4.998   2.067
 9350SOL     OW28948   6.615   1.702   4.862
 9350SOL    HW128949   6.622   1.801   4.878
 9350SOL    HW228950   6.521   1.673   4.875
 9351SOL     OW28951   3.663   6.500   6.250
 9351SOL    HW128952   3.637   6.548   6.166
 9351SOL    HW228953   3.758   6.470   6.244
 9352SOL     OW28954   3.697   2.062   6.280
 9352SOL    HW128955   3.707   2.027   6.373
 9352SOL    HW228956   3.602   2.050   6.251
 9353SOL     OW28957   1.101   4.674   1.291
 9353SOL    HW128958   1.050   4.591   1.315
 9353SOL    HW228959   1.076   4.702   1.199
 9354SOL     OW28960   0.464   1.713   5.973
 9354SOL    HW128961   0.545   1.768   5.951
 9354SOL    HW228962   0.486   1.649   6.047
 9355SOL     OW28963   0.193   1.738   4.647
 9355SOL    HW128964   0.207   1.641   4.625
 9355SOL    HW228965   0.141   1.781   4.574
 9356SOL     OW28966   4.673   6.029   2.276
 9356SOL    HW128967   4.588   5.980   2.295
 9356SOL    HW228968   4.738   6.012   2.350
 9357SOL     OW28969   2.479   3.698   6.463
 9357SOL    HW128970   2.486   3.600   6.443
 9357SOL    HW228971   2.564   3.743   6.437
 9358SOL     OW28972   6.302   3.179   2.435
 9358SOL    HW128973   6.276   3.247   2.367
 9358SOL    HW228974   6.240   3.186   2.514
 9359SOL     OW28975   0.776   3.543   5.448
 9359SOL    HW128976   0.752   3.639   5.463
 9359SOL    HW228977   0.722   3.485   5.509
 9360SOL     OW28978   1.750   5.810   6.631
 9360SOL    HW128979   1.778   5.906   6.633
 9360SOL    HW228980   1.819   5.753   6.674
 9361SOL     OW28981   1.294   6.650   3.147
 9361SOL    HW128982   1.239   6.689   3.221
 9361SOL    HW228983   1.265   6.556   3.129
 9362SOL     OW28984   1.850   3.282   2.813
 9362SOL    HW128985   1.918   3.209   2.813
 9362SOL    HW228986   1.871   3.346   2.739
 9363SOL     OW28987   4.110   6.719   2.116
 9363SOL    HW128988   4.124   6.805   2.067
 9363SOL    HW228989   4.152   6.644   2.065
 9364SOL     OW28990   3.946   3.173   6.306
 9364SOL    HW128991   3.968   3.118   6.386
 9364SOL    HW228992   3.876   3.127   6.252
 9365SOL     OW28993   2.401   2.327   4.383
 9365SOL    HW128994   2.350   2.252   4.340
 9365SOL    HW228995   2.499   2.310   4.373
 9366SOL     OW28996   3.509   6.582   6.475
 9366SOL    HW128997   3.551   6.536   6.397
 9366SOL    HW228998   3.494   6.516   6.549
 9367SOL     OW28999   0.096   6.385   2.285
 9367SOL    HW129000   0.175   6.348   2.235
 9367SOL    HW229001   0.101   6.485   2.285
 9368SOL     OW29002   2.977   1.373   3.221
 9368SOL    HW129003   3.044   1.309   3.184
 9368SOL    HW229004   2.892   1.325   3.243
 9369SOL     OW29005   6.360   6.674   4.882
 9369SOL    HW129006   6.316   6.681   4.793
 9369SOL    HW229007   6.311   6.608   4.939
 9370SOL     OW29008   5.070   0.801   2.620
 9370SOL    HW129009   5.037   0.742   2.693
 9370SOL    HW229010   5.117   0.880   2.660
 9371SOL     OW29011   2.290   5.016   0.449
 9371SOL    HW129012   2.220   5.014   0.520
 9371SOL    HW229013   2.283   4.933   0.392
 9372SOL     OW29014   5.417   6.038   2.578
 9372SOL    HW129015   5.343   6.054   2.513
 9372SOL    HW229016   5.504   6.057   2.535
 9373SOL     OW29017   4.523   2.098   2.836
 9373SOL    HW129018   4.450   2.166   2.849
 9373SOL    HW229019   4.484   2.016   2.795
 9374SOL     OW29020   0.618   3.806   0.301
 9374SOL    HW129021   0.569   3.736   0.352
 9374SOL    HW229022   0.559   3.885   0.287
 9375SOL     OW29023   0.185   1.034   2.338
 9375SOL    HW129024   0.183   1.024   2.438
 9375SOL    HW229025   0.280   1.029   2.306
 9376SOL     OW29026   2.624   4.262   1.307
 9376SOL    HW129027   2.668   4.322   1.373
 9376SOL    HW229028   2.551   4.210   1.351
 9377SOL     OW29029   2.070   5.073   4.258
 9377SOL    HW129030   2.057   5.127   4.342
 9377SOL    HW229031   2.153   5.104   4.212
 9378SOL     OW29032   1.826   1.162   4.410
 9378SOL    HW129033   1.795   1.075   4.372
 9378SOL    HW229034   1.751   1.206   4.458
 9379SOL     OW29035   4.007   5.898   5.705
 9379SOL    HW129036   3.963   5.855   5.784
 9379SOL    HW229037   4.051   5.828   5.649
 9380SOL     OW29038   5.150   5.386   4.699
 9380SOL    HW129039   5.189   5.295   4.713
 9380SOL    HW229040   5.066   5.395   4.751
 9381SOL     OW29041   3.767   3.035   6.166
 9381SOL    HW129042   3.695   2.979   6.208
 9381SOL    HW229043   3.725   3.101   6.104
 9382SOL     OW29044   3.649   0.842   3.517
 9382SOL    HW129045   3.692   0.758   3.484
 9382SOL    HW229046   3.583   0.875   3.449
 9383SOL     OW29047   0.828   5.835   4.480
 9383SOL    HW129048   0.788   5.851   4.570
 9383SOL    HW229049   0.821   5.919   4.425
 9384SOL     OW29050   4.191   0.463   2.185
 9384SOL    HW129051   4.112   0.420   2.228
 9384SOL    HW229052   4.271   0.453   2.245
 9385SOL     OW29053   4.182   1.168   3.678
 9385SOL    HW129054   4.152   1.262   3.659
 9385SOL    HW229055   4.102   1.113   3.704
 9386SOL     OW29056   2.300   6.080   5.027
 9386SOL    HW129057   2.353   6.154   5.068
 9386SOL    HW229058   2.316   6.078   4.928
 9387SOL     OW29059   2.866   1.736   6.729
 9387SOL    HW129060   2.828   1.822   6.697
 9387SOL    HW229061   2.917   1.751   6.814
 9388SOL     OW29062   3.020   5.571   2.518
 9388SOL    HW129063   3.028   5.585   2.617
 9388SOL    HW229064   2.972   5.485   2.501
 9389SOL     OW29065   1.996   0.109   3.565
 9389SOL    HW129066   2.095   0.122   3.574
 9389SOL    HW229067   1.950   0.194   3.591
 9390SOL     OW29068   5.126   4.787   5.782
 9390SOL    HW129069   5.181   4.755   5.704
 9390SOL    HW229070   5.030   4.766   5.765
 9391SOL     OW29071   2.643   1.456   4.854
 9391SOL    HW129072   2.565   1.416   4.903
 9391SOL    HW229073   2.618   1.546   4.818
 9392SOL     OW29074   6.192   6.541   5.073
 9392SOL    HW129075   6.171   6.631   5.112
 9392SOL    HW229076   6.106   6.491   5.060
 9393SOL     OW29077   3.199   6.149   6.630
 9393SOL    HW129078   3.220   6.072   6.689
 9393SOL    HW229079   3.172   6.228   6.686
 9394SOL     OW29080   6.978   1.216   1.987
 9394SOL    HW129081   0.035   1.282   1.987
 9394SOL    HW229082   6.909   1.243   2.054
 9395SOL     OW29083   2.661   1.207   1.373
 9395SOL    HW129084   2.608   1.257   1.304
 9395SOL    HW229085   2.754   1.244   1.377
 9396SOL     OW29086   1.934   4.499   3.982
 9396SOL    HW129087   1.985   4.483   4.066
 9396SOL    HW229088   1.991   4.551   3.918
 9397SOL     OW29089   5.045   0.172   6.386
 9397SOL    HW129090   5.011   0.154   6.293
 9397SOL    HW229091   5.054   0.085   6.435
 9398SOL     OW29092   6.494   0.691   5.231
 9398SOL    HW129093   6.445   0.759   5.284
 9398SOL    HW229094   6.483   0.601   5.274
 9399SOL     OW29095   1.202   1.868   5.982
 9399SOL    HW129096   1.283   1.926   5.983
 9399SOL    HW229097   1.229   1.772   5.981
 9400SOL     OW29098   4.635   0.751   1.919
 9400SOL    HW129099   4.712   0.744   1.856
 9400SOL    HW229100   4.571   0.819   1.886
 9401SOL     OW29101   6.535   0.715   3.557
 9401SOL    HW129102   6.475   0.716   3.637
 9401SOL    HW229103   6.533   0.805   3.514
 9402SOL     OW29104   1.148   5.319   2.637
 9402SOL    HW129105   1.168   5.302   2.734
 9402SOL    HW229106   1.064   5.372   2.630
 9403SOL     OW29107   6.347   1.201   2.979
 9403SOL    HW129108   6.269   1.258   3.002
 9403SOL    HW229109   6.413   1.253   2.925
 9404SOL     OW29110   1.465   3.013   0.253
 9404SOL    HW129111   1.495   2.991   0.345
 9404SOL    HW229112   1.421   2.934   0.211
 9405SOL     OW29113   2.172   4.835   3.278
 9405SOL    HW129114   2.079   4.830   3.314
 9405SOL    HW229115   2.233   4.871   3.349
 9406SOL     OW29116   6.848   3.096   5.886
 9406SOL    HW129117   6.765   3.140   5.919
 9406SOL    HW229118   6.825   3.023   5.822
 9407SOL     OW29119   2.739   5.124   3.369
 9407SOL    HW129120   2.736   5.177   3.454
 9407SOL    HW229121   2.794   5.042   3.384
 9408SOL     OW29122   6.414   2.788   6.514
 9408SOL    HW129123   6.434   2.780   6.417
 9408SOL    HW229124   6.420   2.884   6.542
 9409SOL     OW29125   5.856   5.942   0.321
 9409SOL    HW129126   5.759   5.937   0.345
 9409SOL    HW229127   5.909   5.959   0.404
 9410SOL     OW29128   2.936   0.455   1.150
 9410SOL    HW129129   2.882   0.525   1.197
 9410SOL    HW229130   2.995   0.409   1.217
 9411SOL     OW29131   3.554   2.832   2.071
 9411SOL    HW129132   3.507   2.872   2.149
 9411SOL    HW229133   3.563   2.733   2.085
 9412SOL     OW29134   0.054   1.247   2.735
 9412SOL    HW129135   7.011   1.178   2.697
 9412SOL    HW229136   0.121   1.204   2.796
 9413SOL     OW29137   3.855   5.747   3.391
 9413SOL    HW129138   3.854   5.843   3.422
 9413SOL    HW229139   3.790   5.694   3.446
 9414SOL     OW29140   2.368   0.983   3.161
 9414SOL    HW129141   2.321   0.897   3.178
 9414SOL    HW229142   2.331   1.025   3.078
 9415SOL     OW29143   2.685   6.783   1.622
 9415SOL    HW129144   2.734   6.867   1.601
 9415SOL    HW229145   2.618   6.800   1.694
 9416SOL     OW29146   6.918   2.497   0.563
 9416SOL    HW129147   6.947   2.416   0.613
 9416SOL    HW229148   6.963   2.500   0.474
 9417SOL     OW29149   4.733   0.665   0.729
 9417SOL    HW129150   4.781   0.593   0.779
 9417SOL    HW229151   4.716   0.636   0.635
 9418SOL     OW29152   3.962   0.118   1.019
 9418SOL    HW129153   3.990   0.033   1.063
 9418SOL    HW229154   3.940   0.186   1.090
 9419SOL     OW29155   3.027   4.733   5.679
 9419SOL    HW129156   2.959   4.803   5.705
 9419SOL    HW229157   3.088   4.717   5.756
 9420SOL     OW29158   6.117   3.913   5.592
 9420SOL    HW129159   6.018   3.898   5.600
 9420SOL    HW229160   6.142   3.912   5.495
 9421SOL     OW29161   2.210   6.458   4.369
 9421SOL    HW129162   2.286   6.503   4.323
 9421SOL    HW229163   2.191   6.370   4.325
 9422SOL     OW29164   3.023   5.160   3.403
 9422SOL    HW129165   3.006   5.114   3.316
 9422SOL    HW229166   2.985   5.252   3.400
 9423SOL     OW29167   2.814   6.647   3.728
 9423SOL    HW129168   2.738   6.712   3.723
 9423SOL    HW229169   2.805   6.593   3.812
 9424SOL     OW29170   5.270   1.653   5.125
 9424SOL    HW129171   5.268   1.650   5.225
 9424SOL    HW229172   5.197   1.712   5.092
 9425SOL     OW29173   5.853   3.796   0.828
 9425SOL    HW129174   5.895   3.821   0.741
 9425SOL    HW229175   5.796   3.715   0.816
 9426SOL     OW29176   3.983   2.084   6.398
 9426SOL    HW129177   3.912   2.057   6.334
 9426SOL    HW229178   4.049   2.144   6.351
 9427SOL     OW29179   2.554   5.317   2.844
 9427SOL    HW129180   2.586   5.222   2.852
 9427SOL    HW229181   2.633   5.378   2.835
 9428SOL     OW29182   6.970   1.059   1.120
 9428SOL    HW129183   6.921   1.118   1.185
 9428SOL    HW229184   6.955   0.964   1.144
 9429SOL     OW29185   2.130   3.659   2.829
 9429SOL    HW129186   2.207   3.722   2.839
 9429SOL    HW229187   2.136   3.613   2.740
 9430SOL     OW29188   0.296   3.755   4.180
 9430SOL    HW129189   0.262   3.721   4.268
 9430SOL    HW229190   0.392   3.780   4.188
 9431SOL     OW29191   6.668   4.152   0.562
 9431SOL    HW129192   6.742   4.105   0.512
 9431SOL    HW229193   6.639   4.096   0.639
 9432SOL     OW29194   5.402   0.467   3.507
 9432SOL    HW129195   5.380   0.554   3.463
 9432SOL    HW229196   5.342   0.395   3.469
 9433SOL     OW29197   3.517   6.167   2.934
 9433SOL    HW129198   3.486   6.074   2.916
 9433SOL    HW229199   3.576   6.198   2.859
 9434SOL     OW29200   5.415   5.758   2.910
 9434SOL    HW129201   5.324   5.746   2.948
 9434SOL    HW229202   5.433   5.855   2.896
 9435SOL     OW29203   0.277   2.729   4.747
 9435SOL    HW129204   0.193   2.709   4.697
 9435SOL    HW229205   0.313   2.646   4.789
 9436SOL     OW29206   1.473   2.517   1.098
 9436SOL    HW129207   1.452   2.496   1.193
 9436SOL    HW229208   1.551   2.462   1.069
 9437SOL     OW29209   1.256   5.835   3.009
 9437SOL    HW129210   1.255   5.898   3.086
 9437SOL    HW229211   1.165   5.832   2.967
 9438SOL     OW29212   0.108   0.129   1.461
 9438SOL    HW129213   0.060   0.105   1.546
 9438SOL    HW229214   0.137   0.224   1.465
 9439SOL     OW29215   0.432   3.283   1.258
 9439SOL    HW129216   0.530   3.288   1.237
 9439SOL    HW229217   0.386   3.225   1.191
 9440SOL     OW29218   3.945   5.255   3.239
 9440SOL    HW129219   4.016   5.326   3.244
 9440SOL    HW229220   3.972   5.177   3.295
 9441SOL     OW29221   6.399   4.127   5.428
 9441SOL    HW129222   6.370   4.199   5.366
 9441SOL    HW229223   6.351   4.138   5.516
 9442SOL     OW29224   4.758   3.345   1.065
 9442SOL    HW129225   4.672   3.353   1.116
 9442SOL    HW229226   4.787   3.250   1.065
 9443SOL     OW29227   2.617   5.233   1.085
 9443SOL    HW129228   2.661   5.152   1.046
 9443SOL    HW229229   2.519   5.229   1.065
 9444SOL     OW29230   1.047   3.105   0.816
 9444SOL    HW129231   1.138   3.070   0.836
 9444SOL    HW229232   1.033   3.108   0.717
 9445SOL     OW29233   6.134   2.783   3.196
 9445SOL    HW129234   6.174   2.800   3.107
 9445SOL    HW229235   6.046   2.737   3.185
 9446SOL     OW29236   6.287   5.458   3.906
 9446SOL    HW129237   6.367   5.473   3.848
 9446SOL    HW229238   6.300   5.375   3.960
 9447SOL     OW29239   6.136   4.399   3.419
 9447SOL    HW129240   6.051   4.359   3.385
 9447SOL    HW229241   6.208   4.330   3.420
 9448SOL     OW29242   0.250   0.104   6.928
 9448SOL    HW129243   0.235   0.017   6.975
 9448SOL    HW229244   0.173   0.165   6.946
 9449SOL     OW29245   6.436   6.780   0.127
 9449SOL    HW129246   6.482   6.691   0.128
 9449SOL    HW229247   6.358   6.777   0.189
 9450SOL     OW29248   1.654   4.884   4.385
 9450SOL    HW129249   1.724   4.920   4.447
 9450SOL    HW229250   1.689   4.802   4.340
 9451SOL     OW29251   4.417   0.357   6.066
 9451SOL    HW129252   4.453   0.361   5.972
 9451SOL    HW229253   4.321   0.327   6.063
 9452SOL     OW29254   1.796   3.969   0.736
 9452SOL    HW129255   1.753   3.981   0.825
 9452SOL    HW229256   1.872   3.905   0.743
 9453SOL     OW29257   2.341   4.880   3.035
 9453SOL    HW129258   2.290   4.938   2.972
 9453SOL    HW229259   2.280   4.849   3.108
 9454SOL     OW29260   3.681   3.613   6.535
 9454SOL    HW129261   3.726   3.533   6.494
 9454SOL    HW229262   3.669   3.683   6.465
 9455SOL     OW29263   2.524   1.540   3.689
 9455SOL    HW129264   2.520   1.634   3.724
 9455SOL    HW229265   2.544   1.542   3.591
 9456SOL     OW29266   6.798   3.915   0.923
 9456SOL    HW129267   6.860   3.862   0.865
 9456SOL    HW229268   6.851   3.983   0.974
 9457SOL     OW29269   1.678   3.447   4.920
 9457SOL    HW129270   1.767   3.474   4.958
 9457SOL    HW229271   1.628   3.529   4.892
 9458SOL     OW29272   1.107   2.872   0.299
 9458SOL    HW129273   1.059   2.948   0.344
 9458SOL    HW229274   1.045   2.826   0.236
 9459SOL     OW29275   5.761   4.623   3.572
 9459SOL    HW129276   5.808   4.639   3.485
 9459SOL    HW229277   5.815   4.661   3.647
 9460SOL     OW29278   1.191   3.126   4.073
 9460SOL    HW129279   1.163   3.191   4.144
 9460SOL    HW229280   1.113   3.109   4.012
 9461SOL     OW29281   0.175   1.960   1.651
 9461SOL    HW129282   0.139   1.882   1.703
 9461SOL    HW229283   0.220   1.927   1.568
 9462SOL     OW29284   2.136   3.751   3.338
 9462SOL    HW129285   2.083   3.669   3.315
 9462SOL    HW229286   2.130   3.817   3.263
 9463SOL     OW29287   6.132   0.157   1.594
 9463SOL    HW129288   6.092   0.234   1.644
 9463SOL    HW229289   6.187   0.192   1.518
 9464SOL     OW29290   5.939   0.573   0.668
 9464SOL    HW129291   6.034   0.554   0.692
 9464SOL    HW229292   5.893   0.618   0.744
 9465SOL     OW29293   1.586   4.557   2.003
 9465SOL    HW129294   1.576   4.641   2.058
 9465SOL    HW229295   1.569   4.578   1.907
 9466SOL     OW29296   3.976   4.496   5.760
 9466SOL    HW129297   3.916   4.481   5.682
 9466SOL    HW229298   4.070   4.506   5.729
 9467SOL     OW29299   1.404   2.344   2.359
 9467SOL    HW129300   1.466   2.395   2.298
 9467SOL    HW229301   1.310   2.371   2.342
 9468SOL     OW29302   5.761   3.814   6.533
 9468SOL    HW129303   5.821   3.820   6.613
 9468SOL    HW229304   5.799   3.748   6.468
 9469SOL     OW29305   6.329   5.232   1.764
 9469SOL    HW129306   6.423   5.238   1.731
 9469SOL    HW229307   6.329   5.228   1.864
 9470SOL     OW29308   5.106   3.177   5.988
 9470SOL    HW129309   5.060   3.154   6.074
 9470SOL    HW229310   5.114   3.095   5.931
 9471SOL     OW29311   6.833   1.616   4.728
 9471SOL    HW129312   6.744   1.646   4.763
 9471SOL    HW229313   6.852   1.662   4.641
 9472SOL     OW29314   6.463   2.676   5.643
 9472SOL    HW129315   6.413   2.760   5.661
 9472SOL    HW229316   6.415   2.599   5.685
 9473SOL     OW29317   2.627   5.171   6.900
 9473SOL    HW129318   2.551   5.158   6.838
 9473SOL    HW229319   2.612   5.117   6.983
 9474SOL     OW29320   0.317   3.125   0.147
 9474SOL    HW129321   0.300   3.060   0.073
 9474SOL    HW229322   0.245   3.116   0.217
 9475SOL     OW29323   3.545   3.294   6.973
 9475SOL    HW129324   3.527   3.203   6.938
 9475SOL    HW229325   3.477   3.358   6.936
 9476SOL     OW29326   3.792   4.015   4.794
 9476SOL    HW129327   3.796   4.025   4.694
 9476SOL    HW229328   3.849   3.938   4.822
 9477SOL     OW29329   0.691   2.820   0.879
 9477SOL    HW129330   0.640   2.757   0.938
 9477SOL    HW229331   0.661   2.914   0.896
 9478SOL     OW29332   5.024   3.221   0.627
 9478SOL    HW129333   5.087   3.288   0.589
 9478SOL    HW229334   4.953   3.199   0.559
 9479SOL     OW29335   4.095   6.367   6.590
 9479SOL    HW129336   4.032   6.439   6.561
 9479SOL    HW229337   4.062   6.278   6.559
 9480SOL     OW29338   5.773   4.638   0.860
 9480SOL    HW129339   5.764   4.540   0.877
 9480SOL    HW229340   5.685   4.675   0.832
 9481SOL     OW29341   5.121   3.061   2.275
 9481SOL    HW129342   5.060   3.097   2.204
 9481SOL    HW229343   5.161   3.137   2.326
 9482SOL     OW29344   0.646   1.310   2.749
 9482SOL    HW129345   0.655   1.367   2.830
 9482SOL    HW229346   0.701   1.227   2.760
 9483SOL     OW29347   1.811   1.061   0.908
 9483SOL    HW129348   1.720   1.090   0.879
 9483SOL    HW229349   1.880   1.119   0.864
 9484SOL     OW29350   4.322   0.671   4.044
 9484SOL    HW129351   4.359   0.578   4.049
 9484SOL    HW229352   4.374   0.731   4.106
 9485SOL     OW29353   0.810   0.651   0.508
 9485SOL    HW129354   0.749   0.658   0.429
 9485SOL    HW229355   0.765   0.600   0.581
 9486SOL     OW29356   4.011   6.639   1.282
 9486SOL    HW129357   4.072   6.597   1.214
 9486SOL    HW229358   3.924   6.590   1.283
 9487SOL     OW29359   3.424   3.623   4.030
 9487SOL    HW129360   3.377   3.535   4.026
 9487SOL    HW229361   3.519   3.611   4.003
 9488SOL     OW29362   2.793   6.451   0.877
 9488SOL    HW129363   2.854   6.381   0.841
 9488SOL    HW229364   2.781   6.439   0.975
 9489SOL     OW29365   4.534   4.307   1.323
 9489SOL    HW129366   4.602   4.243   1.289
 9489SOL    HW229367   4.564   4.401   1.303
 9490SOL     OW29368   6.206   4.632   2.364
 9490SOL    HW129369   6.239   4.725   2.381
 9490SOL    HW229370   6.121   4.617   2.413
 9491SOL     OW29371   5.782   4.992   4.238
 9491SOL    HW129372   5.700   4.945   4.205
 9491SOL    HW229373   5.840   5.017   4.160
 9492SOL     OW29374   3.756   2.912   4.077
 9492SOL    HW129375   3.669   2.918   4.125
 9492SOL    HW229376   3.805   2.830   4.107
 9493SOL     OW29377   3.142   5.623   4.362
 9493SOL    HW129378   3.141   5.684   4.441
 9493SOL    HW229379   3.146   5.528   4.394
 9494SOL     OW29380   5.280   3.468   2.084
 9494SOL    HW129381   5.277   3.462   1.985
 9494SOL    HW229382   5.304   3.560   2.112
 9495SOL     OW29383   6.498   1.414   3.873
 9495SOL    HW129384   6.412   1.372   3.900
 9495SOL    HW229385   6.511   1.405   3.774
 9496SOL     OW29386   6.317   3.629   1.688
 9496SOL    HW129387   6.318   3.689   1.608
 9496SOL    HW229388   6.411   3.606   1.713
 9497SOL     OW29389   5.478   6.399   5.683
 9497SOL    HW129390   5.400   6.409   5.745
 9497SOL    HW229391   5.517   6.308   5.693
 9498SOL     OW29392   4.107   6.616   4.533
 9498SOL    HW129393   4.178   6.675   4.494
 9498SOL    HW229394   4.071   6.658   4.616
 9499SOL     OW29395   2.644   5.331   6.420
 9499SOL    HW129396   2.737   5.349   6.452
 9499SOL    HW229397   2.624   5.234   6.429
 9500SOL     OW29398   5.314   0.185   0.957
 9500SOL    HW129399   5.329   0.152   0.864
 9500SOL    HW229400   5.309   0.106   1.019
 9501SOL     OW29401   3.023   1.035   4.468
 9501SOL    HW129402   3.109   0.999   4.505
 9501SOL    HW229403   3.016   1.132   4.488
 9502SOL     OW29404   5.617   2.893   5.189
 9502SOL    HW129405   5.626   2.993   5.198
 9502SOL    HW229406   5.522   2.871   5.165
 9503SOL     OW29407   0.619   1.415   1.323
 9503SOL    HW129408   0.546   1.403   1.390
 9503SOL    HW229409   0.581   1.451   1.238
 9504SOL     OW29410   0.219   2.498   0.427
 9504SOL    HW129411   0.286   2.438   0.470
 9504SOL    HW229412   0.154   2.443   0.373
 9505SOL     OW29413   4.795   4.593   4.122
 9505SOL    HW129414   4.753   4.522   4.065
 9505SOL    HW229415   4.829   4.666   4.063
 9506SOL     OW29416   1.310   1.793   6.359
 9506SOL    HW129417   1.231   1.826   6.308
 9506SOL    HW229418   1.280   1.765   6.451
 9507SOL     OW29419   1.274   2.267   3.438
 9507SOL    HW129420   1.258   2.295   3.343
 9507SOL    HW229421   1.231   2.178   3.454
 9508SOL     OW29422   6.370   2.004   1.352
 9508SOL    HW129423   6.392   2.088   1.402
 9508SOL    HW229424   6.322   2.028   1.267
 9509SOL     OW29425   0.941   1.183   4.065
 9509SOL    HW129426   0.939   1.086   4.090
 9509SOL    HW229427   1.010   1.230   4.121
 9510SOL     OW29428   1.425   3.794   3.286
 9510SOL    HW129429   1.405   3.892   3.288
 9510SOL    HW229430   1.498   3.773   3.351
 9511SOL     OW29431   1.597   0.705   0.454
 9511SOL    HW129432   1.559   0.623   0.497
 9511SOL    HW229433   1.658   0.752   0.518
 9512SOL     OW29434   6.385   1.501   1.466
 9512SOL    HW129435   6.416   1.575   1.406
 9512SOL    HW229436   6.381   1.416   1.414
 9513SOL     OW29437   2.374   3.678   6.913
 9513SOL    HW129438   2.417   3.648   6.999
 9513SOL    HW229439   2.446   3.704   6.848
 9514SOL     OW29440   2.072   5.374   5.792
 9514SOL    HW129441   2.022   5.445   5.841
 9514SOL    HW229442   2.170   5.384   5.808
 9515SOL     OW29443   2.102   5.777   0.957
 9515SOL    HW129444   2.108   5.862   1.010
 9515SOL    HW229445   2.195   5.743   0.940
 9516SOL     OW29446   5.891   4.626   5.954
 9516SOL    HW129447   5.798   4.660   5.948
 9516SOL    HW229448   5.895   4.552   6.022
 9517SOL     OW29449   2.254   4.736   0.703
 9517SOL    HW129450   2.206   4.743   0.791
 9517SOL    HW229451   2.214   4.663   0.649
 9518SOL     OW29452   2.106   2.102   0.318
 9518SOL    HW129453   2.050   2.068   0.242
 9518SOL    HW229454   2.048   2.154   0.381
 9519SOL     OW29455   3.872   3.747   4.830
 9519SOL    HW129456   3.840   3.669   4.883
 9519SOL    HW229457   3.833   3.743   4.738
 9520SOL     OW29458   1.547   1.460   3.819
 9520SOL    HW129459   1.592   1.513   3.891
 9520SOL    HW229460   1.452   1.489   3.810
 9521SOL     OW29461   5.029   5.318   1.729
 9521SOL    HW129462   5.097   5.294   1.660
 9521SOL    HW229463   4.938   5.314   1.689
 9522SOL     OW29464   3.103   5.682   1.327
 9522SOL    HW129465   3.035   5.678   1.400
 9522SOL    HW229466   3.075   5.624   1.251
 9523SOL     OW29467   2.629   4.743   4.882
 9523SOL    HW129468   2.594   4.652   4.903
 9523SOL    HW229469   2.703   4.766   4.945
 9524SOL     OW29470   3.362   3.162   1.255
 9524SOL    HW129471   3.398   3.069   1.269
 9524SOL    HW229472   3.311   3.165   1.169
 9525SOL     OW29473   2.291   2.783   5.447
 9525SOL    HW129474   2.271   2.688   5.471
 9525SOL    HW229475   2.361   2.786   5.376
 9526SOL     OW29476   5.500   5.164   1.342
 9526SOL    HW129477   5.503   5.092   1.411
 9526SOL    HW229478   5.581   5.221   1.349
 9527SOL     OW29479   0.549   0.737   3.866
 9527SOL    HW129480   0.603   0.672   3.920
 9527SOL    HW229481   0.457   0.700   3.853
 9528SOL     OW29482   6.831   1.125   0.448
 9528SOL    HW129483   6.901   1.094   0.384
 9528SOL    HW229484   6.791   1.046   0.495
 9529SOL     OW29485   6.597   3.187   5.987
 9529SOL    HW129486   6.572   3.100   5.944
 9529SOL    HW229487   6.529   3.256   5.962
 9530SOL     OW29488   1.551   4.083   1.979
 9530SOL    HW129489   1.589   4.085   2.072
 9530SOL    HW229490   1.543   4.176   1.945
 9531SOL     OW29491   4.851   5.199   3.049
 9531SOL    HW129492   4.818   5.291   3.069
 9531SOL    HW229493   4.774   5.135   3.049
 9532SOL     OW29494   6.652   0.091   2.099
 9532SOL    HW129495   6.711   0.072   2.177
 9532SOL    HW229496   6.703   0.143   2.030
 9533SOL     OW29497   6.866   6.386   5.783
 9533SOL    HW129498   6.799   6.318   5.752
 9533SOL    HW229499   6.908   6.429   5.703
 9534SOL     OW29500   0.258   3.769   4.807
 9534SOL    HW129501   0.246   3.834   4.732
 9534SOL    HW229502   0.258   3.676   4.770
 9535SOL     OW29503   2.067   1.156   5.961
 9535SOL    HW129504   2.113   1.220   5.899
 9535SOL    HW229505   2.117   1.151   6.047
 9536SOL     OW29506   2.609   4.200   5.427
 9536SOL    HW129507   2.608   4.195   5.526
 9536SOL    HW229508   2.654   4.285   5.398
 9537SOL     OW29509   3.038   6.710   2.992
 9537SOL    HW129510   3.118   6.764   3.020
 9537SOL    HW229511   3.033   6.628   3.049
 9538SOL     OW29512   6.337   1.834   3.540
 9538SOL    HW129513   6.295   1.885   3.465
 9538SOL    HW229514   6.287   1.749   3.554
 9539SOL     OW29515   2.876   4.069   5.184
 9539SOL    HW129516   2.784   4.076   5.223
 9539SOL    HW229517   2.875   4.002   5.110
 9540SOL     OW29518   6.018   4.261   4.297
 9540SOL    HW129519   5.950   4.334   4.303
 9540SOL    HW229520   6.000   4.193   4.369
 9541SOL     OW29521   4.210   0.603   5.621
 9541SOL    HW129522   4.253   0.643   5.540
 9541SOL    HW229523   4.209   0.504   5.613
 9542SOL     OW29524   5.280   4.263   4.437
 9542SOL    HW129525   5.319   4.191   4.381
 9542SOL    HW229526   5.189   4.286   4.403
 9543SOL     OW29527   3.747   1.041   5.439
 9543SOL    HW129528   3.772   0.990   5.356
 9543SOL    HW229529   3.647   1.038   5.451
 9544SOL     OW29530   6.966   1.386   3.784
 9544SOL    HW129531   0.027   1.330   3.812
 9544SOL    HW229532   6.903   1.395   3.861
 9545SOL     OW29533   5.863   5.436   4.141
 9545SOL    HW129534   5.796   5.443   4.215
 9545SOL    HW229535   5.941   5.382   4.172
 9546SOL     OW29536   3.418   2.222   5.729
 9546SOL    HW129537   3.480   2.278   5.675
 9546SOL    HW229538   3.401   2.135   5.681
 9547SOL     OW29539   2.154   6.740   4.717
 9547SOL    HW129540   2.216   6.769   4.789
 9547SOL    HW229541   2.206   6.712   4.637
 9548SOL     OW29542   6.127   5.694   6.346
 9548SOL    HW129543   6.046   5.635   6.344
 9548SOL    HW229544   6.161   5.707   6.253
 9549SOL     OW29545   2.690   3.062   1.091
 9549SOL    HW129546   2.751   2.984   1.107
 9549SOL    HW229547   2.598   3.038   1.121
 9550SOL     OW29548   0.173   1.177   0.507
 9550SOL    HW129549   0.258   1.201   0.554
 9550SOL    HW229550   0.096   1.194   0.567
 9551SOL     OW29551   5.751   1.175   4.165
 9551SOL    HW129552   5.665   1.223   4.146
 9551SOL    HW229553   5.771   1.178   4.263
 9552SOL     OW29554   1.427   6.375   3.042
 9552SOL    HW129555   1.483   6.442   2.992
 9552SOL    HW229556   1.469   6.284   3.033
 9553SOL     OW29557   6.209   3.983   6.801
 9553SOL    HW129558   6.258   3.905   6.840
 9553SOL    HW229559   6.274   4.044   6.755
 9554SOL     OW29560   2.741   0.546   1.446
 9554SOL    HW129561   2.794   0.477   1.495
 9554SOL    HW229562   2.651   0.509   1.424
 9555SOL     OW29563   1.191   0.942   2.734
 9555SOL    HW129564   1.268   0.879   2.721
 9555SOL    HW229565   1.222   1.022   2.784
 9556SOL     OW29566   1.605   1.945   1.507
 9556SOL    HW129567   1.535   1.880   1.536
 9556SOL    HW229568   1.634   2.000   1.586
 9557SOL     OW29569   0.161   0.304   2.685
 9557SOL    HW129570   0.148   0.399   2.710
 9557SOL    HW229571   0.151   0.246   2.766
 9558SOL     OW29572   6.288   6.173   4.597
 9558SOL    HW129573   6.347   6.228   4.538
 9558SOL    HW229574   6.273   6.083   4.555
 9559SOL     OW29575   0.760   4.211   0.801
 9559SOL    HW129576   0.850   4.254   0.791
 9559SOL    HW229577   0.772   4.117   0.832
 9560SOL     OW29578   1.196   1.678   3.236
 9560SOL    HW129579   1.260   1.634   3.174
 9560SOL    HW229580   1.113   1.705   3.186
 9561SOL     OW29581   1.118   6.594   0.388
 9561SOL    HW129582   1.115   6.574   0.290
 9561SOL    HW229583   1.119   6.693   0.401
 9562SOL     OW29584   3.266   0.239   5.543
 9562SOL    HW129585   3.229   0.177   5.612
 9562SOL    HW229586   3.279   0.329   5.583
 9563SOL     OW29587   6.320   0.021   0.817
 9563SOL    HW129588   6.358   6.972   0.752
 9563SOL    HW229589   6.260   6.992   0.882
 9564SOL     OW29590   3.239   0.500   0.409
 9564SOL    HW129591   3.208   0.594   0.420
 9564SOL    HW229592   3.188   0.456   0.336
 9565SOL     OW29593   4.159   5.942   4.566
 9565SOL    HW129594   4.184   6.029   4.609
 9565SOL    HW229595   4.083   5.900   4.617
 9566SOL     OW29596   2.513   4.787   6.624
 9566SOL    HW129597   2.545   4.722   6.555
 9566SOL    HW229598   2.425   4.756   6.661
 9567SOL     OW29599   5.702   4.795   6.692
 9567SOL    HW129600   5.759   4.768   6.614
 9567SOL    HW229601   5.720   4.891   6.715
 9568SOL     OW29602   4.282   2.483   6.596
 9568SOL    HW129603   4.377   2.464   6.570
 9568SOL    HW229604   4.279   2.561   6.659
 9569SOL     OW29605   0.141   0.549   2.751
 9569SOL    HW129606   0.161   0.590   2.662
 9569SOL    HW229607   0.053   0.583   2.784
 9570SOL     OW29608   0.877   2.973   2.537
 9570SOL    HW129609   0.960   2.936   2.579
 9570SOL    HW229610   0.836   2.904   2.478
 9571SOL     OW29611   2.309   3.954   6.974
 9571SOL    HW129612   2.280   4.025   6.910
 9571SOL    HW229613   2.306   3.865   6.929
 9572SOL     OW29614   2.138   5.725   1.602
 9572SOL    HW129615   2.195   5.734   1.520
 9572SOL    HW229616   2.154   5.803   1.663
 9573SOL     OW29617   1.101   1.008   6.441
 9573SOL    HW129618   1.200   1.008   6.431
 9573SOL    HW229619   1.070   0.918   6.472
 9574SOL     OW29620   3.937   3.445   3.981
 9574SOL    HW129621   3.937   3.430   4.080
 9574SOL    HW229622   3.843   3.443   3.946
 9575SOL     OW29623   5.838   1.740   0.899
 9575SOL    HW129624   5.769   1.811   0.910
 9575SOL    HW229625   5.849   1.691   0.985
 9576SOL     OW29626   2.922   0.141   2.260
 9576SOL    HW129627   2.903   0.233   2.224
 9576SOL    HW229628   2.837   0.096   2.285
 9577SOL     OW29629   1.042   0.738   4.320
 9577SOL    HW129630   1.137   0.769   4.313
 9577SOL    HW229631   0.982   0.817   4.329
 9578SOL     OW29632   0.384   4.368   3.876
 9578SOL    HW129633   0.478   4.359   3.909
 9578SOL    HW229634   0.359   4.286   3.825
 9579SOL     OW29635   1.866   5.394   2.829
 9579SOL    HW129636   1.798   5.385   2.757
 9579SOL    HW229637   1.929   5.469   2.807
 9580SOL     OW29638   4.305   3.073   1.138
 9580SOL    HW129639   4.332   2.992   1.086
 9580SOL    HW229640   4.327   3.060   1.235
 9581SOL     OW29641   1.303   5.420   6.278
 9581SOL    HW129642   1.304   5.381   6.370
 9581SOL    HW229643   1.375   5.376   6.223
 9582SOL     OW29644   4.608   4.746   4.846
 9582SOL    HW129645   4.575   4.652   4.835
 9582SOL    HW229646   4.531   4.807   4.862
 9583SOL     OW29647   3.415   4.625   1.167
 9583SOL    HW129648   3.415   4.658   1.073
 9583SOL    HW229649   3.372   4.534   1.171
 9584SOL     OW29650   6.625   6.431   0.412
 9584SOL    HW129651   6.551   6.369   0.437
 9584SOL    HW229652   6.706   6.378   0.388
 9585SOL     OW29653   6.271   0.379   3.405
 9585SOL    HW129654   6.315   0.406   3.491
 9585SOL    HW229655   6.244   0.460   3.354
 9586SOL     OW29656   5.888   3.864   2.689
 9586SOL    HW129657   5.986   3.883   2.683
 9586SOL    HW229658   5.875   3.768   2.714
 9587SOL     OW29659   6.506   0.574   2.593
 9587SOL    HW129660   6.467   0.666   2.606
 9587SOL    HW229661   6.598   0.583   2.555
 9588SOL     OW29662   0.577   1.759   2.439
 9588SOL    HW129663   0.566   1.708   2.525
 9588SOL    HW229664   0.650   1.717   2.385
 9589SOL     OW29665   2.744   5.557   5.952
 9589SOL    HW129666   2.758   5.505   5.867
 9589SOL    HW229667   2.739   5.655   5.930
 9590SOL     OW29668   0.254   4.352   2.031
 9590SOL    HW129669   0.352   4.349   2.011
 9590SOL    HW229670   0.210   4.422   1.974
 9591SOL     OW29671   2.927   6.003   0.205
 9591SOL    HW129672   2.841   6.043   0.173
 9591SOL    HW229673   2.984   6.073   0.247
 9592SOL     OW29674   3.707   4.620   1.590
 9592SOL    HW129675   3.783   4.671   1.630
 9592SOL    HW229676   3.631   4.618   1.655
 9593SOL     OW29677   6.428   0.613   4.728
 9593SOL    HW129678   6.465   0.668   4.653
 9593SOL    HW229679   6.343   0.656   4.761
 9594SOL     OW29680   1.495   5.925   3.268
 9594SOL    HW129681   1.485   5.932   3.169
 9594SOL    HW229682   1.406   5.941   3.312
 9595SOL     OW29683   2.025   4.252   5.033
 9595SOL    HW129684   1.999   4.236   4.937
 9595SOL    HW229685   2.024   4.165   5.082
 9596SOL     OW29686   0.536   5.834   0.148
 9596SOL    HW129687   0.627   5.840   0.107
 9596SOL    HW229688   0.481   5.912   0.119
 9597SOL     OW29689   0.439   4.554   0.636
 9597SOL    HW129690   0.358   4.501   0.611
 9597SOL    HW229691   0.423   4.651   0.615
 9598SOL     OW29692   0.708   3.724   5.098
 9598SOL    HW129693   0.804   3.721   5.071
 9598SOL    HW229694   0.654   3.767   5.025
 9599SOL     OW29695   3.139   0.365   5.334
 9599SOL    HW129696   3.181   0.337   5.248
 9599SOL    HW229697   3.175   0.309   5.408
 9600SOL     OW29698   2.426   6.814   6.860
 9600SOL    HW129699   2.423   6.867   6.944
 9600SOL    HW229700   2.349   6.750   6.858
 9601SOL     OW29701   6.070   4.221   6.842
 9601SOL    HW129702   6.102   4.261   6.927
 9601SOL    HW229703   6.114   4.131   6.829
 9602SOL     OW29704   6.519   4.938   6.811
 9602SOL    HW129705   6.476   4.853   6.842
 9602SOL    HW229706   6.573   4.920   6.729
 9603SOL     OW29707   2.967   0.771   4.858
 9603SOL    HW129708   3.040   0.822   4.902
 9603SOL    HW229709   2.924   0.827   4.788
 9604SOL     OW29710   4.851   0.257   0.632
 9604SOL    HW129711   4.830   0.316   0.710
 9604SOL    HW229712   4.950   0.244   0.625
 9605SOL     OW29713   0.814   5.237   5.061
 9605SOL    HW129714   0.782   5.179   5.136
 9605SOL    HW229715   0.739   5.252   4.997
 9606SOL     OW29716   1.811   5.973   5.035
 9606SOL    HW129717   1.801   5.886   4.986
 9606SOL    HW229718   1.883   6.028   4.992
 9607SOL     OW29719   0.965   2.100   2.086
 9607SOL    HW129720   1.025   2.078   2.163
 9607SOL    HW229721   0.984   2.039   2.009
 9608SOL     OW29722   6.507   6.595   1.675
 9608SOL    HW129723   6.581   6.584   1.741
 9608SOL    HW229724   6.483   6.692   1.669
 9609SOL     OW29725   1.588   3.912   5.654
 9609SOL    HW129726   1.600   3.813   5.647
 9609SOL    HW229727   1.664   3.950   5.707
 9610SOL     OW29728   1.478   4.387   4.002
 9610SOL    HW129729   1.522   4.477   4.000
 9610SOL    HW229730   1.443   4.368   4.094
 9611SOL     OW29731   0.114   6.819   0.062
 9611SOL    HW129732   0.017   6.823   0.083
 9611SOL    HW229733   0.135   6.734   0.013
 9612SOL     OW29734   6.504   3.536   1.383
 9612SOL    HW129735   6.422   3.494   1.343
 9612SOL    HW229736   6.579   3.531   1.318
 9613SOL     OW29737   3.614   6.137   3.475
 9613SOL    HW129738   3.589   6.081   3.396
 9613SOL    HW229739   3.712   6.131   3.491
 9614SOL     OW29740   3.789   2.839   1.248
 9614SOL    HW129741   3.729   2.772   1.293
 9614SOL    HW229742   3.800   2.814   1.152
 9615SOL     OW29743   1.247   6.885   2.406
 9615SOL    HW129744   1.290   6.905   2.494
 9615SOL    HW229745   1.154   6.922   2.405
 9616SOL     OW29746   4.383   3.947   0.669
 9616SOL    HW129747   4.348   3.855   0.651
 9616SOL    HW229748   4.482   3.948   0.656
 9617SOL     OW29749   1.472   3.527   4.605
 9617SOL    HW129750   1.474   3.597   4.533
 9617SOL    HW229751   1.516   3.444   4.572
 9618SOL     OW29752   4.989   0.168   6.106
 9618SOL    HW129753   4.900   0.127   6.126
 9618SOL    HW229754   5.054   0.095   6.084
 9619SOL     OW29755   1.297   0.408   0.680
 9619SOL    HW129756   1.304   0.361   0.768
 9619SOL    HW229757   1.286   0.506   0.696
 9620SOL     OW29758   5.600   1.673   6.481
 9620SOL    HW129759   5.527   1.610   6.455
 9620SOL    HW229760   5.678   1.660   6.420
 9621SOL     OW29761   1.781   1.516   2.951
 9621SOL    HW129762   1.791   1.589   2.884
 9621SOL    HW229763   1.689   1.517   2.988
 9622SOL     OW29764   6.199   1.169   6.555
 9622SOL    HW129765   6.174   1.254   6.600
 9622SOL    HW229766   6.124   1.138   6.497
 9623SOL     OW29767   4.279   5.425   5.494
 9623SOL    HW129768   4.340   5.461   5.422
 9623SOL    HW229769   4.307   5.462   5.582
 9624SOL     OW29770   5.347   4.361   4.026
 9624SOL    HW129771   5.443   4.361   4.054
 9624SOL    HW229772   5.339   4.318   3.936
 9625SOL     OW29773   4.993   4.574   6.484
 9625SOL    HW129774   5.089   4.545   6.487
 9625SOL    HW229775   4.937   4.510   6.536
 9626SOL     OW29776   2.307   5.919   5.556
 9626SOL    HW129777   2.240   5.872   5.612
 9626SOL    HW229778   2.275   6.012   5.535
 9627SOL     OW29779   6.896   3.999   4.631
 9627SOL    HW129780   6.902   3.936   4.709
 9627SOL    HW229781   6.963   3.973   4.562
 9628SOL     OW29782   6.175   4.334   0.352
 9628SOL    HW129783   6.093   4.332   0.409
 9628SOL    HW229784   6.245   4.390   0.397
 9629SOL     OW29785   6.733   5.586   2.391
 9629SOL    HW129786   6.746   5.659   2.458
 9629SOL    HW229787   6.808   5.589   2.325
 9630SOL     OW29788   6.424   6.616   5.521
 9630SOL    HW129789   6.507   6.591   5.570
 9630SOL    HW229790   6.404   6.548   5.451
 9631SOL     OW29791   4.766   1.887   0.767
 9631SOL    HW129792   4.797   1.895   0.861
 9631SOL    HW229793   4.733   1.794   0.750
 9632SOL     OW29794   2.476   5.562   1.778
 9632SOL    HW129795   2.390   5.518   1.752
 9632SOL    HW229796   2.474   5.587   1.875
 9633SOL     OW29797   3.876   4.179   0.375
 9633SOL    HW129798   3.881   4.275   0.348
 9633SOL    HW229799   3.963   4.150   0.414
 9634SOL     OW29800   0.291   6.052   3.474
 9634SOL    HW129801   0.354   5.975   3.477
 9634SOL    HW229802   0.201   6.021   3.443
 9635SOL     OW29803   2.134   4.370   5.288
 9635SOL    HW129804   2.198   4.305   5.329
 9635SOL    HW229805   2.097   4.331   5.203
 9636SOL     OW29806   4.457   1.796   6.117
 9636SOL    HW129807   4.409   1.752   6.041
 9636SOL    HW229808   4.552   1.764   6.120
 9637SOL     OW29809   3.544   2.527   0.689
 9637SOL    HW129810   3.609   2.542   0.764
 9637SOL    HW229811   3.526   2.430   0.679
 9638SOL     OW29812   0.102   3.159   5.515
 9638SOL    HW129813   0.085   3.065   5.546
 9638SOL    HW229814   0.132   3.215   5.592
 9639SOL     OW29815   4.197   2.245   1.930
 9639SOL    HW129816   4.207   2.278   2.024
 9639SOL    HW229817   4.112   2.194   1.921
 9640SOL     OW29818   3.119   0.404   2.837
 9640SOL    HW129819   3.202   0.430   2.887
 9640SOL    HW229820   3.048   0.474   2.852
 9641SOL     OW29821   5.518   5.756   1.714
 9641SOL    HW129822   5.536   5.723   1.621
 9641SOL    HW229823   5.562   5.696   1.780
 9642SOL     OW29824   1.227   6.026   4.429
 9642SOL    HW129825   1.301   6.091   4.418
 9642SOL    HW229826   1.155   6.046   4.362
 9643SOL     OW29827   5.086   4.210   3.424
 9643SOL    HW129828   5.174   4.184   3.464
 9643SOL    HW229829   5.096   4.220   3.325
 9644SOL     OW29830   0.801   5.723   5.508
 9644SOL    HW129831   0.803   5.812   5.462
 9644SOL    HW229832   0.887   5.708   5.557
 9645SOL     OW29833   2.598   4.708   4.069
 9645SOL    HW129834   2.570   4.644   4.140
 9645SOL    HW229835   2.615   4.657   3.984
 9646SOL     OW29836   2.612   5.186   2.006
 9646SOL    HW129837   2.540   5.245   2.044
 9646SOL    HW229838   2.660   5.140   2.081
 9647SOL     OW29839   0.315   6.719   2.780
 9647SOL    HW129840   0.264   6.765   2.853
 9647SOL    HW229841   0.403   6.765   2.767
 9648SOL     OW29842   3.819   2.783   6.678
 9648SOL    HW129843   3.769   2.786   6.591
 9648SOL    HW229844   3.753   2.774   6.753
 9649SOL     OW29845   1.877   4.326   0.032
 9649SOL    HW129846   1.909   4.277   6.968
 9649SOL    HW229847   1.783   4.358   0.017
 9650SOL     OW29848   4.968   4.841   3.133
 9650SOL    HW129849   5.014   4.930   3.125
 9650SOL    HW229850   5.009   4.777   3.068
 9651SOL     OW29851   5.364   1.261   0.913
 9651SOL    HW129852   5.342   1.279   1.008
 9651SOL    HW229853   5.314   1.180   0.882
 9652SOL     OW29854   1.296   4.621   1.904
 9652SOL    HW129855   1.302   4.548   1.836
 9652SOL    HW229856   1.214   4.607   1.960
 9653SOL     OW29857   4.845   5.110   4.555
 9653SOL    HW129858   4.791   5.052   4.495
 9653SOL    HW229859   4.942   5.099   4.534
 9654SOL     OW29860   3.130   3.110   3.018
 9654SOL    HW129861   3.051   3.155   2.977
 9654SOL    HW229862   3.100   3.051   3.093
 9655SOL     OW29863   0.142   1.724   0.360
 9655SOL    HW129864   0.176   1.700   0.269
 9655SOL    HW229865   0.042   1.730   0.358
 9656SOL     OW29866   4.161   2.871   1.399
 9656SOL    HW129867   4.200   2.796   1.346
 9656SOL    HW229868   4.177   2.855   1.496
 9657SOL     OW29869   5.703   3.431   2.423
 9657SOL    HW129870   5.614   3.428   2.468
 9657SOL    HW229871   5.706   3.510   2.362
 9658SOL     OW29872   5.428   1.435   2.365
 9658SOL    HW129873   5.430   1.380   2.281
 9658SOL    HW229874   5.382   1.521   2.346
 9659SOL     OW29875   0.499   3.632   6.740
 9659SOL    HW129876   0.580   3.595   6.785
 9659SOL    HW229877   0.465   3.711   6.793
 9660SOL     OW29878   0.776   6.767   3.018
 9660SOL    HW129879   0.853   6.823   3.048
 9660SOL    HW229880   0.760   6.783   2.920
 9661SOL     OW29881   3.530   6.198   1.498
 9661SOL    HW129882   3.627   6.213   1.517
 9661SOL    HW229883   3.477   6.271   1.540
 9662SOL     OW29884   4.177   3.043   6.035
 9662SOL    HW129885   4.183   3.108   6.111
 9662SOL    HW229886   4.269   3.010   6.012
 9663SOL     OW29887   0.020   6.091   2.287
 9663SOL    HW129888   6.938   6.099   2.296
 9663SOL    HW229889   0.062   6.181   2.289
 9664SOL     OW29890   5.709   5.363   4.346
 9664SOL    HW129891   5.717   5.418   4.429
 9664SOL    HW229892   5.652   5.283   4.364
 9665SOL     OW29893   5.863   6.373   6.262
 9665SOL    HW129894   5.853   6.359   6.360
 9665SOL    HW229895   5.944   6.324   6.229
 9666SOL     OW29896   6.325   4.110   2.227
 9666SOL    HW129897   6.414   4.066   2.225
 9666SOL    HW229898   6.330   4.192   2.283
 9667SOL     OW29899   4.216   3.769   0.004
 9667SOL    HW129900   4.129   3.723   7.000
 9667SOL    HW229901   4.201   3.868   0.007
 9668SOL     OW29902   0.361   0.655   6.151
 9668SOL    HW129903   0.421   0.685   6.226
 9668SOL    HW229904   0.410   0.590   6.094
 9669SOL     OW29905   1.984   0.035   1.582
 9669SOL    HW129906   2.009   6.972   1.636
 9669SOL    HW229907   1.885   0.047   1.584
 9670SOL     OW29908   0.149   4.778   6.105
 9670SOL    HW129909   0.182   4.759   6.012
 9670SOL    HW229910   0.167   4.874   6.128
 9671SOL     OW29911   0.163   4.553   0.153
 9671SOL    HW129912   0.221   4.482   0.114
 9671SOL    HW229913   0.093   4.510   0.211
 9672SOL     OW29914   1.629   5.436   3.463
 9672SOL    HW129915   1.577   5.354   3.441
 9672SOL    HW229916   1.700   5.413   3.530
 9673SOL     OW29917   4.178   4.001   1.405
 9673SOL    HW129918   4.080   4.007   1.420
 9673SOL    HW229919   4.207   3.905   1.414
 9674SOL     OW29920   3.273   6.676   3.270
 9674SOL    HW129921   3.284   6.750   3.337
 9674SOL    HW229922   3.313   6.704   3.183
 9675SOL     OW29923   5.501   2.273   6.080
 9675SOL    HW129924   5.544   2.360   6.105
 9675SOL    HW229925   5.571   2.204   6.066
 9676SOL     OW29926   1.156   3.131   5.751
 9676SOL    HW129927   1.219   3.200   5.785
 9676SOL    HW229928   1.126   3.155   5.659
 9677SOL     OW29929   6.716   5.631   4.860
 9677SOL    HW129930   6.658   5.683   4.797
 9677SOL    HW229931   6.682   5.644   4.953
 9678SOL     OW29932   3.036   3.949   3.881
 9678SOL    HW129933   3.080   3.879   3.937
 9678SOL    HW229934   2.986   3.905   3.807
 9679SOL     OW29935   2.982   0.268   3.508
 9679SOL    HW129936   2.993   0.186   3.452
 9679SOL    HW229937   2.970   0.243   3.604
 9680SOL     OW29938   3.986   0.881   3.464
 9680SOL    HW129939   4.072   0.851   3.422
 9680SOL    HW229940   3.948   0.957   3.411
 9681SOL     OW29941   2.731   1.846   0.719
 9681SOL    HW129942   2.654   1.832   0.656
 9681SOL    HW229943   2.728   1.940   0.754
 9682SOL     OW29944   4.809   4.365   3.436
 9682SOL    HW129945   4.806   4.435   3.507
 9682SOL    HW229946   4.783   4.406   3.348
 9683SOL     OW29947   3.444   6.380   1.673
 9683SOL    HW129948   3.360   6.433   1.657
 9683SOL    HW229949   3.423   6.302   1.732
 9684SOL     OW29950   1.098   3.403   6.262
 9684SOL    HW129951   1.155   3.462   6.318
 9684SOL    HW229952   1.136   3.311   6.261
 9685SOL     OW29953   4.085   4.511   0.617
 9685SOL    HW129954   3.995   4.478   0.646
 9685SOL    HW229955   4.110   4.591   0.671
 9686SOL     OW29956   0.695   3.225   6.673
 9686SOL    HW129957   0.679   3.268   6.762
 9686SOL    HW229958   0.775   3.164   6.680
 9687SOL     OW29959   0.869   0.902   4.181
 9687SOL    HW129960   0.874   0.861   4.090
 9687SOL    HW229961   0.775   0.931   4.199
 9688SOL     OW29962   1.593   2.750   1.274
 9688SOL    HW129963   1.534   2.674   1.245
 9688SOL    HW229964   1.596   2.755   1.373
 9689SOL     OW29965   0.729   4.456   6.266
 9689SOL    HW129966   0.716   4.487   6.171
 9689SOL    HW229967   0.742   4.357   6.268
 9690SOL     OW29968   6.082   5.799   6.766
 9690SOL    HW129969   6.078   5.806   6.866
 9690SOL    HW229970   6.018   5.729   6.734
 9691SOL     OW29971   3.475   4.917   1.165
 9691SOL    HW129972   3.515   4.928   1.256
 9691SOL    HW229973   3.446   4.822   1.153
 9692SOL     OW29974   4.021   5.923   2.010
 9692SOL    HW129975   3.966   5.877   1.941
 9692SOL    HW229976   3.979   6.011   2.033
 9693SOL     OW29977   5.300   3.983   2.698
 9693SOL    HW129978   5.214   4.028   2.676
 9693SOL    HW229979   5.313   3.903   2.638
 9694SOL     OW29980   3.142   1.154   1.718
 9694SOL    HW129981   3.132   1.253   1.716
 9694SOL    HW229982   3.053   1.111   1.730
 9695SOL     OW29983   0.366   2.938   3.332
 9695SOL    HW129984   0.353   2.841   3.310
 9695SOL    HW229985   0.303   2.993   3.278
 9696SOL     OW29986   5.457   2.842   1.222
 9696SOL    HW129987   5.498   2.874   1.308
 9696SOL    HW229988   5.376   2.787   1.242
 9697SOL     OW29989   0.246   5.228   0.155
 9697SOL    HW129990   0.344   5.240   0.138
 9697SOL    HW229991   0.195   5.266   0.078
 9698SOL     OW29992   5.105   1.859   6.005
 9698SOL    HW129993   5.137   1.766   5.985
 9698SOL    HW229994   5.038   1.887   5.936
 9699SOL     OW29995   6.313   6.179   6.389
 9699SOL    HW129996   6.324   6.278   6.375
 9699SOL    HW229997   6.371   6.150   6.464
 9700SOL     OW29998   4.933   5.913   5.040
 9700SOL    HW129999   4.837   5.917   5.014
 9700SOL    HW230000   4.975   5.832   5.000
 9701SOL     OW30001   4.236   5.176   5.573
 9701SOL    HW130002   4.252   5.261   5.524
 9701SOL    HW230003   4.278   5.100   5.524
 9702SOL     OW30004   4.337   1.301   6.740
 9702SOL    HW130005   4.342   1.358   6.821
 9702SOL    HW230006   4.394   1.340   6.668
 9703SOL     OW30007   4.929   3.959   3.622
 9703SOL    HW130008   4.852   3.904   3.653
 9703SOL    HW230009   5.005   3.899   3.596
 9704SOL     OW30010   3.608   6.595   1.737
 9704SOL    HW130011   3.577   6.630   1.825
 9704SOL    HW230012   3.547   6.522   1.706
 9705SOL     OW30013   5.629   4.056   5.886
 9705SOL    HW130014   5.722   4.091   5.884
 9705SOL    HW230015   5.623   3.973   5.831
 9706SOL     OW30016   1.895   2.838   0.834
 9706SOL    HW130017   1.895   2.905   0.909
 9706SOL    HW230018   1.951   2.759   0.860
 9707SOL     OW30019   6.261   4.350   2.366
 9707SOL    HW130020   6.170   4.321   2.338
 9707SOL    HW230021   6.263   4.449   2.377
 9708SOL     OW30022   1.332   1.786   3.723
 9708SOL    HW130023   1.393   1.813   3.797
 9708SOL    HW230024   1.287   1.700   3.747
 9709SOL     OW30025   5.279   6.349   3.084
 9709SOL    HW130026   5.371   6.310   3.087
 9709SOL    HW230027   5.285   6.449   3.081
 9710SOL     OW30028   0.142   1.981   1.338
 9710SOL    HW130029   0.122   2.007   1.243
 9710SOL    HW230030   0.056   1.969   1.388
 9711SOL     OW30031   3.665   5.346   5.955
 9711SOL    HW130032   3.697   5.253   5.970
 9711SOL    HW230033   3.647   5.361   5.858
 9712SOL     OW30034   5.458   4.070   6.573
 9712SOL    HW130035   5.398   4.135   6.620
 9712SOL    HW230036   5.528   4.038   6.637
 9713SOL     OW30037   1.682   4.340   3.216
 9713SOL    HW130038   1.590   4.340   3.177
 9713SOL    HW230039   1.713   4.245   3.225
 9714SOL     OW30040   4.293   6.232   6.353
 9714SOL    HW130041   4.290   6.195   6.446
 9714SOL    HW230042   4.366   6.300   6.345
 9715SOL     OW30043   5.855   4.407   0.017
 9715SOL    HW130044   5.801   4.376   0.095
 9715SOL    HW230045   5.931   4.344   0.002
 9716SOL     OW30046   3.996   4.836   6.452
 9716SOL    HW130047   4.018   4.774   6.377
 9716SOL    HW230048   4.080   4.864   6.498
 9717SOL     OW30049   5.245   6.439   5.781
 9717SOL    HW130050   5.241   6.527   5.734
 9717SOL    HW230051   5.155   6.395   5.778
 9718SOL     OW30052   5.254   3.288   0.461
 9718SOL    HW130053   5.343   3.262   0.498
 9718SOL    HW230054   5.263   3.375   0.412
 9719SOL     OW30055   6.549   0.780   5.822
 9719SOL    HW130056   6.585   0.702   5.872
 9719SOL    HW230057   6.624   0.840   5.794
 9720SOL     OW30058   0.512   5.266   2.099
 9720SOL    HW130059   0.581   5.198   2.074
 9720SOL    HW230060   0.459   5.291   2.018
 9721SOL     OW30061   0.184   2.054   0.579
 9721SOL    HW130062   0.217   2.077   0.670
 9721SOL    HW230063   0.249   1.991   0.536
 9722SOL     OW30064   4.353   1.189   4.444
 9722SOL    HW130065   4.312   1.278   4.425
 9722SOL    HW230066   4.444   1.185   4.402
 9723SOL     OW30067   3.388   6.746   3.028
 9723SOL    HW130068   3.383   6.817   2.958
 9723SOL    HW230069   3.415   6.660   2.986
 9724SOL     OW30070   1.738   4.895   0.128
 9724SOL    HW130071   1.662   4.876   0.065
 9724SOL    HW230072   1.707   4.957   0.200
 9725SOL     OW30073   5.140   5.326   5.907
 9725SOL    HW130074   5.172   5.242   5.952
 9725SOL    HW230075   5.162   5.321   5.809
 9726SOL     OW30076   5.011   1.410   3.925
 9726SOL    HW130077   5.057   1.445   4.007
 9726SOL    HW230078   5.074   1.415   3.847
 9727SOL     OW30079   1.086   2.402   0.198
 9727SOL    HW130080   1.080   2.450   0.286
 9727SOL    HW230081   1.147   2.453   0.137
 9728SOL     OW30082   1.582   0.142   5.555
 9728SOL    HW130083   1.671   0.148   5.600
 9728SOL    HW230084   1.595   0.135   5.456
 9729SOL     OW30085   1.243   4.438   3.001
 9729SOL    HW130086   1.330   4.486   2.994
 9729SOL    HW230087   1.169   4.501   2.977
 9730SOL     OW30088   1.932   4.170   3.460
 9730SOL    HW130089   1.856   4.124   3.415
 9730SOL    HW230090   1.940   4.264   3.425
 9731SOL     OW30091   5.273   4.558   0.910
 9731SOL    HW130092   5.288   4.549   0.811
 9731SOL    HW230093   5.306   4.475   0.956
 9732SOL     OW30094   6.992   5.063   2.773
 9732SOL    HW130095   6.989   5.089   2.870
 9732SOL    HW230096   0.065   5.027   2.751
 9733SOL     OW30097   5.298   5.546   0.427
 9733SOL    HW130098   5.213   5.538   0.375
 9733SOL    HW230099   5.279   5.540   0.525
 9734SOL     OW30100   6.393   1.790   0.697
 9734SOL    HW130101   6.474   1.735   0.712
 9734SOL    HW230102   6.413   1.863   0.632
 9735SOL     OW30103   2.091   3.553   3.685
 9735SOL    HW130104   2.108   3.458   3.659
 9735SOL    HW230105   2.125   3.569   3.777
 9736SOL     OW30106   5.951   1.833   6.055
 9736SOL    HW130107   5.900   1.751   6.029
 9736SOL    HW230108   6.034   1.806   6.105
 9737SOL     OW30109   5.884   2.688   3.188
 9737SOL    HW130110   5.819   2.749   3.142
 9737SOL    HW230111   5.841   2.599   3.203
 9738SOL     OW30112   2.349   0.308   0.270
 9738SOL    HW130113   2.255   0.289   0.242
 9738SOL    HW230114   2.411   0.251   0.218
 9739SOL     OW30115   5.731   5.318   1.355
 9739SOL    HW130116   5.799   5.286   1.290
 9739SOL    HW230117   5.765   5.400   1.402
 9740SOL     OW30118   6.947   1.176   3.237
 9740SOL    HW130119   6.939   1.215   3.328
 9740SOL    HW230120   6.935   1.076   3.242
 9741SOL     OW30121   3.719   2.011   2.420
 9741SOL    HW130122   3.635   2.051   2.384
 9741SOL    HW230123   3.700   1.918   2.454
 9742SOL     OW30124   4.622   1.372   0.905
 9742SOL    HW130125   4.697   1.411   0.958
 9742SOL    HW230126   4.564   1.316   0.965
 9743SOL     OW30127   6.599   3.200   4.555
 9743SOL    HW130128   6.512   3.149   4.556
 9743SOL    HW230129   6.663   3.156   4.619
 9744SOL     OW30130   2.100   0.016   1.914
 9744SOL    HW130131   2.024   7.014   1.975
 9744SOL    HW230132   2.088   6.984   1.828
 9745SOL     OW30133   5.273   2.574   6.263
 9745SOL    HW130134   5.256   2.519   6.182
 9745SOL    HW230135   5.279   2.514   6.343
 9746SOL     OW30136   6.227   0.304   5.451
 9746SOL    HW130137   6.145   0.285   5.505
 9746SOL    HW230138   6.235   0.236   5.378
 9747SOL     OW30139   2.628   0.923   1.389
 9747SOL    HW130140   2.556   0.873   1.341
 9747SOL    HW230141   2.636   1.015   1.349
 9748SOL     OW30142   0.123   0.633   3.327
 9748SOL    HW130143   0.134   0.618   3.229
 9748SOL    HW230144   0.026   0.640   3.348
 9749SOL     OW30145   2.633   6.910   4.339
 9749SOL    HW130146   2.616   6.855   4.257
 9749SOL    HW230147   2.602   6.860   4.420
 9750SOL     OW30148   5.964   3.655   3.211
 9750SOL    HW130149   5.971   3.555   3.217
 9750SOL    HW230150   5.905   3.688   3.285
 9751SOL     OW30151   2.304   1.049   0.276
 9751SOL    HW130152   2.344   0.966   0.235
 9751SOL    HW230153   2.272   1.028   0.368
 9752SOL     OW30154   4.189   2.252   4.877
 9752SOL    HW130155   4.179   2.218   4.784
 9752SOL    HW230156   4.231   2.342   4.876
 9753SOL     OW30157   6.770   5.426   6.214
 9753SOL    HW130158   6.798   5.445   6.308
 9753SOL    HW230159   6.676   5.457   6.199
 9754SOL     OW30160   2.023   0.606   0.082
 9754SOL    HW130161   2.042   0.669   0.007
 9754SOL    HW230162   2.000   0.657   0.164
 9755SOL     OW30163   3.423   3.860   4.355
 9755SOL    HW130164   3.495   3.800   4.320
 9755SOL    HW230165   3.458   3.953   4.364
 9756SOL     OW30166   5.566   3.312   0.248
 9756SOL    HW130167   5.629   3.242   0.280
 9756SOL    HW230168   5.530   3.286   0.158
 9757SOL     OW30169   5.600   4.318   4.108
 9757SOL    HW130170   5.633   4.233   4.066
 9757SOL    HW230171   5.652   4.396   4.072
 9758SOL     OW30172   3.050   0.276   6.673
 9758SOL    HW130173   3.117   0.208   6.642
 9758SOL    HW230174   3.019   0.330   6.595
 9759SOL     OW30175   1.254   0.484   0.066
 9759SOL    HW130176   1.286   0.571   0.104
 9759SOL    HW230177   1.200   0.435   0.135
 9760SOL     OW30178   4.911   2.776   5.501
 9760SOL    HW130179   4.938   2.866   5.534
 9760SOL    HW230180   4.945   2.764   5.407
 9761SOL     OW30181   6.671   1.464   2.284
 9761SOL    HW130182   6.728   1.416   2.351
 9761SOL    HW230183   6.575   1.441   2.301
 9762SOL     OW30184   3.154   1.762   4.571
 9762SOL    HW130185   3.123   1.841   4.625
 9762SOL    HW230186   3.247   1.777   4.540
 9763SOL     OW30187   4.856   1.851   2.392
 9763SOL    HW130188   4.916   1.820   2.318
 9763SOL    HW230189   4.908   1.851   2.478
 9764SOL     OW30190   0.361   2.669   3.245
 9764SOL    HW130191   0.279   2.637   3.292
 9764SOL    HW230192   0.429   2.597   3.243
 9765SOL     OW30193   6.786   0.199   3.187
 9765SOL    HW130194   6.826   0.107   3.187
 9765SOL    HW230195   6.697   0.197   3.231
 9766SOL     OW30196   2.834   6.806   2.309
 9766SOL    HW130197   2.743   6.763   2.303
 9766SOL    HW230198   2.871   6.792   2.401
 9767SOL     OW30199   4.026   1.157   5.365
 9767SOL    HW130200   3.928   1.165   5.352
 9767SOL    HW230201   4.054   1.213   5.443
 9768SOL     OW30202   5.634   1.609   2.231
 9768SOL    HW130203   5.619   1.526   2.179
 9768SOL    HW230204   5.667   1.586   2.323
 9769SOL     OW30205   3.862   1.435   3.270
 9769SOL    HW130206   3.952   1.462   3.237
 9769SOL    HW230207   3.830   1.355   3.219
 9770SOL     OW30208   4.617   1.472   6.268
 9770SOL    HW130209   4.519   1.466   6.247
 9770SOL    HW230210   4.638   1.564   6.300
 9771SOL     OW30211   2.968   6.350   0.282
 9771SOL    HW130212   2.946   6.362   0.185
 9771SOL    HW230213   2.959   6.438   0.329
 9772SOL     OW30214   2.113   6.000   1.491
 9772SOL    HW130215   2.027   6.050   1.506
 9772SOL    HW230216   2.092   5.907   1.460
 9773SOL     OW30217   4.703   5.530   3.838
 9773SOL    HW130218   4.681   5.437   3.865
 9773SOL    HW230219   4.794   5.554   3.871
 9774SOL     OW30220   0.528   5.319   1.675
 9774SOL    HW130221   0.475   5.294   1.756
 9774SOL    HW230222   0.604   5.255   1.663
 9775SOL     OW30223   2.512   0.561   3.416
 9775SOL    HW130224   2.549   0.644   3.458
 9775SOL    HW230225   2.574   0.484   3.432
 9776SOL     OW30226   1.013   4.986   5.022
 9776SOL    HW130227   1.042   4.979   5.117
 9776SOL    HW230228   0.959   5.069   5.009
 9777SOL     OW30229   6.505   5.915   6.949
 9777SOL    HW130230   6.455   5.896   6.865
 9777SOL    HW230231   6.563   5.995   6.937
 9778SOL     OW30232   6.992   0.788   4.276
 9778SOL    HW130233   6.916   0.840   4.237
 9778SOL    HW230234   0.024   0.845   4.341
 9779SOL     OW30235   1.025   1.381   4.362
 9779SOL    HW130236   0.991   1.293   4.394
 9779SOL    HW230237   0.949   1.435   4.326
 9780SOL     OW30238   2.015   2.632   1.254
 9780SOL    HW130239   2.013   2.627   1.154
 9780SOL    HW230240   1.931   2.592   1.292
 9781SOL     OW30241   2.141   3.536   4.312
 9781SOL    HW130242   2.158   3.540   4.410
 9781SOL    HW230243   2.148   3.442   4.280
 9782SOL     OW30244   0.205   0.971   1.274
 9782SOL    HW130245   0.149   1.033   1.220
 9782SOL    HW230246   0.281   1.023   1.315
 9783SOL     OW30247   4.024   2.214   2.829
 9783SOL    HW130248   3.935   2.213   2.874
 9783SOL    HW230249   4.014   2.184   2.734
 9784SOL     OW30250   3.138   1.660   4.931
 9784SOL    HW130251   3.056   1.680   4.876
 9784SOL    HW230252   3.111   1.648   5.027
 9785SOL     OW30253   1.062   2.412   6.524
 9785SOL    HW130254   0.965   2.405   6.503
 9785SOL    HW230255   1.074   2.446   6.618
 9786SOL     OW30256   2.278   4.209   0.571
 9786SOL    HW130257   2.219   4.214   0.490
 9786SOL    HW230258   2.363   4.162   0.548
 9787SOL     OW30259   3.713   3.849   2.081
 9787SOL    HW130260   3.735   3.896   1.996
 9787SOL    HW230261   3.788   3.789   2.106
 9788SOL     OW30262   0.881   1.098   3.743
 9788SOL    HW130263   0.916   1.077   3.652
 9788SOL    HW230264   0.794   1.050   3.757
 9789SOL     OW30265   1.937   5.610   0.559
 9789SOL    HW130266   1.906   5.643   0.649
 9789SOL    HW230267   2.030   5.643   0.542
 9790SOL     OW30268   6.502   4.528   6.733
 9790SOL    HW130269   6.590   4.491   6.761
 9790SOL    HW230270   6.476   4.603   6.795
 9791SOL     OW30271   0.227   1.352   1.902
 9791SOL    HW130272   0.327   1.358   1.896
 9791SOL    HW230273   0.195   1.277   1.844
 9792SOL     OW30274   4.218   4.842   0.568
 9792SOL    HW130275   4.307   4.838   0.524
 9792SOL    HW230276   4.155   4.897   0.513
 9793SOL     OW30277   4.352   6.452   3.087
 9793SOL    HW130278   4.400   6.532   3.122
 9793SOL    HW230279   4.256   6.474   3.075
 9794SOL     OW30280   6.929   4.172   0.029
 9794SOL    HW130281   6.963   4.152   6.955
 9794SOL    HW230282   6.829   4.176   0.028
 9795SOL     OW30283   2.225   1.630   4.300
 9795SOL    HW130284   2.241   1.666   4.208
 9795SOL    HW230285   2.280   1.682   4.366
 9796SOL     OW30286   3.387   2.780   1.825
 9796SOL    HW130287   3.295   2.815   1.808
 9796SOL    HW230288   3.430   2.833   1.898
 9797SOL     OW30289   2.274   5.434   0.012
 9797SOL    HW130290   2.299   5.442   0.109
 9797SOL    HW230291   2.201   5.367   0.002
 9798SOL     OW30292   2.469   0.450   1.763
 9798SOL    HW130293   2.496   0.372   1.706
 9798SOL    HW230294   2.431   0.522   1.705
 9799SOL     OW30295   2.970   3.267   4.885
 9799SOL    HW130296   3.023   3.199   4.935
 9799SOL    HW230297   2.890   3.223   4.844
 9800SOL     OW30298   4.033   5.528   4.605
 9800SOL    HW130299   3.979   5.445   4.619
 9800SOL    HW230300   4.104   5.535   4.674
 9801SOL     OW30301   4.633   4.315   0.170
 9801SOL    HW130302   4.602   4.404   0.202
 9801SOL    HW230303   4.686   4.327   0.085
 9802SOL     OW30304   0.092   3.784   1.347
 9802SOL    HW130305   0.086   3.882   1.368
 9802SOL    HW230306   7.017   3.746   1.341
 9803SOL     OW30307   0.955   2.434   6.881
 9803SOL    HW130308   0.914   2.486   6.957
 9803SOL    HW230309   1.032   2.485   6.843
 9804SOL     OW30310   1.804   6.318   3.029
 9804SOL    HW130311   1.801   6.260   2.948
 9804SOL    HW230312   1.789   6.413   3.002
 9805SOL     OW30313   1.316   6.662   3.751
 9805SOL    HW130314   1.318   6.689   3.654
 9805SOL    HW230315   1.381   6.588   3.766
 9806SOL     OW30316   1.302   0.818   6.834
 9806SOL    HW130317   1.264   0.859   6.917
 9806SOL    HW230318   1.303   0.718   6.844
 9807SOL     OW30319   3.054   4.417   0.105
 9807SOL    HW130320   3.043   4.434   0.007
 9807SOL    HW230321   3.152   4.415   0.127
 9808SOL     OW30322   3.959   0.155   5.299
 9808SOL    HW130323   3.953   0.117   5.206
 9808SOL    HW230324   3.868   0.157   5.340
 9809SOL     OW30325   1.432   2.585   6.244
 9809SOL    HW130326   1.352   2.553   6.296
 9809SOL    HW230327   1.420   2.562   6.148
 9810SOL     OW30328   2.232   2.812   3.778
 9810SOL    HW130329   2.166   2.742   3.805
 9810SOL    HW230330   2.324   2.774   3.780
 9811SOL     OW30331   5.206   4.588   3.153
 9811SOL    HW130332   5.142   4.542   3.215
 9811SOL    HW230333   5.299   4.562   3.176
 9812SOL     OW30334   3.524   2.534   5.970
 9812SOL    HW130335   3.574   2.454   5.939
 9812SOL    HW230336   3.425   2.517   5.961
 9813SOL     OW30337   5.593   1.560   0.536
 9813SOL    HW130338   5.494   1.565   0.552
 9813SOL    HW230339   5.636   1.643   0.572
 9814SOL     OW30340   6.889   6.962   0.233
 9814SOL    HW130341   6.893   6.885   0.297
 9814SOL    HW230342   6.971   7.017   0.241
 9815SOL     OW30343   5.415   4.244   3.408
 9815SOL    HW130344   5.399   4.155   3.452
 9815SOL    HW230345   5.381   4.316   3.467
 9816SOL     OW30346   0.470   1.244   6.355
 9816SOL    HW130347   0.486   1.326   6.299
 9816SOL    HW230348   0.396   1.261   6.419
 9817SOL     OW30349   2.796   0.301   3.204
 9817SOL    HW130350   2.873   0.251   3.245
 9817SOL    HW230351   2.806   0.300   3.105
 9818SOL     OW30352   1.203   0.710   4.665
 9818SOL    HW130353   1.294   0.669   4.667
 9818SOL    HW230354   1.139   0.652   4.715
 9819SOL     OW30355   4.820   3.001   3.906
 9819SOL    HW130356   4.864   3.077   3.954
 9819SOL    HW230357   4.761   2.951   3.970
 9820SOL     OW30358   4.155   3.349   6.578
 9820SOL    HW130359   4.207   3.404   6.513
 9820SOL    HW230360   4.196   3.258   6.586
 9821SOL     OW30361   5.179   0.722   6.987
 9821SOL    HW130362   5.244   0.661   6.942
 9821SOL    HW230363   5.180   0.704   0.068
 9822SOL     OW30364   2.919   5.960   3.474
 9822SOL    HW130365   2.822   5.979   3.484
 9822SOL    HW230366   2.959   5.941   3.563
 9823SOL     OW30367   2.549   1.271   6.783
 9823SOL    HW130368   2.558   1.209   6.704
 9823SOL    HW230369   2.630   1.328   6.789
 9824SOL     OW30370   1.909   4.685   4.434
 9824SOL    HW130371   1.864   4.602   4.401
 9824SOL    HW230372   2.008   4.669   4.442
 9825SOL     OW30373   5.161   5.877   4.236
 9825SOL    HW130374   5.127   5.926   4.316
 9825SOL    HW230375   5.087   5.866   4.170
 9826SOL     OW30376   4.551   5.238   5.651
 9826SOL    HW130377   4.504   5.312   5.699
 9826SOL    HW230378   4.567   5.264   5.556
 9827SOL     OW30379   1.948   3.973   3.893
 9827SOL    HW130380   1.987   4.063   3.913
 9827SOL    HW230381   1.946   3.959   3.794
 9828SOL     OW30382   2.228   2.158   5.400
 9828SOL    HW130383   2.278   2.190   5.480
 9828SOL    HW230384   2.150   2.218   5.383
 9829SOL     OW30385   4.489   5.415   6.089
 9829SOL    HW130386   4.518   5.320   6.093
 9829SOL    HW230387   4.566   5.475   6.112
 9830SOL     OW30388   4.858   2.465   2.144
 9830SOL    HW130389   4.863   2.407   2.226
 9830SOL    HW230390   4.785   2.533   2.155
 9831SOL     OW30391   1.613   4.966   1.912
 9831SOL    HW130392   1.685   4.906   1.947
 9831SOL    HW230393   1.653   5.055   1.887
 9832SOL     OW30394   4.948   5.621   2.320
 9832SOL    HW130395   4.937   5.640   2.223
 9832SOL    HW230396   4.950   5.522   2.335
 9833SOL     OW30397   3.052   3.294   4.600
 9833SOL    HW130398   3.073   3.247   4.686
 9833SOL    HW230399   2.994   3.235   4.543
 9834SOL     OW30400   2.343   4.148   5.365
 9834SOL    HW130401   2.431   4.191   5.387
 9834SOL    HW230402   2.355   4.080   5.293
 9835SOL     OW30403   4.183   3.574   5.187
 9835SOL    HW130404   4.114   3.596   5.118
 9835SOL    HW230405   4.172   3.479   5.216
 9836SOL     OW30406   6.690   3.999   3.506
 9836SOL    HW130407   6.724   3.967   3.594
 9836SOL    HW230408   6.689   4.099   3.505
 9837SOL     OW30409   3.761   0.492   2.411
 9837SOL    HW130410   3.669   0.462   2.386
 9837SOL    HW230411   3.804   0.536   2.332
 9838SOL     OW30412   1.651   6.844   0.628
 9838SOL    HW130413   1.730   6.842   0.689
 9838SOL    HW230414   1.568   6.862   0.681
 9839SOL     OW30415   5.161   0.146   3.802
 9839SOL    HW130416   5.158   0.245   3.813
 9839SOL    HW230417   5.096   0.119   3.731
 9840SOL     OW30418   5.449   1.732   0.879
 9840SOL    HW130419   5.460   1.655   0.942
 9840SOL    HW230420   5.505   1.808   0.911
 9841SOL     OW30421   1.711   4.391   5.084
 9841SOL    HW130422   1.706   4.294   5.061
 9841SOL    HW230423   1.620   4.422   5.115
 9842SOL     OW30424   3.027   3.062   2.174
 9842SOL    HW130425   2.980   2.974   2.170
 9842SOL    HW230426   3.001   3.118   2.096
 9843SOL     OW30427   6.534   0.932   1.740
 9843SOL    HW130428   6.583   0.996   1.799
 9843SOL    HW230429   6.480   0.869   1.796
 9844SOL     OW30430   6.595   0.989   2.827
 9844SOL    HW130431   6.651   1.071   2.836
 9844SOL    HW230432   6.511   1.001   2.880
 9845SOL     OW30433   1.847   2.877   3.348
 9845SOL    HW130434   1.908   2.809   3.389
 9845SOL    HW230435   1.830   2.853   3.252
 9846SOL     OW30436   3.418   2.401   1.348
 9846SOL    HW130437   3.385   2.430   1.438
 9846SOL    HW230438   3.371   2.318   1.320
 9847SOL     OW30439   3.670   2.984   3.456
 9847SOL    HW130440   3.626   2.949   3.538
 9847SOL    HW230441   3.769   2.983   3.468
 9848SOL     OW30442   4.341   3.047   5.275
 9848SOL    HW130443   4.357   3.105   5.354
 9848SOL    HW230444   4.323   2.953   5.305
 9849SOL     OW30445   0.842   6.920   5.747
 9849SOL    HW130446   0.844   6.890   5.842
 9849SOL    HW230447   0.753   6.899   5.707
 9850SOL     OW30448   6.341   0.018   3.633
 9850SOL    HW130449   6.423   0.069   3.659
 9850SOL    HW230450   6.260   0.075   3.646
 9851SOL     OW30451   0.135   0.201   4.550
 9851SOL    HW130452   0.047   0.210   4.505
 9851SOL    HW230453   0.141   0.112   4.595
 9852SOL     OW30454   3.300   1.576   4.026
 9852SOL    HW130455   3.202   1.595   4.026
 9852SOL    HW230456   3.316   1.481   4.053
 9853SOL     OW30457   5.227   3.949   4.788
 9853SOL    HW130458   5.325   3.969   4.797
 9853SOL    HW230459   5.209   3.913   4.696
 9854SOL     OW30460   6.507   5.969   4.655
 9854SOL    HW130461   6.598   5.981   4.696
 9854SOL    HW230462   6.502   6.022   4.570
 9855SOL     OW30463   2.143   3.711   1.234
 9855SOL    HW130464   2.066   3.757   1.278
 9855SOL    HW230465   2.214   3.692   1.302
 9856SOL     OW30466   4.965   4.223   4.512
 9856SOL    HW130467   4.866   4.217   4.518
 9856SOL    HW230468   5.007   4.157   4.574
 9857SOL     OW30469   5.275   3.390   2.750
 9857SOL    HW130470   5.309   3.341   2.830
 9857SOL    HW230471   5.209   3.459   2.778
 9858SOL     OW30472   6.676   6.978   1.503
 9858SOL    HW130473   6.699   6.974   1.405
 9858SOL    HW230474   6.622   0.043   1.521
 9859SOL     OW30475   6.242   6.047   2.348
 9859SOL    HW130476   6.236   6.147   2.353
 9859SOL    HW230477   6.236   6.009   2.440
 9860SOL     OW30478   1.913   2.594   3.517
 9860SOL    HW130479   1.897   2.498   3.491
 9860SOL    HW230480   1.839   2.651   3.482
 9861SOL     OW30481   2.722   0.402   3.475
 9861SOL    HW130482   2.779   0.327   3.442
 9861SOL    HW230483   2.780   0.468   3.525
 9862SOL     OW30484   3.474   3.036   6.886
 9862SOL    HW130485   3.376   3.022   6.901
 9862SOL    HW230486   3.500   2.997   6.798
 9863SOL     OW30487   3.622   6.693   2.336
 9863SOL    HW130488   3.624   6.783   2.293
 9863SOL    HW230489   3.527   6.665   2.352
 9864SOL     OW30490   3.576   6.878   3.801
 9864SOL    HW130491   3.584   6.817   3.880
 9864SOL    HW230492   3.632   6.959   3.816
 9865SOL     OW30493   1.390   0.001   4.257
 9865SOL    HW130494   1.367   7.001   4.353
 9865SOL    HW230495   1.447   6.943   4.223
 9866SOL     OW30496   5.049   4.202   5.983
 9866SOL    HW130497   5.040   4.168   5.889
 9866SOL    HW230498   5.135   4.169   6.022
 9867SOL     OW30499   6.578   1.670   1.050
 9867SOL    HW130500   6.661   1.618   1.075
 9867SOL    HW230501   6.569   1.672   0.950
 9868SOL     OW30502   0.450   3.381   4.858
 9868SOL    HW130503   0.442   3.308   4.926
 9868SOL    HW230504   0.542   3.383   4.820
 9869SOL     OW30505   0.523   2.348   1.454
 9869SOL    HW130506   0.602   2.323   1.510
 9869SOL    HW230507   0.439   2.342   1.508
 9870SOL     OW30508   3.995   5.784   2.250
 9870SOL    HW130509   4.020   5.843   2.173
 9870SOL    HW230510   4.075   5.731   2.278
 9871SOL     OW30511   6.470   4.606   5.835
 9871SOL    HW130512   6.496   4.545   5.760
 9871SOL    HW230513   6.409   4.677   5.801
 9872SOL     OW30514   2.992   5.371   4.974
 9872SOL    HW130515   2.955   5.286   4.936
 9872SOL    HW230516   3.084   5.354   5.010
 9873SOL     OW30517   2.351   2.465   0.827
 9873SOL    HW130518   2.406   2.389   0.792
 9873SOL    HW230519   2.273   2.429   0.878
 9874SOL     OW30520   5.391   3.477   4.847
 9874SOL    HW130521   5.407   3.523   4.935
 9874SOL    HW230522   5.477   3.437   4.815
 9875SOL     OW30523   5.854   5.689   1.859
 9875SOL    HW130524   5.898   5.703   1.948
 9875SOL    HW230525   5.767   5.642   1.871
 9876SOL     OW30526   5.734   0.944   4.009
 9876SOL    HW130527   5.742   1.033   4.054
 9876SOL    HW230528   5.665   0.889   4.055
 9877SOL     OW30529   6.550   4.637   4.456
 9877SOL    HW130530   6.643   4.603   4.467
 9877SOL    HW230531   6.553   4.735   4.435
 9878SOL     OW30532   2.786   4.077   5.645
 9878SOL    HW130533   2.855   4.129   5.595
 9878SOL    HW230534   2.825   4.045   5.732
 9879SOL     OW30535   5.197   5.685   5.211
 9879SOL    HW130536   5.107   5.661   5.176
 9879SOL    HW230537   5.267   5.630   5.165
 9880SOL     OW30538   3.235   1.001   0.178
 9880SOL    HW130539   3.160   1.041   0.126
 9880SOL    HW230540   3.282   0.933   0.121
 9881SOL     OW30541   0.345   1.874   5.234
 9881SOL    HW130542   0.409   1.799   5.250
 9881SOL    HW230543   0.319   1.877   5.138
 9882SOL     OW30544   1.705   3.644   5.207
 9882SOL    HW130545   1.609   3.672   5.206
 9882SOL    HW230546   1.711   3.547   5.184
 9883SOL     OW30547   1.476   6.243   1.140
 9883SOL    HW130548   1.505   6.324   1.090
 9883SOL    HW230549   1.393   6.206   1.099
 9884SOL     OW30550   4.802   1.740   1.177
 9884SOL    HW130551   4.720   1.793   1.201
 9884SOL    HW230552   4.878   1.768   1.237
 9885SOL     OW30553   6.670   2.002   4.892
 9885SOL    HW130554   6.724   2.030   4.812
 9885SOL    HW230555   6.690   2.063   4.969
 9886SOL     OW30556   1.061   5.308   1.877
 9886SOL    HW130557   1.093   5.401   1.862
 9886SOL    HW230558   1.107   5.246   1.813
 9887SOL     OW30559   3.944   0.189   0.120
 9887SOL    HW130560   3.863   0.131   0.106
 9887SOL    HW230561   4.004   0.182   0.041
 9888SOL     OW30562   5.259   5.331   2.820
 9888SOL    HW130563   5.217   5.283   2.743
 9888SOL    HW230564   5.288   5.422   2.791
 9889SOL     OW30565   6.249   4.464   0.903
 9889SOL    HW130566   6.180   4.427   0.966
 9889SOL    HW230567   6.322   4.507   0.955
 9890SOL     OW30568   0.507   2.102   1.004
 9890SOL    HW130569   0.597   2.130   0.971
 9890SOL    HW230570   0.507   2.098   1.104
 9891SOL     OW30571   6.174   3.335   1.401
 9891SOL    HW130572   6.249   3.274   1.428
 9891SOL    HW230573   6.087   3.286   1.405
 9892SOL     OW30574   1.208   5.007   2.569
 9892SOL    HW130575   1.225   4.988   2.472
 9892SOL    HW230576   1.242   5.098   2.592
 9893SOL     OW30577   6.646   0.139   2.535
 9893SOL    HW130578   6.703   0.198   2.592
 9893SOL    HW230579   6.600   0.071   2.591
 9894SOL     OW30580   3.175   2.037   6.940
 9894SOL    HW130581   3.209   2.107   6.877
 9894SOL    HW230582   3.179   2.072   0.016
 9895SOL     OW30583   5.086   3.223   5.353
 9895SOL    HW130584   5.148   3.231   5.275
 9895SOL    HW230585   5.013   3.291   5.345
 9896SOL     OW30586   5.460   1.143   0.541
 9896SOL    HW130587   5.407   1.195   0.608
 9896SOL    HW230588   5.410   1.139   0.455
 9897SOL     OW30589   5.385   6.978   2.245
 9897SOL    HW130590   5.472   0.004   2.223
 9897SOL    HW230591   5.366   6.990   2.343
 9898SOL     OW30592   0.823   4.544   6.011
 9898SOL    HW130593   0.834   4.555   5.912
 9898SOL    HW230594   0.791   4.630   6.050
 9899SOL     OW30595   0.668   5.361   2.455
 9899SOL    HW130596   0.754   5.344   2.406
 9899SOL    HW230597   0.649   5.459   2.455
 9900SOL     OW30598   1.658   3.186   2.256
 9900SOL    HW130599   1.634   3.275   2.294
 9900SOL    HW230600   1.749   3.160   2.288
 9901SOL     OW30601   2.769   0.779   6.897
 9901SOL    HW130602   2.793   0.826   6.982
 9901SOL    HW230603   2.719   0.695   6.918
 9902SOL     OW30604   4.011   4.168   1.055
 9902SOL    HW130605   4.060   4.103   1.112
 9902SOL    HW230606   3.969   4.121   0.977
 9903SOL     OW30607   5.408   2.065   1.698
 9903SOL    HW130608   5.379   2.015   1.616
 9903SOL    HW230609   5.349   2.040   1.775
 9904SOL     OW30610   0.913   3.232   6.317
 9904SOL    HW130611   0.959   3.314   6.285
 9904SOL    HW230612   0.892   3.172   6.240
 9905SOL     OW30613   1.836   0.395   6.232
 9905SOL    HW130614   1.891   0.477   6.215
 9905SOL    HW230615   1.849   0.366   6.327
 9906SOL     OW30616   1.553   3.552   0.544
 9906SOL    HW130617   1.486   3.625   0.549
 9906SOL    HW230618   1.522   3.474   0.599
 9907SOL     OW30619   1.714   1.011   2.146
 9907SOL    HW130620   1.806   0.971   2.140
 9907SOL    HW230621   1.719   1.099   2.192
 9908SOL     OW30622   0.485   2.601   5.645
 9908SOL    HW130623   0.558   2.568   5.585
 9908SOL    HW230624   0.525   2.654   5.720
 9909SOL     OW30625   3.764   0.631   2.655
 9909SOL    HW130626   3.757   0.555   2.718
 9909SOL    HW230627   3.767   0.597   2.561
 9910SOL     OW30628   1.812   5.315   1.784
 9910SOL    HW130629   1.794   5.404   1.826
 9910SOL    HW230630   1.911   5.298   1.784
 9911SOL     OW30631   3.464   5.786   2.481
 9911SOL    HW130632   3.503   5.852   2.417
 9911SOL    HW230633   3.437   5.704   2.431
 9912SOL     OW30634   4.565   1.200   1.823
 9912SOL    HW130635   4.527   1.278   1.774
 9912SOL    HW230636   4.624   1.232   1.897
 9913SOL     OW30637   6.071   2.976   1.147
 9913SOL    HW130638   5.979   2.957   1.111
 9913SOL    HW230639   6.089   3.075   1.140
 9914SOL     OW30640   6.781   6.756   5.361
 9914SOL    HW130641   6.696   6.739   5.311
 9914SOL    HW230642   6.859   6.732   5.303
 9915SOL     OW30643   5.820   1.948   3.342
 9915SOL    HW130644   5.824   2.031   3.286
 9915SOL    HW230645   5.844   1.869   3.286
 9916SOL     OW30646   2.012   1.991   3.843
 9916SOL    HW130647   1.988   1.951   3.931
 9916SOL    HW230648   1.979   1.931   3.769
 9917SOL     OW30649   3.616   3.842   5.146
 9917SOL    HW130650   3.592   3.891   5.062
 9917SOL    HW230651   3.581   3.749   5.141
 9918SOL     OW30652   1.033   2.965   2.229
 9918SOL    HW130653   1.084   2.935   2.149
 9918SOL    HW230654   1.053   3.061   2.248
 9919SOL     OW30655   2.193   5.625   2.341
 9919SOL    HW130656   2.142   5.638   2.256
 9919SOL    HW230657   2.230   5.713   2.371
 9920SOL     OW30658   4.295   0.545   2.788
 9920SOL    HW130659   4.239   0.616   2.745
 9920SOL    HW230660   4.373   0.525   2.728
 9921SOL     OW30661   4.328   0.060   5.056
 9921SOL    HW130662   4.298   0.104   5.140
 9921SOL    HW230663   4.401   0.114   5.014
 9922SOL     OW30664   4.238   4.549   1.082
 9922SOL    HW130665   4.173   4.547   1.007
 9922SOL    HW230666   4.301   4.472   1.074
 9923SOL     OW30667   6.200   3.355   0.370
 9923SOL    HW130668   6.261   3.381   0.294
 9923SOL    HW230669   6.193   3.431   0.434
 9924SOL     OW30670   4.894   1.908   2.806
 9924SOL    HW130671   4.851   1.998   2.814
 9924SOL    HW230672   4.875   1.855   2.889
 9925SOL     OW30673   1.225   4.969   3.710
 9925SOL    HW130674   1.131   4.946   3.685
 9925SOL    HW230675   1.239   5.067   3.700
 9926SOL     OW30676   4.278   2.946   0.564
 9926SOL    HW130677   4.184   2.978   0.549
 9926SOL    HW230678   4.315   2.990   0.646
 9927SOL     OW30679   1.035   1.240   0.991
 9927SOL    HW130680   1.081   1.251   0.903
 9927SOL    HW230681   1.042   1.144   1.020
 9928SOL     OW30682   5.451   3.806   2.847
 9928SOL    HW130683   5.420   3.884   2.793
 9928SOL    HW230684   5.519   3.754   2.794
 9929SOL     OW30685   3.193   4.114   4.542
 9929SOL    HW130686   3.256   4.182   4.578
 9929SOL    HW230687   3.218   4.092   4.447
 9930SOL     OW30688   0.694   0.150   6.630
 9930SOL    HW130689   0.680   0.130   6.533
 9930SOL    HW230690   0.776   0.207   6.641
 9931SOL     OW30691   0.145   5.706   3.887
 9931SOL    HW130692   0.176   5.612   3.897
 9931SOL    HW230693   0.058   5.718   3.935
 9932SOL     OW30694   2.977   2.052   5.998
 9932SOL    HW130695   2.928   2.120   5.942
 9932SOL    HW230696   3.034   2.100   6.065
 9933SOL     OW30697   1.456   0.041   3.841
 9933SOL    HW130698   1.550   0.041   3.806
 9933SOL    HW230699   1.395   0.081   3.772
 9934SOL     OW30700   6.282   1.851   6.441
 9934SOL    HW130701   6.312   1.811   6.528
 9934SOL    HW230702   6.325   1.941   6.430
 9935SOL     OW30703   3.132   0.035   0.940
 9935SOL    HW130704   3.050   0.093   0.936
 9935SOL    HW230705   3.131   6.999   1.025
 9936SOL     OW30706   6.212   4.730   0.802
 9936SOL    HW130707   6.222   4.634   0.827
 9936SOL    HW230708   6.263   4.749   0.718
 9937SOL     OW30709   0.754   1.419   1.985
 9937SOL    HW130710   0.800   1.341   1.944
 9937SOL    HW230711   0.821   1.473   2.037
 9938SOL     OW30712   5.604   6.211   4.259
 9938SOL    HW130713   5.565   6.142   4.320
 9938SOL    HW230714   5.552   6.213   4.174
 9939SOL     OW30715   2.935   3.546   0.649
 9939SOL    HW130716   3.018   3.494   0.633
 9939SOL    HW230717   2.888   3.509   0.730
 9940SOL     OW30718   1.477   0.396   2.231
 9940SOL    HW130719   1.500   0.399   2.133
 9940SOL    HW230720   1.436   0.484   2.257
 9941SOL     OW30721   3.168   5.049   5.799
 9941SOL    HW130722   3.122   5.072   5.713
 9941SOL    HW230723   3.151   4.954   5.823
 9942SOL     OW30724   3.819   5.602   2.346
 9942SOL    HW130725   3.887   5.672   2.328
 9942SOL    HW230726   3.743   5.611   2.281
 9943SOL     OW30727   0.969   4.380   6.514
 9943SOL    HW130728   1.048   4.421   6.467
 9943SOL    HW230729   0.922   4.317   6.452
 9944SOL     OW30730   0.962   4.660   6.312
 9944SOL    HW130731   1.049   4.611   6.316
 9944SOL    HW230732   0.887   4.594   6.307
 9945SOL     OW30733   4.787   5.333   6.814
 9945SOL    HW130734   4.690   5.342   6.796
 9945SOL    HW230735   4.805   5.352   6.911
 9946SOL     OW30736   6.224   0.176   3.217
 9946SOL    HW130737   6.235   0.239   3.295
 9946SOL    HW230738   6.184   0.225   3.140
 9947SOL     OW30739   2.845   2.239   4.952
 9947SOL    HW130740   2.939   2.247   4.986
 9947SOL    HW230741   2.781   2.268   5.023
 9948SOL     OW30742   6.106   5.911   4.902
 9948SOL    HW130743   6.107   6.010   4.889
 9948SOL    HW230744   6.028   5.872   4.853
 9949SOL     OW30745   0.357   4.604   3.702
 9949SOL    HW130746   0.282   4.649   3.750
 9949SOL    HW230747   0.389   4.526   3.755
 9950SOL     OW30748   6.224   6.112   6.875
 9950SOL    HW130749   6.292   6.184   6.891
 9950SOL    HW230750   6.271   6.029   6.844
 9951SOL     OW30751   0.961   2.367   3.350
 9951SOL    HW130752   0.960   2.287   3.289
 9951SOL    HW230753   0.907   2.441   3.310
 9952SOL     OW30754   2.241   3.766   0.940
 9952SOL    HW130755   2.299   3.847   0.932
 9952SOL    HW230756   2.268   3.714   1.022
 9953SOL     OW30757   6.030   2.043   4.002
 9953SOL    HW130758   6.073   2.067   4.090
 9953SOL    HW230759   6.029   2.123   3.943
 9954SOL     OW30760   1.397   6.775   5.020
 9954SOL    HW130761   1.433   6.694   4.974
 9954SOL    HW230762   1.406   6.765   5.119
 9955SOL     OW30763   3.860   3.800   6.354
 9955SOL    HW130764   3.881   3.746   6.272
 9955SOL    HW230765   3.946   3.829   6.397
 9956SOL     OW30766   0.730   5.027   3.778
 9956SOL    HW130767   0.790   4.975   3.839
 9956SOL    HW230768   0.656   4.968   3.747
 9957SOL     OW30769   5.739   0.550   1.986
 9957SOL    HW130770   5.694   0.581   2.070
 9957SOL    HW230771   5.837   0.539   2.002
 9958SOL     OW30772   2.604   6.488   6.465
 9958SOL    HW130773   2.617   6.450   6.374
 9958SOL    HW230774   2.692   6.511   6.505
 9959SOL     OW30775   4.153   3.582   3.601
 9959SOL    HW130776   4.245   3.545   3.615
 9959SOL    HW230777   4.139   3.600   3.503
 9960SOL     OW30778   0.994   6.683   2.160
 9960SOL    HW130779   0.934   6.614   2.120
 9960SOL    HW230780   1.068   6.639   2.211
 9961SOL     OW30781   1.307   5.294   3.854
 9961SOL    HW130782   1.286   5.227   3.926
 9961SOL    HW230783   1.388   5.346   3.880
 9962SOL     OW30784   4.518   0.525   2.612
 9962SOL    HW130785   4.562   0.574   2.687
 9962SOL    HW230786   4.524   0.579   2.528
 9963SOL     OW30787   2.150   2.800   5.950
 9963SOL    HW130788   2.178   2.796   6.046
 9963SOL    HW230789   2.207   2.867   5.902
 9964SOL     OW30790   4.226   5.071   5.956
 9964SOL    HW130791   4.322   5.054   5.980
 9964SOL    HW230792   4.167   5.011   6.011
 9965SOL     OW30793   3.673   4.703   5.352
 9965SOL    HW130794   3.583   4.740   5.326
 9965SOL    HW230795   3.744   4.766   5.321
 9966SOL     OW30796   2.588   5.857   2.625
 9966SOL    HW130797   2.504   5.828   2.671
 9966SOL    HW230798   2.564   5.917   2.548
 9967SOL     OW30799   5.089   5.559   2.072
 9967SOL    HW130800   5.036   5.580   1.990
 9967SOL    HW230801   5.165   5.498   2.047
 9968SOL     OW30802   3.346   5.490   6.590
 9968SOL    HW130803   3.279   5.522   6.657
 9968SOL    HW230804   3.436   5.483   6.633
 9969SOL     OW30805   0.725   3.010   4.326
 9969SOL    HW130806   0.794   3.077   4.352
 9969SOL    HW230807   0.712   2.945   4.401
 9970SOL     OW30808   6.326   4.603   2.097
 9970SOL    HW130809   6.314   4.633   2.192
 9970SOL    HW230810   6.422   4.612   2.072
 9971SOL     OW30811   2.526   4.227   0.377
 9971SOL    HW130812   2.487   4.176   0.301
 9971SOL    HW230813   2.514   4.325   0.360
 9972SOL     OW30814   3.770   4.585   0.011
 9972SOL    HW130815   3.695   4.520   0.008
 9972SOL    HW230816   3.760   4.651   6.954
 9973SOL     OW30817   3.820   1.882   4.958
 9973SOL    HW130818   3.780   1.865   5.048
 9973SOL    HW230819   3.862   1.973   4.957
 9974SOL     OW30820   6.570   3.508   3.102
 9974SOL    HW130821   6.496   3.575   3.106
 9974SOL    HW230822   6.582   3.465   3.192
 9975SOL     OW30823   0.072   4.696   6.971
 9975SOL    HW130824   0.123   4.660   0.031
 9975SOL    HW230825   7.017   4.757   7.003
 9976SOL     OW30826   6.407   5.339   5.006
 9976SOL    HW130827   6.472   5.281   4.958
 9976SOL    HW230828   6.428   5.340   5.104
 9977SOL     OW30829   6.646   5.182   5.844
 9977SOL    HW130830   6.618   5.104   5.788
 9977SOL    HW230831   6.580   5.194   5.919
 9978SOL     OW30832   6.229   2.002   4.466
 9978SOL    HW130833   6.217   1.908   4.435
 9978SOL    HW230834   6.319   2.012   4.508
 9979SOL     OW30835   6.628   4.540   6.251
 9979SOL    HW130836   6.542   4.522   6.203
 9979SOL    HW230837   6.674   4.618   6.208
 9980SOL     OW30838   1.366   1.073   6.502
 9980SOL    HW130839   1.393   1.015   6.424
 9980SOL    HW230840   1.381   1.169   6.479
 9981SOL     OW30841   2.359   2.013   1.274
 9981SOL    HW130842   2.390   1.931   1.226
 9981SOL    HW230843   2.350   1.994   1.371
 9982SOL     OW30844   0.952   2.011   2.805
 9982SOL    HW130845   0.940   2.104   2.838
 9982SOL    HW230846   0.875   1.954   2.836
 9983SOL     OW30847   1.030   1.756   1.506
 9983SOL    HW130848   1.099   1.827   1.521
 9983SOL    HW230849   0.940   1.799   1.499
 9984SOL     OW30850   0.973   0.499   0.751
 9984SOL    HW130851   0.949   0.403   0.736
 9984SOL    HW230852   0.893   0.548   0.787
 9985SOL     OW30853   3.362   0.448   1.301
 9985SOL    HW130854   3.341   0.542   1.274
 9985SOL    HW230855   3.391   0.396   1.221
 9986SOL     OW30856   4.885   4.356   6.604
 9986SOL    HW130857   4.936   4.364   6.690
 9986SOL    HW230858   4.791   4.329   6.624
 9987SOL     OW30859   5.414   2.193   2.699
 9987SOL    HW130860   5.490   2.241   2.657
 9987SOL    HW230861   5.330   2.209   2.646
 9988SOL     OW30862   0.193   5.911   4.937
 9988SOL    HW130863   0.270   5.911   5.002
 9988SOL    HW230864   0.121   5.971   4.972
 9989SOL     OW30865   5.229   3.559   3.165
 9989SOL    HW130866   5.328   3.544   3.165
 9989SOL    HW230867   5.203   3.612   3.084
 9990SOL     OW30868   2.477   6.759   3.392
 9990SOL    HW130869   2.443   6.841   3.439
 9990SOL    HW230870   2.476   6.682   3.456
 9991SOL     OW30871   1.261   2.868   4.552
 9991SOL    HW130872   1.311   2.834   4.472
 9991SOL    HW230873   1.271   2.803   4.628
 9992SOL     OW30874   4.751   3.583   0.416
 9992SOL    HW130875   4.748   3.507   0.351
 9992SOL    HW230876   4.816   3.561   0.489
 9993SOL     OW30877   4.861   6.513   2.636
 9993SOL    HW130878   4.784   6.452   2.657
 9993SOL    HW230879   4.829   6.590   2.581
 9994SOL     OW30880   6.874   3.889   4.176
 9994SOL    HW130881   6.935   3.969   4.176
 9994SOL    HW230882   6.784   3.916   4.210
 9995SOL     OW30883   3.178   6.967   3.124
 9995SOL    HW130884   3.259   6.908   3.126
 9995SOL    HW230885   3.180   0.006   3.041
 9996SOL     OW30886   3.027   1.875   1.237
 9996SOL    HW130887   3.016   1.975   1.242
 9996SOL    HW230888   3.107   1.848   1.289
 9997SOL     OW30889   4.343   1.978   0.984
 9997SOL    HW130890   4.297   1.891   0.997
 9997SOL    HW230891   4.420   1.985   1.048
 9998SOL     OW30892   6.554   3.759   2.414
 9998SOL    HW130893   6.598   3.676   2.381
 9998SOL    HW230894   6.566   3.833   2.347
 9999SOL     OW30895   6.105   4.705   4.408
 9999SOL    HW130896   6.155   4.790   4.424
 9999SOL    HW230897   6.165   4.640   4.361
10000SOL     OW30898   6.121   2.111   6.426
10000SOL    HW130899   6.068   2.195   6.416
10000SOL    HW230900   6.074   2.049   6.489
10001SOL     OW30901   5.155   0.970   1.520
10001SOL    HW130902   5.080   1.010   1.573
10001SOL    HW230903   5.235   0.958   1.579
10002SOL     OW30904   1.348   0.840   1.489
10002SOL    HW130905   1.424   0.904   1.499
10002SOL    HW230906   1.335   0.790   1.574
10003SOL     OW30907   3.914   2.169   3.429
10003SOL    HW130908   3.991   2.233   3.431
10003SOL    HW230909   3.869   2.173   3.340
10004SOL     OW30910   5.318   2.995   4.686
10004SOL    HW130911   5.309   3.053   4.766
10004SOL    HW230912   5.231   2.992   4.637
10005SOL     OW30913   4.922   5.633   3.186
10005SOL    HW130914   4.859   5.710   3.176
10005SOL    HW230915   4.907   5.590   3.275
10006SOL     OW30916   5.563   1.006   4.402
10006SOL    HW130917   5.563   0.908   4.419
10006SOL    HW230918   5.472   1.035   4.370
10007SOL     OW30919   0.960   4.222   4.952
10007SOL    HW130920   0.981   4.131   4.989
10007SOL    HW230921   0.983   4.292   5.019
10008SOL     OW30922   3.956   1.292   3.839
10008SOL    HW130923   3.961   1.311   3.740
10008SOL    HW230924   3.960   1.379   3.889
10009SOL     OW30925   2.273   3.669   1.493
10009SOL    HW130926   2.346   3.673   1.561
10009SOL    HW230927   2.188   3.638   1.536
10010SOL     OW30928   2.121   6.644   0.404
10010SOL    HW130929   2.205   6.639   0.459
10010SOL    HW230930   2.130   6.715   0.335
10011SOL     OW30931   0.360   2.451   5.118
10011SOL    HW130932   0.307   2.390   5.177
10011SOL    HW230933   0.392   2.529   5.171
10012SOL     OW30934   4.981   6.566   3.100
10012SOL    HW130935   5.032   6.530   3.178
10012SOL    HW230936   4.953   6.661   3.119
10013SOL     OW30937   2.388   1.796   4.448
10013SOL    HW130938   2.394   1.741   4.531
10013SOL    HW230939   2.376   1.893   4.473
10014SOL     OW30940   6.452   2.352   0.170
10014SOL    HW130941   6.537   2.317   0.209
10014SOL    HW230942   6.468   2.444   0.133
10015SOL     OW30943   3.228   4.058   0.399
10015SOL    HW130944   3.150   4.095   0.348
10015SOL    HW230945   3.243   3.963   0.373
10016SOL     OW30946   2.263   0.058   4.614
10016SOL    HW130947   2.278   0.103   4.526
10016SOL    HW230948   2.166   0.064   4.639
10017SOL     OW30949   1.803   2.398   2.285
10017SOL    HW130950   1.817   2.308   2.244
10017SOL    HW230951   1.822   2.393   2.383
10018SOL     OW30952   5.678   5.690   6.248
10018SOL    HW130953   5.608   5.650   6.308
10018SOL    HW230954   5.698   5.783   6.278
10019SOL     OW30955   1.007   1.923   3.347
10019SOL    HW130956   1.100   1.942   3.379
10019SOL    HW230957   0.958   1.869   3.416
10020SOL     OW30958   6.862   2.068   1.056
10020SOL    HW130959   6.830   2.115   0.975
10020SOL    HW230960   6.785   2.021   1.100
10021SOL     OW30961   0.868   2.572   1.628
10021SOL    HW130962   0.842   2.476   1.618
10021SOL    HW230963   0.854   2.601   1.723
10022SOL     OW30964   3.726   6.657   1.153
10022SOL    HW130965   3.681   6.610   1.228
10022SOL    HW230966   3.660   6.711   1.102
10023SOL     OW30967   2.004   5.408   5.518
10023SOL    HW130968   1.922   5.353   5.505
10023SOL    HW230969   2.045   5.387   5.606
10024SOL     OW30970   2.244   0.143   1.701
10024SOL    HW130971   2.204   0.168   1.613
10024SOL    HW230972   2.174   0.151   1.773
10025SOL     OW30973   1.432   1.155   1.030
10025SOL    HW130974   1.376   1.072   1.032
10025SOL    HW230975   1.472   1.171   1.120
10026SOL     OW30976   4.831   6.367   3.563
10026SOL    HW130977   4.774   6.290   3.589
10026SOL    HW230978   4.917   6.363   3.613
10027SOL     OW30979   0.807   4.779   4.984
10027SOL    HW130980   0.732   4.844   4.972
10027SOL    HW230981   0.892   4.829   5.004
10028SOL     OW30982   1.509   1.634   1.522
10028SOL    HW130983   1.538   1.539   1.525
10028SOL    HW230984   1.459   1.651   1.436
10029SOL     OW30985   3.129   1.896   3.585
10029SOL    HW130986   3.030   1.911   3.586
10029SOL    HW230987   3.151   1.814   3.636
10030SOL     OW30988   2.265   6.930   4.043
10030SOL    HW130989   2.234   6.864   3.975
10030SOL    HW230990   2.358   6.959   4.022
10031SOL     OW30991   6.152   5.069   3.678
10031SOL    HW130992   6.148   4.975   3.710
10031SOL    HW230993   6.062   5.096   3.643
10032SOL     OW30994   3.165   0.728   5.296
10032SOL    HW130995   3.249   0.677   5.280
10032SOL    HW230996   3.106   0.675   5.358
10033SOL     OW30997   4.635   2.639   4.136
10033SOL    HW130998   4.571   2.654   4.060
10033SOL    HW230999   4.710   2.581   4.105
10034SOL     OW31000   3.060   7.000   4.289
10034SOL    HW131001   3.134   6.955   4.339
10034SOL    HW231002   3.079   6.996   4.191
10035SOL     OW31003   0.039   4.430   2.253
10035SOL    HW131004   0.047   4.427   2.353
10035SOL    HW231005   0.130   4.423   2.212
10036SOL     OW31006   5.510   1.562   1.054
10036SOL    HW131007   5.474   1.476   1.090
10036SOL    HW231008   5.516   1.629   1.128
10037SOL     OW31009   5.791   1.495   0.727
10037SOL    HW131010   5.792   1.558   0.804
10037SOL    HW231011   5.701   1.497   0.683
10038SOL     OW31012   4.182   1.293   6.417
10038SOL    HW131013   4.159   1.336   6.504
10038SOL    HW231014   4.098   1.273   6.367
10039SOL     OW31015   3.298   0.241   4.065
10039SOL    HW131016   3.208   0.207   4.091
10039SOL    HW231017   3.307   0.238   3.966
10040SOL     OW31018   4.142   5.880   6.416
10040SOL    HW131019   4.104   5.787   6.422
10040SOL    HW231020   4.117   5.920   6.327
10041SOL     OW31021   4.407   6.018   6.086
10041SOL    HW131022   4.337   6.034   6.155
10041SOL    HW231023   4.404   5.922   6.058
10042SOL     OW31024   0.750   1.456   4.384
10042SOL    HW131025   0.700   1.533   4.422
10042SOL    HW231026   0.690   1.404   4.322
10043SOL     OW31027   6.508   2.253   4.988
10043SOL    HW131028   6.605   2.233   5.003
10043SOL    HW231029   6.464   2.175   4.944
10044SOL     OW31030   2.946   1.486   5.385
10044SOL    HW131031   2.923   1.389   5.385
10044SOL    HW231032   2.864   1.539   5.409
10045SOL     OW31033   4.336   0.167   3.186
10045SOL    HW131034   4.433   0.159   3.161
10045SOL    HW231035   4.295   0.240   3.132
10046SOL     OW31036   2.386   3.995   0.885
10046SOL    HW131037   2.297   4.041   0.878
10046SOL    HW231038   2.414   3.965   0.794
10047SOL     OW31039   0.403   3.907   5.380
10047SOL    HW131040   0.429   3.980   5.316
10047SOL    HW231041   0.333   3.849   5.338
10048SOL     OW31042   6.207   0.730   2.984
10048SOL    HW131043   6.237   0.799   2.918
10048SOL    HW231044   6.179   0.774   3.069
10049SOL     OW31045   0.384   1.631   6.839
10049SOL    HW131046   0.335   1.684   6.770
10049SOL    HW231047   0.334   1.635   6.926
10050SOL     OW31048   5.497   3.731   4.781
10050SOL    HW131049   5.480   3.768   4.872
10050SOL    HW231050   5.437   3.653   4.765
10051SOL     OW31051   6.048   3.482   6.010
10051SOL    HW131052   6.123   3.493   6.076
10051SOL    HW231053   6.079   3.510   5.919
10052SOL     OW31054   1.747   1.929   3.157
10052SOL    HW131055   1.809   1.924   3.235
10052SOL    HW231056   1.799   1.941   3.073
10053SOL     OW31057   3.971   5.817   3.081
10053SOL    HW131058   3.886   5.833   3.130
10053SOL    HW231059   3.962   5.848   2.986
10054SOL     OW31060   5.739   5.902   6.720
10054SOL    HW131061   5.835   5.876   6.707
10054SOL    HW231062   5.700   5.932   6.633
10055SOL     OW31063   5.685   0.854   4.941
10055SOL    HW131064   5.592   0.848   4.906
10055SOL    HW231065   5.708   0.769   4.989
10056SOL     OW31066   5.270   4.347   2.870
10056SOL    HW131067   5.224   4.431   2.897
10056SOL    HW231068   5.320   4.361   2.785
10057SOL     OW31069   4.341   2.519   5.565
10057SOL    HW131070   4.354   2.421   5.578
10057SOL    HW231071   4.255   2.548   5.607
10058SOL     OW31072   6.588   3.213   5.325
10058SOL    HW131073   6.651   3.152   5.374
10058SOL    HW231074   6.563   3.172   5.237
10059SOL     OW31075   6.480   0.949   0.558
10059SOL    HW131076   6.506   0.884   0.486
10059SOL    HW231077   6.395   0.995   0.532
10060SOL     OW31078   1.843   3.173   1.955
10060SOL    HW131079   1.886   3.263   1.959
10060SOL    HW231080   1.748   3.181   1.984
10061SOL     OW31081   4.612   1.150   4.362
10061SOL    HW131082   4.663   1.224   4.405
10061SOL    HW231083   4.653   1.128   4.273
10062SOL     OW31084   5.546   0.724   3.783
10062SOL    HW131085   5.600   0.706   3.865
10062SOL    HW231086   5.461   0.770   3.808
10063SOL     OW31087   2.910   0.661   4.111
10063SOL    HW131088   2.998   0.622   4.084
10063SOL    HW231089   2.878   0.615   4.194
10064SOL     OW31090   4.995   6.728   0.126
10064SOL    HW131091   4.909   6.691   0.091
10064SOL    HW231092   4.983   6.824   0.151
10065SOL     OW31093   3.121   6.746   2.736
10065SOL    HW131094   3.087   6.837   2.714
10065SOL    HW231095   3.085   6.718   2.825
10066SOL     OW31096   0.397   2.446   4.411
10066SOL    HW131097   0.307   2.484   4.389
10066SOL    HW231098   0.426   2.384   4.338
10067SOL     OW31099   0.304   3.761   5.149
10067SOL    HW131100   0.323   3.673   5.192
10067SOL    HW231101   0.366   3.774   5.072
10068SOL     OW31102   0.084   3.391   3.405
10068SOL    HW131103   0.004   3.438   3.368
10068SOL    HW231104   0.142   3.360   3.330
10069SOL     OW31105   3.110   5.586   2.229
10069SOL    HW131106   3.101   5.683   2.204
10069SOL    HW231107   3.100   5.576   2.328
10070SOL     OW31108   0.194   6.129   5.255
10070SOL    HW131109   0.142   6.065   5.312
10070SOL    HW231110   0.261   6.177   5.312
10071SOL     OW31111   6.429   6.358   4.447
10071SOL    HW131112   6.479   6.443   4.465
10071SOL    HW231113   6.332   6.379   4.432
10072SOL     OW31114   0.296   6.559   4.138
10072SOL    HW131115   0.211   6.581   4.187
10072SOL    HW231116   0.288   6.590   4.044
10073SOL     OW31117   6.517   4.646   4.055
10073SOL    HW131118   6.471   4.620   4.140
10073SOL    HW231119   6.551   4.739   4.062
10074SOL     OW31120   2.122   0.315   5.804
10074SOL    HW131121   2.140   0.221   5.831
10074SOL    HW231122   2.106   0.319   5.705
10075SOL     OW31123   1.592   2.567   2.268
10075SOL    HW131124   1.664   2.499   2.258
10075SOL    HW231125   1.623   2.640   2.328
10076SOL     OW31126   5.985   6.175   3.901
10076SOL    HW131127   5.921   6.248   3.876
10076SOL    HW231128   6.051   6.163   3.827
10077SOL     OW31129   4.491   3.291   0.188
10077SOL    HW131130   4.489   3.287   0.088
10077SOL    HW231131   4.570   3.345   0.217
10078SOL     OW31132   6.594   6.171   4.113
10078SOL    HW131133   6.570   6.251   4.057
10078SOL    HW231134   6.536   6.094   4.087
10079SOL     OW31135   6.000   2.801   3.722
10079SOL    HW131136   6.035   2.894   3.737
10079SOL    HW231137   5.961   2.795   3.630
10080SOL     OW31138   5.106   0.664   5.691
10080SOL    HW131139   5.047   0.695   5.616
10080SOL    HW231140   5.172   0.598   5.656
10081SOL     OW31141   0.426   1.438   0.304
10081SOL    HW131142   0.353   1.373   0.287
10081SOL    HW231143   0.489   1.439   0.226
10082SOL     OW31144   0.803   5.257   1.709
10082SOL    HW131145   0.796   5.330   1.776
10082SOL    HW231146   0.893   5.261   1.664
10083SOL     OW31147   4.058   0.919   3.726
10083SOL    HW131148   4.014   0.906   3.637
10083SOL    HW231149   4.148   0.875   3.725
10084SOL     OW31150   1.571   0.361   5.861
10084SOL    HW131151   1.488   0.330   5.815
10084SOL    HW231152   1.635   0.284   5.869
10085SOL     OW31153   3.038   6.525   0.708
10085SOL    HW131154   3.002   6.540   0.801
10085SOL    HW231155   3.132   6.491   0.714
10086SOL     OW31156   6.066   5.969   2.612
10086SOL    HW131157   6.064   6.019   2.699
10086SOL    HW231158   6.141   5.904   2.614
10087SOL     OW31159   6.701   5.599   3.994
10087SOL    HW131160   6.672   5.685   3.953
10087SOL    HW231161   6.684   5.524   3.929
10088SOL     OW31162   6.981   6.884   2.336
10088SOL    HW131163   0.004   6.809   2.389
10088SOL    HW231164   6.882   6.878   2.340
10089SOL     OW31165   2.872   1.692   3.709
10089SOL    HW131166   2.844   1.604   3.746
10089SOL    HW231167   2.821   1.765   3.754
10090SOL     OW31168   0.349   5.201   1.886
10090SOL    HW131169   0.253   5.224   1.900
10090SOL    HW231170   0.369   5.113   1.929
10091SOL     OW31171   6.589   5.644   6.561
10091SOL    HW131172   6.506   5.680   6.518
10091SOL    HW231173   6.563   5.578   6.632
10092SOL     OW31174   2.037   3.231   6.351
10092SOL    HW131175   1.966   3.185   6.403
10092SOL    HW231176   2.006   3.324   6.327
10093SOL     OW31177   4.643   3.357   5.303
10093SOL    HW131178   4.585   3.382   5.380
10093SOL    HW231179   4.645   3.431   5.237
10094SOL     OW31180   3.062   5.559   1.763
10094SOL    HW131181   3.036   5.497   1.689
10094SOL    HW231182   3.045   5.515   1.851
10095SOL     OW31183   5.653   1.843   4.313
10095SOL    HW131184   5.749   1.836   4.341
10095SOL    HW231185   5.632   1.769   4.248
10096SOL     OW31186   4.366   6.164   2.733
10096SOL    HW131187   4.405   6.237   2.790
10096SOL    HW231188   4.371   6.192   2.637
10097SOL     OW31189   1.580   2.187   0.036
10097SOL    HW131190   1.577   2.099   7.005
10097SOL    HW231191   1.675   2.213   0.051
10098SOL     OW31192   2.869   0.250   5.308
10098SOL    HW131193   2.966   0.257   5.329
10098SOL    HW231194   2.852   0.285   5.215
10099SOL     OW31195   1.163   4.830   1.734
10099SOL    HW131196   1.200   4.805   1.645
10099SOL    HW231197   1.235   4.828   1.802
10100SOL     OW31198   5.164   5.678   5.492
10100SOL    HW131199   5.133   5.666   5.398
10100SOL    HW231200   5.136   5.768   5.526
10101SOL     OW31201   6.609   3.009   2.170
10101SOL    HW131202   6.553   2.929   2.149
10101SOL    HW231203   6.576   3.051   2.255
10102SOL     OW31204   6.993   0.968   2.112
10102SOL    HW131205   0.048   0.961   2.180
10102SOL    HW231206   6.999   1.057   2.066
10103SOL     OW31207   2.533   0.603   5.568
10103SOL    HW131208   2.557   0.651   5.653
10103SOL    HW231209   2.607   0.615   5.501
10104SOL     OW31210   1.451   1.949   5.242
10104SOL    HW131211   1.504   1.914   5.320
10104SOL    HW231212   1.398   2.029   5.271
10105SOL     OW31213   2.133   0.233   6.182
10105SOL    HW131214   2.051   0.181   6.158
10105SOL    HW231215   2.214   0.179   6.158
10106SOL     OW31216   3.663   6.593   0.360
10106SOL    HW131217   3.604   6.643   0.423
10106SOL    HW231218   3.637   6.496   0.360
10107SOL     OW31219   5.127   1.322   5.954
10107SOL    HW131220   5.202   1.258   5.976
10107SOL    HW231221   5.122   1.392   6.024
10108SOL     OW31222   6.806   0.815   0.531
10108SOL    HW131223   6.748   0.741   0.498
10108SOL    HW231224   6.758   0.867   0.601
10109SOL     OW31225   6.967   0.938   0.839
10109SOL    HW131226   6.962   0.951   0.938
10109SOL    HW231227   6.875   0.926   0.803
10110SOL     OW31228   5.109   5.100   3.814
10110SOL    HW131229   5.037   5.095   3.883
10110SOL    HW231230   5.143   5.009   3.794
10111SOL     OW31231   6.398   3.264   4.061
10111SOL    HW131232   6.483   3.316   4.057
10111SOL    HW231233   6.396   3.210   4.145
10112SOL     OW31234   5.985   3.373   3.196
10112SOL    HW131235   6.049   3.396   3.123
10112SOL    HW231236   5.951   3.280   3.183
10113SOL     OW31237   4.330   0.206   0.416
10113SOL    HW131238   4.358   0.244   0.504
10113SOL    HW231239   4.408   0.204   0.355
10114SOL     OW31240   4.223   2.277   2.191
10114SOL    HW131241   4.129   2.250   2.214
10114SOL    HW231242   4.274   2.297   2.274
10115SOL     OW31243   4.467   2.091   4.921
10115SOL    HW131244   4.380   2.102   4.968
10115SOL    HW231245   4.492   2.176   4.875
10116SOL     OW31246   0.805   0.211   6.920
10116SOL    HW131247   0.857   0.196   6.836
10116SOL    HW231248   0.773   0.306   6.923
10117SOL     OW31249   6.322   6.416   6.235
10117SOL    HW131250   6.241   6.377   6.191
10117SOL    HW231251   6.383   6.454   6.165
10118SOL     OW31252   2.332   4.356   3.728
10118SOL    HW131253   2.327   4.274   3.672
10118SOL    HW231254   2.291   4.338   3.818
10119SOL     OW31255   6.519   5.003   3.856
10119SOL    HW131256   6.423   5.032   3.855
10119SOL    HW231257   6.578   5.084   3.864
10120SOL     OW31258   1.852   3.631   4.333
10120SOL    HW131259   1.947   3.600   4.325
10120SOL    HW231260   1.838   3.712   4.276
10121SOL     OW31261   5.598   4.171   6.942
10121SOL    HW131262   5.637   4.098   6.886
10121SOL    HW231263   5.608   4.259   6.894
10122SOL     OW31264   5.093   2.488   3.160
10122SOL    HW131265   5.124   2.454   3.249
10122SOL    HW231266   5.108   2.418   3.091
10123SOL     OW31267   5.487   6.064   0.951
10123SOL    HW131268   5.484   6.134   0.880
10123SOL    HW231269   5.559   6.087   1.017
10124SOL     OW31270   1.645   4.764   0.516
10124SOL    HW131271   1.717   4.787   0.581
10124SOL    HW231272   1.590   4.846   0.497
10125SOL     OW31273   2.112   1.066   1.143
10125SOL    HW131274   2.048   0.991   1.163
10125SOL    HW231275   2.202   1.029   1.124
10126SOL     OW31276   0.270   0.241   0.270
10126SOL    HW131277   0.257   0.278   0.362
10126SOL    HW231278   0.356   0.190   0.267
10127SOL     OW31279   1.985   3.516   0.549
10127SOL    HW131280   1.908   3.559   0.596
10127SOL    HW231281   2.071   3.551   0.586
10128SOL     OW31282   3.292   1.068   6.133
10128SOL    HW131283   3.255   1.054   6.225
10128SOL    HW231284   3.281   1.164   6.107
10129SOL     OW31285   6.529   1.091   2.526
10129SOL    HW131286   6.619   1.135   2.521
10129SOL    HW231287   6.465   1.139   2.465
10130SOL     OW31288   0.763   3.251   1.469
10130SOL    HW131289   0.773   3.285   1.376
10130SOL    HW231290   0.837   3.188   1.490
10131SOL     OW31291   2.023   6.916   4.363
10131SOL    HW131292   1.987   6.916   4.456
10131SOL    HW231293   1.983   6.840   4.312
10132SOL     OW31294   1.911   0.957   3.254
10132SOL    HW131295   1.897   0.873   3.305
10132SOL    HW231296   1.930   0.936   3.158
10133SOL     OW31297   4.582   6.624   0.538
10133SOL    HW131298   4.503   6.666   0.494
10133SOL    HW231299   4.595   6.664   0.629
10134SOL     OW31300   5.791   1.340   2.124
10134SOL    HW131301   5.869   1.280   2.106
10134SOL    HW231302   5.749   1.316   2.211
10135SOL     OW31303   5.428   2.559   3.749
10135SOL    HW131304   5.512   2.538   3.699
10135SOL    HW231305   5.398   2.652   3.725
10136SOL     OW31306   5.338   2.041   1.982
10136SOL    HW131307   5.383   1.954   2.002
10136SOL    HW231308   5.361   2.107   2.053
10137SOL     OW31309   0.435   4.680   4.914
10137SOL    HW131310   0.367   4.742   4.873
10137SOL    HW231311   0.430   4.591   4.869
10138SOL     OW31312   5.316   3.516   0.334
10138SOL    HW131313   5.234   3.572   0.331
10138SOL    HW231314   5.391   3.565   0.289
10139SOL     OW31315   2.929   3.555   4.638
10139SOL    HW131316   2.879   3.535   4.723
10139SOL    HW231317   2.992   3.480   4.619
10140SOL     OW31318   0.418   6.469   6.685
10140SOL    HW131319   0.487   6.501   6.619
10140SOL    HW231320   0.464   6.446   6.771
10141SOL     OW31321   4.571   1.130   5.562
10141SOL    HW131322   4.634   1.148   5.487
10141SOL    HW231323   4.619   1.140   5.649
10142SOL     OW31324   5.979   6.190   5.906
10142SOL    HW131325   6.011   6.109   5.857
10142SOL    HW231326   5.973   6.267   5.842
10143SOL     OW31327   5.151   2.374   1.068
10143SOL    HW131328   5.220   2.422   1.015
10143SOL    HW231329   5.117   2.296   1.015
10144SOL     OW31330   4.757   0.128   6.195
10144SOL    HW131331   4.746   0.225   6.214
10144SOL    HW231332   4.716   0.106   6.106
10145SOL     OW31333   3.643   5.752   3.006
10145SOL    HW131334   3.678   5.830   3.058
10145SOL    HW231335   3.659   5.768   2.908
10146SOL     OW31336   6.066   4.078   4.947
10146SOL    HW131337   5.979   4.077   4.995
10146SOL    HW231338   6.058   4.131   4.863
10147SOL     OW31339   4.635   4.052   6.722
10147SOL    HW131340   4.637   4.012   6.631
10147SOL    HW231341   4.612   4.149   6.715
10148SOL     OW31342   5.807   4.908   0.011
10148SOL    HW131343   5.759   4.931   6.944
10148SOL    HW231344   5.899   4.948   0.009
10149SOL     OW31345   5.318   3.772   1.331
10149SOL    HW131346   5.219   3.761   1.330
10149SOL    HW231347   5.346   3.828   1.253
10150SOL     OW31348   3.984   2.966   1.844
10150SOL    HW131349   3.901   2.930   1.887
10150SOL    HW231350   3.981   3.066   1.847
10151SOL     OW31351   1.289   6.784   0.013
10151SOL    HW131352   1.320   6.722   6.958
10151SOL    HW231353   1.347   6.771   0.094
10152SOL     OW31354   6.644   6.092   3.596
10152SOL    HW131355   6.660   5.995   3.615
10152SOL    HW231356   6.633   6.104   3.497
10153SOL     OW31357   5.062   6.362   3.868
10153SOL    HW131358   5.015   6.369   3.955
10153SOL    HW231359   5.067   6.266   3.841
10154SOL     OW31360   3.986   6.383   4.820
10154SOL    HW131361   3.945   6.355   4.907
10154SOL    HW231362   4.085   6.375   4.825
10155SOL     OW31363   5.278   2.096   5.515
10155SOL    HW131364   5.242   2.044   5.437
10155SOL    HW231365   5.282   2.193   5.492
10156SOL     OW31366   5.587   0.480   1.514
10156SOL    HW131367   5.623   0.472   1.421
10156SOL    HW231368   5.515   0.411   1.527
10157SOL     OW31369   0.012   2.373   0.306
10157SOL    HW131370   7.003   2.281   0.334
10157SOL    HW231371   0.000   2.383   0.208
10158SOL     OW31372   6.346   5.986   1.169
10158SOL    HW131373   6.329   6.070   1.116
10158SOL    HW231374   6.374   6.011   1.262
10159SOL     OW31375   3.634   3.100   2.280
10159SOL    HW131376   3.619   3.194   2.249
10159SOL    HW231377   3.546   3.054   2.292
10160SOL     OW31378   1.338   3.539   3.223
10160SOL    HW131379   1.378   3.478   3.291
10160SOL    HW231380   1.380   3.629   3.230
10161SOL     OW31381   3.407   4.064   6.658
10161SOL    HW131382   3.503   4.081   6.639
10161SOL    HW231383   3.387   4.084   6.754
10162SOL     OW31384   2.838   5.084   0.538
10162SOL    HW131385   2.916   5.091   0.601
10162SOL    HW231386   2.756   5.059   0.590
10163SOL     OW31387   0.471   4.031   6.833
10163SOL    HW131388   0.395   4.095   6.842
10163SOL    HW231389   0.543   4.072   6.778
10164SOL     OW31390   5.739   3.824   4.953
10164SOL    HW131391   5.797   3.764   4.896
10164SOL    HW231392   5.645   3.791   4.951
10165SOL     OW31393   6.510   2.077   3.542
10165SOL    HW131394   6.494   2.005   3.608
10165SOL    HW231395   6.478   2.164   3.578
10166SOL     OW31396   2.038   1.616   1.342
10166SOL    HW131397   2.055   1.562   1.424
10166SOL    HW231398   1.940   1.615   1.320
10167SOL     OW31399   0.056   5.614   0.252
10167SOL    HW131400   0.156   5.617   0.245
10167SOL    HW231401   0.029   5.634   0.346
10168SOL     OW31402   6.676   2.541   5.935
10168SOL    HW131403   6.620   2.486   5.997
10168SOL    HW231404   6.659   2.512   5.841
10169SOL     OW31405   6.911   3.379   3.576
10169SOL    HW131406   6.923   3.435   3.658
10169SOL    HW231407   6.994   3.383   3.521
10170SOL     OW31408   5.889   5.549   6.326
10170SOL    HW131409   5.820   5.602   6.276
10170SOL    HW231410   5.873   5.451   6.310
10171SOL     OW31411   0.651   2.660   4.222
10171SOL    HW131412   0.656   2.635   4.319
10171SOL    HW231413   0.743   2.681   4.189
10172SOL     OW31414   0.720   6.476   4.321
10172SOL    HW131415   0.713   6.402   4.254
10172SOL    HW231416   0.646   6.542   4.305
10173SOL     OW31417   2.210   3.125   0.196
10173SOL    HW131418   2.168   3.041   0.230
10173SOL    HW231419   2.140   3.182   0.153
10174SOL     OW31420   4.935   4.764   3.711
10174SOL    HW131421   4.930   4.841   3.648
10174SOL    HW231422   4.874   4.691   3.679
10175SOL     OW31423   5.879   2.313   3.375
10175SOL    HW131424   5.922   2.254   3.306
10175SOL    HW231425   5.894   2.274   3.466
10176SOL     OW31426   6.617   2.442   5.665
10176SOL    HW131427   6.598   2.539   5.649
10176SOL    HW231428   6.543   2.387   5.626
10177SOL     OW31429   2.063   0.761   0.455
10177SOL    HW131430   2.142   0.710   0.423
10177SOL    HW231431   1.982   0.734   0.403
10178SOL     OW31432   1.101   0.696   0.494
10178SOL    HW131433   1.083   0.645   0.410
10178SOL    HW231434   1.021   0.690   0.554
10179SOL     OW31435   1.009   3.362   6.598
10179SOL    HW131436   0.935   3.312   6.554
10179SOL    HW231437   1.068   3.402   6.527
10180SOL     OW31438   4.909   0.470   0.882
10180SOL    HW131439   4.990   0.437   0.928
10180SOL    HW231440   4.827   0.442   0.932
10181SOL     OW31441   0.488   2.678   1.029
10181SOL    HW131442   0.525   2.617   1.100
10181SOL    HW231443   0.420   2.739   1.070
10182SOL     OW31444   5.034   0.695   0.433
10182SOL    HW131445   5.057   0.793   0.428
10182SOL    HW231446   5.040   0.664   0.527
10183SOL     OW31447   5.999   2.887   5.874
10183SOL    HW131448   5.931   2.866   5.944
10183SOL    HW231449   6.006   2.810   5.810
10184SOL     OW31450   4.487   2.912   6.530
10184SOL    HW131451   4.411   2.854   6.560
10184SOL    HW231452   4.531   2.871   6.451
10185SOL     OW31453   6.451   5.761   1.924
10185SOL    HW131454   6.440   5.692   1.995
10185SOL    HW231455   6.544   5.798   1.928
10186SOL     OW31456   4.959   3.493   4.395
10186SOL    HW131457   4.915   3.575   4.431
10186SOL    HW231458   5.004   3.444   4.469
10187SOL     OW31459   1.671   3.720   6.464
10187SOL    HW131460   1.709   3.643   6.516
10187SOL    HW231461   1.732   3.742   6.388
10188SOL     OW31462   2.541   5.069   6.438
10188SOL    HW131463   2.474   5.049   6.367
10188SOL    HW231464   2.494   5.080   6.526
10189SOL     OW31465   0.760   1.134   6.137
10189SOL    HW131466   0.688   1.076   6.177
10189SOL    HW231467   0.720   1.221   6.108
10190SOL     OW31468   3.812   2.854   1.566
10190SOL    HW131469   3.836   2.767   1.522
10190SOL    HW231470   3.753   2.836   1.645
10191SOL     OW31471   4.890   5.670   6.854
10191SOL    HW131472   4.833   5.596   6.819
10191SOL    HW231473   4.847   5.758   6.833
10192SOL     OW31474   3.502   1.669   5.257
10192SOL    HW131475   3.508   1.633   5.164
10192SOL    HW231476   3.410   1.652   5.293
10193SOL     OW31477   3.052   3.912   2.747
10193SOL    HW131478   3.117   3.837   2.738
10193SOL    HW231479   3.047   3.941   2.842
10194SOL     OW31480   4.915   0.986   4.308
10194SOL    HW131481   4.989   1.019   4.366
10194SOL    HW231482   4.894   1.055   4.239
10195SOL     OW31483   6.949   6.618   1.465
10195SOL    HW131484   6.891   6.672   1.403
10195SOL    HW231485   6.966   6.671   1.548
10196SOL     OW31486   4.421   2.288   4.187
10196SOL    HW131487   4.489   2.257   4.254
10196SOL    HW231488   4.467   2.339   4.114
10197SOL     OW31489   4.864   2.025   4.187
10197SOL    HW131490   4.885   1.927   4.184
10197SOL    HW231491   4.948   2.076   4.206
10198SOL     OW31492   4.089   0.019   1.453
10198SOL    HW131493   3.993   0.031   1.477
10198SOL    HW231494   4.146   0.042   1.532
10199SOL     OW31495   0.752   2.037   0.026
10199SOL    HW131496   0.776   1.943   0.002
10199SOL    HW231497   0.665   2.061   6.999
10200SOL     OW31498   4.990   3.039   5.536
10200SOL    HW131499   5.051   3.100   5.485
10200SOL    HW231500   4.896   3.072   5.528
10201SOL     OW31501   0.499   6.249   0.583
10201SOL    HW131502   0.480   6.304   0.502
10201SOL    HW231503   0.589   6.274   0.620
10202SOL     OW31504   2.220   4.307   0.042
10202SOL    HW131505   2.135   4.314   7.008
10202SOL    HW231506   2.247   4.398   0.075
10203SOL     OW31507   1.032   2.734   1.918
10203SOL    HW131508   1.119   2.779   1.939
10203SOL    HW231509   0.958   2.802   1.919
10204SOL     OW31510   3.431   5.753   6.892
10204SOL    HW131511   3.518   5.762   6.844
10204SOL    HW231512   3.390   5.663   6.872
10205SOL     OW31513   3.393   0.811   2.701
10205SOL    HW131514   3.473   0.844   2.650
10205SOL    HW231515   3.312   0.819   2.643
10206SOL     OW31516   5.432   6.786   6.457
10206SOL    HW131517   5.501   6.778   6.529
10206SOL    HW231518   5.434   6.703   6.401
10207SOL     OW31519   1.940   1.210   6.606
10207SOL    HW131520   2.016   1.276   6.609
10207SOL    HW231521   1.855   1.256   6.628
10208SOL     OW31522   6.435   4.402   3.738
10208SOL    HW131523   6.503   4.473   3.721
10208SOL    HW231524   6.345   4.433   3.705
10209SOL     OW31525   0.117   0.081   5.793
10209SOL    HW131526   0.175   0.140   5.850
10209SOL    HW231527   0.103   0.124   5.704
10210SOL     OW31528   5.293   6.946   1.452
10210SOL    HW131529   5.364   6.876   1.456
10210SOL    HW231530   5.302   7.007   1.531
10211SOL     OW31531   4.129   6.087   4.948
10211SOL    HW131532   4.078   6.014   4.902
10211SOL    HW231533   4.093   6.100   5.040
10212SOL     OW31534   7.007   0.373   4.808
10212SOL    HW131535   0.036   0.284   4.810
10212SOL    HW231536   0.025   0.426   4.731
10213SOL     OW31537   5.431   2.847   2.348
10213SOL    HW131538   5.385   2.783   2.409
10213SOL    HW231539   5.402   2.940   2.370
10214SOL     OW31540   1.193   1.785   2.119
10214SOL    HW131541   1.145   1.704   2.085
10214SOL    HW231542   1.233   1.834   2.042
10215SOL     OW31543   3.646   2.910   3.707
10215SOL    HW131544   3.617   3.006   3.706
10215SOL    HW231545   3.611   2.865   3.789
10216SOL     OW31546   0.708   6.857   1.197
10216SOL    HW131547   0.632   6.814   1.246
10216SOL    HW231548   0.785   6.868   1.260
10217SOL     OW31549   2.140   1.802   3.086
10217SOL    HW131550   2.163   1.863   3.010
10217SOL    HW231551   2.195   1.827   3.166
10218SOL     OW31552   1.736   0.533   1.828
10218SOL    HW131553   1.710   0.542   1.731
10218SOL    HW231554   1.827   0.572   1.842
10219SOL     OW31555   0.108   2.943   2.584
10219SOL    HW131556   0.181   2.944   2.652
10219SOL    HW231557   0.143   2.979   2.498
10220SOL     OW31558   4.323   1.868   1.327
10220SOL    HW131559   4.253   1.938   1.339
10220SOL    HW231560   4.321   1.835   1.232
10221SOL     OW31561   1.851   3.141   4.238
10221SOL    HW131562   1.916   3.217   4.232
10221SOL    HW231563   1.758   3.176   4.226
10222SOL     OW31564   2.737   3.766   5.510
10222SOL    HW131565   2.809   3.808   5.565
10222SOL    HW231566   2.710   3.830   5.438
10223SOL     OW31567   1.906   6.298   6.481
10223SOL    HW131568   1.933   6.313   6.386
10223SOL    HW231569   1.981   6.324   6.541
10224SOL     OW31570   0.490   1.641   5.225
10224SOL    HW131571   0.589   1.639   5.238
10224SOL    HW231572   0.450   1.555   5.260
10225SOL     OW31573   2.193   5.939   5.908
10225SOL    HW131574   2.168   6.034   5.892
10225SOL    HW231575   2.220   5.927   6.004
10226SOL     OW31576   2.555   0.740   6.495
10226SOL    HW131577   2.506   0.680   6.432
10226SOL    HW231578   2.631   0.784   6.446
10227SOL     OW31579   5.299   4.548   0.638
10227SOL    HW131580   5.280   4.477   0.569
10227SOL    HW231581   5.393   4.579   0.628
10228SOL     OW31582   1.153   6.012   2.024
10228SOL    HW131583   1.237   6.021   1.970
10228SOL    HW231584   1.080   5.976   1.966
10229SOL     OW31585   1.328   1.748   4.321
10229SOL    HW131586   1.418   1.709   4.338
10229SOL    HW231587   1.333   1.809   4.242
10230SOL     OW31588   6.340   6.253   2.800
10230SOL    HW131589   6.308   6.344   2.771
10230SOL    HW231590   6.396   6.213   2.727
10231SOL     OW31591   6.244   5.568   5.020
10231SOL    HW131592   6.269   5.471   5.023
10231SOL    HW231593   6.326   5.623   5.006
10232SOL     OW31594   2.822   0.900   4.630
10232SOL    HW131595   2.862   0.908   4.539
10232SOL    HW231596   2.726   0.871   4.622
10233SOL     OW31597   4.940   3.464   5.254
10233SOL    HW131598   4.929   3.431   5.160
10233SOL    HW231599   4.883   3.545   5.268
10234SOL     OW31600   5.717   0.312   0.283
10234SOL    HW131601   5.665   0.397   0.291
10234SOL    HW231602   5.787   0.308   0.354
10235SOL     OW31603   4.152   2.946   0.193
10235SOL    HW131604   4.132   2.963   0.289
10235SOL    HW231605   4.083   2.989   0.136
10236SOL     OW31606   1.932   0.282   2.030
10236SOL    HW131607   1.921   0.285   1.931
10236SOL    HW231608   1.905   0.192   2.064
10237SOL     OW31609   0.081   4.144   0.229
10237SOL    HW131610   0.033   4.135   0.142
10237SOL    HW231611   0.177   4.119   0.217
10238SOL     OW31612   3.248   3.877   3.412
10238SOL    HW131613   3.299   3.855   3.495
10238SOL    HW231614   3.153   3.849   3.422
10239SOL     OW31615   1.813   4.056   5.799
10239SOL    HW131616   1.866   4.039   5.715
10239SOL    HW231617   1.870   4.036   5.879
10240SOL     OW31618   1.522   4.583   3.275
10240SOL    HW131619   1.499   4.596   3.179
10240SOL    HW231620   1.606   4.529   3.283
10241SOL     OW31621   6.777   0.392   2.394
10241SOL    HW131622   6.825   0.345   2.469
10241SOL    HW231623   6.834   0.389   2.312
10242SOL     OW31624   6.709   1.390   0.097
10242SOL    HW131625   6.647   1.318   0.128
10242SOL    HW231626   6.656   1.464   0.056
10243SOL     OW31627   1.359   4.869   1.916
10243SOL    HW131628   1.452   4.906   1.908
10243SOL    HW231629   1.363   4.772   1.942
10244SOL     OW31630   1.282   4.254   0.300
10244SOL    HW131631   1.374   4.292   0.294
10244SOL    HW231632   1.277   4.169   0.248
10245SOL     OW31633   2.815   4.618   6.903
10245SOL    HW131634   2.856   4.696   6.951
10245SOL    HW231635   2.719   4.636   6.885
10246SOL     OW31636   3.423   4.159   3.554
10246SOL    HW131637   3.376   4.122   3.634
10246SOL    HW231638   3.441   4.256   3.568
10247SOL     OW31639   6.913   5.159   5.860
10247SOL    HW131640   6.936   5.231   5.926
10247SOL    HW231641   6.817   5.167   5.835
10248SOL     OW31642   3.127   6.959   2.329
10248SOL    HW131643   3.069   0.018   2.298
10248SOL    HW231644   3.083   6.913   2.405
10249SOL     OW31645   3.430   0.411   5.719
10249SOL    HW131646   3.439   0.400   5.818
10249SOL    HW231647   3.363   0.484   5.700
10250SOL     OW31648   0.081   2.795   1.055
10250SOL    HW131649   0.079   2.835   1.146
10250SOL    HW231650   0.032   2.855   0.991
10251SOL     OW31651   3.031   1.626   5.186
10251SOL    HW131652   2.977   1.707   5.207
10251SOL    HW231653   3.001   1.549   5.242
10252SOL     OW31654   4.604   4.856   0.246
10252SOL    HW131655   4.625   4.954   0.253
10252SOL    HW231656   4.505   4.843   0.251
10253SOL     OW31657   3.229   5.896   0.241
10253SOL    HW131658   3.212   5.947   0.157
10253SOL    HW231659   3.204   5.952   0.320
10254SOL     OW31660   4.671   1.529   4.731
10254SOL    HW131661   4.701   1.501   4.640
10254SOL    HW231662   4.572   1.521   4.737
10255SOL     OW31663   2.130   6.876   1.217
10255SOL    HW131664   2.173   6.825   1.291
10255SOL    HW231665   2.130   6.974   1.239
10256SOL     OW31666   5.961   1.346   1.796
10256SOL    HW131667   6.003   1.431   1.827
10256SOL    HW231668   5.927   1.295   1.875
10257SOL     OW31669   1.667   5.213   4.828
10257SOL    HW131670   1.722   5.151   4.884
10257SOL    HW231671   1.622   5.281   4.886
10258SOL     OW31672   3.526   0.759   4.430
10258SOL    HW131673   3.607   0.792   4.479
10258SOL    HW231674   3.554   0.718   4.344
10259SOL     OW31675   0.278   4.356   3.113
10259SOL    HW131676   0.377   4.375   3.114
10259SOL    HW231677   0.239   4.386   3.026
10260SOL     OW31678   0.408   0.821   3.437
10260SOL    HW131679   0.375   0.760   3.509
10260SOL    HW231680   0.507   0.833   3.447
10261SOL     OW31681   0.029   5.929   2.941
10261SOL    HW131682   0.055   5.849   2.995
10261SOL    HW231683   6.948   5.928   2.924
10262SOL     OW31684   1.685   6.924   4.192
10262SOL    HW131685   1.684   6.857   4.118
10262SOL    HW231686   1.746   6.893   4.265
10263SOL     OW31687   5.213   0.715   6.407
10263SOL    HW131688   5.225   0.754   6.316
10263SOL    HW231689   5.197   0.789   6.473
10264SOL     OW31690   6.035   2.344   5.679
10264SOL    HW131691   6.005   2.427   5.726
10264SOL    HW231692   5.957   2.301   5.634
10265SOL     OW31693   2.718   2.420   3.221
10265SOL    HW131694   2.700   2.335   3.172
10265SOL    HW231695   2.797   2.466   3.180
10266SOL     OW31696   3.246   2.930   4.785
10266SOL    HW131697   3.199   2.854   4.831
10266SOL    HW231698   3.343   2.929   4.810
10267SOL     OW31699   6.976   1.649   0.158
10267SOL    HW131700   6.910   1.635   0.232
10267SOL    HW231701   6.986   1.564   0.107
10268SOL     OW31702   5.526   5.103   2.143
10268SOL    HW131703   5.532   5.014   2.189
10268SOL    HW231704   5.617   5.127   2.108
10269SOL     OW31705   0.451   3.061   6.067
10269SOL    HW131706   0.535   3.008   6.054
10269SOL    HW231707   0.419   3.094   5.979
10270SOL     OW31708   3.098   4.859   3.209
10270SOL    HW131709   3.083   4.835   3.305
10270SOL    HW231710   3.011   4.889   3.169
10271SOL     OW31711   3.384   2.350   6.991
10271SOL    HW131712   3.409   2.374   6.898
10271SOL    HW231713   3.440   2.273   0.004
10272SOL     OW31714   0.905   0.358   4.987
10272SOL    HW131715   0.820   0.369   5.039
10272SOL    HW231716   0.982   0.351   5.050
10273SOL     OW31717   3.668   5.773   2.727
10273SOL    HW131718   3.627   5.849   2.677
10273SOL    HW231719   3.669   5.692   2.668
10274SOL     OW31720   6.793   5.052   4.210
10274SOL    HW131721   6.801   5.068   4.111
10274SOL    HW231722   6.808   4.955   4.229
10275SOL     OW31723   1.012   6.975   1.747
10275SOL    HW131724   0.992   0.030   1.813
10275SOL    HW231725   1.037   6.891   1.796
10276SOL     OW31726   5.679   5.178   5.196
10276SOL    HW131727   5.754   5.198   5.259
10276SOL    HW231728   5.674   5.079   5.180
10277SOL     OW31729   2.237   5.398   4.530
10277SOL    HW131730   2.213   5.446   4.615
10277SOL    HW231731   2.160   5.342   4.501
10278SOL     OW31732   6.834   0.568   4.571
10278SOL    HW131733   6.803   0.642   4.631
10278SOL    HW231734   6.791   0.483   4.598
10279SOL     OW31735   2.763   5.329   4.535
10279SOL    HW131736   2.691   5.360   4.473
10279SOL    HW231737   2.790   5.403   4.596
10280SOL     OW31738   1.057   4.386   1.308
10280SOL    HW131739   0.975   4.351   1.353
10280SOL    HW231740   1.129   4.317   1.311
10281SOL     OW31741   5.999   1.019   2.871
10281SOL    HW131742   6.089   0.978   2.882
10281SOL    HW231743   5.928   0.952   2.895
10282SOL     OW31744   6.016   4.246   4.021
10282SOL    HW131745   6.010   4.238   4.120
10282SOL    HW231746   5.928   4.222   3.980
10283SOL     OW31747   0.859   3.483   1.267
10283SOL    HW131748   0.949   3.507   1.230
10283SOL    HW231749   0.802   3.566   1.272
10284SOL     OW31750   5.236   2.978   5.355
10284SOL    HW131751   5.181   3.009   5.278
10284SOL    HW231752   5.324   3.027   5.355
10285SOL     OW31753   5.389   1.025   1.290
10285SOL    HW131754   5.461   0.983   1.346
10285SOL    HW231755   5.306   0.969   1.296
10286SOL     OW31756   3.192   1.665   3.708
10286SOL    HW131757   3.147   1.710   3.785
10286SOL    HW231758   3.277   1.621   3.739
10287SOL     OW31759   2.512   6.269   0.958
10287SOL    HW131760   2.484   6.312   0.872
10287SOL    HW231761   2.465   6.182   0.969
10288SOL     OW31762   4.992   5.698   2.770
10288SOL    HW131763   5.049   5.772   2.733
10288SOL    HW231764   4.899   5.730   2.781
10289SOL     OW31765   3.273   0.606   2.313
10289SOL    HW131766   3.356   0.661   2.304
10289SOL    HW231767   3.193   0.664   2.299
10290SOL     OW31768   2.835   3.511   1.664
10290SOL    HW131769   2.797   3.439   1.722
10290SOL    HW231770   2.931   3.526   1.687
10291SOL     OW31771   3.501   1.223   3.438
10291SOL    HW131772   3.534   1.311   3.405
10291SOL    HW231773   3.510   1.219   3.538
10292SOL     OW31774   1.819   0.344   5.029
10292SOL    HW131775   1.879   0.416   4.995
10292SOL    HW231776   1.724   0.374   5.023
10293SOL     OW31777   1.841   5.258   3.212
10293SOL    HW131778   1.845   5.158   3.204
10293SOL    HW231779   1.754   5.291   3.176
10294SOL     OW31780   5.710   3.194   2.626
10294SOL    HW131781   5.663   3.192   2.714
10294SOL    HW231782   5.726   3.289   2.599
10295SOL     OW31783   5.646   4.999   6.269
10295SOL    HW131784   5.561   4.950   6.286
10295SOL    HW231785   5.625   5.087   6.226
10296SOL     OW31786   4.741   2.947   0.218
10296SOL    HW131787   4.786   2.963   0.306
10296SOL    HW231788   4.644   2.967   0.226
10297SOL     OW31789   2.082   6.845   6.644
10297SOL    HW131790   2.145   6.797   6.583
10297SOL    HW231791   2.058   6.934   6.605
10298SOL     OW31792   3.574   5.031   2.026
10298SOL    HW131793   3.602   4.935   2.017
10298SOL    HW231794   3.650   5.084   2.064
10299SOL     OW31795   4.792   5.527   2.540
10299SOL    HW131796   4.874   5.536   2.484
10299SOL    HW231797   4.817   5.509   2.635
10300SOL     OW31798   1.279   4.486   3.378
10300SOL    HW131799   1.372   4.475   3.342
10300SOL    HW231800   1.227   4.548   3.320
10301SOL     OW31801   5.801   2.330   4.381
10301SOL    HW131802   5.883   2.330   4.325
10301SOL    HW231803   5.720   2.328   4.322
10302SOL     OW31804   0.887   5.789   3.679
10302SOL    HW131805   0.828   5.869   3.670
10302SOL    HW231806   0.977   5.818   3.711
10303SOL     OW31807   1.793   5.631   2.442
10303SOL    HW131808   1.702   5.671   2.436
10303SOL    HW231809   1.859   5.700   2.471
10304SOL     OW31810   5.030   0.357   2.367
10304SOL    HW131811   4.939   0.360   2.325
10304SOL    HW231812   5.046   0.442   2.418
10305SOL     OW31813   0.714   4.719   6.620
10305SOL    HW131814   0.666   4.705   6.533
10305SOL    HW231815   0.751   4.632   6.652
10306SOL     OW31816   4.240   6.576   0.162
10306SOL    HW131817   4.244   6.629   0.078
10306SOL    HW231818   4.145   6.560   0.187
10307SOL     OW31819   2.183   2.184   4.262
10307SOL    HW131820   2.165   2.267   4.209
10307SOL    HW231821   2.195   2.107   4.199
10308SOL     OW31822   2.168   4.579   4.392
10308SOL    HW131823   2.152   4.511   4.321
10308SOL    HW231824   2.230   4.540   4.461
10309SOL     OW31825   5.898   1.196   4.379
10309SOL    HW131826   5.885   1.181   4.477
10309SOL    HW231827   5.991   1.173   4.353
10310SOL     OW31828   3.875   3.241   1.871
10310SOL    HW131829   3.859   3.164   1.932
10310SOL    HW231830   3.844   3.326   1.914
10311SOL     OW31831   0.981   6.178   1.172
10311SOL    HW131832   1.018   6.268   1.194
10311SOL    HW231833   0.958   6.130   1.257
10312SOL     OW31834   2.665   6.287   1.664
10312SOL    HW131835   2.585   6.341   1.636
10312SOL    HW231836   2.687   6.221   1.592
10313SOL     OW31837   4.287   0.074   1.267
10313SOL    HW131838   4.212   0.048   1.328
10313SOL    HW231839   4.252   0.130   1.192
10314SOL     OW31840   6.943   0.125   2.255
10314SOL    HW131841   6.989   0.181   2.325
10314SOL    HW231842   6.950   0.029   2.280
10315SOL     OW31843   6.153   5.919   4.174
10315SOL    HW131844   6.117   5.884   4.087
10315SOL    HW231845   6.203   5.846   4.221
10316SOL     OW31846   6.667   2.581   5.079
10316SOL    HW131847   6.671   2.597   4.981
10316SOL    HW231848   6.750   2.532   5.109
10317SOL     OW31849   3.686   6.336   5.555
10317SOL    HW131850   3.757   6.381   5.610
10317SOL    HW231851   3.602   6.390   5.557
10318SOL     OW31852   5.347   6.118   6.766
10318SOL    HW131853   5.383   6.126   6.859
10318SOL    HW231854   5.289   6.198   6.746
10319SOL     OW31855   2.000   2.479   5.560
10319SOL    HW131856   1.957   2.439   5.479
10319SOL    HW231857   1.958   2.441   5.643
10320SOL     OW31858   0.899   0.507   2.345
10320SOL    HW131859   0.910   0.408   2.330
10320SOL    HW231860   0.945   0.557   2.272
10321SOL     OW31861   4.418   0.766   2.955
10321SOL    HW131862   4.346   0.829   2.984
10321SOL    HW231863   4.377   0.688   2.907
10322SOL     OW31864   6.644   5.763   6.248
10322SOL    HW131865   6.691   5.807   6.172
10322SOL    HW231866   6.585   5.690   6.214
10323SOL     OW31867   6.289   3.271   6.272
10323SOL    HW131868   6.261   3.175   6.279
10323SOL    HW231869   6.300   3.295   6.176
10324SOL     OW31870   3.048   3.103   3.310
10324SOL    HW131871   2.976   3.127   3.375
10324SOL    HW231872   3.092   3.187   3.277
10325SOL     OW31873   6.976   3.607   3.019
10325SOL    HW131874   0.050   3.567   3.014
10325SOL    HW231875   6.908   3.534   3.008
10326SOL     OW31876   3.758   3.828   0.155
10326SOL    HW131877   3.678   3.885   0.139
10326SOL    HW231878   3.785   3.783   0.069
10327SOL     OW31879   2.590   1.934   1.860
10327SOL    HW131880   2.542   2.020   1.845
10327SOL    HW231881   2.687   1.951   1.874
10328SOL     OW31882   6.102   2.928   0.871
10328SOL    HW131883   6.137   2.937   0.964
10328SOL    HW231884   6.063   3.015   0.842
10329SOL     OW31885   3.746   0.597   3.772
10329SOL    HW131886   3.841   0.566   3.779
10329SOL    HW231887   3.739   0.690   3.810
10330SOL     OW31888   3.895   5.819   1.768
10330SOL    HW131889   3.913   5.788   1.675
10330SOL    HW231890   3.833   5.755   1.814
10331SOL     OW31891   6.607   0.624   4.071
10331SOL    HW131892   6.619   0.594   4.166
10331SOL    HW231893   6.614   0.546   4.010
10332SOL     OW31894   5.963   1.560   0.351
10332SOL    HW131895   5.888   1.612   0.309
10332SOL    HW231896   5.992   1.487   0.289
10333SOL     OW31897   6.889   4.804   4.220
10333SOL    HW131898   6.896   4.790   4.122
10333SOL    HW231899   6.954   4.744   4.267
10334SOL     OW31900   2.493   6.007   4.208
10334SOL    HW131901   2.551   5.925   4.209
10334SOL    HW231902   2.478   6.039   4.302
10335SOL     OW31903   2.721   4.911   6.767
10335SOL    HW131904   2.716   5.010   6.758
10335SOL    HW231905   2.657   4.868   6.704
10336SOL     OW31906   5.763   0.276   2.961
10336SOL    HW131907   5.788   0.250   3.054
10336SOL    HW231908   5.783   0.373   2.947
10337SOL     OW31909   6.647   6.574   5.700
10337SOL    HW131910   6.721   6.508   5.711
10337SOL    HW231911   6.605   6.591   5.789
10338SOL     OW31912   2.669   6.236   2.448
10338SOL    HW131913   2.721   6.220   2.364
10338SOL    HW231914   2.675   6.333   2.473
10339SOL     OW31915   2.571   5.819   0.134
10339SOL    HW131916   2.539   5.746   0.193
10339SOL    HW231917   2.610   5.780   0.050
10340SOL     OW31918   1.237   5.064   0.671
10340SOL    HW131919   1.141   5.057   0.644
10340SOL    HW231920   1.261   5.160   0.684
10341SOL     OW31921   2.033   3.666   1.856
10341SOL    HW131922   2.099   3.617   1.913
10341SOL    HW231923   2.076   3.688   1.768
10342SOL     OW31924   1.505   5.890   5.730
10342SOL    HW131925   1.536   5.859   5.820
10342SOL    HW231926   1.408   5.914   5.735
10343SOL     OW31927   2.148   4.084   0.866
10343SOL    HW131928   2.059   4.069   0.910
10343SOL    HW231929   2.138   4.079   0.767
10344SOL     OW31930   4.267   3.356   1.675
10344SOL    HW131931   4.179   3.332   1.634
10344SOL    HW231932   4.268   3.454   1.696
10345SOL     OW31933   1.494   0.704   5.890
10345SOL    HW131934   1.480   0.613   5.930
10345SOL    HW231935   1.427   0.768   5.929
10346SOL     OW31936   6.013   1.098   1.314
10346SOL    HW131937   5.995   1.006   1.277
10346SOL    HW231938   6.101   1.098   1.361
10347SOL     OW31939   5.082   2.629   2.395
10347SOL    HW131940   5.130   2.582   2.469
10347SOL    HW231941   5.138   2.628   2.313
10348SOL     OW31942   6.366   1.863   6.975
10348SOL    HW131943   6.411   1.949   6.998
10348SOL    HW231944   6.267   1.874   6.981
10349SOL     OW31945   6.511   1.179   0.134
10349SOL    HW131946   6.413   1.161   0.129
10349SOL    HW231947   6.559   1.093   0.152
10350SOL     OW31948   2.388   6.313   5.457
10350SOL    HW131949   2.347   6.402   5.479
10350SOL    HW231950   2.317   6.253   5.420
10351SOL     OW31951   5.595   5.232   6.116
10351SOL    HW131952   5.514   5.219   6.059
10351SOL    HW231953   5.673   5.187   6.073
10352SOL     OW31954   5.867   1.705   6.667
10352SOL    HW131955   5.817   1.682   6.584
10352SOL    HW231956   5.822   1.782   6.713
10353SOL     OW31957   6.278   2.377   4.545
10353SOL    HW131958   6.262   2.290   4.593
10353SOL    HW231959   6.219   2.381   4.464
10354SOL     OW31960   6.982   2.128   1.760
10354SOL    HW131961   0.015   2.045   1.735
10354SOL    HW231962   6.993   2.196   1.687
10355SOL     OW31963   1.749   0.790   0.646
10355SOL    HW131964   1.834   0.842   0.655
10355SOL    HW231965   1.735   0.734   0.727
10356SOL     OW31966   6.848   3.334   5.444
10356SOL    HW131967   6.840   3.255   5.505
10356SOL    HW231968   6.767   3.340   5.386
10357SOL     OW31969   3.463   2.716   6.147
10357SOL    HW131970   3.363   2.717   6.140
10357SOL    HW231971   3.500   2.652   6.079
10358SOL     OW31972   0.527   2.905   3.967
10358SOL    HW131973   0.469   2.912   4.048
10358SOL    HW231974   0.480   2.849   3.898
10359SOL     OW31975   5.373   1.238   1.886
10359SOL    HW131976   5.401   1.152   1.843
10359SOL    HW231977   5.304   1.283   1.829
10360SOL     OW31978   4.794   5.361   1.965
10360SOL    HW131979   4.766   5.300   1.891
10360SOL    HW231980   4.860   5.427   1.931
10361SOL     OW31981   2.757   1.328   2.793
10361SOL    HW131982   2.660   1.303   2.800
10361SOL    HW231983   2.812   1.265   2.848
10362SOL     OW31984   0.541   5.193   2.755
10362SOL    HW131985   0.604   5.270   2.757
10362SOL    HW231986   0.591   5.108   2.767
10363SOL     OW31987   5.157   3.245   1.332
10363SOL    HW131988   5.129   3.191   1.412
10363SOL    HW231989   5.125   3.339   1.342
10364SOL     OW31990   4.314   4.256   1.450
10364SOL    HW131991   4.403   4.252   1.405
10364SOL    HW231992   4.259   4.177   1.424
10365SOL     OW31993   5.334   4.269   6.736
10365SOL    HW131994   5.303   4.343   6.795
10365SOL    HW231995   5.431   4.251   6.752
10366SOL     OW31996   3.208   6.704   3.637
10366SOL    HW131997   3.276   6.777   3.643
10366SOL    HW231998   3.251   6.622   3.600
10367SOL     OW31999   0.083   1.746   1.784
10367SOL    HW132000   0.133   1.667   1.820
10367SOL    HW232001   7.017   1.760   1.838
10368SOL     OW32002   2.060   1.289   2.526
10368SOL    HW132003   2.040   1.226   2.450
10368SOL    HW232004   1.974   1.326   2.562
10369SOL     OW32005   3.216   6.849   5.839
10369SOL    HW132006   3.270   6.778   5.884
10369SOL    HW232007   3.262   6.878   5.755
10370SOL     OW32008   0.202   0.807   5.215
10370SOL    HW132009   0.160   0.897   5.220
10370SOL    HW232010   0.189   0.769   5.123
10371SOL     OW32011   1.825   6.481   4.372
10371SOL    HW132012   1.828   6.503   4.470
10371SOL    HW232013   1.804   6.383   4.361
10372SOL     OW32014   2.093   1.046   6.884
10372SOL    HW132015   2.178   1.095   6.903
10372SOL    HW232016   2.058   1.074   6.794
10373SOL     OW32017   1.402   6.184   5.003
10373SOL    HW132018   1.392   6.193   5.103
10373SOL    HW232019   1.328   6.234   4.958
10374SOL     OW32020   3.303   0.538   3.990
10374SOL    HW132021   3.345   0.628   3.976
10374SOL    HW232022   3.271   0.531   4.084
10375SOL     OW32023   2.394   2.440   5.991
10375SOL    HW132024   2.383   2.486   5.903
10375SOL    HW232025   2.488   2.452   6.023
10376SOL     OW32026   1.001   5.786   3.406
10376SOL    HW132027   1.100   5.776   3.406
10376SOL    HW232028   0.966   5.769   3.498
10377SOL     OW32029   0.076   0.516   2.282
10377SOL    HW132030   0.100   0.572   2.361
10377SOL    HW232031   0.020   0.569   2.218
10378SOL     OW32032   5.915   5.711   5.509
10378SOL    HW132033   5.928   5.612   5.507
10378SOL    HW232034   5.821   5.732   5.538
10379SOL     OW32035   2.624   6.205   4.078
10379SOL    HW132036   2.709   6.163   4.046
10379SOL    HW232037   2.566   6.135   4.120
10380SOL     OW32038   0.762   2.691   4.835
10380SOL    HW132039   0.692   2.761   4.841
10380SOL    HW232040   0.722   2.606   4.802
10381SOL     OW32041   4.247   4.042   1.129
10381SOL    HW132042   4.219   3.980   1.203
10381SOL    HW232043   4.252   3.991   1.043
10382SOL     OW32044   2.374   5.131   1.655
10382SOL    HW132045   2.326   5.093   1.734
10382SOL    HW232046   2.462   5.169   1.685
10383SOL     OW32047   1.139   4.019   0.842
10383SOL    HW132048   1.131   4.104   0.894
10383SOL    HW232049   1.225   4.020   0.791
10384SOL     OW32050   6.501   0.193   0.963
10384SOL    HW132051   6.450   0.268   1.006
10384SOL    HW232052   6.448   0.155   0.888
10385SOL     OW32053   4.112   5.994   6.175
10385SOL    HW132054   4.104   6.093   6.186
10385SOL    HW232055   4.038   5.962   6.115
10386SOL     OW32056   6.949   1.136   5.601
10386SOL    HW132057   6.891   1.144   5.520
10386SOL    HW232058   6.996   1.048   5.600
10387SOL     OW32059   4.422   1.886   2.648
10387SOL    HW132060   4.505   1.856   2.602
10387SOL    HW232061   4.348   1.821   2.629
10388SOL     OW32062   2.309   5.564   2.051
10388SOL    HW132063   2.369   5.642   2.065
10388SOL    HW232064   2.214   5.591   2.068
10389SOL     OW32065   6.220   5.109   0.374
10389SOL    HW132066   6.278   5.118   0.455
10389SOL    HW232067   6.128   5.084   0.402
10390SOL     OW32068   1.819   3.577   0.948
10390SOL    HW132069   1.725   3.546   0.935
10390SOL    HW232070   1.833   3.665   0.903
10391SOL     OW32071   0.504   6.185   3.041
10391SOL    HW132072   0.435   6.209   2.973
10391SOL    HW232073   0.582   6.247   3.033
10392SOL     OW32074   6.682   4.873   5.342
10392SOL    HW132075   6.769   4.918   5.321
10392SOL    HW232076   6.606   4.927   5.305
10393SOL     OW32077   2.590   2.471   3.665
10393SOL    HW132078   2.563   2.502   3.573
10393SOL    HW232079   2.671   2.413   3.658
10394SOL     OW32080   2.671   5.400   5.424
10394SOL    HW132081   2.620   5.356   5.350
10394SOL    HW232082   2.619   5.478   5.458
10395SOL     OW32083   0.671   0.714   1.868
10395SOL    HW132084   0.573   0.711   1.884
10395SOL    HW232085   0.689   0.743   1.774
10396SOL     OW32086   3.874   1.097   3.363
10396SOL    HW132087   3.790   1.103   3.310
10396SOL    HW232088   3.872   1.165   3.436
10397SOL     OW32089   3.008   1.309   4.402
10397SOL    HW132090   3.001   1.340   4.307
10397SOL    HW232091   3.006   1.388   4.463
10398SOL     OW32092   5.596   2.256   0.466
10398SOL    HW132093   5.534   2.233   0.390
10398SOL    HW232094   5.637   2.173   0.501
10399SOL     OW32095   4.878   2.258   3.848
10399SOL    HW132096   4.934   2.183   3.884
10399SOL    HW232097   4.836   2.230   3.762
10400SOL     OW32098   4.158   5.944   0.403
10400SOL    HW132099   4.188   5.892   0.323
10400SOL    HW232100   4.072   5.906   0.437
10401SOL     OW32101   0.484   6.872   1.844
10401SOL    HW132102   0.517   6.963   1.821
10401SOL    HW232103   0.526   6.804   1.784
10402SOL     OW32104   0.212   1.529   5.538
10402SOL    HW132105   0.124   1.487   5.563
10402SOL    HW232106   0.198   1.589   5.459
10403SOL     OW32107   4.090   1.999   3.045
10403SOL    HW132108   4.086   2.030   2.950
10403SOL    HW232109   4.063   2.074   3.106
10404SOL     OW32110   6.908   6.436   4.371
10404SOL    HW132111   6.965   6.379   4.312
10404SOL    HW232112   6.812   6.428   4.343
10405SOL     OW32113   1.005   5.908   4.725
10405SOL    HW132114   0.906   5.893   4.717
10405SOL    HW232115   1.029   5.998   4.688
10406SOL     OW32116   2.159   3.133   5.010
10406SOL    HW132117   2.234   3.068   5.004
10406SOL    HW232118   2.076   3.091   4.974
10407SOL     OW32119   2.915   0.052   6.660
10407SOL    HW132120   2.881   0.011   6.745
10407SOL    HW232121   2.953   0.142   6.680
10408SOL     OW32122   4.575   0.072   1.513
10408SOL    HW132123   4.520   7.014   1.476
10408SOL    HW232124   4.661   0.078   1.462
10409SOL     OW32125   0.135   4.510   0.825
10409SOL    HW132126   0.199   4.574   0.869
10409SOL    HW232127   0.043   4.524   0.862
10410SOL     OW32128   5.095   2.680   1.913
10410SOL    HW132129   5.114   2.689   1.815
10410SOL    HW232130   5.000   2.704   1.930
10411SOL     OW32131   3.046   6.342   3.808
10411SOL    HW132132   2.962   6.386   3.838
10411SOL    HW232133   3.118   6.356   3.876
10412SOL     OW32134   0.423   1.041   1.015
10412SOL    HW132135   0.442   1.124   1.068
10412SOL    HW232136   0.334   1.049   0.971
10413SOL     OW32137   6.353   2.901   1.874
10413SOL    HW132138   6.330   2.804   1.879
10413SOL    HW232139   6.369   2.926   1.778
10414SOL     OW32140   3.440   4.641   6.361
10414SOL    HW132141   3.414   4.584   6.440
10414SOL    HW232142   3.492   4.586   6.296
10415SOL     OW32143   1.740   4.508   4.303
10415SOL    HW132144   1.730   4.520   4.204
10415SOL    HW232145   1.655   4.535   4.348
10416SOL     OW32146   5.687   6.847   5.367
10416SOL    HW132147   5.737   6.848   5.454
10416SOL    HW232148   5.593   6.818   5.383
10417SOL     OW32149   4.176   4.857   3.758
10417SOL    HW132150   4.128   4.814   3.681
10417SOL    HW232151   4.154   4.807   3.842
10418SOL     OW32152   6.542   4.446   5.613
10418SOL    HW132153   6.554   4.462   5.515
10418SOL    HW232154   6.599   4.369   5.642
10419SOL     OW32155   3.133   6.766   6.288
10419SOL    HW132156   3.035   6.781   6.276
10419SOL    HW232157   3.155   6.670   6.274
10420SOL     OW32158   0.505   3.539   4.273
10420SOL    HW132159   0.529   3.578   4.184
10420SOL    HW232160   0.442   3.463   4.260
10421SOL     OW32161   1.214   3.679   3.934
10421SOL    HW132162   1.295   3.678   3.992
10421SOL    HW232163   1.181   3.585   3.922
10422SOL     OW32164   6.526   3.404   5.563
10422SOL    HW132165   6.484   3.387   5.652
10422SOL    HW232166   6.503   3.330   5.501
10423SOL     OW32167   5.693   4.958   5.694
10423SOL    HW132168   5.642   5.036   5.658
10423SOL    HW232169   5.789   4.984   5.706
10424SOL     OW32170   3.689   3.190   1.032
10424SOL    HW132171   3.731   3.125   0.969
10424SOL    HW232172   3.690   3.281   0.991
10425SOL     OW32173   1.223   6.352   2.649
10425SOL    HW132174   1.254   6.447   2.662
10425SOL    HW232175   1.124   6.350   2.639
10426SOL     OW32176   5.110   4.893   0.104
10426SOL    HW132177   5.157   4.827   0.162
10426SOL    HW232178   5.104   4.857   0.011
10427SOL     OW32179   4.479   1.185   0.453
10427SOL    HW132180   4.392   1.215   0.414
10427SOL    HW232181   4.465   1.098   0.502
10428SOL     OW32182   2.955   1.049   4.144
10428SOL    HW132183   2.922   1.142   4.156
10428SOL    HW232184   3.013   1.023   4.221
10429SOL     OW32185   6.938   4.117   2.427
10429SOL    HW132186   6.937   4.128   2.526
10429SOL    HW232187   6.854   4.154   2.388
10430SOL     OW32188   4.250   6.862   5.351
10430SOL    HW132189   4.167   6.837   5.301
10430SOL    HW232190   4.330   6.832   5.299
10431SOL     OW32191   2.114   6.225   4.229
10431SOL    HW132192   2.108   6.273   4.141
10431SOL    HW232193   2.162   6.138   4.215
10432SOL     OW32194   6.131   0.201   4.638
10432SOL    HW132195   6.142   0.106   4.669
10432SOL    HW232196   6.210   0.255   4.669
10433SOL     OW32197   0.811   6.161   2.714
10433SOL    HW132198   0.770   6.080   2.756
10433SOL    HW232199   0.740   6.231   2.700
10434SOL     OW32200   3.973   6.380   2.561
10434SOL    HW132201   3.967   6.283   2.540
10434SOL    HW232202   3.989   6.432   2.476
10435SOL     OW32203   1.089   1.906   5.355
10435SOL    HW132204   1.035   1.906   5.271
10435SOL    HW232205   1.152   1.984   5.354
10436SOL     OW32206   5.927   4.806   5.536
10436SOL    HW132207   5.962   4.889   5.580
10436SOL    HW232208   6.004   4.752   5.502
10437SOL     OW32209   4.772   4.489   5.842
10437SOL    HW132210   4.843   4.499   5.911
10437SOL    HW232211   4.694   4.441   5.881
10438SOL     OW32212   0.275   6.091   6.752
10438SOL    HW132213   0.303   6.012   6.807
10438SOL    HW232214   0.353   6.150   6.735
10439SOL     OW32215   4.174   1.372   4.811
10439SOL    HW132216   4.178   1.309   4.889
10439SOL    HW232217   4.095   1.351   4.755
10440SOL     OW32218   0.167   6.768   0.845
10440SOL    HW132219   0.250   6.712   0.843
10440SOL    HW232220   0.190   6.862   0.872
10441SOL     OW32221   3.755   1.507   1.825
10441SOL    HW132222   3.729   1.541   1.735
10441SOL    HW232223   3.749   1.408   1.826
10442SOL     OW32224   4.279   6.776   6.482
10442SOL    HW132225   4.322   6.850   6.431
10442SOL    HW232226   4.298   6.787   6.580
10443SOL     OW32227   4.941   3.151   3.715
10443SOL    HW132228   5.002   3.214   3.764
10443SOL    HW232229   4.881   3.105   3.780
10444SOL     OW32230   4.166   5.986   3.151
10444SOL    HW132231   4.249   5.955   3.105
10444SOL    HW232232   4.102   5.910   3.159
10445SOL     OW32233   0.790   4.690   4.171
10445SOL    HW132234   0.712   4.641   4.131
10445SOL    HW232235   0.776   4.700   4.269
10446SOL     OW32236   2.025   3.362   6.820
10446SOL    HW132237   1.925   3.357   6.820
10446SOL    HW232238   2.063   3.271   6.805
10447SOL     OW32239   0.534   0.899   3.041
10447SOL    HW132240   0.464   0.842   3.084
10447SOL    HW232241   0.491   0.973   2.990
10448SOL     OW32242   4.822   0.566   2.615
10448SOL    HW132243   4.884   0.493   2.646
10448SOL    HW232244   4.771   0.601   2.694
10449SOL     OW32245   1.490   5.059   5.940
10449SOL    HW132246   1.587   5.059   5.916
10449SOL    HW232247   1.451   4.968   5.926
10450SOL     OW32248   0.087   1.131   0.249
10450SOL    HW132249   0.096   1.152   0.346
10450SOL    HW232250   0.153   1.059   0.224
10451SOL     OW32251   1.986   5.644   2.807
10451SOL    HW132252   2.032   5.624   2.720
10451SOL    HW232253   2.053   5.642   2.881
10452SOL     OW32254   6.571   3.272   2.066
10452SOL    HW132255   6.559   3.238   1.972
10452SOL    HW232256   6.633   3.212   2.116
10453SOL     OW32257   5.263   0.002   1.156
10453SOL    HW132258   5.286   6.992   1.250
10453SOL    HW232259   5.219   6.943   1.109
10454SOL     OW32260   4.906   3.174   0.390
10454SOL    HW132261   4.883   3.203   0.297
10454SOL    HW232262   4.971   3.098   0.386
10455SOL     OW32263   6.689   6.870   3.408
10455SOL    HW132264   6.593   6.897   3.416
10455SOL    HW232265   6.698   6.774   3.433
10456SOL     OW32266   1.676   5.614   0.430
10456SOL    HW132267   1.686   5.602   0.331
10456SOL    HW232268   1.753   5.571   0.477
10457SOL     OW32269   3.705   2.858   0.942
10457SOL    HW132270   3.615   2.877   0.901
10457SOL    HW232271   3.768   2.931   0.919
10458SOL     OW32272   6.379   0.380   6.328
10458SOL    HW132273   6.390   0.421   6.238
10458SOL    HW232274   6.338   0.289   6.319
10459SOL     OW32275   4.480   6.239   1.748
10459SOL    HW132276   4.456   6.195   1.662
10459SOL    HW232277   4.579   6.245   1.756
10460SOL     OW32278   0.654   4.048   1.958
10460SOL    HW132279   0.555   4.061   1.963
10460SOL    HW232280   0.684   4.061   1.863
10461SOL     OW32281   6.017   5.544   4.876
10461SOL    HW132282   6.108   5.555   4.917
10461SOL    HW232283   6.007   5.606   4.799
10462SOL     OW32284   5.173   1.406   3.417
10462SOL    HW132285   5.255   1.427   3.363
10462SOL    HW232286   5.099   1.467   3.390
10463SOL     OW32287   4.623   3.100   5.731
10463SOL    HW132288   4.525   3.089   5.748
10463SOL    HW232289   4.675   3.055   5.804
10464SOL     OW32290   0.079   6.375   1.340
10464SOL    HW132291   0.007   6.428   1.384
10464SOL    HW232292   0.054   6.279   1.338
10465SOL     OW32293   5.990   6.041   0.549
10465SOL    HW132294   6.050   5.993   0.614
10465SOL    HW232295   6.045   6.092   0.484
10466SOL     OW32296   5.026   5.106   5.583
10466SOL    HW132297   4.949   5.069   5.532
10466SOL    HW232298   5.077   5.170   5.525
10467SOL     OW32299   2.597   1.451   0.229
10467SOL    HW132300   2.533   1.490   0.163
10467SOL    HW232301   2.607   1.514   0.307
10468SOL     OW32302   3.818   5.270   3.008
10468SOL    HW132303   3.831   5.362   2.969
10468SOL    HW232304   3.869   5.264   3.094
10469SOL     OW32305   4.087   4.622   5.374
10469SOL    HW132306   4.102   4.529   5.342
10469SOL    HW232307   4.079   4.622   5.474
10470SOL     OW32308   2.207   2.608   3.461
10470SOL    HW132309   2.119   2.605   3.509
10470SOL    HW232310   2.278   2.570   3.519
10471SOL     OW32311   3.497   1.373   1.006
10471SOL    HW132312   3.457   1.424   0.930
10471SOL    HW232313   3.461   1.279   1.006
10472SOL     OW32314   3.301   5.672   0.570
10472SOL    HW132315   3.392   5.650   0.604
10472SOL    HW232316   3.296   5.654   0.472
10473SOL     OW32317   6.497   6.499   0.175
10473SOL    HW132318   6.460   6.408   0.155
10473SOL    HW232319   6.552   6.494   0.259
10474SOL     OW32320   3.424   1.781   4.195
10474SOL    HW132321   3.375   1.867   4.182
10474SOL    HW232322   3.383   1.711   4.136
10475SOL     OW32323   4.701   6.814   1.052
10475SOL    HW132324   4.634   6.854   1.115
10475SOL    HW232325   4.768   6.760   1.103
10476SOL     OW32326   6.915   6.589   0.182
10476SOL    HW132327   6.920   6.489   0.176
10476SOL    HW232328   6.864   6.624   0.104
10477SOL     OW32329   6.876   0.911   4.520
10477SOL    HW132330   6.926   0.888   4.603
10477SOL    HW232331   6.873   0.831   4.459
10478SOL     OW32332   6.496   0.849   1.027
10478SOL    HW132333   6.503   0.750   1.016
10478SOL    HW232334   6.425   0.885   0.967
10479SOL     OW32335   6.834   2.141   2.871
10479SOL    HW132336   6.910   2.076   2.874
10479SOL    HW232337   6.871   2.234   2.862
10480SOL     OW32338   6.664   0.270   1.774
10480SOL    HW132339   6.696   0.356   1.814
10480SOL    HW232340   6.565   0.274   1.762
10481SOL     OW32341   2.681   6.767   4.096
10481SOL    HW132342   2.662   6.670   4.080
10481SOL    HW232343   2.755   6.797   4.035
10482SOL     OW32344   6.226   5.006   4.299
10482SOL    HW132345   6.220   5.095   4.255
10482SOL    HW232346   6.322   4.981   4.310
10483SOL     OW32347   6.537   4.540   0.138
10483SOL    HW132348   6.469   4.604   0.175
10483SOL    HW232349   6.608   4.591   0.090
10484SOL     OW32350   6.018   1.887   2.015
10484SOL    HW132351   5.947   1.863   2.081
10484SOL    HW232352   6.025   1.987   2.009
10485SOL     OW32353   3.191   3.639   0.526
10485SOL    HW132354   3.158   3.711   0.587
10485SOL    HW232355   3.277   3.603   0.561
10486SOL     OW32356   0.039   0.236   0.684
10486SOL    HW132357   0.137   0.250   0.699
10486SOL    HW232358   0.023   0.142   0.655
10487SOL     OW32359   4.713   1.963   1.668
10487SOL    HW132360   4.757   1.950   1.757
10487SOL    HW232361   4.625   1.915   1.667
10488SOL     OW32362   3.379   1.575   5.582
10488SOL    HW132363   3.318   1.627   5.521
10488SOL    HW232364   3.474   1.588   5.553
10489SOL     OW32365   0.126   0.107   4.878
10489SOL    HW132366   0.080   0.035   4.930
10489SOL    HW232367   0.220   0.077   4.858
10490SOL     OW32368   5.666   1.836   0.535
10490SOL    HW132369   5.636   1.888   0.615
10490SOL    HW232370   5.634   1.882   0.452
10491SOL     OW32371   2.914   2.393   6.048
10491SOL    HW132372   2.886   2.355   6.136
10491SOL    HW232373   2.946   2.487   6.061
10492SOL     OW32374   5.466   5.628   0.873
10492SOL    HW132375   5.507   5.619   0.783
10492SOL    HW232376   5.489   5.548   0.929
10493SOL     OW32377   3.397   0.204   1.487
10493SOL    HW132378   3.408   0.246   1.577
10493SOL    HW232379   3.384   0.276   1.419
10494SOL     OW32380   6.264   4.145   5.686
10494SOL    HW132381   6.328   4.142   5.763
10494SOL    HW232382   6.201   4.067   5.692
10495SOL     OW32383   1.715   6.541   1.405
10495SOL    HW132384   1.617   6.559   1.397
10495SOL    HW232385   1.753   6.522   1.315
10496SOL     OW32386   6.624   3.734   6.684
10496SOL    HW132387   6.667   3.819   6.654
10496SOL    HW232388   6.582   3.688   6.607
10497SOL     OW32389   1.866   6.984   2.043
10497SOL    HW132390   1.777   6.959   2.005
10497SOL    HW232391   1.862   6.981   2.142
10498SOL     OW32392   5.057   5.410   0.976
10498SOL    HW132393   4.964   5.442   0.960
10498SOL    HW232394   5.115   5.488   1.003
10499SOL     OW32395   4.460   6.835   2.042
10499SOL    HW132396   4.389   6.905   2.031
10499SOL    HW232397   4.543   6.865   1.995
10500SOL     OW32398   6.240   1.251   5.897
10500SOL    HW132399   6.241   1.349   5.878
10500SOL    HW232400   6.329   1.211   5.874
10501SOL     OW32401   2.452   5.784   2.115
10501SOL    HW132402   2.510   5.776   2.196
10501SOL    HW232403   2.489   5.855   2.055
10502SOL     OW32404   2.563   1.514   2.099
10502SOL    HW132405   2.640   1.536   2.158
10502SOL    HW232406   2.597   1.476   2.013
10503SOL     OW32407   4.738   2.566   0.995
10503SOL    HW132408   4.716   2.476   0.957
10503SOL    HW232409   4.713   2.568   1.092
10504SOL     OW32410   1.415   1.982   5.830
10504SOL    HW132411   1.365   2.021   5.753
10504SOL    HW232412   1.444   1.889   5.807
10505SOL     OW32413   5.056   5.001   0.794
10505SOL    HW132414   5.102   4.915   0.769
10505SOL    HW232415   4.987   5.023   0.726
10506SOL     OW32416   0.433   3.998   0.282
10506SOL    HW132417   0.470   4.088   0.309
10506SOL    HW232418   0.359   3.973   0.343
10507SOL     OW32419   1.851   6.773   0.804
10507SOL    HW132420   1.918   6.827   0.855
10507SOL    HW232421   1.865   6.676   0.824
10508SOL     OW32422   6.237   5.707   4.316
10508SOL    HW132423   6.320   5.664   4.281
10508SOL    HW232424   6.213   5.668   4.405
10509SOL     OW32425   0.018   4.760   4.877
10509SOL    HW132426   0.081   4.832   4.906
10509SOL    HW232427   0.044   4.674   4.920
10510SOL     OW32428   4.900   5.672   6.427
10510SOL    HW132429   4.847   5.668   6.512
10510SOL    HW232430   4.992   5.638   6.444
10511SOL     OW32431   3.185   1.260   2.403
10511SOL    HW132432   3.213   1.241   2.497
10511SOL    HW232433   3.208   1.355   2.380
10512SOL     OW32434   4.560   0.710   6.402
10512SOL    HW132435   4.544   0.799   6.358
10512SOL    HW232436   4.568   0.639   6.332
10513SOL     OW32437   5.949   2.405   4.603
10513SOL    HW132438   5.891   2.373   4.528
10513SOL    HW232439   5.985   2.326   4.653
10514SOL     OW32440   0.366   3.147   1.481
10514SOL    HW132441   0.382   3.187   1.390
10514SOL    HW232442   0.290   3.195   1.525
10515SOL     OW32443   0.609   3.680   3.804
10515SOL    HW132444   0.594   3.764   3.753
10515SOL    HW232445   0.699   3.643   3.781
10516SOL     OW32446   4.303   1.612   0.610
10516SOL    HW132447   4.224   1.578   0.560
10516SOL    HW232448   4.368   1.537   0.626
10517SOL     OW32449   0.718   2.969   1.660
10517SOL    HW132450   0.709   2.985   1.561
10517SOL    HW232451   0.654   3.027   1.709
10518SOL     OW32452   0.434   5.965   0.552
10518SOL    HW132453   0.339   5.961   0.522
10518SOL    HW232454   0.456   6.059   0.580
10519SOL     OW32455   3.692   3.485   0.886
10519SOL    HW132456   3.748   3.540   0.824
10519SOL    HW232457   3.655   3.543   0.958
10520SOL     OW32458   0.416   2.150   6.138
10520SOL    HW132459   0.403   2.209   6.058
10520SOL    HW232460   0.371   2.062   6.123
10521SOL     OW32461   6.379   5.543   1.679
10521SOL    HW132462   6.345   5.613   1.741
10521SOL    HW232463   6.336   5.455   1.700
10522SOL     OW32464   0.665   0.255   5.253
10522SOL    HW132465   0.719   0.339   5.263
10522SOL    HW232466   0.651   0.236   5.156
10523SOL     OW32467   0.734   4.736   2.834
10523SOL    HW132468   0.759   4.754   2.739
10523SOL    HW232469   0.671   4.807   2.867
10524SOL     OW32470   0.688   0.001   3.824
10524SOL    HW132471   0.612   6.995   3.885
10524SOL    HW232472   0.770   6.970   3.853
10525SOL     OW32473   4.725   0.382   6.279
10525SOL    HW132474   4.787   0.399   6.356
10525SOL    HW232475   4.630   0.395   6.309
10526SOL     OW32476   1.675   6.841   3.436
10526SOL    HW132477   1.757   6.894   3.415
10526SOL    HW232478   1.624   6.824   3.352
10527SOL     OW32479   0.768   1.579   5.307
10527SOL    HW132480   0.790   1.511   5.377
10527SOL    HW232481   0.838   1.576   5.235
10528SOL     OW32482   1.430   3.297   6.305
10528SOL    HW132483   1.421   3.339   6.396
10528SOL    HW232484   1.476   3.209   6.314
10529SOL     OW32485   2.895   6.427   4.228
10529SOL    HW132486   2.811   6.437   4.281
10529SOL    HW232487   2.970   6.475   4.273
10530SOL     OW32488   1.542   6.861   6.420
10530SOL    HW132489   1.544   6.960   6.409
10530SOL    HW232490   1.456   6.834   6.463
10531SOL     OW32491   1.638   2.812   4.474
10531SOL    HW132492   1.673   2.718   4.466
10531SOL    HW232493   1.661   2.849   4.564
10532SOL     OW32494   1.105   6.772   6.088
10532SOL    HW132495   1.039   6.843   6.061
10532SOL    HW232496   1.077   6.732   6.175
10533SOL     OW32497   3.064   6.522   3.198
10533SOL    HW132498   3.135   6.578   3.241
10533SOL    HW232499   2.987   6.513   3.261
10534SOL     OW32500   6.613   5.703   1.640
10534SOL    HW132501   6.528   5.652   1.649
10534SOL    HW232502   6.597   5.799   1.662
10535SOL     OW32503   1.083   2.048   1.843
10535SOL    HW132504   1.009   2.088   1.789
10535SOL    HW232505   1.129   1.977   1.790
10536SOL     OW32506   4.002   1.069   3.951
10536SOL    HW132507   4.004   1.012   3.868
10536SOL    HW232508   3.969   1.160   3.928
10537SOL     OW32509   4.281   6.018   3.812
10537SOL    HW132510   4.268   6.106   3.766
10537SOL    HW232511   4.287   5.945   3.743
10538SOL     OW32512   5.732   3.169   0.388
10538SOL    HW132513   5.780   3.109   0.452
10538SOL    HW232514   5.799   3.213   0.328
10539SOL     OW32515   0.793   4.962   6.803
10539SOL    HW132516   0.702   4.940   6.768
10539SOL    HW232517   0.853   4.884   6.792
10540SOL     OW32518   1.585   2.249   5.852
10540SOL    HW132519   1.547   2.157   5.844
10540SOL    HW232520   1.638   2.256   5.936
10541SOL     OW32521   2.986   3.785   2.236
10541SOL    HW132522   2.970   3.749   2.328
10541SOL    HW232523   3.025   3.713   2.179
10542SOL     OW32524   0.684   0.286   5.589
10542SOL    HW132525   0.605   0.347   5.599
10542SOL    HW232526   0.696   0.262   5.493
10543SOL     OW32527   6.926   1.389   5.132
10543SOL    HW132528   6.986   1.352   5.203
10543SOL    HW232529   6.970   1.466   5.087
10544SOL     OW32530   2.589   6.563   2.064
10544SOL    HW132531   2.680   6.533   2.036
10544SOL    HW232532   2.594   6.604   2.155
10545SOL     OW32533   0.265   2.249   1.179
10545SOL    HW132534   0.277   2.189   1.258
10545SOL    HW232535   0.332   2.225   1.108
10546SOL     OW32536   1.646   0.623   0.867
10546SOL    HW132537   1.577   0.595   0.800
10546SOL    HW232538   1.692   0.542   0.903
10547SOL     OW32539   4.993   3.061   2.886
10547SOL    HW132540   5.018   3.153   2.856
10547SOL    HW232541   4.949   3.065   2.976
10548SOL     OW32542   5.835   4.519   4.074
10548SOL    HW132543   5.906   4.480   4.015
10548SOL    HW232544   5.870   4.528   4.167
10549SOL     OW32545   0.666   0.229   1.847
10549SOL    HW132546   0.572   0.207   1.824
10549SOL    HW232547   0.670   0.319   1.891
10550SOL     OW32548   4.675   6.983   3.660
10550SOL    HW132549   4.578   6.969   3.643
10550SOL    HW232550   4.703   6.927   3.739
10551SOL     OW32551   1.456   2.567   6.734
10551SOL    HW132552   1.399   2.505   6.787
10551SOL    HW232553   1.459   2.538   6.639
10552SOL     OW32554   2.676   0.913   5.690
10552SOL    HW132555   2.735   0.916   5.609
10552SOL    HW232556   2.584   0.943   5.665
10553SOL     OW32557   0.507   4.580   1.597
10553SOL    HW132558   0.511   4.670   1.640
10553SOL    HW232559   0.478   4.590   1.502
10554SOL     OW32560   5.916   4.743   0.644
10554SOL    HW132561   5.978   4.816   0.674
10554SOL    HW232562   5.876   4.699   0.724
10555SOL     OW32563   2.301   2.652   0.331
10555SOL    HW132564   2.348   2.654   0.420
10555SOL    HW232565   2.232   2.580   0.332
10556SOL     OW32566   1.791   1.534   4.918
10556SOL    HW132567   1.751   1.469   4.853
10556SOL    HW232568   1.726   1.606   4.938
10557SOL     OW32569   1.639   3.077   3.339
10557SOL    HW132570   1.651   3.164   3.292
10557SOL    HW232571   1.726   3.027   3.339
10558SOL     OW32572   4.200   0.186   4.269
10558SOL    HW132573   4.159   0.211   4.357
10558SOL    HW232574   4.250   0.100   4.280
10559SOL     OW32575   5.009   0.520   1.970
10559SOL    HW132576   5.040   0.606   2.009
10559SOL    HW232577   4.990   0.532   1.873
10560SOL     OW32578   4.550   6.679   2.619
10560SOL    HW132579   4.620   6.746   2.594
10560SOL    HW232580   4.513   6.637   2.536
10561SOL     OW32581   3.571   4.161   1.631
10561SOL    HW132582   3.669   4.159   1.615
10561SOL    HW232583   3.543   4.076   1.676
10562SOL     OW32584   3.821   5.616   6.844
10562SOL    HW132585   3.920   5.626   6.856
10562SOL    HW232586   3.802   5.530   6.795
10563SOL     OW32587   0.286   1.896   3.463
10563SOL    HW132588   0.197   1.907   3.417
10563SOL    HW232589   0.330   1.812   3.430
10564SOL     OW32590   6.056   6.157   2.829
10564SOL    HW132591   6.005   6.236   2.795
10564SOL    HW232592   6.152   6.181   2.838
10565SOL     OW32593   0.806   6.605   5.523
10565SOL    HW132594   0.715   6.646   5.509
10565SOL    HW232595   0.871   6.677   5.546
10566SOL     OW32596   3.659   2.035   6.569
10566SOL    HW132597   3.575   2.007   6.615
10566SOL    HW232598   3.684   2.127   6.598
10567SOL     OW32599   2.753   1.929   5.030
10567SOL    HW132600   2.787   1.904   5.120
10567SOL    HW232601   2.743   2.029   5.024
10568SOL     OW32602   6.870   3.381   1.568
10568SOL    HW132603   6.788   3.429   1.601
10568SOL    HW232604   6.844   3.292   1.531
10569SOL     OW32605   5.848   1.542   2.438
10569SOL    HW132606   5.899   1.523   2.523
10569SOL    HW232607   5.909   1.588   2.373
10570SOL     OW32608   1.446   5.017   3.216
10570SOL    HW132609   1.509   4.952   3.258
10570SOL    HW232610   1.352   4.982   3.223
10571SOL     OW32611   6.884   4.220   5.206
10571SOL    HW132612   6.896   4.213   5.107
10571SOL    HW232613   6.878   4.317   5.232
10572SOL     OW32614   6.621   3.760   3.385
10572SOL    HW132615   6.647   3.848   3.423
10572SOL    HW232616   6.703   3.704   3.370
10573SOL     OW32617   5.568   0.420   4.946
10573SOL    HW132618   5.530   0.452   5.033
10573SOL    HW232619   5.503   0.356   4.903
10574SOL     OW32620   1.258   1.575   4.109
10574SOL    HW132621   1.163   1.582   4.078
10574SOL    HW232622   1.264   1.603   4.205
10575SOL     OW32623   0.143   1.236   3.904
10575SOL    HW132624   0.097   1.195   3.982
10575SOL    HW232625   0.235   1.264   3.930
10576SOL     OW32626   6.927   5.365   5.266
10576SOL    HW132627   7.008   5.418   5.241
10576SOL    HW232628   6.865   5.423   5.319
10577SOL     OW32629   1.938   4.450   0.296
10577SOL    HW132630   1.913   4.405   0.210
10577SOL    HW232631   1.887   4.534   0.306
10578SOL     OW32632   4.703   1.420   2.721
10578SOL    HW132633   4.650   1.487   2.773
10578SOL    HW232634   4.786   1.396   2.773
10579SOL     OW32635   4.167   2.856   1.676
10579SOL    HW132636   4.090   2.884   1.733
10579SOL    HW232637   4.245   2.917   1.692
10580SOL     OW32638   6.499   0.593   6.451
10580SOL    HW132639   6.457   0.511   6.412
10580SOL    HW232640   6.599   0.584   6.445
10581SOL     OW32641   5.947   0.138   2.717
10581SOL    HW132642   5.894   0.114   2.799
10581SOL    HW232643   5.888   0.183   2.651
10582SOL     OW32644   4.872   4.712   5.714
10582SOL    HW132645   4.853   4.629   5.767
10582SOL    HW232646   4.793   4.773   5.716
10583SOL     OW32647   3.788   1.268   3.550
10583SOL    HW132648   3.731   1.191   3.519
10583SOL    HW232649   3.730   1.348   3.565
10584SOL     OW32650   6.388   0.147   0.220
10584SOL    HW132651   6.336   0.095   0.152
10584SOL    HW232652   6.483   0.117   0.220
10585SOL     OW32653   2.488   1.529   5.301
10585SOL    HW132654   2.473   1.621   5.264
10585SOL    HW232655   2.556   1.533   5.374
10586SOL     OW32656   6.798   5.389   4.672
10586SOL    HW132657   6.702   5.383   4.648
10586SOL    HW232658   6.820   5.484   4.698
10587SOL     OW32659   6.398   4.710   6.881
10587SOL    HW132660   6.304   4.706   6.846
10587SOL    HW232661   6.397   4.701   6.980
10588SOL     OW32662   1.793   3.480   4.571
10588SOL    HW132663   1.816   3.519   4.482
10588SOL    HW232664   1.739   3.396   4.558
10589SOL     OW32665   6.695   1.124   4.428
10589SOL    HW132666   6.621   1.057   4.421
10589SOL    HW232667   6.727   1.127   4.523
10590SOL     OW32668   0.647   0.130   1.127
10590SOL    HW132669   0.689   0.060   1.186
10590SOL    HW232670   0.556   0.099   1.098
10591SOL     OW32671   1.856   1.844   6.922
10591SOL    HW132672   1.831   1.935   6.887
10591SOL    HW232673   1.922   1.802   6.860
10592SOL     OW32674   5.912   3.545   2.695
10592SOL    HW132675   5.812   3.549   2.689
10592SOL    HW232676   5.940   3.521   2.788
10593SOL     OW32677   2.155   6.346   0.340
10593SOL    HW132678   2.119   6.424   0.390
10593SOL    HW232679   2.082   6.282   0.320
10594SOL     OW32680   5.026   0.665   3.055
10594SOL    HW132681   4.957   0.713   3.110
10594SOL    HW232682   5.113   0.667   3.104
10595SOL     OW32683   4.432   6.168   0.204
10595SOL    HW132684   4.374   6.236   0.250
10595SOL    HW232685   4.502   6.216   0.151
10596SOL     OW32686   4.504   0.627   0.412
10596SOL    HW132687   4.591   0.590   0.442
10596SOL    HW232688   4.465   0.568   0.341
10597SOL     OW32689   3.198   1.056   5.686
10597SOL    HW132690   3.277   1.116   5.672
10597SOL    HW232691   3.225   0.961   5.674
10598SOL     OW32692   3.516   2.937   0.126
10598SOL    HW132693   3.490   2.980   0.039
10598SOL    HW232694   3.615   2.944   0.138
10599SOL     OW32695   5.263   3.666   6.105
10599SOL    HW132696   5.344   3.680   6.049
10599SOL    HW232697   5.220   3.579   6.080
10600SOL     OW32698   3.154   2.832   0.376
10600SOL    HW132699   3.087   2.856   0.305
10600SOL    HW232700   3.235   2.793   0.334
10601SOL     OW32701   1.666   4.701   5.304
10601SOL    HW132702   1.641   4.786   5.257
10601SOL    HW232703   1.748   4.663   5.261
10602SOL     OW32704   2.339   0.704   1.971
10602SOL    HW132705   2.309   0.623   1.920
10602SOL    HW232706   2.419   0.681   2.026
10603SOL     OW32707   3.936   0.284   3.049
10603SOL    HW132708   3.933   0.186   3.025
10603SOL    HW232709   4.031   0.315   3.048
10604SOL     OW32710   5.994   5.850   5.155
10604SOL    HW132711   6.010   5.755   5.181
10604SOL    HW232712   6.045   5.871   5.072
10605SOL     OW32713   1.980   6.564   6.776
10605SOL    HW132714   1.938   6.633   6.717
10605SOL    HW232715   1.908   6.507   6.816
10606SOL     OW32716   0.284   0.433   1.774
10606SOL    HW132717   0.313   0.357   1.716
10606SOL    HW232718   0.341   0.436   1.856
10607SOL     OW32719   4.487   5.045   5.807
10607SOL    HW132720   4.515   5.110   5.736
10607SOL    HW232721   4.404   4.998   5.778
10608SOL     OW32722   5.699   3.101   5.671
10608SOL    HW132723   5.712   3.039   5.748
10608SOL    HW232724   5.688   3.048   5.587
10609SOL     OW32725   2.217   6.628   6.877
10609SOL    HW132726   2.216   6.570   6.959
10609SOL    HW232727   2.135   6.611   6.823
10610SOL     OW32728   0.850   2.330   4.382
10610SOL    HW132729   0.916   2.311   4.455
10610SOL    HW232730   0.844   2.429   4.368
10611SOL     OW32731   2.638   4.030   6.640
10611SOL    HW132732   2.713   4.004   6.579
10611SOL    HW232733   2.649   4.126   6.668
10612SOL     OW32734   3.533   1.607   4.661
10612SOL    HW132735   3.485   1.656   4.588
10612SOL    HW232736   3.589   1.535   4.621
10613SOL     OW32737   5.450   5.837   5.410
10613SOL    HW132738   5.371   5.785   5.377
10613SOL    HW232739   5.482   5.898   5.337
10614SOL     OW32740   5.209   1.715   4.565
10614SOL    HW132741   5.289   1.730   4.507
10614SOL    HW232742   5.232   1.651   4.639
10615SOL     OW32743   4.554   0.657   5.712
10615SOL    HW132744   4.501   0.711   5.647
10615SOL    HW232745   4.495   0.630   5.788
10616SOL     OW32746   2.390   6.957   0.081
10616SOL    HW132747   2.415   0.036   0.088
10616SOL    HW232748   2.403   6.912   0.169
10617SOL     OW32749   3.127   3.684   1.382
10617SOL    HW132750   3.213   3.730   1.359
10617SOL    HW232751   3.137   3.586   1.367
10618SOL     OW32752   1.059   3.454   5.544
10618SOL    HW132753   1.078   3.551   5.561
10618SOL    HW232754   0.973   3.446   5.493
10619SOL     OW32755   0.048   3.237   2.441
10619SOL    HW132756   7.013   3.274   2.518
10619SOL    HW232757   7.002   3.195   2.375
10620SOL     OW32758   1.007   5.852   5.031
10620SOL    HW132759   0.980   5.926   5.093
10620SOL    HW232760   1.000   5.883   4.936
10621SOL     OW32761   0.710   4.983   1.708
10621SOL    HW132762   0.785   4.920   1.729
10621SOL    HW232763   0.746   5.069   1.675
10622SOL     OW32764   4.819   2.362   1.872
10622SOL    HW132765   4.860   2.402   1.954
10622SOL    HW232766   4.726   2.330   1.893
10623SOL     OW32767   0.372   4.747   5.369
10623SOL    HW132768   0.350   4.655   5.402
10623SOL    HW232769   0.289   4.792   5.337
10624SOL     OW32770   0.883   2.042   4.873
10624SOL    HW132771   0.908   1.984   4.796
10624SOL    HW232772   0.783   2.049   4.879
10625SOL     OW32773   0.737   4.622   1.007
10625SOL    HW132774   0.729   4.556   0.932
10625SOL    HW232775   0.744   4.572   1.094
10626SOL     OW32776   2.717   2.776   0.480
10626SOL    HW132777   2.757   2.853   0.529
10626SOL    HW232778   2.621   2.797   0.459
10627SOL     OW32779   5.061   0.354   1.081
10627SOL    HW132780   5.006   0.271   1.073
10627SOL    HW232781   5.158   0.331   1.077
10628SOL     OW32782   4.527   6.578   0.179
10628SOL    HW132783   4.460   6.631   0.231
10628SOL    HW232784   4.499   6.574   0.083
10629SOL     OW32785   2.521   4.952   5.210
10629SOL    HW132786   2.529   4.996   5.120
10629SOL    HW232787   2.591   4.881   5.218
10630SOL     OW32788   5.978   1.314   3.807
10630SOL    HW132789   6.064   1.362   3.794
10630SOL    HW232790   5.950   1.271   3.721
10631SOL     OW32791   3.236   5.335   5.403
10631SOL    HW132792   3.170   5.333   5.477
10631SOL    HW232793   3.222   5.255   5.344
10632SOL     OW32794   5.596   1.376   3.476
10632SOL    HW132795   5.572   1.435   3.553
10632SOL    HW232796   5.567   1.282   3.495
10633SOL     OW32797   2.109   2.640   0.953
10633SOL    HW132798   2.110   2.542   0.974
10633SOL    HW232799   2.169   2.658   0.875
10634SOL     OW32800   3.340   4.562   0.542
10634SOL    HW132801   3.275   4.621   0.495
10634SOL    HW232802   3.418   4.617   0.575
10635SOL     OW32803   1.543   3.350   0.809
10635SOL    HW132804   1.518   3.279   0.743
10635SOL    HW232805   1.641   3.369   0.802
10636SOL     OW32806   0.562   2.115   1.275
10636SOL    HW132807   0.661   2.109   1.263
10636SOL    HW232808   0.542   2.170   1.357
10637SOL     OW32809   2.512   4.315   6.006
10637SOL    HW132810   2.465   4.339   6.091
10637SOL    HW232811   2.447   4.315   5.931
10638SOL     OW32812   6.437   5.246   2.530
10638SOL    HW132813   6.356   5.255   2.588
10638SOL    HW232814   6.511   5.205   2.583
10639SOL     OW32815   1.068   3.216   3.423
10639SOL    HW132816   1.073   3.273   3.341
10639SOL    HW232817   1.147   3.233   3.481
10640SOL     OW32818   3.725   0.162   5.068
10640SOL    HW132819   3.708   0.067   5.041
10640SOL    HW232820   3.679   0.224   5.004
10641SOL     OW32821   2.141   1.901   1.923
10641SOL    HW132822   2.171   1.996   1.912
10641SOL    HW232823   2.149   1.854   1.835
10642SOL     OW32824   6.304   2.508   1.470
10642SOL    HW132825   6.330   2.602   1.492
10642SOL    HW232826   6.265   2.465   1.551
10643SOL     OW32827   1.996   5.600   5.164
10643SOL    HW132828   2.086   5.602   5.122
10643SOL    HW232829   2.001   5.638   5.256
10644SOL     OW32830   5.708   2.727   2.742
10644SOL    HW132831   5.733   2.791   2.815
10644SOL    HW232832   5.695   2.777   2.656
10645SOL     OW32833   1.740   2.595   4.958
10645SOL    HW132834   1.746   2.513   5.014
10645SOL    HW232835   1.742   2.570   4.861
10646SOL     OW32836   0.580   0.579   6.613
10646SOL    HW132837   0.618   0.532   6.693
10646SOL    HW232838   0.555   0.672   6.638
10647SOL     OW32839   2.728   5.433   4.984
10647SOL    HW132840   2.671   5.393   5.055
10647SOL    HW232841   2.825   5.423   5.009
10648SOL     OW32842   6.007   4.111   6.171
10648SOL    HW132843   6.023   4.073   6.080
10648SOL    HW232844   5.924   4.071   6.210
10649SOL     OW32845   0.101   4.537   2.506
10649SOL    HW132846   0.049   4.501   2.583
10649SOL    HW232847   0.079   4.633   2.493
10650SOL     OW32848   1.033   0.518   4.052
10650SOL    HW132849   0.976   0.591   4.089
10650SOL    HW232850   0.975   0.451   4.005
10651SOL     OW32851   5.635   6.574   0.021
10651SOL    HW132852   5.662   6.490   6.990
10651SOL    HW232853   5.583   6.551   0.103
10652SOL     OW32854   3.611   0.027   5.539
10652SOL    HW132855   3.601   0.043   5.637
10652SOL    HW232856   3.682   6.976   5.523
10653SOL     OW32857   4.117   5.092   2.995
10653SOL    HW132858   4.156   5.019   2.939
10653SOL    HW232859   4.089   5.168   2.937
10654SOL     OW32860   5.406   0.868   0.487
10654SOL    HW132861   5.435   0.955   0.528
10654SOL    HW232862   5.312   0.876   0.455
10655SOL     OW32863   2.292   5.403   0.835
10655SOL    HW132864   2.202   5.360   0.847
10655SOL    HW232865   2.361   5.352   0.887
10656SOL     OW32866   6.797   2.307   2.528
10656SOL    HW132867   6.875   2.335   2.585
10656SOL    HW232868   6.831   2.253   2.451
10657SOL     OW32869   6.482   0.293   5.843
10657SOL    HW132870   6.409   0.245   5.891
10657SOL    HW232871   6.443   0.350   5.771
10658SOL     OW32872   6.292   4.842   4.770
10658SOL    HW132873   6.200   4.806   4.754
10658SOL    HW232874   6.338   4.786   4.839
10659SOL     OW32875   0.385   5.555   1.025
10659SOL    HW132876   0.312   5.490   1.048
10659SOL    HW232877   0.418   5.599   1.109
10660SOL     OW32878   4.839   4.340   6.319
10660SOL    HW132879   4.887   4.370   6.402
10660SOL    HW232880   4.872   4.249   6.294
10661SOL     OW32881   1.397   6.841   1.714
10661SOL    HW132882   1.474   6.880   1.663
10661SOL    HW232883   1.323   6.908   1.719
10662SOL     OW32884   5.607   6.529   3.007
10662SOL    HW132885   5.510   6.535   2.982
10662SOL    HW232886   5.625   6.589   3.085
10663SOL     OW32887   0.405   1.928   2.000
10663SOL    HW132888   0.382   1.928   2.098
10663SOL    HW232889   0.483   1.989   1.984
10664SOL     OW32890   0.134   4.071   4.807
10664SOL    HW132891   0.035   4.063   4.821
10664SOL    HW232892   0.159   4.024   4.723
10665SOL     OW32893   1.087   1.228   0.336
10665SOL    HW132894   1.182   1.257   0.326
10665SOL    HW232895   1.084   1.130   0.356
10666SOL     OW32896   3.268   3.732   1.795
10666SOL    HW132897   3.297   3.724   1.890
10666SOL    HW232898   3.280   3.827   1.764
10667SOL     OW32899   3.905   3.070   5.564
10667SOL    HW132900   3.955   2.984   5.558
10667SOL    HW232901   3.946   3.136   5.502
10668SOL     OW32902   2.340   0.288   4.981
10668SOL    HW132903   2.393   0.373   4.972
10668SOL    HW232904   2.255   0.296   4.929
10669SOL     OW32905   5.717   6.816   0.661
10669SOL    HW132906   5.778   6.768   0.598
10669SOL    HW232907   5.768   6.885   0.712
10670SOL     OW32908   5.186   3.523   5.121
10670SOL    HW132909   5.186   3.605   5.063
10670SOL    HW232910   5.106   3.525   5.180
10671SOL     OW32911   2.433   2.642   3.020
10671SOL    HW132912   2.395   2.696   2.945
10671SOL    HW232913   2.393   2.674   3.107
10672SOL     OW32914   6.458   2.691   0.911
10672SOL    HW132915   6.518   2.612   0.896
10672SOL    HW232916   6.373   2.679   0.859
10673SOL     OW32917   1.234   1.384   6.185
10673SOL    HW132918   1.171   1.397   6.261
10673SOL    HW232919   1.225   1.460   6.120
10674SOL     OW32920   3.698   4.059   1.902
10674SOL    HW132921   3.667   4.094   1.991
10674SOL    HW232922   3.714   4.136   1.840
10675SOL     OW32923   1.672   6.565   6.925
10675SOL    HW132924   1.720   6.617   6.995
10675SOL    HW232925   1.725   6.483   6.902
10676SOL     OW32926   6.405   6.071   6.141
10676SOL    HW132927   6.407   6.082   6.240
10676SOL    HW232928   6.437   6.155   6.097
10677SOL     OW32929   1.107   0.943   2.254
10677SOL    HW132930   1.165   0.952   2.335
10677SOL    HW232931   1.032   0.880   2.273
10678SOL     OW32932   3.347   5.970   4.089
10678SOL    HW132933   3.405   6.019   4.024
10678SOL    HW232934   3.361   6.007   4.181
10679SOL     OW32935   4.529   5.728   6.015
10679SOL    HW132936   4.533   5.643   6.067
10679SOL    HW232937   4.618   5.772   6.016
10680SOL     OW32938   2.636   2.111   2.808
10680SOL    HW132939   2.683   2.186   2.760
10680SOL    HW232940   2.629   2.032   2.748
10681SOL     OW32941   1.149   3.704   0.141
10681SOL    HW132942   1.150   3.801   0.167
10681SOL    HW232943   1.091   3.654   0.206
10682SOL     OW32944   1.862   1.203   4.839
10682SOL    HW132945   1.865   1.270   4.914
10682SOL    HW232946   1.935   1.224   4.773
10683SOL     OW32947   3.228   2.101   3.446
10683SOL    HW132948   3.205   2.021   3.502
10683SOL    HW232949   3.325   2.123   3.458
10684SOL     OW32950   5.227   4.033   1.010
10684SOL    HW132951   5.238   3.935   0.997
10684SOL    HW232952   5.222   4.079   0.921
10685SOL     OW32953   0.256   5.562   2.544
10685SOL    HW132954   0.348   5.583   2.509
10685SOL    HW232955   0.264   5.493   2.616
10686SOL     OW32956   1.502   5.067   6.394
10686SOL    HW132957   1.582   5.085   6.450
10686SOL    HW232958   1.531   5.039   6.302
10687SOL     OW32959   6.946   5.090   1.633
10687SOL    HW132960   0.004   5.154   1.622
10687SOL    HW232961   6.918   5.086   1.729
10688SOL     OW32962   6.252   4.212   3.234
10688SOL    HW132963   6.319   4.273   3.191
10688SOL    HW232964   6.188   4.179   3.164
10689SOL     OW32965   0.373   6.263   3.278
10689SOL    HW132966   0.377   6.185   3.341
10689SOL    HW232967   0.426   6.242   3.196
10690SOL     OW32968   0.553   6.511   2.837
10690SOL    HW132969   0.621   6.438   2.847
10690SOL    HW232970   0.487   6.506   2.912
10691SOL     OW32971   0.009   2.172   2.066
10691SOL    HW132972   0.006   2.194   1.968
10691SOL    HW232973   0.065   2.091   2.080
10692SOL     OW32974   2.615   5.528   3.172
10692SOL    HW132975   2.585   5.600   3.110
10692SOL    HW232976   2.627   5.443   3.120
10693SOL     OW32977   2.980   0.566   0.137
10693SOL    HW132978   3.034   0.595   0.059
10693SOL    HW232979   2.990   0.467   0.150
10694SOL     OW32980   5.249   6.717   1.698
10694SOL    HW132981   5.344   6.738   1.722
10694SOL    HW232982   5.189   6.787   1.738
10695SOL     OW32983   4.991   2.277   2.787
10695SOL    HW132984   4.900   2.245   2.761
10695SOL    HW232985   5.059   2.241   2.724
10696SOL     OW32986   6.893   3.642   3.819
10696SOL    HW132987   6.943   3.647   3.905
10696SOL    HW232988   6.955   3.663   3.743
10697SOL     OW32989   0.499   6.109   4.435
10697SOL    HW132990   0.469   6.204   4.432
10697SOL    HW232991   0.420   6.049   4.447
10698SOL     OW32992   4.282   5.663   4.743
10698SOL    HW132993   4.257   5.737   4.680
10698SOL    HW232994   4.381   5.660   4.753
10699SOL     OW32995   3.678   2.816   1.788
10699SOL    HW132996   3.631   2.822   1.876
10699SOL    HW232997   3.710   2.722   1.774
10700SOL     OW32998   0.165   6.192   1.098
10700SOL    HW132999   0.191   6.189   1.001
10700SOL    HW233000   0.238   6.235   1.151
10701SOL     OW33001   2.996   5.828   0.000
10701SOL    HW133002   2.964   5.873   0.083
10701SOL    HW233003   3.053   5.750   0.025
10702SOL     OW33004   5.956   3.144   1.839
10702SOL    HW133005   5.917   3.067   1.890
10702SOL    HW233006   6.001   3.109   1.756
10703SOL     OW33007   3.147   3.529   4.967
10703SOL    HW133008   3.202   3.469   5.026
10703SOL    HW233009   3.182   3.525   4.874
10704SOL     OW33010   6.451   5.427   1.387
10704SOL    HW133011   6.464   5.449   1.484
10704SOL    HW233012   6.401   5.501   1.343
10705SOL     OW33013   6.190   4.293   2.000
10705SOL    HW133014   6.235   4.380   2.021
10705SOL    HW233015   6.151   4.254   2.083
10706SOL     OW33016   4.744   6.790   2.446
10706SOL    HW133017   4.663   6.793   2.388
10706SOL    HW233018   4.805   6.866   2.422
10707SOL     OW33019   0.081   6.692   3.671
10707SOL    HW133020   0.130   6.675   3.585
10707SOL    HW233021   0.019   6.615   3.690
10708SOL     OW33022   4.482   0.910   2.539
10708SOL    HW133023   4.457   1.006   2.528
10708SOL    HW233024   4.444   0.857   2.462
10709SOL     OW33025   6.006   6.705   5.460
10709SOL    HW133026   5.962   6.791   5.488
10709SOL    HW233027   5.972   6.630   5.517
10710SOL     OW33028   0.149   6.429   4.608
10710SOL    HW133029   0.171   6.346   4.660
10710SOL    HW233030   0.069   6.473   4.648
10711SOL     OW33031   1.734   5.846   3.405
10711SOL    HW133032   1.810   5.797   3.361
10711SOL    HW233033   1.660   5.859   3.338
10712SOL     OW33034   2.434   0.802   1.247
10712SOL    HW133035   2.492   0.735   1.201
10712SOL    HW233036   2.338   0.772   1.242
10713SOL     OW33037   1.154   3.440   1.423
10713SOL    HW133038   1.122   3.527   1.385
10713SOL    HW233039   1.126   3.365   1.364
10714SOL     OW33040   6.396   3.579   5.208
10714SOL    HW133041   6.369   3.521   5.285
10714SOL    HW233042   6.427   3.667   5.242
10715SOL     OW33043   4.954   6.851   3.073
10715SOL    HW133044   4.953   6.945   3.107
10715SOL    HW233045   5.033   6.839   3.012
10716SOL     OW33046   5.911   3.218   4.519
10716SOL    HW133047   5.869   3.232   4.608
10716SOL    HW233048   5.844   3.237   4.447
10717SOL     OW33049   0.968   2.739   0.880
10717SOL    HW133050   1.005   2.776   0.795
10717SOL    HW233051   0.868   2.745   0.878
10718SOL     OW33052   0.522   3.006   6.691
10718SOL    HW133053   0.425   3.023   6.673
10718SOL    HW233054   0.577   3.082   6.657
10719SOL     OW33055   5.229   5.937   0.152
10719SOL    HW133056   5.273   5.993   0.082
10719SOL    HW233057   5.294   5.869   0.185
10720SOL     OW33058   6.800   2.865   5.745
10720SOL    HW133059   6.867   2.800   5.782
10720SOL    HW233060   6.711   2.848   5.788
10721SOL     OW33061   6.037   3.975   5.316
10721SOL    HW133062   6.097   3.897   5.298
10721SOL    HW233063   6.023   4.026   5.231
10722SOL     OW33064   0.280   3.968   0.521
10722SOL    HW133065   0.280   3.917   0.607
10722SOL    HW233066   0.189   3.965   0.480
10723SOL     OW33067   0.243   3.774   6.059
10723SOL    HW133068   0.157   3.747   6.015
10723SOL    HW233069   0.296   3.692   6.083
10724SOL     OW33070   4.680   0.919   0.274
10724SOL    HW133071   4.681   1.002   0.330
10724SOL    HW233072   4.607   0.859   0.306
10725SOL     OW33073   0.084   5.052   3.702
10725SOL    HW133074   0.160   5.106   3.739
10725SOL    HW233075   0.083   5.062   3.602
10726SOL     OW33076   5.626   6.161   5.770
10726SOL    HW133077   5.563   6.094   5.733
10726SOL    HW233078   5.673   6.123   5.850
10727SOL     OW33079   0.573   5.467   4.645
10727SOL    HW133080   0.536   5.553   4.679
10727SOL    HW233081   0.648   5.486   4.581
10728SOL     OW33082   6.154   6.270   1.728
10728SOL    HW133083   6.173   6.180   1.687
10728SOL    HW233084   6.209   6.340   1.683
10729SOL     OW33085   5.972   0.731   3.239
10729SOL    HW133086   6.040   0.790   3.195
10729SOL    HW233087   5.898   0.788   3.275
10730SOL     OW33088   2.540   0.124   0.819
10730SOL    HW133089   2.468   0.173   0.770
10730SOL    HW233090   2.608   0.189   0.852
10731SOL     OW33091   2.470   5.853   6.835
10731SOL    HW133092   2.567   5.833   6.841
10731SOL    HW233093   2.419   5.768   6.820
10732SOL     OW33094   5.344   5.606   2.711
10732SOL    HW133095   5.274   5.661   2.666
10732SOL    HW233096   5.400   5.664   2.769
10733SOL     OW33097   5.229   2.004   6.835
10733SOL    HW133098   5.248   1.966   6.744
10733SOL    HW233099   5.162   1.947   6.882
10734SOL     OW33100   1.185   0.257   6.870
10734SOL    HW133101   1.251   0.186   6.895
10734SOL    HW233102   1.163   0.312   6.951
10735SOL     OW33103   1.476   4.594   2.995
10735SOL    HW133104   1.533   4.557   2.922
10735SOL    HW233105   1.461   4.691   2.980
10736SOL     OW33106   0.681   0.776   3.451
10736SOL    HW133107   0.702   0.803   3.357
10736SOL    HW233108   0.762   0.791   3.508
10737SOL     OW33109   1.327   1.656   0.377
10737SOL    HW133110   1.417   1.637   0.416
10737SOL    HW233111   1.256   1.640   0.447
10738SOL     OW33112   2.351   0.758   2.485
10738SOL    HW133113   2.318   0.734   2.576
10738SOL    HW233114   2.449   0.735   2.478
10739SOL     OW33115   0.412   1.387   1.507
10739SOL    HW133116   0.366   1.458   1.453
10739SOL    HW233117   0.467   1.431   1.578
10740SOL     OW33118   1.501   4.296   5.846
10740SOL    HW133119   1.590   4.299   5.801
10740SOL    HW233120   1.436   4.246   5.788
10741SOL     OW33121   0.362   0.748   3.169
10741SOL    HW133122   0.355   0.767   3.267
10741SOL    HW233123   0.403   0.658   3.155
10742SOL     OW33124   6.251   0.318   1.966
10742SOL    HW133125   6.318   0.366   1.909
10742SOL    HW233126   6.290   0.232   1.998
10743SOL     OW33127   2.817   1.955   3.848
10743SOL    HW133128   2.881   2.021   3.887
10743SOL    HW233129   2.751   2.002   3.789
10744SOL     OW33130   3.233   1.202   2.669
10744SOL    HW133131   3.231   1.125   2.733
10744SOL    HW233132   3.162   1.268   2.694
10745SOL     OW33133   0.862   4.983   0.802
10745SOL    HW133134   0.898   4.991   0.709
10745SOL    HW233135   0.920   5.034   0.865
10746SOL     OW33136   1.803   3.793   1.923
10746SOL    HW133137   1.881   3.740   1.891
10746SOL    HW233138   1.763   3.844   1.846
10747SOL     OW33139   4.265   0.879   3.339
10747SOL    HW133140   4.348   0.829   3.317
10747SOL    HW233141   4.287   0.958   3.396
10748SOL     OW33142   4.053   0.006   0.754
10748SOL    HW133143   3.997   0.035   0.832
10748SOL    HW233144   4.047   0.075   0.682
10749SOL     OW33145   6.984   4.510   3.513
10749SOL    HW133146   0.057   4.552   3.517
10749SOL    HW233147   6.993   4.412   3.496
10750SOL     OW33148   4.047   5.963   4.187
10750SOL    HW133149   4.037   5.869   4.220
10750SOL    HW233150   4.051   6.025   4.265
10751SOL     OW33151   0.883   3.933   5.563
10751SOL    HW133152   0.846   4.022   5.541
10751SOL    HW233153   0.811   3.864   5.557
10752SOL     OW33154   6.618   3.578   6.206
10752SOL    HW133155   6.662   3.649   6.152
10752SOL    HW233156   6.683   3.502   6.220
10753SOL     OW33157   5.048   0.692   3.757
10753SOL    HW133158   5.134   0.641   3.755
10753SOL    HW233159   4.972   0.627   3.757
10754SOL     OW33160   1.530   1.832   3.929
10754SOL    HW133161   1.579   1.807   4.013
10754SOL    HW233162   1.595   1.840   3.853
10755SOL     OW33163   0.453   1.936   0.571
10755SOL    HW133164   0.470   1.892   0.482
10755SOL    HW233165   0.538   1.972   0.607
10756SOL     OW33166   6.599   3.991   0.019
10756SOL    HW133167   6.526   4.038   0.069
10756SOL    HW233168   6.671   3.965   0.082
10757SOL     OW33169   0.421   3.645   0.401
10757SOL    HW133170   0.424   3.545   0.392
10757SOL    HW233171   0.335   3.679   0.364
10758SOL     OW33172   1.093   6.610   5.032
10758SOL    HW133173   1.044   6.603   5.118
10758SOL    HW233174   1.191   6.625   5.050
10759SOL     OW33175   1.620   3.031   0.033
10759SOL    HW133176   1.695   2.968   0.015
10759SOL    HW233177   1.599   3.031   0.131
10760SOL     OW33178   6.968   0.481   0.627
10760SOL    HW133179   6.974   0.385   0.652
10760SOL    HW233180   0.040   0.524   0.634
10761SOL     OW33181   1.072   1.874   6.201
10761SOL    HW133182   1.137   1.882   6.125
10761SOL    HW233183   0.980   1.857   6.164
10762SOL     OW33184   3.611   2.100   4.811
10762SOL    HW133185   3.671   2.167   4.855
10762SOL    HW233186   3.666   2.022   4.780
10763SOL     OW33187   4.791   6.442   0.844
10763SOL    HW133188   4.888   6.416   0.852
10763SOL    HW233189   4.745   6.376   0.784
10764SOL     OW33190   5.784   1.641   5.686
10764SOL    HW133191   5.685   1.654   5.685
10764SOL    HW233192   5.830   1.729   5.668
10765SOL     OW33193   5.557   3.019   0.984
10765SOL    HW133194   5.540   3.082   0.909
10765SOL    HW233195   5.484   3.028   1.052
10766SOL     OW33196   2.976   3.174   0.819
10766SOL    HW133197   3.019   3.252   0.774
10766SOL    HW233198   2.926   3.205   0.899
10767SOL     OW33199   1.168   0.505   6.591
10767SOL    HW133200   1.185   0.514   6.689
10767SOL    HW233201   1.070   0.503   6.574
10768SOL     OW33202   4.943   5.666   1.481
10768SOL    HW133203   4.958   5.688   1.384
10768SOL    HW233204   5.022   5.697   1.534
10769SOL     OW33205   1.806   5.024   4.986
10769SOL    HW133206   1.855   4.960   4.928
10769SOL    HW233207   1.830   5.009   5.082
10770SOL     OW33208   5.176   0.065   5.125
10770SOL    HW133209   5.164   0.152   5.078
10770SOL    HW233210   5.089   0.036   5.165
10771SOL     OW33211   4.493   0.831   4.688
10771SOL    HW133212   4.555   0.807   4.613
10771SOL    HW233213   4.443   0.750   4.717
10772SOL     OW33214   6.384   6.585   4.204
10772SOL    HW133215   6.437   6.608   4.286
10772SOL    HW233216   6.319   6.512   4.226
10773SOL     OW33217   6.481   5.165   6.030
10773SOL    HW133218   6.392   5.135   6.064
10773SOL    HW233219   6.552   5.140   6.097
10774SOL     OW33220   1.722   1.287   6.310
10774SOL    HW133221   1.753   1.230   6.235
10774SOL    HW233222   1.744   1.383   6.291
10775SOL     OW33223   0.835   3.638   0.945
10775SOL    HW133224   0.741   3.648   0.979
10775SOL    HW233225   0.832   3.616   0.847
10776SOL     OW33226   1.552   6.317   0.039
10776SOL    HW133227   1.566   6.409   0.003
10776SOL    HW233228   1.477   6.273   7.007
10777SOL     OW33229   4.089   6.486   3.844
10777SOL    HW133230   4.073   6.424   3.767
10777SOL    HW233231   4.012   6.481   3.908
10778SOL     OW33232   5.436   6.249   5.381
10778SOL    HW133233   5.396   6.338   5.403
10778SOL    HW233234   5.375   6.199   5.320
10779SOL     OW33235   6.058   5.111   2.875
10779SOL    HW133236   5.962   5.095   2.856
10779SOL    HW233237   6.083   5.068   2.962
10780SOL     OW33238   1.176   0.006   3.522
10780SOL    HW133239   1.269   6.990   3.507
10780SOL    HW233240   1.154   7.017   3.619
10781SOL     OW33241   3.747   1.959   3.012
10781SOL    HW133242   3.703   1.871   3.029
10781SOL    HW233243   3.722   1.992   2.921
10782SOL     OW33244   6.613   1.705   3.519
10782SOL    HW133245   6.655   1.680   3.606
10782SOL    HW233246   6.544   1.776   3.534
10783SOL     OW33247   1.503   3.415   3.425
10783SOL    HW133248   1.429   3.385   3.485
10783SOL    HW233249   1.572   3.463   3.479
10784SOL     OW33250   2.773   0.317   2.901
10784SOL    HW133251   2.744   0.225   2.877
10784SOL    HW233252   2.872   0.326   2.885
10785SOL     OW33253   0.683   4.891   0.628
10785SOL    HW133254   0.675   4.795   0.604
10785SOL    HW233255   0.733   4.900   0.714
10786SOL     OW33256   5.018   3.588   2.556
10786SOL    HW133257   4.997   3.681   2.524
10786SOL    HW233258   4.972   3.521   2.498
10787SOL     OW33259   2.947   2.220   4.473
10787SOL    HW133260   2.938   2.120   4.470
10787SOL    HW233261   2.887   2.257   4.544
10788SOL     OW33262   2.094   4.633   0.454
10788SOL    HW133263   2.031   4.582   0.396
10788SOL    HW233264   2.176   4.657   0.402
10789SOL     OW33265   5.816   2.831   0.281
10789SOL    HW133266   5.898   2.779   0.257
10789SOL    HW233267   5.767   2.857   0.198
10790SOL     OW33268   1.314   0.730   3.501
10790SOL    HW133269   1.239   0.693   3.556
10790SOL    HW233270   1.305   0.697   3.407
10791SOL     OW33271   0.164   0.714   1.075
10791SOL    HW133272   0.131   0.643   1.013
10791SOL    HW233273   0.255   0.744   1.047
10792SOL     OW33274   3.789   3.440   2.004
10792SOL    HW133275   3.722   3.375   2.037
10792SOL    HW233276   3.824   3.495   2.080
10793SOL     OW33277   5.579   2.571   4.338
10793SOL    HW133278   5.502   2.624   4.373
10793SOL    HW233279   5.613   2.612   4.254
10794SOL     OW33280   2.952   3.815   3.385
10794SOL    HW133281   2.964   3.717   3.401
10794SOL    HW233282   2.927   3.830   3.289
10795SOL     OW33283   6.617   3.388   4.138
10795SOL    HW133284   6.562   3.397   4.221
10795SOL    HW233285   6.714   3.380   4.163
10796SOL     OW33286   4.675   6.757   0.054
10796SOL    HW133287   4.686   6.685   7.003
10796SOL    HW233288   4.603   6.732   0.118
10797SOL     OW33289   3.971   2.430   1.209
10797SOL    HW133290   3.991   2.446   1.112
10797SOL    HW233291   3.957   2.333   1.224
10798SOL     OW33292   2.324   6.626   0.583
10798SOL    HW133293   2.387   6.561   0.539
10798SOL    HW233294   2.361   6.718   0.574
10799SOL     OW33295   3.632   0.755   2.104
10799SOL    HW133296   3.658   0.846   2.073
10799SOL    HW233297   3.584   0.762   2.192
10800SOL     OW33298   0.951   0.122   0.101
10800SOL    HW133299   0.906   0.161   0.021
10800SOL    HW233300   0.896   0.045   0.135
10801SOL     OW33301   1.040   6.795   5.467
10801SOL    HW133302   0.996   6.855   5.400
10801SOL    HW233303   1.088   6.851   5.534
10802SOL     OW33304   1.874   3.020   3.926
10802SOL    HW133305   1.974   3.021   3.929
10802SOL    HW233306   1.839   3.113   3.935
10803SOL     OW33307   4.237   4.383   5.782
10803SOL    HW133308   4.190   4.312   5.731
10803SOL    HW233309   4.303   4.429   5.723
10804SOL     OW33310   6.711   4.114   1.251
10804SOL    HW133311   6.629   4.063   1.226
10804SOL    HW233312   6.686   4.195   1.303
10805SOL     OW33313   3.642   0.104   6.777
10805SOL    HW133314   3.715   0.036   6.775
10805SOL    HW233315   3.682   0.195   6.784
10806SOL     OW33316   4.973   4.431   6.084
10806SOL    HW133317   4.898   4.393   6.138
10806SOL    HW233318   5.023   4.356   6.039
10807SOL     OW33319   1.530   6.823   3.199
10807SOL    HW133320   1.457   6.759   3.171
10807SOL    HW233321   1.528   6.903   3.139
10808SOL     OW33322   6.430   4.092   6.645
10808SOL    HW133323   6.437   4.088   6.545
10808SOL    HW233324   6.398   4.182   6.673
10809SOL     OW33325   2.655   5.987   3.448
10809SOL    HW133326   2.631   5.982   3.545
10809SOL    HW233327   2.603   6.061   3.405
10810SOL     OW33328   1.930   0.111   4.854
10810SOL    HW133329   1.883   0.195   4.879
10810SOL    HW233330   1.979   0.074   4.933
10811SOL     OW33331   4.669   4.867   5.668
10811SOL    HW133332   4.623   4.951   5.697
10811SOL    HW233333   4.645   4.846   5.573
10812SOL     OW33334   0.747   3.623   1.802
10812SOL    HW133335   0.737   3.585   1.710
10812SOL    HW233336   0.840   3.659   1.814
10813SOL     OW33337   1.654   5.940   7.012
10813SOL    HW133338   1.685   5.849   0.024
10813SOL    HW233339   1.733   6.001   7.003
10814SOL     OW33340   1.336   6.525   6.568
10814SOL    HW133341   1.313   6.572   6.483
10814SOL    HW233342   1.269   6.452   6.585
10815SOL     OW33343   4.925   4.399   2.977
10815SOL    HW133344   4.995   4.459   2.937
10815SOL    HW233345   4.891   4.336   2.908
10816SOL     OW33346   1.414   1.686   1.283
10816SOL    HW133347   1.335   1.651   1.233
10816SOL    HW233348   1.447   1.769   1.239
10817SOL     OW33349   5.533   6.738   2.477
10817SOL    HW133350   5.548   6.825   2.523
10817SOL    HW233351   5.587   6.667   2.521
10818SOL     OW33352   4.505   4.361   5.383
10818SOL    HW133353   4.589   4.339   5.433
10818SOL    HW233354   4.429   4.306   5.419
10819SOL     OW33355   6.670   4.285   0.033
10819SOL    HW133356   6.596   4.231   7.011
10819SOL    HW233357   6.631   4.361   0.085
10820SOL     OW33358   5.687   5.796   4.161
10820SOL    HW133359   5.716   5.732   4.090
10820SOL    HW233360   5.754   5.870   4.168
10821SOL     OW33361   5.796   6.303   2.144
10821SOL    HW133362   5.703   6.333   2.125
10821SOL    HW233363   5.855   6.326   2.067
10822SOL     OW33364   1.047   2.956   3.237
10822SOL    HW133365   1.029   2.997   3.326
10822SOL    HW233366   1.089   3.024   3.176
10823SOL     OW33367   1.652   5.279   2.106
10823SOL    HW133368   1.634   5.330   2.022
10823SOL    HW233369   1.601   5.319   2.182
10824SOL     OW33370   5.462   0.761   4.085
10824SOL    HW133371   5.405   0.749   4.166
10824SOL    HW233372   5.500   0.673   4.056
10825SOL     OW33373   3.392   0.244   6.796
10825SOL    HW133374   3.483   0.205   6.802
10825SOL    HW233375   3.332   0.182   6.745
10826SOL     OW33376   0.726   3.494   3.371
10826SOL    HW133377   0.688   3.571   3.320
10826SOL    HW233378   0.758   3.526   3.461
10827SOL     OW33379   5.936   4.074   4.485
10827SOL    HW133380   5.864   4.005   4.476
10827SOL    HW233381   5.989   4.056   4.568
10828SOL     OW33382   1.334   5.318   2.095
10828SOL    HW133383   1.394   5.247   2.130
10828SOL    HW233384   1.260   5.276   2.042
10829SOL     OW33385   3.426   2.092   0.895
10829SOL    HW133386   3.401   2.143   0.978
10829SOL    HW233387   3.453   2.156   0.823
10830SOL     OW33388   5.162   1.368   3.697
10830SOL    HW133389   5.259   1.391   3.711
10830SOL    HW233390   5.135   1.395   3.605
10831SOL     OW33391   4.278   5.696   1.789
10831SOL    HW133392   4.198   5.674   1.844
10831SOL    HW233393   4.356   5.712   1.849
10832SOL     OW33394   0.594   2.383   0.608
10832SOL    HW133395   0.627   2.391   0.514
10832SOL    HW233396   0.560   2.472   0.639
10833SOL     OW33397   1.572   1.745   2.537
10833SOL    HW133398   1.499   1.754   2.606
10833SOL    HW233399   1.539   1.781   2.450
10834SOL     OW33400   1.745   2.205   6.075
10834SOL    HW133401   1.723   2.215   6.172
10834SOL    HW233402   1.835   2.245   6.057
10835SOL     OW33403   6.048   2.115   0.305
10835SOL    HW133404   6.138   2.072   0.313
10835SOL    HW233405   6.011   2.131   0.397
10836SOL     OW33406   6.685   1.322   5.036
10836SOL    HW133407   6.776   1.341   5.074
10836SOL    HW233408   6.681   1.355   4.942
10837SOL     OW33409   6.902   4.867   0.575
10837SOL    HW133410   6.987   4.914   0.554
10837SOL    HW233411   6.887   4.867   0.674
10838SOL     OW33412   5.609   6.861   4.779
10838SOL    HW133413   5.697   6.905   4.760
10838SOL    HW233414   5.541   6.892   4.712
10839SOL     OW33415   3.128   3.374   0.640
10839SOL    HW133416   3.162   3.337   0.554
10839SOL    HW233417   3.205   3.407   0.695
10840SOL     OW33418   3.776   5.772   1.484
10840SOL    HW133419   3.712   5.718   1.540
10840SOL    HW233420   3.724   5.838   1.430
10841SOL     OW33421   3.627   6.327   0.413
10841SOL    HW133422   3.534   6.324   0.376
10841SOL    HW233423   3.661   6.234   0.427
10842SOL     OW33424   5.075   3.038   0.996
10842SOL    HW133425   5.108   2.950   1.030
10842SOL    HW233426   4.977   3.046   1.012
10843SOL     OW33427   0.269   2.336   1.600
10843SOL    HW133428   0.294   2.268   1.669
10843SOL    HW233429   0.174   2.323   1.573
10844SOL     OW33430   0.412   6.947   4.251
10844SOL    HW133431   0.464   0.002   4.295
10844SOL    HW233432   0.323   6.982   4.221
10845SOL     OW33433   3.601   0.775   6.638
10845SOL    HW133434   3.617   0.863   6.682
10845SOL    HW233435   3.598   0.787   6.538
10846SOL     OW33436   4.473   3.211   0.949
10846SOL    HW133437   4.400   3.191   1.014
10846SOL    HW233438   4.557   3.165   0.977
10847SOL     OW33439   3.797   3.350   6.466
10847SOL    HW133440   3.715   3.293   6.466
10847SOL    HW233441   3.873   3.299   6.425
10848SOL     OW33442   2.907   2.183   0.137
10848SOL    HW133443   2.984   2.225   0.183
10848SOL    HW233444   2.852   2.132   0.203
10849SOL     OW33445   2.686   4.661   2.819
10849SOL    HW133446   2.696   4.641   2.721
10849SOL    HW233447   2.744   4.738   2.844
10850SOL     OW33448   3.348   5.652   0.288
10850SOL    HW133449   3.308   5.743   0.279
10850SOL    HW233450   3.445   5.655   0.263
10851SOL     OW33451   2.882   3.130   0.009
10851SOL    HW133452   2.841   3.213   0.047
10851SOL    HW233453   2.861   3.052   0.068
10852SOL     OW33454   0.492   6.574   6.248
10852SOL    HW133455   0.430   6.530   6.183
10852SOL    HW233456   0.449   6.657   6.284
10853SOL     OW33457   3.590   2.212   5.961
10853SOL    HW133458   3.676   2.243   5.921
10853SOL    HW233459   3.515   2.231   5.897
10854SOL     OW33460   5.233   6.697   5.683
10854SOL    HW133461   5.145   6.683   5.638
10854SOL    HW233462   5.259   6.793   5.675
10855SOL     OW33463   2.936   6.263   1.846
10855SOL    HW133464   2.985   6.312   1.774
10855SOL    HW233465   2.840   6.292   1.846
10856SOL     OW33466   6.051   1.726   2.314
10856SOL    HW133467   6.046   1.653   2.246
10856SOL    HW233468   6.132   1.781   2.297
10857SOL     OW33469   5.952   3.110   3.158
10857SOL    HW133470   6.049   3.094   3.139
10857SOL    HW233471   5.900   3.096   3.074
10858SOL     OW33472   0.822   2.456   6.405
10858SOL    HW133473   0.767   2.469   6.322
10858SOL    HW233474   0.768   2.484   6.485
10859SOL     OW33475   2.115   3.807   4.061
10859SOL    HW133476   2.134   3.713   4.032
10859SOL    HW233477   2.036   3.842   4.010
10860SOL     OW33478   6.381   0.907   5.985
10860SOL    HW133479   6.452   0.862   5.931
10860SOL    HW233480   6.307   0.843   6.004
10861SOL     OW33481   3.593   3.264   3.064
10861SOL    HW133482   3.671   3.315   3.099
10861SOL    HW233483   3.551   3.213   3.139
10862SOL     OW33484   2.475   2.013   6.612
10862SOL    HW133485   2.457   2.107   6.583
10862SOL    HW233486   2.565   1.984   6.580
10863SOL     OW33487   4.072   0.693   2.664
10863SOL    HW133488   4.061   0.692   2.565
10863SOL    HW233489   3.983   0.682   2.708
10864SOL     OW33490   3.329   5.176   0.744
10864SOL    HW133491   3.297   5.156   0.836
10864SOL    HW233492   3.405   5.240   0.748
10865SOL     OW33493   5.945   1.702   3.512
10865SOL    HW133494   6.035   1.658   3.515
10865SOL    HW233495   5.943   1.769   3.438
10866SOL     OW33496   4.633   5.235   0.502
10866SOL    HW133497   4.607   5.276   0.414
10866SOL    HW233498   4.671   5.144   0.486
10867SOL     OW33499   3.416   4.189   0.247
10867SOL    HW133500   3.378   4.143   0.328
10867SOL    HW233501   3.350   4.184   0.173
10868SOL     OW33502   2.389   2.123   3.763
10868SOL    HW133503   2.333   2.075   3.695
10868SOL    HW233504   2.335   2.136   3.846
10869NA      NA33505   0.363   2.160   6.402
10870NA      NA33506   4.483   4.500   5.207
10871NA      NA33507   2.308   4.233   2.034
10872NA      NA33508   4.850   4.145   3.500
10873NA      NA33509   4.299   2.375   5.262
10874NA      NA33510   3.237   4.436   1.570
10875NA      NA33511   0.527   4.776   0.026
10876NA      NA33512   3.647   3.805   2.758
10877NA      NA33513   5.048   4.931   1.017
10878NA      NA33514   3.399   0.078   5.446
10879NA      NA33515   5.891   5.715   0.877
10880NA      NA33516   2.046   0.743   5.117
10881NA      NA33517   4.136   4.912   1.992
10882NA      NA33518   3.770   3.032   1.401
   7.01738   7.01738   7.01738
