Generated by trjconv : CNT in water t= 309.00000
33518
    1C        C    1   2.844   2.772   4.746
    1C        C    2   2.900   2.724   4.866
    1C        C    3   2.845   2.773   4.985
    1C        C    4   2.845   2.773   4.262
    1C        C    5   2.897   2.724   4.384
    1C        C    6   2.844   2.773   4.505
    1C        C    7   3.016   2.645   4.624
    1C        C    8   2.897   2.721   4.625
    1C        C    9   3.080   2.612   4.746
    1C        C   10   3.010   2.637   4.866
    1C        C   11   3.180   2.493   4.976
    1C        C   12   3.059   2.563   4.975
    1C        C   13   2.848   2.770   3.773
    1C        C   14   2.900   2.720   3.895
    1C        C   15   2.850   2.773   4.016
    1C        C   16   3.022   2.654   4.140
    1C        C   17   2.903   2.730   4.140
    1C        C   18   3.087   2.625   4.262
    1C        C   19   3.019   2.654   4.382
    1C        C   20   3.211   2.558   4.507
    1C        C   21   3.080   2.611   4.503
    1C        C   22   3.282   2.537   4.627
    1C        C   23   3.209   2.552   4.747
    1C        C   24   3.412   2.480   4.867
    1C        C   25   3.272   2.507   4.867
    1C        C   26   3.487   2.479   4.986
    1C        C   27   2.856   2.773   3.280
    1C        C   28   2.910   2.729   3.403
    1C        C   29   2.858   2.775   3.526
    1C        C   30   3.018   2.642   3.651
    1C        C   31   2.903   2.725   3.651
    1C        C   32   3.079   2.605   3.773
    1C        C   33   3.018   2.643   3.895
    1C        C   34   3.210   2.557   4.017
    1C        C   35   3.081   2.615   4.018
    1C        C   36   3.274   2.533   4.141
    1C        C   37   3.211   2.557   4.265
    1C        C   38   3.419   2.505   4.385
    1C        C   39   3.281   2.535   4.386
    1C        C   40   3.490   2.501   4.507
    1C        C   41   3.420   2.508   4.630
    1C        C   42   3.632   2.484   4.749
    1C        C   43   3.490   2.475   4.748
    1C        C   44   3.706   2.483   4.870
    1C        C   45   3.626   2.480   4.985
    1C        C   46   2.842   2.758   2.796
    1C        C   47   2.898   2.716   2.918
    1C        C   48   2.843   2.762   3.040
    1C        C   49   3.022   2.640   3.160
    1C        C   50   2.908   2.722   3.159
    1C        C   51   3.082   2.604   3.283
    1C        C   52   3.022   2.643   3.405
    1C        C   53   3.210   2.551   3.527
    1C        C   54   3.080   2.606   3.529
    1C        C   55   3.274   2.532   3.651
    1C        C   56   3.208   2.548   3.774
    1C        C   57   3.414   2.501   3.896
    1C        C   58   3.275   2.525   3.896
    1C        C   59   3.483   2.497   4.019
    1C        C   60   3.413   2.505   4.141
    1C        C   61   3.628   2.498   4.263
    1C        C   62   3.487   2.497   4.261
    1C        C   63   3.702   2.507   4.383
    1C        C   64   3.631   2.495   4.505
    1C        C   65   3.837   2.538   4.623
    1C        C   66   3.700   2.502   4.627
    1C        C   67   3.904   2.565   4.744
    1C        C   68   3.841   2.521   4.863
    1C        C   69   4.053   2.584   4.980
    1C        C   70   3.924   2.530   4.975
    1C        C   71   2.823   2.734   2.309
    1C        C   72   2.889   2.699   2.429
    1C        C   73   2.838   2.749   2.551
    1C        C   74   3.009   2.628   2.670
    1C        C   75   2.893   2.708   2.674
    1C        C   76   3.075   2.598   2.791
    1C        C   77   3.014   2.636   2.913
    1C        C   78   3.208   2.549   3.038
    1C        C   79   3.078   2.604   3.035
    1C        C   80   3.276   2.525   3.159
    1C        C   81   3.213   2.551   3.283
    1C        C   82   3.418   2.500   3.405
    1C        C   83   3.279   2.527   3.406
    1C        C   84   3.483   2.496   3.530
    1C        C   85   3.414   2.508   3.653
    1C        C   86   3.627   2.499   3.773
    1C        C   87   3.486   2.502   3.774
    1C        C   88   3.694   2.506   3.897
    1C        C   89   3.625   2.504   4.020
    1C        C   90   3.833   2.551   4.137
    1C        C   91   3.697   2.511   4.141
    1C        C   92   3.901   2.577   4.258
    1C        C   93   3.838   2.546   4.381
    1C        C   94   4.032   2.631   4.502
    1C        C   95   3.905   2.568   4.503
    1C        C   96   4.092   2.670   4.624
    1C        C   97   4.030   2.631   4.745
    1C        C   98   4.190   2.768   4.864
    1C        C   99   4.101   2.656   4.865
    1C        C  100   4.210   2.847   4.978
    1C        C  101   2.824   2.731   2.070
    1C        C  102   2.992   2.593   2.190
    1C        C  103   2.878   2.681   2.189
    1C        C  104   3.064   2.573   2.311
    1C        C  105   3.006   2.621   2.431
    1C        C  106   3.201   2.529   2.554
    1C        C  107   3.071   2.585   2.551
    1C        C  108   3.273   2.518   2.675
    1C        C  109   3.206   2.545   2.796
    1C        C  110   3.414   2.495   2.917
    1C        C  111   3.276   2.522   2.917
    1C        C  112   3.487   2.490   3.038
    1C        C  113   3.415   2.501   3.160
    1C        C  114   3.627   2.494   3.282
    1C        C  115   3.486   2.489   3.282
    1C        C  116   3.694   2.507   3.406
    1C        C  117   3.624   2.500   3.528
    1C        C  118   3.830   2.549   3.650
    1C        C  119   3.696   2.505   3.650
    1C        C  120   3.893   2.582   3.772
    1C        C  121   3.829   2.551   3.894
    1C        C  122   4.023   2.641   4.013
    1C        C  123   3.897   2.576   4.014
    1C        C  124   4.088   2.675   4.134
    1C        C  125   4.028   2.639   4.257
    1C        C  126   4.193   2.769   4.377
    1C        C  127   4.088   2.674   4.380
    1C        C  128   4.243   2.821   4.498
    1C        C  129   4.193   2.768   4.619
    1C        C  130   4.319   2.938   4.740
    1C        C  131   4.241   2.819   4.742
    1C        C  132   4.344   3.012   4.858
    1C        C  133   4.274   2.971   4.972
    1C        C  134   3.176   2.467   2.083
    1C        C  135   3.041   2.506   2.088
    1C        C  136   3.262   2.481   2.193
    1C        C  137   3.198   2.524   2.311
    1C        C  138   3.407   2.480   2.428
    1C        C  139   3.268   2.504   2.432
    1C        C  140   3.482   2.478   2.547
    1C        C  141   3.411   2.488   2.669
    1C        C  142   3.621   2.490   2.792
    1C        C  143   3.480   2.491   2.792
    1C        C  144   3.694   2.502   2.913
    1C        C  145   3.628   2.495   3.038
    1C        C  146   3.835   2.537   3.159
    1C        C  147   3.698   2.500   3.160
    1C        C  148   3.901   2.558   3.282
    1C        C  149   3.831   2.542   3.403
    1C        C  150   4.023   2.629   3.525
    1C        C  151   3.897   2.567   3.526
    1C        C  152   4.081   2.675   3.646
    1C        C  153   4.020   2.644   3.769
    1C        C  154   4.193   2.768   3.889
    1C        C  155   4.081   2.682   3.891
    1C        C  156   4.246   2.813   4.013
    1C        C  157   4.200   2.760   4.136
    1C        C  158   4.338   2.926   4.258
    1C        C  159   4.250   2.815   4.256
    1C        C  160   4.378   2.987   4.378
    1C        C  161   4.333   2.931   4.500
    1C        C  162   4.438   3.118   4.615
    1C        C  163   4.369   2.994   4.620
    1C        C  164   4.470   3.185   4.735
    1C        C  165   4.429   3.124   4.856
    1C        C  166   4.516   3.320   4.971
    1C        C  167   4.473   3.188   4.973
    1C        C  168   3.477   2.438   2.072
    1C        C  169   3.401   2.458   2.188
    1C        C  170   3.620   2.459   2.307
    1C        C  171   3.478   2.459   2.307
    1C        C  172   3.690   2.486   2.426
    1C        C  173   3.623   2.488   2.550
    1C        C  174   3.830   2.541   2.669
    1C        C  175   3.693   2.505   2.672
    1C        C  176   3.897   2.560   2.792
    1C        C  177   3.832   2.533   2.914
    1C        C  178   4.024   2.626   3.034
    1C        C  179   3.898   2.563   3.035
    1C        C  180   4.089   2.659   3.155
    1C        C  181   4.026   2.625   3.277
    1C        C  182   4.193   2.749   3.399
    1C        C  183   4.084   2.660   3.401
    1C        C  184   4.242   2.808   3.518
    1C        C  185   4.191   2.764   3.642
    1C        C  186   4.340   2.914   3.765
    1C        C  187   4.247   2.807   3.764
    1C        C  188   4.378   2.976   3.886
    1C        C  189   4.337   2.921   4.010
    1C        C  190   4.437   3.106   4.127
    1C        C  191   4.374   2.980   4.133
    1C        C  192   4.469   3.172   4.248
    1C        C  193   4.443   3.112   4.374
    1C        C  194   4.511   3.318   4.492
    1C        C  195   4.469   3.183   4.493
    1C        C  196   4.528   3.390   4.612
    1C        C  197   4.515   3.320   4.734
    1C        C  198   4.559   3.536   4.853
    1C        C  199   4.537   3.394   4.853
    1C        C  200   4.583   3.618   4.967
    1C        C  201   3.616   2.420   2.073
    1C        C  202   3.829   2.509   2.185
    1C        C  203   3.695   2.459   2.186
    1C        C  204   3.901   2.536   2.305
    1C        C  205   3.828   2.517   2.425
    1C        C  206   4.020   2.618   2.543
    1C        C  207   3.895   2.552   2.544
    1C        C  208   4.081   2.657   2.665
    1C        C  209   4.022   2.624   2.789
    1C        C  210   4.198   2.746   2.908
    1C        C  211   4.083   2.663   2.911
    1C        C  212   4.249   2.795   3.030
    1C        C  213   4.200   2.746   3.153
    1C        C  214   4.325   2.914   3.272
    1C        C  215   4.246   2.797   3.277
    1C        C  216   4.365   2.974   3.394
    1C        C  217   4.333   2.916   3.518
    1C        C  218   4.433   3.100   3.640
    1C        C  219   4.377   2.970   3.641
    1C        C  220   4.464   3.167   3.760
    1C        C  221   4.442   3.102   3.884
    1C        C  222   4.503   3.307   4.003
    1C        C  223   4.468   3.170   4.005
    1C        C  224   4.513   3.380   4.124
    1C        C  225   4.501   3.309   4.246
    1C        C  226   4.521   3.523   4.366
    1C        C  227   4.511   3.382   4.366
    1C        C  228   4.523   3.598   4.486
    1C        C  229   4.535   3.531   4.610
    1C        C  230   4.512   3.744   4.727
    1C        C  231   4.545   3.605   4.730
    1C        C  232   4.502   3.821   4.845
    1C        C  233   4.550   3.754   4.958
    1C        C  234   4.021   2.601   2.066
    1C        C  235   3.892   2.550   2.067
    1C        C  236   4.088   2.641   2.182
    1C        C  237   4.026   2.603   2.304
    1C        C  238   4.200   2.736   2.423
    1C        C  239   4.087   2.649   2.423
    1C        C  240   4.248   2.788   2.545
    1C        C  241   4.194   2.741   2.667
    1C        C  242   4.341   2.901   2.785
    1C        C  243   4.253   2.790   2.786
    1C        C  244   4.376   2.965   2.906
    1C        C  245   4.333   2.909   3.028
    1C        C  246   4.437   3.093   3.148
    1C        C  247   4.374   2.966   3.151
    1C        C  248   4.459   3.162   3.270
    1C        C  249   4.431   3.100   3.393
    1C        C  250   4.494   3.301   3.516
    1C        C  251   4.453   3.166   3.516
    1C        C  252   4.509   3.372   3.638
    1C        C  253   4.501   3.303   3.761
    1C        C  254   4.522   3.518   3.879
    1C        C  255   4.518   3.376   3.880
    1C        C  256   4.519   3.590   4.000
    1C        C  257   4.528   3.520   4.123
    1C        C  258   4.493   3.731   4.242
    1C        C  259   4.521   3.593   4.243
    1C        C  260   4.475   3.803   4.362
    1C        C  261   4.486   3.735   4.486
    1C        C  262   4.429   3.940   4.601
    1C        C  263   4.483   3.810   4.605
    1C        C  264   4.409   4.011   4.722
    1C        C  265   4.437   3.946   4.844
    1C        C  266   4.325   4.134   4.960
    1C        C  267   4.398   4.015   4.959
    1C        C  268   4.263   2.777   2.065
    1C        C  269   4.198   2.730   2.180
    1C        C  270   4.340   2.892   2.301
    1C        C  271   4.252   2.781   2.300
    1C        C  272   4.382   2.956   2.420
    1C        C  273   4.339   2.896   2.540
    1C        C  274   4.444   3.083   2.661
    1C        C  275   4.378   2.958   2.661
    1C        C  276   4.471   3.154   2.781
    1C        C  277   4.437   3.092   2.903
    1C        C  278   4.508   3.292   3.027
    1C        C  279   4.464   3.158   3.026
    1C        C  280   4.517   3.365   3.148
    1C        C  281   4.498   3.298   3.271
    1C        C  282   4.523   3.509   3.391
    1C        C  283   4.509   3.368   3.393
    1C        C  284   4.514   3.581   3.512
    1C        C  285   4.511   3.513   3.636
    1C        C  286   4.496   3.727   3.752
    1C        C  287   4.515   3.588   3.756
    1C        C  288   4.480   3.796   3.875
    1C        C  289   4.502   3.730   3.998
    1C        C  290   4.429   3.932   4.117
    1C        C  291   4.479   3.799   4.119
    1C        C  292   4.397   3.999   4.237
    1C        C  293   4.425   3.935   4.359
    1C        C  294   4.328   4.127   4.479
    1C        C  295   4.399   4.005   4.479
    1C        C  296   4.292   4.190   4.600
    1C        C  297   4.337   4.133   4.722
    1C        C  298   4.199   4.308   4.837
    1C        C  299   4.286   4.195   4.840
    1C        C  300   4.170   4.393   4.948
    1C        C  301   4.346   2.889   2.063
    1C        C  302   4.468   3.070   2.178
    1C        C  303   4.390   2.949   2.181
    1C        C  304   4.483   3.144   2.298
    1C        C  305   4.453   3.078   2.419
    1C        C  306   4.506   3.286   2.538
    1C        C  307   4.479   3.147   2.540
    1C        C  308   4.514   3.359   2.659
    1C        C  309   4.506   3.290   2.783
    1C        C  310   4.529   3.502   2.901
    1C        C  311   4.518   3.361   2.904
    1C        C  312   4.526   3.574   3.022
    1C        C  313   4.519   3.506   3.145
    1C        C  314   4.493   3.717   3.264
    1C        C  315   4.518   3.578   3.267
    1C        C  316   4.475   3.788   3.385
    1C        C  317   4.493   3.720   3.507
    1C        C  318   4.427   3.924   3.628
    1C        C  319   4.478   3.792   3.628
    1C        C  320   4.394   3.986   3.750
    1C        C  321   4.420   3.924   3.874
    1C        C  322   4.320   4.114   3.993
    1C        C  323   4.394   3.993   3.995
    1C        C  324   4.275   4.170   4.114
    1C        C  325   4.320   4.118   4.238
    1C        C  326   4.187   4.286   4.353
    1C        C  327   4.285   4.184   4.358
    1C        C  328   4.135   4.336   4.475
    1C        C  329   4.192   4.290   4.595
    1C        C  330   4.027   4.434   4.714
    1C        C  331   4.137   4.344   4.714
    1C        C  332   3.972   4.484   4.833
    1C        C  333   4.053   4.470   4.947
    1C        C  334   4.558   3.269   2.063
    1C        C  335   4.534   3.131   2.066
    1C        C  336   4.535   3.351   2.174
    1C        C  337   4.514   3.283   2.296
    1C        C  338   4.529   3.497   2.412
    1C        C  339   4.525   3.355   2.417
    1C        C  340   4.522   3.568   2.533
    1C        C  341   4.525   3.499   2.657
    1C        C  342   4.500   3.711   2.777
    1C        C  343   4.522   3.571   2.778
    1C        C  344   4.479   3.781   2.897
    1C        C  345   4.497   3.712   3.019
    1C        C  346   4.422   3.913   3.135
    1C        C  347   4.475   3.782   3.140
    1C        C  348   4.388   3.977   3.256
    1C        C  349   4.424   3.920   3.380
    1C        C  350   4.319   4.102   3.504
    1C        C  351   4.396   3.984   3.503
    1C        C  352   4.277   4.163   3.624
    1C        C  353   4.317   4.105   3.746
    1C        C  354   4.175   4.263   3.869
    1C        C  355   4.275   4.163   3.868
    1C        C  356   4.123   4.317   3.989
    1C        C  357   4.172   4.266   4.111
    1C        C  358   4.012   4.407   4.230
    1C        C  359   4.123   4.321   4.232
    1C        C  360   3.951   4.443   4.352
    1C        C  361   4.016   4.411   4.474
    1C        C  362   3.831   4.520   4.593
    1C        C  363   3.959   4.461   4.593
    1C        C  364   3.765   4.547   4.715
    1C        C  365   3.841   4.538   4.834
    1C        C  366   3.634   4.599   4.950
    1C        C  367   3.770   4.573   4.949
    1C        C  368   4.507   3.564   2.055
    1C        C  369   4.527   3.492   2.174
    1C        C  370   4.504   3.710   2.290
    1C        C  371   4.521   3.570   2.291
    1C        C  372   4.477   3.778   2.410
    1C        C  373   4.494   3.707   2.531
    1C        C  374   4.432   3.910   2.651
    1C        C  375   4.480   3.777   2.653
    1C        C  376   4.394   3.976   2.770
    1C        C  377   4.427   3.912   2.892
    1C        C  378   4.314   4.094   3.015
    1C        C  379   4.393   3.977   3.013
    1C        C  380   4.267   4.151   3.136
    1C        C  381   4.311   4.096   3.258
    1C        C  382   4.171   4.252   3.380
    1C        C  383   4.272   4.154   3.381
    1C        C  384   4.117   4.300   3.502
    1C        C  385   4.173   4.259   3.625
    1C        C  386   4.002   4.386   3.744
    1C        C  387   4.117   4.304   3.747
    1C        C  388   3.946   4.434   3.865
    1C        C  389   4.011   4.404   3.986
    1C        C  390   3.818   4.491   4.109
    1C        C  391   3.950   4.442   4.108
    1C        C  392   3.751   4.513   4.231
    1C        C  393   3.822   4.500   4.353
    1C        C  394   3.617   4.555   4.476
    1C        C  395   3.757   4.535   4.473
    1C        C  396   3.547   4.568   4.598
    1C        C  397   3.625   4.563   4.715
    1C        C  398   3.415   4.555   4.840
    1C        C  399   3.554   4.574   4.837
    1C        C  400   3.348   4.515   4.956
    1C        C  401   4.491   3.702   2.054
    1C        C  402   4.456   3.918   2.170
    1C        C  403   4.494   3.782   2.169
    1C        C  404   4.410   3.981   2.287
    1C        C  405   4.431   3.912   2.408
    1C        C  406   4.327   4.095   2.525
    1C        C  407   4.406   3.978   2.530
    1C        C  408   4.275   4.146   2.646
    1C        C  409   4.312   4.091   2.771
    1C        C  410   4.173   4.252   2.889
    1C        C  411   4.271   4.149   2.892
    1C        C  412   4.124   4.304   3.011
    1C        C  413   4.172   4.256   3.135
    1C        C  414   4.002   4.379   3.255
    1C        C  415   4.120   4.301   3.258
    1C        C  416   3.942   4.416   3.377
    1C        C  417   4.001   4.381   3.501
    1C        C  418   3.812   4.480   3.618
    1C        C  419   3.937   4.415   3.622
    1C        C  420   3.747   4.503   3.741
    1C        C  421   3.814   4.484   3.864
    1C        C  422   3.612   4.545   3.986
    1C        C  423   3.750   4.511   3.987
    1C        C  424   3.544   4.549   4.109
    1C        C  425   3.613   4.544   4.233
    1C        C  426   3.402   4.555   4.358
    1C        C  427   3.543   4.553   4.356
    1C        C  428   3.332   4.545   4.480
    1C        C  429   3.406   4.556   4.600
    1C        C  430   3.198   4.513   4.724
    1C        C  431   3.336   4.547   4.723
    1C        C  432   3.129   4.492   4.847
    1C        C  433   3.210   4.496   4.961
    1C        C  434   4.379   4.119   2.048
    1C        C  435   4.446   3.996   2.054
    1C        C  436   4.308   4.167   2.163
    1C        C  437   4.339   4.104   2.287
    1C        C  438   4.182   4.255   2.403
    1C        C  439   4.283   4.156   2.406
    1C        C  440   4.124   4.298   2.524
    1C        C  441   4.174   4.245   2.645
    1C        C  442   4.005   4.378   2.768
    1C        C  443   4.117   4.292   2.766
    1C        C  444   3.943   4.414   2.889
    1C        C  445   4.006   4.382   3.012
    1C        C  446   3.813   4.474   3.132
    1C        C  447   3.941   4.416   3.133
    1C        C  448   3.745   4.499   3.253
    1C        C  449   3.815   4.477   3.374
    1C        C  450   3.607   4.528   3.497
    1C        C  451   3.746   4.503   3.495
    1C        C  452   3.539   4.542   3.620
    1C        C  453   3.609   4.534   3.743
    1C        C  454   3.398   4.546   3.865
    1C        C  455   3.539   4.546   3.865
    1C        C  456   3.334   4.543   3.991
    1C        C  457   3.403   4.551   4.114
    1C        C  458   3.194   4.512   4.236
    1C        C  459   3.332   4.542   4.236
    1C        C  460   3.127   4.494   4.359
    1C        C  461   3.194   4.516   4.482
    1C        C  462   2.997   4.439   4.605
    1C        C  463   3.126   4.496   4.604
    1C        C  464   2.937   4.401   4.728
    1C        C  465   2.995   4.440   4.851
    1C        C  466   2.798   4.342   4.959
    1C        C  467   2.905   4.432   4.962
    1C        C  468   4.131   4.293   2.040
    1C        C  469   4.192   4.250   2.159
    1C        C  470   4.013   4.377   2.277
    1C        C  471   4.130   4.297   2.278
    1C        C  472   3.946   4.406   2.398
    1C        C  473   4.006   4.375   2.522
    1C        C  474   3.814   4.463   2.643
    1C        C  475   3.946   4.413   2.644
    1C        C  476   3.747   4.491   2.764
    1C        C  477   3.814   4.470   2.887
    1C        C  478   3.608   4.523   3.009
    1C        C  479   3.747   4.498   3.009
    1C        C  480   3.535   4.534   3.130
    1C        C  481   3.607   4.530   3.251
    1C        C  482   3.397   4.540   3.376
    1C        C  483   3.538   4.534   3.374
    1C        C  484   3.325   4.540   3.498
    1C        C  485   3.398   4.550   3.619
    1C        C  486   3.193   4.500   3.746
    1C        C  487   3.329   4.539   3.742
    1C        C  488   3.132   4.475   3.871
    1C        C  489   3.198   4.502   3.993
    1C        C  490   3.007   4.413   4.117
    1C        C  491   3.129   4.483   4.114
    1C        C  492   2.947   4.382   4.241
    1C        C  493   3.002   4.428   4.363
    1C        C  494   2.830   4.304   4.485
    1C        C  495   2.939   4.394   4.485
    1C        C  496   2.775   4.260   4.607
    1C        C  497   2.828   4.309   4.729
    1C        C  498   2.664   4.166   4.843
    1C        C  499   2.756   4.273   4.845
    1C        C  500   2.597   4.118   4.956
    1C        C  501   4.007   4.356   2.043
    1C        C  502   3.815   4.465   2.156
    1C        C  503   3.941   4.402   2.158
    1C        C  504   3.746   4.483   2.277
    1C        C  505   3.813   4.455   2.398
    1C        C  506   3.607   4.505   2.521
    1C        C  507   3.745   4.476   2.520
    1C        C  508   3.537   4.520   2.643
    1C        C  509   3.608   4.516   2.765
    1C        C  510   3.396   4.525   2.885
    1C        C  511   3.537   4.523   2.887
    1C        C  512   3.325   4.527   3.007
    1C        C  513   3.394   4.532   3.130
    1C        C  514   3.190   4.497   3.256
    1C        C  515   3.326   4.534   3.254
    1C        C  516   3.125   4.473   3.379
    1C        C  517   3.188   4.504   3.501
    1C        C  518   2.999   4.414   3.627
    1C        C  519   3.125   4.478   3.625
    1C        C  520   2.942   4.376   3.750
    1C        C  521   3.004   4.414   3.871
    1C        C  522   2.839   4.285   3.994
    1C        C  523   2.948   4.376   3.994
    1C        C  524   2.791   4.239   4.119
    1C        C  525   2.836   4.294   4.241
    1C        C  526   2.702   4.132   4.363
    1C        C  527   2.786   4.245   4.364
    1C        C  528   2.663   4.074   4.486
    1C        C  529   2.695   4.144   4.605
    1C        C  530   2.584   3.963   4.727
    1C        C  531   2.640   4.094   4.724
    1C        C  532   2.541   3.901   4.847
    1C        C  533   2.532   3.994   4.956
    1C        C  534   3.619   4.555   2.037
    1C        C  535   3.753   4.513   2.040
    1C        C  536   3.540   4.538   2.156
    1C        C  537   3.606   4.512   2.279
    1C        C  538   3.394   4.514   2.400
    1C        C  539   3.535   4.517   2.400
    1C        C  540   3.322   4.511   2.522
    1C        C  541   3.395   4.514   2.642
    1C        C  542   3.186   4.482   2.767
    1C        C  543   3.324   4.512   2.764
    1C        C  544   3.120   4.464   2.890
    1C        C  545   3.188   4.490   3.012
    1C        C  546   3.000   4.399   3.137
    1C        C  547   3.122   4.469   3.135
    1C        C  548   2.940   4.368   3.261
    1C        C  549   2.999   4.407   3.384
    1C        C  550   2.831   4.282   3.505
    1C        C  551   2.936   4.376   3.506
    1C        C  552   2.778   4.235   3.628
    1C        C  553   2.832   4.286   3.748
    1C        C  554   2.706   4.120   3.877
    1C        C  555   2.786   4.237   3.872
    1C        C  556   2.670   4.063   4.001
    1C        C  557   2.707   4.126   4.122
    1C        C  558   2.596   3.944   4.245
    1C        C  559   2.666   4.067   4.243
    1C        C  560   2.565   3.882   4.368
    1C        C  561   2.598   3.949   4.488
    1C        C  562   2.527   3.749   4.613
    1C        C  563   2.570   3.884   4.611
    1C        C  564   2.513   3.683   4.737
    1C        C  565   2.516   3.760   4.856
    1C        C  566   2.525   3.545   4.982
    1C        C  567   2.519   3.684   4.974
    1C        C  568   3.331   4.472   2.044
    1C        C  569   3.399   4.516   2.158
    1C        C  570   3.184   4.479   2.279
    1C        C  571   3.323   4.510   2.278
    1C        C  572   3.116   4.458   2.401
    1C        C  573   3.183   4.487   2.522
    1C        C  574   2.990   4.402   2.651
    1C        C  575   3.117   4.464   2.645
    1C        C  576   2.932   4.363   2.774
    1C        C  577   2.993   4.404   2.895
    1C        C  578   2.825   4.274   3.017
    1C        C  579   2.934   4.363   3.017
    1C        C  580   2.780   4.225   3.141
    1C        C  581   2.830   4.279   3.262
    1C        C  582   2.701   4.111   3.387
    1C        C  583   2.785   4.225   3.384
    1C        C  584   2.659   4.058   3.512
    1C        C  585   2.694   4.122   3.633
    1C        C  586   2.597   3.936   3.757
    1C        C  587   2.659   4.063   3.756
    1C        C  588   2.571   3.873   3.881
    1C        C  589   2.602   3.939   4.002
    1C        C  590   2.534   3.739   4.130
    1C        C  591   2.570   3.875   4.124
    1C        C  592   2.519   3.672   4.254
    1C        C  593   2.528   3.746   4.374
    1C        C  594   2.506   3.532   4.499
    1C        C  595   2.515   3.673   4.495
    1C        C  596   2.513   3.464   4.622
    1C        C  597   2.519   3.541   4.741
    1C        C  598   2.533   3.330   4.863
    1C        C  599   2.523   3.470   4.863
    1C        C  600   2.534   3.253   4.980
    1C        C  601   3.198   4.434   2.041
    1C        C  602   2.988   4.389   2.160
    1C        C  603   3.121   4.443   2.157
    1C        C  604   2.925   4.362   2.284
    1C        C  605   2.986   4.401   2.405
    1C        C  606   2.822   4.273   2.531
    1C        C  607   2.931   4.362   2.529
    1C        C  608   2.770   4.224   2.652
    1C        C  609   2.826   4.270   2.773
    1C        C  610   2.687   4.110   2.895
    1C        C  611   2.773   4.222   2.896
    1C        C  612   2.657   4.054   3.020
    1C        C  613   2.694   4.113   3.143
    1C        C  614   2.589   3.930   3.265
    1C        C  615   2.658   4.053   3.266
    1C        C  616   2.573   3.866   3.390
    1C        C  617   2.602   3.929   3.514
    1C        C  618   2.533   3.730   3.639
    1C        C  619   2.575   3.865   3.637
    1C        C  620   2.519   3.664   3.763
    1C        C  621   2.531   3.738   3.883
    1C        C  622   2.513   3.530   4.009
    1C        C  623   2.522   3.671   4.007
    1C        C  624   2.517   3.459   4.132
    1C        C  625   2.509   3.532   4.253
    1C        C  626   2.532   3.323   4.379
    1C        C  627   2.506   3.462   4.376
    1C        C  628   2.554   3.256   4.501
    1C        C  629   2.539   3.326   4.623
    1C        C  630   2.595   3.120   4.744
    1C        C  631   2.549   3.255   4.745
    1C        C  632   2.618   3.051   4.866
    1C        C  633   2.560   3.115   4.980
    1C        C  634   2.783   4.304   2.052
    1C        C  635   2.893   4.390   2.053
    1C        C  636   2.750   4.231   2.167
    1C        C  637   2.814   4.273   2.286
    1C        C  638   2.678   4.115   2.411
    1C        C  639   2.767   4.224   2.410
    1C        C  640   2.643   4.051   2.532
    1C        C  641   2.688   4.108   2.653
    1C        C  642   2.588   3.920   2.777
    1C        C  643   2.648   4.049   2.774
    1C        C  644   2.570   3.856   2.902
    1C        C  645   2.597   3.926   3.021
    1C        C  646   2.525   3.727   3.149
    1C        C  647   2.566   3.862   3.144
    1C        C  648   2.519   3.659   3.273
    1C        C  649   2.534   3.730   3.394
    1C        C  650   2.510   3.520   3.521
    1C        C  651   2.522   3.661   3.516
    1C        C  652   2.513   3.450   3.644
    1C        C  653   2.512   3.523   3.764
    1C        C  654   2.535   3.316   3.890
    1C        C  655   2.511   3.456   3.889
    1C        C  656   2.555   3.250   4.014
    1C        C  657   2.533   3.319   4.135
    1C        C  658   2.607   3.122   4.259
    1C        C  659   2.552   3.252   4.259
    1C        C  660   2.636   3.057   4.380
    1C        C  661   2.603   3.123   4.501
    1C        C  662   2.709   2.940   4.626
    1C        C  663   2.630   3.057   4.623
    1C        C  664   2.749   2.879   4.746
    1C        C  665   2.699   2.933   4.868
    1C        C  666   2.745   2.870   4.985
    1C        C  667   2.681   4.026   2.057
    1C        C  668   2.683   4.107   2.172
    1C        C  669   2.585   3.918   2.291
    1C        C  670   2.636   4.051   2.292
    1C        C  671   2.557   3.852   2.413
    1C        C  672   2.582   3.924   2.533
    1C        C  673   2.516   3.722   2.658
    1C        C  674   2.559   3.856   2.655
    1C        C  675   2.509   3.652   2.781
    1C        C  676   2.528   3.721   2.903
    1C        C  677   2.511   3.513   3.031
    1C        C  678   2.516   3.655   3.027
    1C        C  679   2.512   3.446   3.156
    1C        C  680   2.506   3.519   3.277
    1C        C  681   2.528   3.308   3.405
    1C        C  682   2.509   3.448   3.399
    1C        C  683   2.541   3.238   3.527
    1C        C  684   2.527   3.309   3.648
    1C        C  685   2.589   3.107   3.772
    1C        C  686   2.547   3.242   3.771
    1C        C  687   2.643   3.055   3.892
    1C        C  688   2.617   3.123   4.013
    1C        C  689   2.718   2.941   4.137
    1C        C  690   2.638   3.058   4.137
    1C        C  691   2.757   2.884   4.260
    1C        C  692   2.711   2.937   4.383
    1C        C  693   2.753   2.881   4.506
    1C        C  694   2.629   3.896   2.058
    1C        C  695   2.528   3.707   2.175
    1C        C  696   2.575   3.840   2.174
    1C        C  697   2.506   3.641   2.298
    1C        C  698   2.517   3.717   2.416
    1C        C  699   2.498   3.507   2.543
    1C        C  700   2.500   3.648   2.539
    1C        C  701   2.512   3.440   2.666
    1C        C  702   2.505   3.511   2.788
    1C        C  703   2.533   3.302   2.913
    1C        C  704   2.509   3.441   2.910
    1C        C  705   2.551   3.237   3.038
    1C        C  706   2.534   3.306   3.159
    1C        C  707   2.604   3.109   3.284
    1C        C  708   2.550   3.240   3.283
    1C        C  709   2.634   3.046   3.407
    1C        C  710   2.596   3.108   3.529
    1C        C  711   2.707   2.930   3.648
    1C        C  712   2.620   3.041   3.651
    1C        C  713   2.758   2.879   3.770
    1C        C  714   2.716   2.934   3.893
    1C        C  715   2.758   2.880   4.016
    1C        C  716   2.447   3.502   2.063
    1C        C  717   2.487   3.636   2.061
    1C        C  718   2.459   3.424   2.183
    1C        C  719   2.479   3.501   2.301
    1C        C  720   2.523   3.294   2.427
    1C        C  721   2.492   3.432   2.423
    1C        C  722   2.543   3.226   2.549
    1C        C  723   2.531   3.300   2.669
    1C        C  724   2.600   3.099   2.790
    1C        C  725   2.550   3.231   2.792
    1C        C  726   2.627   3.038   2.915
    1C        C  727   2.602   3.105   3.037
    1C        C  728   2.712   2.929   3.161
    1C        C  729   2.635   3.047   3.161
    1C        C  730   2.757   2.874   3.283
    1C        C  731   2.715   2.930   3.406
    1C        C  732   2.759   2.875   3.529
    1C        C  733   2.489   3.199   2.075
    1C        C  734   2.483   3.283   2.187
    1C        C  735   2.581   3.089   2.308
    1C        C  736   2.524   3.219   2.307
    1C        C  737   2.618   3.022   2.427
    1C        C  738   2.594   3.095   2.546
    1C        C  739   2.701   2.912   2.672
    1C        C  740   2.631   3.035   2.668
    1C        C  741   2.742   2.858   2.795
    1C        C  742   2.700   2.917   2.916
    1C        C  743   2.749   2.867   3.039
    1C        C  744   2.545   3.072   2.076
    1C        C  745   2.684   2.900   2.186
    1C        C  746   2.612   3.022   2.188
    1C        C  747   2.729   2.841   2.306
    1C        C  748   2.690   2.900   2.428
    1C        C  749   2.740   2.851   2.551
    1C        C  750   2.744   2.846   2.072
    1C        C  751   3.668   2.312   1.986
    1C        O  752   3.742   2.219   2.027
    1C        O  753   3.670   2.303   1.847
    1C        C  754   4.624   3.051   1.980
    1C        O  755   4.592   3.039   1.859
    1C        O  756   4.685   2.935   2.031
    1C        C  757   4.398   4.199   1.925
    1C        O  758   4.496   4.280   1.924
    1C        O  759   4.330   4.166   1.808
    1C        C  760   3.586   4.662   1.941
    1C        O  761   3.590   4.786   1.962
    1C        O  762   3.604   4.631   1.806
    1C        C  763   2.871   4.507   1.965
    1C        O  764   2.867   4.513   1.839
    1C        O  765   2.810   4.620   2.023
    1C        C  766   2.343   3.469   1.963
    1C        O  767   2.370   3.459   1.840
    1C        O  768   2.212   3.431   1.994
    1C        C  769   4.692   3.588   5.063
    1C        O  770   4.656   3.566   5.181
    1C        O  771   4.819   3.641   5.034
    1C        C  772   4.271   4.441   5.045
    1C        O  773   4.260   4.483   5.164
    1C        O  774   4.389   4.497   4.995
    1C        C  775   4.157   2.514   5.059
    1C        O  776   4.233   2.433   4.998
    1C        O  777   4.142   2.479   5.194
    1C        C  778   2.880   4.551   5.046
    1C        O  779   2.801   4.643   5.011
    1C        O  780   2.948   4.574   5.166
    1C        C  781   2.456   3.042   5.055
    1C        O  782   2.361   2.988   4.992
    1C        O  783   2.480   2.980   5.177
    1C        C  784   2.400   3.992   5.022
    1C        O  785   2.301   4.021   4.949
    1C        O  786   2.389   4.001   5.161
    1C        C  787   2.943   2.413   2.028
    1C        O  788   2.923   2.402   1.904
    1C        O  789   2.924   2.285   2.080
    1C        C  790   3.179   2.372   5.060
    1C        O  791   3.158   2.253   5.024
    1C        O  792   3.169   2.374   5.200
    1C        H  793   4.239   3.047   5.038
    1C        H  794   4.179   2.808   5.072
    1C        H  795   4.471   3.136   5.066
    1C        H  796   4.564   3.352   5.061
    1C        H  797   4.571   3.812   5.046
    1C        H  798   4.462   4.006   5.045
    1C        H  799   4.283   4.164   5.053
    1C        H  800   4.037   4.536   5.029
    1C        H  801   3.829   4.626   5.022
    1C        H  802   3.591   4.655   5.030
    1C        H  803   3.403   4.461   5.030
    1C        H  804   3.166   4.495   5.058
    1C        H  805   3.897   2.469   5.059
    1C        H  806   3.670   2.449   5.078
    1C        H  807   2.980   2.508   5.022
    1C        H  808   3.442   2.506   5.079
    1C        H  809   2.846   2.704   5.068
    1C        H  810   2.675   2.865   5.066
    1C        H  811   2.524   3.294   5.079
    1C        H  812   2.576   3.511   5.070
    1C        H  813   2.543   3.737   5.064
    1C        H  814   2.582   4.182   5.041
    1C        H  815   2.744   4.325   5.051
    1C        H  816   2.712   2.881   1.976
    1C        H  817   2.856   2.697   1.974
    1C        H  818   3.221   2.468   1.987
    1C        H  819   3.427   2.430   1.978
    1C        H  820   3.837   2.553   1.975
    1C        H  821   4.077   2.590   1.975
    1C        H  822   4.268   2.717   1.977
    1C        H  823   4.360   2.946   1.974
    1C        H  824   4.520   3.308   1.972
    1C        H  825   4.516   3.512   1.962
    1C        H  826   4.525   3.747   1.963
    1C        H  827   3.819   4.558   1.968
    1C        H  828   3.969   4.383   1.947
    1C        H  829   4.133   4.230   1.954
    1C        H  830   4.492   3.958   1.965
    1C        H  831   2.642   3.838   1.969
    1C        H  832   2.698   4.067   1.960
    1C        H  833   2.738   4.279   1.958
    1C        H  834   3.368   4.493   1.946
    1C        H  835   3.177   4.350   1.977
    1C        H  836   2.512   3.002   2.002
    1C        H  837   2.403   3.209   2.012
    1C        H  838   2.538   3.657   1.969
    2V3OU   H29  839   2.803   3.552   3.208
    2V3OU   C27  840   2.794   3.509   3.311
    2V3OU   H27  841   2.738   3.582   3.376
    2V3OU   H28  842   2.744   3.409   3.307
    2V3OU   O11  843   2.913   3.484   3.386
    2V3OU   C15  844   2.932   3.393   3.488
    2V3OU   C13  845   3.053   3.373   3.558
    2V3OU   C14  846   3.082   3.272   3.650
    2V3OU   C16  847   2.981   3.185   3.690
    2V3OU    H6  848   2.996   3.102   3.761
    2V3OU   C12  849   3.215   3.230   3.699
    2V3OU    O2  850   3.235   3.120   3.756
    2V3OU   C10  851   3.329   3.310   3.652
    2V3OU    C8  852   3.461   3.274   3.675
    2V3OU   O10  853   3.488   3.162   3.748
    2V3OU   H26  854   3.403   3.121   3.770
    2V3OU    C6  855   3.570   3.352   3.627
    2V3OU    C5  856   3.540   3.471   3.561
    2V3OU    C4  857   3.708   3.296   3.635
    2V3OU    H4  858   3.728   3.232   3.726
    2V3OU    H5  859   3.711   3.230   3.544
    2V3OU    C2  860   3.817   3.403   3.626
    2V3OU    O6  861   3.804   3.481   3.745
    2V3OU   H21  862   3.762   3.562   3.711
    2V3OU    C3  863   3.782   3.494   3.509
    2V3OU    H2  864   3.865   3.569   3.501
    2V3OU    H3  865   3.786   3.441   3.410
    2V3OU   C25  866   3.953   3.333   3.618
    2V3OU    O7  867   4.000   3.291   3.512
    2V3OU   C26  868   4.031   3.299   3.744
    2V3OU   H22  869   4.064   3.391   3.798
    2V3OU   H23  870   4.119   3.235   3.718
    2V3OU    O8  871   3.962   3.216   3.835
    2V3OU   H24  872   3.932   3.267   3.912
    2V3OU    C1  873   3.650   3.567   3.527
    2V3OU    H1  874   3.624   3.616   3.428
    2V3OU    O3  875   3.665   3.659   3.635
    2V3OU   C19  876   3.618   3.793   3.624
    2V3OU    H9  877   3.524   3.800   3.560
    2V3OU    O4  878   3.719   3.847   3.542
    2V3OU   C20  879   3.852   3.871   3.590
    2V3OU   H10  880   3.895   3.766   3.594
    2V3OU   C24  881   3.610   3.855   3.764
    2V3OU   H16  882   3.544   3.787   3.824
    2V3OU   H17  883   3.559   3.955   3.765
    2V3OU   C23  884   3.752   3.873   3.818
    2V3OU   H15  885   3.795   3.771   3.843
    2V3OU    N1  886   3.739   3.960   3.934
    2V3OU   H19  887   3.803   3.931   4.005
    2V3OU   H20  888   3.652   3.933   3.973
    2V3OU   C21  889   3.853   3.946   3.724
    2V3OU   H11  890   3.953   3.918   3.767
    2V3OU    O5  891   3.841   4.087   3.717
    2V3OU   H18  892   3.785   4.104   3.795
    2V3OU   C22  893   3.915   3.952   3.478
    2V3OU   H12  894   3.865   4.052   3.473
    2V3OU   H13  895   3.900   3.901   3.380
    2V3OU   H14  896   4.025   3.957   3.496
    2V3OU   C11  897   3.163   3.469   3.540
    2V3OU    O1  898   3.137   3.589   3.520
    2V3OU    C9  899   3.301   3.427   3.576
    2V3OU    C7  900   3.405   3.507   3.530
    2V3OU    O9  901   3.387   3.618   3.451
    2V3OU   H25  902   3.292   3.624   3.432
    2V3OU   C17  903   2.832   3.308   3.540
    2V3OU    H7  904   2.735   3.355   3.522
    2V3OU   C18  905   2.855   3.215   3.640
    2V3OU    H8  906   2.787   3.175   3.716
    3SOL     OW  907   2.779   5.302   6.254
    3SOL    HW1  908   2.852   5.256   6.304
    3SOL    HW2  909   2.691   5.260   6.276
    4SOL     OW  910   6.975   0.049   0.930
    4SOL    HW1  911   6.907   7.008   0.961
    4SOL    HW2  912   0.042   0.014   0.949
    5SOL     OW  913   4.844   2.335   2.117
    5SOL    HW1  914   4.811   2.316   2.024
    5SOL    HW2  915   4.793   2.412   2.156
    6SOL     OW  916   4.301   1.931   2.373
    6SOL    HW1  917   4.205   1.959   2.374
    6SOL    HW2  918   4.335   1.934   2.279
    7SOL     OW  919   0.824   4.475   3.639
    7SOL    HW1  920   0.768   4.516   3.711
    7SOL    HW2  921   0.921   4.491   3.658
    8SOL     OW  922   2.355   2.333   5.814
    8SOL    HW1  923   2.318   2.252   5.859
    8SOL    HW2  924   2.455   2.326   5.810
    9SOL     OW  925   6.100   2.670   5.734
    9SOL    HW1  926   6.110   2.769   5.719
    9SOL    HW2  927   6.013   2.640   5.696
   10SOL     OW  928   3.378   5.231   4.831
   10SOL    HW1  929   3.426   5.265   4.912
   10SOL    HW2  930   3.280   5.224   4.852
   11SOL     OW  931   1.867   1.279   5.787
   11SOL    HW1  932   1.858   1.379   5.787
   11SOL    HW2  933   1.832   1.242   5.873
   12SOL     OW  934   3.128   4.889   3.873
   12SOL    HW1  935   3.226   4.878   3.889
   12SOL    HW2  936   3.080   4.890   3.960
   13SOL     OW  937   3.549   6.440   3.916
   13SOL    HW1  938   3.630   6.406   3.869
   13SOL    HW2  939   3.488   6.484   3.850
   14SOL     OW  940   4.136   4.942   6.024
   14SOL    HW1  941   4.184   4.956   6.111
   14SOL    HW2  942   4.090   4.853   6.026
   15SOL     OW  943   0.702   5.985   0.875
   15SOL    HW1  944   0.798   6.007   0.888
   15SOL    HW2  945   0.669   6.026   0.790
   16SOL     OW  946   5.289   2.830   6.468
   16SOL    HW1  947   5.202   2.782   6.470
   16SOL    HW2  948   5.353   2.787   6.532
   17SOL     OW  949   5.299   6.839   6.742
   17SOL    HW1  950   5.332   6.855   6.649
   17SOL    HW2  951   5.210   6.883   6.753
   18SOL     OW  952   3.196   0.871   4.954
   18SOL    HW1  953   3.153   0.904   5.038
   18SOL    HW2  954   3.267   0.804   4.977
   19SOL     OW  955   0.077   2.280   2.381
   19SOL    HW1  956   0.167   2.312   2.350
   19SOL    HW2  957   0.005   2.337   2.340
   20SOL     OW  958   4.574   2.537   5.404
   20SOL    HW1  959   4.600   2.527   5.500
   20SOL    HW2  960   4.603   2.627   5.371
   21SOL     OW  961   2.853   0.939   2.842
   21SOL    HW1  962   2.768   0.890   2.866
   21SOL    HW2  963   2.836   1.037   2.844
   22SOL     OW  964   1.371   6.374   0.359
   22SOL    HW1  965   1.295   6.315   0.332
   22SOL    HW2  966   1.350   6.417   0.447
   23SOL     OW  967   4.096   5.236   2.093
   23SOL    HW1  968   4.019   5.254   2.154
   23SOL    HW2  969   4.086   5.145   2.052
   24SOL     OW  970   3.344   0.553   2.483
   24SOL    HW1  971   3.435   0.538   2.444
   24SOL    HW2  972   3.279   0.572   2.409
   25SOL     OW  973   2.514   6.803   3.681
   25SOL    HW1  974   2.492   6.881   3.621
   25SOL    HW2  975   2.595   6.825   3.735
   26SOL     OW  976   6.676   2.185   0.522
   26SOL    HW1  977   6.637   2.112   0.578
   26SOL    HW2  978   6.766   2.157   0.489
   27SOL     OW  979   1.641   1.323   1.883
   27SOL    HW1  980   1.695   1.390   1.831
   27SOL    HW2  981   1.597   1.260   1.819
   28SOL     OW  982   1.297   0.468   5.052
   28SOL    HW1  983   1.205   0.479   5.013
   28SOL    HW2  984   1.358   0.430   4.983
   29SOL     OW  985   6.537   1.492   1.167
   29SOL    HW1  986   6.479   1.434   1.109
   29SOL    HW2  987   6.553   1.446   1.254
   30SOL     OW  988   4.664   0.619   4.554
   30SOL    HW1  989   4.736   0.638   4.621
   30SOL    HW2  990   4.704   0.620   4.462
   31SOL     OW  991   0.442   2.127   6.335
   31SOL    HW1  992   0.524   2.157   6.384
   31SOL    HW2  993   0.469   2.065   6.261
   32SOL     OW  994   0.952   1.824   2.415
   32SOL    HW1  995   0.980   1.764   2.340
   32SOL    HW2  996   0.919   1.911   2.379
   33SOL     OW  997   0.915   4.801   5.005
   33SOL    HW1  998   1.003   4.799   5.051
   33SOL    HW2  999   0.926   4.837   4.913
   34SOL     OW 1000   2.634   5.618   4.901
   34SOL    HW1 1001   2.694   5.580   4.831
   34SOL    HW2 1002   2.690   5.665   4.970
   35SOL     OW 1003   4.257   2.444   5.776
   35SOL    HW1 1004   4.321   2.420   5.703
   35SOL    HW2 1005   4.219   2.361   5.815
   36SOL     OW 1006   4.011   2.138   4.074
   36SOL    HW1 1007   4.027   2.172   4.167
   36SOL    HW2 1008   4.090   2.159   4.016
   37SOL     OW 1009   1.585   1.967   5.108
   37SOL    HW1 1010   1.612   2.022   5.187
   37SOL    HW2 1011   1.518   1.898   5.136
   38SOL     OW 1012   1.485   4.791   1.712
   38SOL    HW1 1013   1.492   4.879   1.664
   38SOL    HW2 1014   1.554   4.729   1.676
   39SOL     OW 1015   6.529   4.968   6.034
   39SOL    HW1 1016   6.455   5.016   6.081
   39SOL    HW2 1017   6.579   5.031   5.975
   40SOL     OW 1018   3.427   2.505   0.262
   40SOL    HW1 1019   3.363   2.560   0.208
   40SOL    HW2 1020   3.521   2.537   0.245
   41SOL     OW 1021   5.967   3.574   3.213
   41SOL    HW1 1022   5.980   3.670   3.188
   41SOL    HW2 1023   6.055   3.526   3.210
   42SOL     OW 1024   3.425   5.989   4.568
   42SOL    HW1 1025   3.414   6.088   4.560
   42SOL    HW2 1026   3.412   5.962   4.663
   43SOL     OW 1027   4.668   1.217   5.420
   43SOL    HW1 1028   4.745   1.276   5.444
   43SOL    HW2 1029   4.638   1.236   5.326
   44SOL     OW 1030   5.502   2.797   5.454
   44SOL    HW1 1031   5.529   2.728   5.388
   44SOL    HW2 1032   5.561   2.877   5.445
   45SOL     OW 1033   4.388   5.354   1.750
   45SOL    HW1 1034   4.458   5.368   1.679
   45SOL    HW2 1035   4.428   5.303   1.826
   46SOL     OW 1036   1.340   2.382   3.859
   46SOL    HW1 1037   1.264   2.319   3.874
   46SOL    HW2 1038   1.395   2.389   3.942
   47SOL     OW 1039   4.111   3.929   1.377
   47SOL    HW1 1040   4.172   3.966   1.307
   47SOL    HW2 1041   4.154   3.940   1.467
   48SOL     OW 1042   6.835   2.220   6.871
   48SOL    HW1 1043   6.789   2.304   6.841
   48SOL    HW2 1044   6.786   2.182   6.950
   49SOL     OW 1045   5.725   2.936   1.839
   49SOL    HW1 1046   5.666   3.004   1.882
   49SOL    HW2 1047   5.816   2.940   1.879
   50SOL     OW 1048   6.627   0.946   5.446
   50SOL    HW1 1049   6.667   0.854   5.446
   50SOL    HW2 1050   6.671   1.001   5.517
   51SOL     OW 1051   2.198   6.504   3.199
   51SOL    HW1 1052   2.116   6.509   3.256
   51SOL    HW2 1053   2.187   6.565   3.120
   52SOL     OW 1054   5.277   3.440   1.508
   52SOL    HW1 1055   5.338   3.362   1.525
   52SOL    HW2 1056   5.243   3.475   1.596
   53SOL     OW 1057   4.586   1.152   3.636
   53SOL    HW1 1058   4.685   1.167   3.628
   53SOL    HW2 1059   4.550   1.122   3.548
   54SOL     OW 1060   5.535   6.481   0.987
   54SOL    HW1 1061   5.634   6.472   0.999
   54SOL    HW2 1062   5.493   6.501   1.075
   55SOL     OW 1063   2.139   2.803   5.021
   55SOL    HW1 1064   2.224   2.852   5.039
   55SOL    HW2 1065   2.152   2.742   4.943
   56SOL     OW 1066   0.482   1.058   1.026
   56SOL    HW1 1067   0.418   1.126   1.059
   56SOL    HW2 1068   0.466   0.971   1.073
   57SOL     OW 1069   4.029   1.059   1.365
   57SOL    HW1 1070   4.112   1.015   1.332
   57SOL    HW2 1071   4.033   1.066   1.465
   58SOL     OW 1072   0.401   6.500   5.761
   58SOL    HW1 1073   0.488   6.550   5.759
   58SOL    HW2 1074   0.365   6.500   5.855
   59SOL     OW 1075   6.948   3.699   6.004
   59SOL    HW1 1076   6.981   3.659   6.090
   59SOL    HW2 1077   6.942   3.798   6.013
   60SOL     OW 1078   4.961   2.753   4.078
   60SOL    HW1 1079   5.058   2.770   4.065
   60SOL    HW2 1080   4.943   2.733   4.175
   61SOL     OW 1081   0.062   1.456   4.596
   61SOL    HW1 1082   0.156   1.427   4.582
   61SOL    HW2 1083   0.059   1.556   4.606
   62SOL     OW 1084   2.241   1.414   2.081
   62SOL    HW1 1085   2.169   1.376   2.023
   62SOL    HW2 1086   2.325   1.361   2.068
   63SOL     OW 1087   3.588   0.097   4.426
   63SOL    HW1 1088   3.635   0.040   4.359
   63SOL    HW2 1089   3.525   0.158   4.378
   64SOL     OW 1090   0.185   2.613   6.206
   64SOL    HW1 1091   0.231   2.700   6.223
   64SOL    HW2 1092   0.253   2.542   6.187
   65SOL     OW 1093   0.395   5.316   6.018
   65SOL    HW1 1094   0.415   5.405   5.977
   65SOL    HW2 1095   0.397   5.246   5.947
   66SOL     OW 1096   3.328   0.611   3.538
   66SOL    HW1 1097   3.414   0.624   3.588
   66SOL    HW2 1098   3.327   0.519   3.497
   67SOL     OW 1099   0.420   3.210   6.371
   67SOL    HW1 1100   0.423   3.226   6.272
   67SOL    HW2 1101   0.426   3.112   6.389
   68SOL     OW 1102   0.317   1.538   6.967
   68SOL    HW1 1103   0.401   1.483   6.971
   68SOL    HW2 1104   0.262   1.510   6.889
   69SOL     OW 1105   0.988   2.956   5.515
   69SOL    HW1 1106   1.084   2.938   5.494
   69SOL    HW2 1107   0.982   3.037   5.573
   70SOL     OW 1108   5.121   4.652   4.624
   70SOL    HW1 1109   5.166   4.626   4.538
   70SOL    HW2 1110   5.091   4.747   4.619
   71SOL     OW 1111   4.856   2.074   3.311
   71SOL    HW1 1112   4.898   2.163   3.295
   71SOL    HW2 1113   4.927   2.008   3.338
   72SOL     OW 1114   1.005   1.115   2.930
   72SOL    HW1 1115   1.035   1.020   2.927
   72SOL    HW2 1116   0.932   1.125   2.998
   73SOL     OW 1117   3.484   0.335   0.994
   73SOL    HW1 1118   3.436   0.418   1.022
   73SOL    HW2 1119   3.497   0.276   1.074
   74SOL     OW 1120   3.323   1.262   6.921
   74SOL    HW1 1121   3.232   1.244   6.959
   74SOL    HW2 1122   3.385   1.188   6.946
   75SOL     OW 1123   4.296   1.089   1.606
   75SOL    HW1 1124   4.343   1.027   1.668
   75SOL    HW2 1125   4.198   1.087   1.625
   76SOL     OW 1126   3.404   3.139   6.649
   76SOL    HW1 1127   3.402   3.200   6.570
   76SOL    HW2 1128   3.311   3.109   6.671
   77SOL     OW 1129   1.448   6.911   3.069
   77SOL    HW1 1130   1.475   6.826   3.114
   77SOL    HW2 1131   1.382   6.892   2.997
   78SOL     OW 1132   4.757   1.475   1.110
   78SOL    HW1 1133   4.711   1.387   1.101
   78SOL    HW2 1134   4.735   1.532   1.031
   79SOL     OW 1135   3.021   6.364   1.436
   79SOL    HW1 1136   2.977   6.393   1.521
   79SOL    HW2 1137   3.074   6.440   1.398
   80SOL     OW 1138   4.047   1.839   4.273
   80SOL    HW1 1139   3.999   1.755   4.300
   80SOL    HW2 1140   3.980   1.909   4.250
   81SOL     OW 1141   1.752   6.760   1.931
   81SOL    HW1 1142   1.839   6.721   1.898
   81SOL    HW2 1143   1.699   6.793   1.853
   82SOL     OW 1144   6.060   5.692   1.124
   82SOL    HW1 1145   6.076   5.595   1.138
   82SOL    HW2 1146   5.962   5.708   1.110
   83SOL     OW 1147   0.724   1.114   6.571
   83SOL    HW1 1148   0.741   1.019   6.545
   83SOL    HW2 1149   0.707   1.119   6.669
   84SOL     OW 1150   5.695   3.557   3.150
   84SOL    HW1 1151   5.792   3.573   3.168
   84SOL    HW2 1152   5.647   3.644   3.141
   85SOL     OW 1153   1.646   1.171   3.214
   85SOL    HW1 1154   1.700   1.250   3.187
   85SOL    HW2 1155   1.619   1.119   3.132
   86SOL     OW 1156   6.826   1.358   6.890
   86SOL    HW1 1157   6.829   1.399   6.981
   86SOL    HW2 1158   6.904   1.296   6.878
   87SOL     OW 1159   3.931   4.057   1.077
   87SOL    HW1 1160   3.867   3.985   1.103
   87SOL    HW2 1161   3.997   4.021   1.011
   88SOL     OW 1162   3.001   2.345   5.877
   88SOL    HW1 1163   3.028   2.425   5.824
   88SOL    HW2 1164   3.055   2.266   5.848
   89SOL     OW 1165   2.933   2.881   6.876
   89SOL    HW1 1166   2.924   2.837   6.787
   89SOL    HW2 1167   2.842   2.898   6.915
   90SOL     OW 1168   3.629   5.294   2.809
   90SOL    HW1 1169   3.675   5.257   2.729
   90SOL    HW2 1170   3.649   5.392   2.818
   91SOL     OW 1171   6.350   4.100   5.892
   91SOL    HW1 1172   6.417   4.169   5.867
   91SOL    HW2 1173   6.360   4.020   5.833
   92SOL     OW 1174   4.869   4.564   0.673
   92SOL    HW1 1175   4.781   4.605   0.647
   92SOL    HW2 1176   4.912   4.620   0.744
   93SOL     OW 1177   3.423   2.825   6.985
   93SOL    HW1 1178   3.465   2.906   0.000
   93SOL    HW2 1179   3.489   2.778   6.926
   94SOL     OW 1180   2.775   5.651   6.726
   94SOL    HW1 1181   2.723   5.707   6.790
   94SOL    HW2 1182   2.836   5.709   6.672
   95SOL     OW 1183   1.996   1.110   3.455
   95SOL    HW1 1184   1.920   1.128   3.518
   95SOL    HW2 1185   2.008   1.011   3.445
   96SOL     OW 1186   4.374   6.018   5.604
   96SOL    HW1 1187   4.406   6.112   5.608
   96SOL    HW2 1188   4.428   5.967   5.538
   97SOL     OW 1189   2.012   3.747   5.346
   97SOL    HW1 1190   2.074   3.791   5.282
   97SOL    HW2 1191   2.017   3.647   5.336
   98SOL     OW 1192   0.937   1.618   0.252
   98SOL    HW1 1193   0.978   1.666   0.330
   98SOL    HW2 1194   0.933   1.520   0.272
   99SOL     OW 1195   3.638   3.879   2.197
   99SOL    HW1 1196   3.542   3.902   2.183
   99SOL    HW2 1197   3.665   3.809   2.130
  100SOL     OW 1198   6.839   6.773   4.092
  100SOL    HW1 1199   6.936   6.781   4.068
  100SOL    HW2 1200   6.783   6.797   4.013
  101SOL     OW 1201   0.061   5.117   2.179
  101SOL    HW1 1202   0.137   5.075   2.129
  101SOL    HW2 1203   0.073   5.216   2.181
  102SOL     OW 1204   3.473   5.605   2.143
  102SOL    HW1 1205   3.417   5.563   2.214
  102SOL    HW2 1206   3.438   5.697   2.123
  103SOL     OW 1207   2.298   2.315   2.566
  103SOL    HW1 1208   2.266   2.284   2.656
  103SOL    HW2 1209   2.241   2.392   2.536
  104SOL     OW 1210   1.628   5.167   2.349
  104SOL    HW1 1211   1.689   5.137   2.422
  104SOL    HW2 1212   1.632   5.267   2.341
  105SOL     OW 1213   6.010   1.104   6.636
  105SOL    HW1 1214   6.026   1.067   6.544
  105SOL    HW2 1215   6.032   1.202   6.636
  106SOL     OW 1216   4.103   6.098   3.364
  106SOL    HW1 1217   4.103   6.158   3.284
  106SOL    HW2 1218   4.076   6.006   3.335
  107SOL     OW 1219   0.306   1.093   0.296
  107SOL    HW1 1220   0.244   1.014   0.302
  107SOL    HW2 1221   0.286   1.156   0.371
  108SOL     OW 1222   4.033   6.378   6.700
  108SOL    HW1 1223   3.951   6.358   6.754
  108SOL    HW2 1224   4.115   6.361   6.755
  109SOL     OW 1225   2.934   0.823   2.527
  109SOL    HW1 1226   2.983   0.819   2.440
  109SOL    HW2 1227   2.869   0.899   2.525
  110SOL     OW 1228   3.405   5.095   4.254
  110SOL    HW1 1229   3.483   5.158   4.250
  110SOL    HW2 1230   3.328   5.135   4.206
  111SOL     OW 1231   1.976   1.394   3.681
  111SOL    HW1 1232   2.010   1.303   3.708
  111SOL    HW2 1233   2.053   1.457   3.674
  112SOL     OW 1234   4.752   5.701   0.729
  112SOL    HW1 1235   4.736   5.669   0.823
  112SOL    HW2 1236   4.668   5.744   0.694
  113SOL     OW 1237   1.224   5.870   2.811
  113SOL    HW1 1238   1.297   5.809   2.782
  113SOL    HW2 1239   1.149   5.816   2.850
  114SOL     OW 1240   1.411   6.459   1.818
  114SOL    HW1 1241   1.418   6.359   1.818
  114SOL    HW2 1242   1.412   6.493   1.912
  115SOL     OW 1243   5.187   6.904   2.954
  115SOL    HW1 1244   5.117   6.947   3.011
  115SOL    HW2 1245   5.256   6.972   2.928
  116SOL     OW 1246   0.317   5.684   1.365
  116SOL    HW1 1247   0.259   5.727   1.434
  116SOL    HW2 1248   0.263   5.668   1.282
  117SOL     OW 1249   0.865   0.574   0.710
  117SOL    HW1 1250   0.952   0.528   0.725
  117SOL    HW2 1251   0.819   0.590   0.798
  118SOL     OW 1252   1.550   1.746   2.821
  118SOL    HW1 1253   1.600   1.795   2.894
  118SOL    HW2 1254   1.480   1.806   2.784
  119SOL     OW 1255   0.033   0.589   6.785
  119SOL    HW1 1256   6.966   0.589   6.746
  119SOL    HW2 1257   0.062   0.495   6.803
  120SOL     OW 1258   5.189   0.684   4.410
  120SOL    HW1 1259   5.190   0.638   4.499
  120SOL    HW2 1260   5.142   0.627   4.343
  121SOL     OW 1261   1.175   3.975   0.373
  121SOL    HW1 1262   1.191   3.896   0.433
  121SOL    HW2 1263   1.153   4.055   0.428
  122SOL     OW 1264   1.653   3.495   0.578
  122SOL    HW1 1265   1.668   3.568   0.511
  122SOL    HW2 1266   1.591   3.527   0.649
  123SOL     OW 1267   1.214   1.145   2.073
  123SOL    HW1 1268   1.119   1.116   2.066
  123SOL    HW2 1269   1.252   1.160   1.982
  124SOL     OW 1270   3.298   2.332   0.516
  124SOL    HW1 1271   3.295   2.413   0.576
  124SOL    HW2 1272   3.259   2.254   0.564
  125SOL     OW 1273   3.532   2.647   0.550
  125SOL    HW1 1274   3.543   2.569   0.488
  125SOL    HW2 1275   3.456   2.628   0.612
  126SOL     OW 1276   3.494   2.851   3.037
  126SOL    HW1 1277   3.538   2.765   3.010
  126SOL    HW2 1278   3.426   2.877   2.967
  127SOL     OW 1279   0.031   5.635   6.503
  127SOL    HW1 1280   0.055   5.539   6.515
  127SOL    HW2 1281   6.973   5.655   6.554
  128SOL     OW 1282   4.901   3.191   1.329
  128SOL    HW1 1283   4.808   3.222   1.351
  128SOL    HW2 1284   4.962   3.269   1.327
  129SOL     OW 1285   2.798   3.799   0.267
  129SOL    HW1 1286   2.752   3.712   0.282
  129SOL    HW2 1287   2.729   3.870   0.251
  130SOL     OW 1288   6.589   0.566   4.518
  130SOL    HW1 1289   6.608   0.599   4.610
  130SOL    HW2 1290   6.667   0.513   4.484
  131SOL     OW 1291   5.130   0.260   3.873
  131SOL    HW1 1292   5.169   0.173   3.902
  131SOL    HW2 1293   5.105   0.314   3.953
  132SOL     OW 1294   2.970   2.815   1.086
  132SOL    HW1 1295   3.047   2.780   1.032
  132SOL    HW2 1296   2.995   2.815   1.183
  133SOL     OW 1297   5.140   0.636   4.065
  133SOL    HW1 1298   5.238   0.629   4.052
  133SOL    HW2 1299   5.119   0.719   4.117
  134SOL     OW 1300   6.925   0.522   3.189
  134SOL    HW1 1301   6.835   0.483   3.206
  134SOL    HW2 1302   6.956   0.573   3.270
  135SOL     OW 1303   5.104   3.508   4.452
  135SOL    HW1 1304   5.122   3.499   4.354
  135SOL    HW2 1305   5.015   3.552   4.466
  136SOL     OW 1306   1.864   5.374   4.576
  136SOL    HW1 1307   1.857   5.341   4.482
  136SOL    HW2 1308   1.777   5.415   4.604
  137SOL     OW 1309   4.211   1.224   4.204
  137SOL    HW1 1310   4.148   1.176   4.143
  137SOL    HW2 1311   4.265   1.290   4.151
  138SOL     OW 1312   0.904   4.217   3.054
  138SOL    HW1 1313   0.951   4.130   3.069
  138SOL    HW2 1314   0.918   4.247   2.959
  139SOL     OW 1315   1.852   5.914   5.584
  139SOL    HW1 1316   1.902   5.970   5.651
  139SOL    HW2 1317   1.916   5.874   5.519
  140SOL     OW 1318   1.331   6.616   4.048
  140SOL    HW1 1319   1.425   6.640   4.023
  140SOL    HW2 1320   1.281   6.589   3.966
  141SOL     OW 1321   6.707   2.840   5.697
  141SOL    HW1 1322   6.660   2.780   5.761
  141SOL    HW2 1323   6.752   2.784   5.627
  142SOL     OW 1324   2.108   3.444   2.236
  142SOL    HW1 1325   2.152   3.433   2.147
  142SOL    HW2 1326   2.152   3.383   2.303
  143SOL     OW 1327   5.462   5.800   1.051
  143SOL    HW1 1328   5.366   5.826   1.051
  143SOL    HW2 1329   5.520   5.882   1.051
  144SOL     OW 1330   1.946   4.598   5.213
  144SOL    HW1 1331   1.888   4.548   5.277
  144SOL    HW2 1332   2.029   4.628   5.259
  145SOL     OW 1333   2.133   5.613   1.388
  145SOL    HW1 1334   2.135   5.615   1.288
  145SOL    HW2 1335   2.117   5.705   1.423
  146SOL     OW 1336   5.051   0.842   6.878
  146SOL    HW1 1337   5.052   0.915   6.809
  146SOL    HW2 1338   5.059   0.753   6.832
  147SOL     OW 1339   5.309   1.372   5.867
  147SOL    HW1 1340   5.280   1.278   5.882
  147SOL    HW2 1341   5.294   1.397   5.771
  148SOL     OW 1342   0.680   5.469   1.332
  148SOL    HW1 1343   0.696   5.564   1.307
  148SOL    HW2 1344   0.663   5.415   1.249
  149SOL     OW 1345   3.529   1.898   4.915
  149SOL    HW1 1346   3.561   1.808   4.888
  149SOL    HW2 1347   3.470   1.936   4.843
  150SOL     OW 1348   5.048   0.461   6.183
  150SOL    HW1 1349   5.081   0.371   6.152
  150SOL    HW2 1350   4.992   0.449   6.264
  151SOL     OW 1351   3.841   0.861   2.131
  151SOL    HW1 1352   3.933   0.823   2.143
  151SOL    HW2 1353   3.785   0.795   2.081
  152SOL     OW 1354   0.117   1.974   0.330
  152SOL    HW1 1355   0.176   1.893   0.325
  152SOL    HW2 1356   0.169   2.054   0.302
  153SOL     OW 1357   3.027   6.699   2.804
  153SOL    HW1 1358   2.930   6.679   2.818
  153SOL    HW2 1359   3.075   6.690   2.892
  154SOL     OW 1360   0.435   3.337   0.791
  154SOL    HW1 1361   0.391   3.248   0.781
  154SOL    HW2 1362   0.487   3.339   0.877
  155SOL     OW 1363   0.820   0.726   3.046
  155SOL    HW1 1364   0.868   0.642   3.070
  155SOL    HW2 1365   0.750   0.746   3.115
  156SOL     OW 1366   6.544   0.287   6.782
  156SOL    HW1 1367   6.642   0.301   6.792
  156SOL    HW2 1368   6.514   0.321   6.692
  157SOL     OW 1369   5.362   3.330   0.661
  157SOL    HW1 1370   5.440   3.283   0.619
  157SOL    HW2 1371   5.393   3.416   0.702
  158SOL     OW 1372   1.782   2.683   1.031
  158SOL    HW1 1373   1.783   2.583   1.028
  158SOL    HW2 1374   1.786   2.714   1.126
  159SOL     OW 1375   3.929   5.163   1.298
  159SOL    HW1 1376   3.891   5.234   1.239
  159SOL    HW2 1377   3.919   5.074   1.254
  160SOL     OW 1378   5.967   0.156   0.637
  160SOL    HW1 1379   5.950   0.149   0.539
  160SOL    HW2 1380   6.055   0.200   0.653
  161SOL     OW 1381   1.632   0.180   2.295
  161SOL    HW1 1382   1.598   0.137   2.211
  161SOL    HW2 1383   1.626   0.116   2.371
  162SOL     OW 1384   3.244   6.482   0.023
  162SOL    HW1 1385   3.220   6.566   0.070
  162SOL    HW2 1386   3.310   6.502   6.976
  163SOL     OW 1387   0.645   5.768   2.567
  163SOL    HW1 1388   0.714   5.780   2.639
  163SOL    HW2 1389   0.627   5.671   2.554
  164SOL     OW 1390   1.052   3.271   2.462
  164SOL    HW1 1391   0.995   3.311   2.533
  164SOL    HW2 1392   1.042   3.171   2.464
  165SOL     OW 1393   5.354   5.229   7.012
  165SOL    HW1 1394   5.304   5.200   0.068
  165SOL    HW2 1395   5.387   5.323   0.000
  166SOL     OW 1396   6.988   3.712   2.100
  166SOL    HW1 1397   6.908   3.652   2.104
  166SOL    HW2 1398   0.036   3.674   2.156
  167SOL     OW 1399   6.203   1.299   6.350
  167SOL    HW1 1400   6.114   1.335   6.376
  167SOL    HW2 1401   6.190   1.216   6.296
  168SOL     OW 1402   4.397   2.350   1.317
  168SOL    HW1 1403   4.448   2.347   1.403
  168SOL    HW2 1404   4.443   2.291   1.249
  169SOL     OW 1405   5.383   2.458   6.783
  169SOL    HW1 1406   5.370   2.470   6.881
  169SOL    HW2 1407   5.412   2.364   6.764
  170SOL     OW 1408   0.086   5.744   2.560
  170SOL    HW1 1409   0.095   5.780   2.652
  170SOL    HW2 1410   0.092   5.644   2.562
  171SOL     OW 1411   2.524   4.321   0.382
  171SOL    HW1 1412   2.582   4.241   0.398
  171SOL    HW2 1413   2.528   4.347   0.286
  172SOL     OW 1414   5.721   2.029   2.899
  172SOL    HW1 1415   5.757   1.952   2.952
  172SOL    HW2 1416   5.691   2.101   2.961
  173SOL     OW 1417   5.854   1.325   4.812
  173SOL    HW1 1418   5.911   1.305   4.732
  173SOL    HW2 1419   5.811   1.414   4.800
  174SOL     OW 1420   4.659   5.676   3.522
  174SOL    HW1 1421   4.622   5.700   3.612
  174SOL    HW2 1422   4.678   5.578   3.519
  175SOL     OW 1423   3.168   0.941   0.997
  175SOL    HW1 1424   3.107   0.893   0.934
  175SOL    HW2 1425   3.263   0.922   0.972
  176SOL     OW 1426   5.142   4.809   2.425
  176SOL    HW1 1427   5.188   4.729   2.464
  176SOL    HW2 1428   5.199   4.848   2.353
  177SOL     OW 1429   4.864   3.208   4.550
  177SOL    HW1 1430   4.859   3.120   4.598
  177SOL    HW2 1431   4.858   3.192   4.451
  178SOL     OW 1432   2.730   4.959   5.303
  178SOL    HW1 1433   2.778   4.893   5.362
  178SOL    HW2 1434   2.672   4.909   5.239
  179SOL     OW 1435   4.405   0.394   6.752
  179SOL    HW1 1436   4.402   0.315   6.814
  179SOL    HW2 1437   4.313   0.432   6.743
  180SOL     OW 1438   2.305   6.854   0.512
  180SOL    HW1 1439   2.358   6.837   0.595
  180SOL    HW2 1440   2.214   6.815   0.521
  181SOL     OW 1441   3.148   3.344   6.046
  181SOL    HW1 1442   3.131   3.402   5.966
  181SOL    HW2 1443   3.167   3.401   6.125
  182SOL     OW 1444   4.070   2.496   6.311
  182SOL    HW1 1445   4.156   2.544   6.332
  182SOL    HW2 1446   4.001   2.562   6.282
  183SOL     OW 1447   3.403   2.153   3.473
  183SOL    HW1 1448   3.461   2.133   3.552
  183SOL    HW2 1449   3.311   2.117   3.489
  184SOL     OW 1450   0.454   6.801   3.448
  184SOL    HW1 1451   0.554   6.806   3.454
  184SOL    HW2 1452   0.426   6.813   3.352
  185SOL     OW 1453   1.304   1.587   4.791
  185SOL    HW1 1454   1.309   1.501   4.739
  185SOL    HW2 1455   1.208   1.614   4.801
  186SOL     OW 1456   5.141   0.954   4.449
  186SOL    HW1 1457   5.140   0.860   4.414
  186SOL    HW2 1458   5.224   0.968   4.504
  187SOL     OW 1459   5.600   6.711   2.247
  187SOL    HW1 1460   5.616   6.800   2.205
  187SOL    HW2 1461   5.647   6.706   2.335
  188SOL     OW 1462   0.261   3.154   3.934
  188SOL    HW1 1463   0.232   3.099   4.012
  188SOL    HW2 1464   0.332   3.218   3.963
  189SOL     OW 1465   1.872   4.763   6.705
  189SOL    HW1 1466   1.781   4.735   6.673
  189SOL    HW2 1467   1.903   4.842   6.652
  190SOL     OW 1468   6.083   4.615   6.034
  190SOL    HW1 1469   6.063   4.678   5.959
  190SOL    HW2 1470   6.160   4.556   6.010
  191SOL     OW 1471   6.786   1.483   6.609
  191SOL    HW1 1472   6.818   1.437   6.692
  191SOL    HW2 1473   6.748   1.572   6.633
  192SOL     OW 1474   0.294   4.586   1.365
  192SOL    HW1 1475   0.233   4.633   1.302
  192SOL    HW2 1476   0.386   4.626   1.359
  193SOL     OW 1477   4.948   4.324   5.215
  193SOL    HW1 1478   5.000   4.340   5.299
  193SOL    HW2 1479   4.857   4.365   5.224
  194SOL     OW 1480   3.828   6.280   3.209
  194SOL    HW1 1481   3.776   6.353   3.254
  194SOL    HW2 1482   3.923   6.309   3.198
  195SOL     OW 1483   1.999   1.077   3.174
  195SOL    HW1 1484   2.014   1.172   3.145
  195SOL    HW2 1485   2.029   1.066   3.269
  196SOL     OW 1486   2.857   6.964   6.834
  196SOL    HW1 1487   2.887   6.887   6.891
  196SOL    HW2 1488   2.820   0.010   6.893
  197SOL     OW 1489   2.957   6.924   0.496
  197SOL    HW1 1490   2.935   6.940   0.400
  197SOL    HW2 1491   2.963   7.012   0.544
  198SOL     OW 1492   4.803   6.873   2.008
  198SOL    HW1 1493   4.832   6.950   1.950
  198SOL    HW2 1494   4.776   6.796   1.950
  199SOL     OW 1495   6.671   1.217   2.843
  199SOL    HW1 1496   6.629   1.174   2.764
  199SOL    HW2 1497   6.617   1.196   2.925
  200SOL     OW 1498   0.997   4.253   2.147
  200SOL    HW1 1499   0.906   4.224   2.177
  200SOL    HW2 1500   1.003   4.245   2.047
  201SOL     OW 1501   4.602   6.782   6.571
  201SOL    HW1 1502   4.569   6.689   6.562
  201SOL    HW2 1503   4.532   6.846   6.538
  202SOL     OW 1504   5.781   0.314   5.715
  202SOL    HW1 1505   5.822   0.405   5.716
  202SOL    HW2 1506   5.681   0.322   5.720
  203SOL     OW 1507   5.210   2.201   4.680
  203SOL    HW1 1508   5.259   2.117   4.659
  203SOL    HW2 1509   5.191   2.251   4.595
  204SOL     OW 1510   6.922   1.085   6.699
  204SOL    HW1 1511   6.894   0.998   6.740
  204SOL    HW2 1512   6.983   1.133   6.763
  205SOL     OW 1513   0.930   1.035   2.075
  205SOL    HW1 1514   0.920   1.111   2.011
  205SOL    HW2 1515   0.935   0.949   2.024
  206SOL     OW 1516   0.267   5.177   2.693
  206SOL    HW1 1517   0.295   5.244   2.761
  206SOL    HW2 1518   0.335   5.104   2.689
  207SOL     OW 1519   4.225   0.246   4.668
  207SOL    HW1 1520   4.224   0.150   4.641
  207SOL    HW2 1521   4.320   0.278   4.674
  208SOL     OW 1522   5.027   4.023   5.527
  208SOL    HW1 1523   5.037   4.002   5.429
  208SOL    HW2 1524   5.117   4.033   5.569
  209SOL     OW 1525   1.222   5.163   5.251
  209SOL    HW1 1526   1.132   5.204   5.269
  209SOL    HW2 1527   1.234   5.083   5.310
  210SOL     OW 1528   4.319   2.068   1.696
  210SOL    HW1 1529   4.409   2.025   1.684
  210SOL    HW2 1530   4.330   2.155   1.744
  211SOL     OW 1531   1.202   6.259   4.519
  211SOL    HW1 1532   1.117   6.307   4.496
  211SOL    HW2 1533   1.280   6.314   4.491
  212SOL     OW 1534   2.169   4.597   2.136
  212SOL    HW1 1535   2.121   4.583   2.050
  212SOL    HW2 1536   2.104   4.622   2.207
  213SOL     OW 1537   3.643   0.731   6.391
  213SOL    HW1 1538   3.703   0.651   6.390
  213SOL    HW2 1539   3.616   0.753   6.297
  214SOL     OW 1540   3.492   5.956   2.253
  214SOL    HW1 1541   3.417   5.927   2.194
  214SOL    HW2 1542   3.476   5.924   2.346
  215SOL     OW 1543   3.147   4.122   1.695
  215SOL    HW1 1544   3.056   4.164   1.701
  215SOL    HW2 1545   3.167   4.101   1.599
  216SOL     OW 1546   1.714   6.606   4.933
  216SOL    HW1 1547   1.747   6.594   5.027
  216SOL    HW2 1548   1.667   6.694   4.926
  217SOL     OW 1549   2.654   2.248   3.978
  217SOL    HW1 1550   2.644   2.210   3.885
  217SOL    HW2 1551   2.639   2.175   4.045
  218SOL     OW 1552   0.650   3.371   4.429
  218SOL    HW1 1553   0.689   3.285   4.396
  218SOL    HW2 1554   0.656   3.440   4.357
  219SOL     OW 1555   3.703   6.729   6.566
  219SOL    HW1 1556   3.653   6.659   6.617
  219SOL    HW2 1557   3.787   6.689   6.530
  220SOL     OW 1558   3.666   6.387   6.366
  220SOL    HW1 1559   3.619   6.450   6.303
  220SOL    HW2 1560   3.739   6.436   6.413
  221SOL     OW 1561   6.931   3.820   2.639
  221SOL    HW1 1562   7.000   3.774   2.583
  221SOL    HW2 1563   6.959   3.818   2.735
  222SOL     OW 1564   2.215   4.995   5.866
  222SOL    HW1 1565   2.191   5.078   5.816
  222SOL    HW2 1566   2.183   4.915   5.816
  223SOL     OW 1567   6.206   3.509   0.889
  223SOL    HW1 1568   6.227   3.595   0.843
  223SOL    HW2 1569   6.208   3.434   0.822
  224SOL     OW 1570   2.887   1.770   3.546
  224SOL    HW1 1571   2.979   1.788   3.578
  224SOL    HW2 1572   2.886   1.768   3.446
  225SOL     OW 1573   4.964   1.272   6.067
  225SOL    HW1 1574   4.931   1.365   6.049
  225SOL    HW2 1575   5.050   1.276   6.118
  226SOL     OW 1576   0.545   0.161   6.266
  226SOL    HW1 1577   0.561   0.254   6.299
  226SOL    HW2 1578   0.594   0.148   6.180
  227SOL     OW 1579   1.464   4.388   2.050
  227SOL    HW1 1580   1.380   4.409   1.999
  227SOL    HW2 1581   1.483   4.290   2.043
  228SOL     OW 1582   3.639   6.344   3.513
  228SOL    HW1 1583   3.691   6.395   3.444
  228SOL    HW2 1584   3.624   6.402   3.593
  229SOL     OW 1585   5.626   6.259   0.555
  229SOL    HW1 1586   5.594   6.312   0.477
  229SOL    HW2 1587   5.561   6.266   0.630
  230SOL     OW 1588   2.843   4.797   2.812
  230SOL    HW1 1589   2.832   4.885   2.767
  230SOL    HW2 1590   2.774   4.733   2.778
  231SOL     OW 1591   6.215   1.965   6.216
  231SOL    HW1 1592   6.302   1.918   6.229
  231SOL    HW2 1593   6.177   1.990   6.305
  232SOL     OW 1594   0.897   4.245   5.843
  232SOL    HW1 1595   0.952   4.234   5.760
  232SOL    HW2 1596   0.831   4.170   5.849
  233SOL     OW 1597   2.141   0.849   4.108
  233SOL    HW1 1598   2.182   0.934   4.076
  233SOL    HW2 1599   2.083   0.811   4.036
  234SOL     OW 1600   2.924   5.992   5.467
  234SOL    HW1 1601   2.961   5.900   5.472
  234SOL    HW2 1602   2.840   5.992   5.413
  235SOL     OW 1603   3.016   3.356   2.269
  235SOL    HW1 1604   2.951   3.432   2.267
  235SOL    HW2 1605   3.047   3.341   2.363
  236SOL     OW 1606   6.131   2.527   6.737
  236SOL    HW1 1607   6.064   2.514   6.664
  236SOL    HW2 1608   6.180   2.442   6.753
  237SOL     OW 1609   6.413   6.725   0.791
  237SOL    HW1 1610   6.471   6.647   0.810
  237SOL    HW2 1611   6.468   6.801   0.755
  238SOL     OW 1612   6.005   2.200   6.961
  238SOL    HW1 1613   6.041   2.129   7.021
  238SOL    HW2 1614   6.012   2.289   7.007
  239SOL     OW 1615   6.569   5.616   6.899
  239SOL    HW1 1616   6.534   5.677   6.827
  239SOL    HW2 1617   6.666   5.633   6.912
  240SOL     OW 1618   0.103   3.056   5.761
  240SOL    HW1 1619   0.131   3.074   5.666
  240SOL    HW2 1620   0.028   3.117   5.785
  241SOL     OW 1621   1.128   0.512   4.454
  241SOL    HW1 1622   1.104   0.467   4.368
  241SOL    HW2 1623   1.094   0.458   4.531
  242SOL     OW 1624   2.034   3.265   6.235
  242SOL    HW1 1625   2.112   3.226   6.188
  242SOL    HW2 1626   2.005   3.348   6.187
  243SOL     OW 1627   5.095   6.999   6.492
  243SOL    HW1 1628   5.077   6.998   6.591
  243SOL    HW2 1629   5.187   6.965   6.475
  244SOL     OW 1630   4.799   2.996   4.040
  244SOL    HW1 1631   4.848   3.053   3.973
  244SOL    HW2 1632   4.782   2.906   4.001
  245SOL     OW 1633   0.190   2.592   4.703
  245SOL    HW1 1634   0.169   2.563   4.796
  245SOL    HW2 1635   0.106   2.600   4.650
  246SOL     OW 1636   5.509   2.892   3.332
  246SOL    HW1 1637   5.454   2.955   3.278
  246SOL    HW2 1638   5.507   2.801   3.289
  247SOL     OW 1639   1.891   1.882   1.912
  247SOL    HW1 1640   1.863   1.808   1.973
  247SOL    HW2 1641   1.852   1.867   1.822
  248SOL     OW 1642   4.633   2.265   4.856
  248SOL    HW1 1643   4.656   2.299   4.948
  248SOL    HW2 1644   4.584   2.178   4.864
  249SOL     OW 1645   4.904   0.064   5.248
  249SOL    HW1 1646   4.980   0.074   5.183
  249SOL    HW2 1647   4.888   6.993   5.266
  250SOL     OW 1648   4.756   2.544   5.698
  250SOL    HW1 1649   4.793   2.510   5.785
  250SOL    HW2 1650   4.754   2.644   5.699
  251SOL     OW 1651   4.226   4.673   6.294
  251SOL    HW1 1652   4.166   4.738   6.248
  251SOL    HW2 1653   4.220   4.686   6.393
  252SOL     OW 1654   0.002   0.635   0.186
  252SOL    HW1 1655   0.039   0.543   0.180
  252SOL    HW2 1656   0.049   0.695   0.121
  253SOL     OW 1657   2.202   4.128   0.110
  253SOL    HW1 1658   2.179   4.038   0.072
  253SOL    HW2 1659   2.129   4.157   0.173
  254SOL     OW 1660   6.392   2.649   3.500
  254SOL    HW1 1661   6.352   2.679   3.587
  254SOL    HW2 1662   6.446   2.566   3.515
  255SOL     OW 1663   1.946   2.988   3.986
  255SOL    HW1 1664   2.000   2.968   4.068
  255SOL    HW2 1665   1.889   3.068   4.002
  256SOL     OW 1666   6.617   4.552   0.327
  256SOL    HW1 1667   6.687   4.545   0.398
  256SOL    HW2 1668   6.600   4.462   0.287
  257SOL     OW 1669   3.609   5.434   5.312
  257SOL    HW1 1670   3.632   5.530   5.298
  257SOL    HW2 1671   3.689   5.378   5.293
  258SOL     OW 1672   5.637   4.594   4.707
  258SOL    HW1 1673   5.625   4.498   4.681
  258SOL    HW2 1674   5.696   4.600   4.787
  259SOL     OW 1675   1.928   2.925   2.382
  259SOL    HW1 1676   1.939   2.912   2.480
  259SOL    HW2 1677   1.869   3.005   2.365
  260SOL     OW 1678   4.267   0.946   1.254
  260SOL    HW1 1679   4.274   0.885   1.174
  260SOL    HW2 1680   4.347   0.933   1.312
  261SOL     OW 1681   6.508   3.492   1.276
  261SOL    HW1 1682   6.453   3.521   1.354
  261SOL    HW2 1683   6.483   3.546   1.195
  262SOL     OW 1684   0.579   4.132   1.918
  262SOL    HW1 1685   0.667   4.087   1.905
  262SOL    HW2 1686   0.507   4.078   1.874
  263SOL     OW 1687   0.693   1.130   3.830
  263SOL    HW1 1688   0.792   1.143   3.841
  263SOL    HW2 1689   0.650   1.220   3.820
  264SOL     OW 1690   5.794   4.457   5.329
  264SOL    HW1 1691   5.866   4.478   5.263
  264SOL    HW2 1692   5.708   4.499   5.299
  265SOL     OW 1693   4.853   4.130   3.120
  265SOL    HW1 1694   4.838   4.071   3.040
  265SOL    HW2 1695   4.915   4.085   3.183
  266SOL     OW 1696   3.489   3.058   6.002
  266SOL    HW1 1697   3.570   2.999   6.000
  266SOL    HW2 1698   3.443   3.048   6.090
  267SOL     OW 1699   6.896   2.397   5.914
  267SOL    HW1 1700   6.869   2.318   5.968
  267SOL    HW2 1701   6.883   2.377   5.817
  268SOL     OW 1702   5.051   5.772   5.166
  268SOL    HW1 1703   5.083   5.775   5.071
  268SOL    HW2 1704   5.016   5.862   5.193
  269SOL     OW 1705   1.805   1.966   0.441
  269SOL    HW1 1706   1.780   1.876   0.404
  269SOL    HW2 1707   1.725   2.026   0.441
  270SOL     OW 1708   0.063   0.545   2.195
  270SOL    HW1 1709   0.156   0.565   2.164
  270SOL    HW2 1710   7.023   0.581   2.129
  271SOL     OW 1711   2.726   2.258   0.129
  271SOL    HW1 1712   2.723   2.358   0.134
  271SOL    HW2 1713   2.728   2.221   0.222
  272SOL     OW 1714   3.109   5.448   4.224
  272SOL    HW1 1715   3.164   5.431   4.142
  272SOL    HW2 1716   3.166   5.491   4.294
  273SOL     OW 1717   1.465   5.533   5.387
  273SOL    HW1 1718   1.472   5.465   5.313
  273SOL    HW2 1719   1.512   5.498   5.468
  274SOL     OW 1720   5.542   2.107   4.139
  274SOL    HW1 1721   5.475   2.146   4.203
  274SOL    HW2 1722   5.495   2.044   4.077
  275SOL     OW 1723   6.984   6.049   6.277
  275SOL    HW1 1724   6.896   6.057   6.230
  275SOL    HW2 1725   7.013   5.954   6.280
  276SOL     OW 1726   6.696   5.295   3.815
  276SOL    HW1 1727   6.658   5.223   3.757
  276SOL    HW2 1728   6.636   5.376   3.811
  277SOL     OW 1729   2.976   1.457   6.645
  277SOL    HW1 1730   3.036   1.532   6.675
  277SOL    HW2 1731   3.032   1.383   6.608
  278SOL     OW 1732   6.352   3.612   1.952
  278SOL    HW1 1733   6.425   3.643   2.013
  278SOL    HW2 1734   6.392   3.570   1.871
  279SOL     OW 1735   6.408   2.681   4.273
  279SOL    HW1 1736   6.341   2.611   4.247
  279SOL    HW2 1737   6.500   2.648   4.253
  280SOL     OW 1738   3.832   6.973   2.834
  280SOL    HW1 1739   3.853   0.045   2.842
  280SOL    HW2 1740   3.774   6.958   2.753
  281SOL     OW 1741   2.795   4.776   3.087
  281SOL    HW1 1742   2.726   4.704   3.095
  281SOL    HW2 1743   2.839   4.771   2.998
  282SOL     OW 1744   4.010   2.532   5.427
  282SOL    HW1 1745   4.032   2.526   5.330
  282SOL    HW2 1746   3.965   2.448   5.457
  283SOL     OW 1747   6.352   0.672   6.084
  283SOL    HW1 1748   6.285   0.598   6.082
  283SOL    HW2 1749   6.441   0.636   6.110
  284SOL     OW 1750   0.653   4.733   5.007
  284SOL    HW1 1751   0.639   4.681   5.092
  284SOL    HW2 1752   0.751   4.747   4.993
  285SOL     OW 1753   5.145   5.740   0.135
  285SOL    HW1 1754   5.153   5.818   0.074
  285SOL    HW2 1755   5.185   5.660   0.092
  286SOL     OW 1756   4.112   4.789   5.113
  286SOL    HW1 1757   4.021   4.825   5.098
  286SOL    HW2 1758   4.152   4.760   5.026
  287SOL     OW 1759   0.708   5.393   6.688
  287SOL    HW1 1760   0.696   5.396   6.788
  287SOL    HW2 1761   0.647   5.460   6.646
  288SOL     OW 1762   4.067   1.197   0.406
  288SOL    HW1 1763   4.140   1.214   0.340
  288SOL    HW2 1764   4.013   1.280   0.419
  289SOL     OW 1765   0.178   5.633   5.401
  289SOL    HW1 1766   0.167   5.723   5.442
  289SOL    HW2 1767   0.162   5.639   5.302
  290SOL     OW 1768   4.910   1.351   3.717
  290SOL    HW1 1769   4.884   1.288   3.644
  290SOL    HW2 1770   4.896   1.308   3.806
  291SOL     OW 1771   3.811   1.002   4.310
  291SOL    HW1 1772   3.868   0.938   4.259
  291SOL    HW2 1773   3.854   1.092   4.310
  292SOL     OW 1774   4.475   1.573   3.832
  292SOL    HW1 1775   4.560   1.582   3.884
  292SOL    HW2 1776   4.402   1.623   3.878
  293SOL     OW 1777   3.874   6.339   1.582
  293SOL    HW1 1778   3.913   6.416   1.632
  293SOL    HW2 1779   3.854   6.264   1.645
  294SOL     OW 1780   6.078   5.650   6.818
  294SOL    HW1 1781   6.017   5.673   6.742
  294SOL    HW2 1782   6.033   5.585   6.879
  295SOL     OW 1783   2.410   1.964   5.407
  295SOL    HW1 1784   2.489   1.984   5.349
  295SOL    HW2 1785   2.346   2.041   5.404
  296SOL     OW 1786   6.485   2.475   1.939
  296SOL    HW1 1787   6.503   2.508   1.846
  296SOL    HW2 1788   6.475   2.376   1.937
  297SOL     OW 1789   3.380   4.940   3.052
  297SOL    HW1 1790   3.284   4.927   3.030
  297SOL    HW2 1791   3.389   4.991   3.138
  298SOL     OW 1792   4.421   6.732   0.008
  298SOL    HW1 1793   4.363   6.809   7.008
  298SOL    HW2 1794   4.364   6.654   0.034
  299SOL     OW 1795   4.667   2.268   6.275
  299SOL    HW1 1796   4.589   2.328   6.292
  299SOL    HW2 1797   4.637   2.173   6.272
  300SOL     OW 1798   4.638   0.518   2.508
  300SOL    HW1 1799   4.561   0.454   2.517
  300SOL    HW2 1800   4.654   0.538   2.412
  301SOL     OW 1801   5.007   1.490   0.869
  301SOL    HW1 1802   4.996   1.517   0.964
  301SOL    HW2 1803   5.079   1.546   0.827
  302SOL     OW 1804   6.723   0.761   2.778
  302SOL    HW1 1805   6.632   0.751   2.738
  302SOL    HW2 1806   6.755   0.671   2.809
  303SOL     OW 1807   6.442   6.007   2.377
  303SOL    HW1 1808   6.421   5.914   2.346
  303SOL    HW2 1809   6.530   6.007   2.425
  304SOL     OW 1810   2.098   6.274   6.451
  304SOL    HW1 1811   2.145   6.333   6.517
  304SOL    HW2 1812   2.061   6.331   6.377
  305SOL     OW 1813   1.241   2.807   0.960
  305SOL    HW1 1814   1.174   2.839   0.893
  305SOL    HW2 1815   1.224   2.850   1.048
  306SOL     OW 1816   0.512   1.142   2.776
  306SOL    HW1 1817   0.530   1.220   2.835
  306SOL    HW2 1818   0.550   1.059   2.817
  307SOL     OW 1819   4.580   4.454   0.232
  307SOL    HW1 1820   4.564   4.551   0.252
  307SOL    HW2 1821   4.677   4.441   0.211
  308SOL     OW 1822   5.828   3.114   4.572
  308SOL    HW1 1823   5.815   3.109   4.671
  308SOL    HW2 1824   5.744   3.147   4.529
  309SOL     OW 1825   1.638   6.355   0.260
  309SOL    HW1 1826   1.655   6.378   0.164
  309SOL    HW2 1827   1.541   6.367   0.281
  310SOL     OW 1828   5.278   5.608   4.425
  310SOL    HW1 1829   5.197   5.645   4.379
  310SOL    HW2 1830   5.250   5.541   4.494
  311SOL     OW 1831   2.947   5.257   2.448
  311SOL    HW1 1832   2.941   5.258   2.348
  311SOL    HW2 1833   2.908   5.172   2.483
  312SOL     OW 1834   3.498   1.687   4.382
  312SOL    HW1 1835   3.541   1.606   4.422
  312SOL    HW2 1836   3.553   1.768   4.400
  313SOL     OW 1837   3.339   4.113   2.380
  313SOL    HW1 1838   3.324   4.210   2.362
  313SOL    HW2 1839   3.352   4.064   2.294
  314SOL     OW 1840   2.445   4.557   5.525
  314SOL    HW1 1841   2.472   4.576   5.619
  314SOL    HW2 1842   2.516   4.504   5.480
  315SOL     OW 1843   1.166   2.486   4.251
  315SOL    HW1 1844   1.256   2.463   4.213
  315SOL    HW2 1845   1.172   2.573   4.301
  316SOL     OW 1846   3.583   0.428   4.373
  316SOL    HW1 1847   3.531   0.409   4.456
  316SOL    HW2 1848   3.642   0.507   4.388
  317SOL     OW 1849   6.993   1.940   1.526
  317SOL    HW1 1850   6.911   1.994   1.505
  317SOL    HW2 1851   0.002   1.897   1.443
  318SOL     OW 1852   0.213   6.623   6.951
  318SOL    HW1 1853   0.192   6.718   6.975
  318SOL    HW2 1854   0.153   6.594   6.876
  319SOL     OW 1855   6.494   1.631   3.423
  319SOL    HW1 1856   6.544   1.630   3.510
  319SOL    HW2 1857   6.530   1.704   3.365
  320SOL     OW 1858   5.685   2.663   0.183
  320SOL    HW1 1859   5.625   2.615   0.248
  320SOL    HW2 1860   5.710   2.600   0.109
  321SOL     OW 1861   3.963   2.265   6.991
  321SOL    HW1 1862   3.877   2.224   6.960
  321SOL    HW2 1863   4.033   2.193   6.997
  322SOL     OW 1864   3.078   3.086   4.342
  322SOL    HW1 1865   3.131   3.070   4.425
  322SOL    HW2 1866   3.032   3.174   4.348
  323SOL     OW 1867   1.001   2.496   5.962
  323SOL    HW1 1868   0.919   2.481   5.907
  323SOL    HW2 1869   1.074   2.531   5.903
  324SOL     OW 1870   3.038   0.419   3.259
  324SOL    HW1 1871   3.027   0.499   3.199
  324SOL    HW2 1872   2.955   0.407   3.314
  325SOL     OW 1873   0.370   2.789   1.878
  325SOL    HW1 1874   0.459   2.833   1.877
  325SOL    HW2 1875   0.318   2.817   1.797
  326SOL     OW 1876   0.830   4.193   6.203
  326SOL    HW1 1877   0.879   4.228   6.282
  326SOL    HW2 1878   0.752   4.251   6.183
  327SOL     OW 1879   1.934   4.745   2.620
  327SOL    HW1 1880   1.870   4.819   2.602
  327SOL    HW2 1881   1.951   4.740   2.719
  328SOL     OW 1882   1.761   5.749   1.865
  328SOL    HW1 1883   1.692   5.771   1.795
  328SOL    HW2 1884   1.852   5.749   1.823
  329SOL     OW 1885   2.923   3.309   5.492
  329SOL    HW1 1886   3.021   3.300   5.512
  329SOL    HW2 1887   2.887   3.389   5.540
  330SOL     OW 1888   3.071   6.459   1.156
  330SOL    HW1 1889   3.158   6.460   1.107
  330SOL    HW2 1890   3.047   6.364   1.179
  331SOL     OW 1891   4.113   5.277   0.595
  331SOL    HW1 1892   4.192   5.246   0.647
  331SOL    HW2 1893   4.030   5.263   0.650
  332SOL     OW 1894   5.335   2.595   5.471
  332SOL    HW1 1895   5.374   2.687   5.469
  332SOL    HW2 1896   5.312   2.570   5.565
  333SOL     OW 1897   4.418   0.800   5.573
  333SOL    HW1 1898   4.478   0.723   5.551
  333SOL    HW2 1899   4.382   0.789   5.665
  334SOL     OW 1900   3.284   1.849   0.056
  334SOL    HW1 1901   3.287   1.933   0.110
  334SOL    HW2 1902   3.189   1.825   0.038
  335SOL     OW 1903   3.918   0.101   6.356
  335SOL    HW1 1904   3.940   0.195   6.329
  335SOL    HW2 1905   3.828   0.100   6.399
  336SOL     OW 1906   2.901   1.158   3.163
  336SOL    HW1 1907   2.946   1.142   3.074
  336SOL    HW2 1908   2.807   1.125   3.159
  337SOL     OW 1909   7.020   3.326   5.558
  337SOL    HW1 1910   7.019   3.314   5.459
  337SOL    HW2 1911   6.968   3.407   5.583
  338SOL     OW 1912   2.939   2.524   1.198
  338SOL    HW1 1913   2.960   2.558   1.290
  338SOL    HW2 1914   3.012   2.549   1.135
  339SOL     OW 1915   4.612   5.743   4.647
  339SOL    HW1 1916   4.695   5.688   4.633
  339SOL    HW2 1917   4.577   5.774   4.559
  340SOL     OW 1918   5.538   3.584   4.526
  340SOL    HW1 1919   5.583   3.671   4.547
  340SOL    HW2 1920   5.505   3.542   4.611
  341SOL     OW 1921   6.263   6.619   4.491
  341SOL    HW1 1922   6.272   6.532   4.443
  341SOL    HW2 1923   6.287   6.608   4.587
  342SOL     OW 1924   5.771   3.652   0.486
  342SOL    HW1 1925   5.682   3.637   0.529
  342SOL    HW2 1926   5.758   3.678   0.390
  343SOL     OW 1927   0.936   5.871   1.423
  343SOL    HW1 1928   0.879   5.816   1.362
  343SOL    HW2 1929   0.885   5.952   1.452
  344SOL     OW 1930   0.714   3.406   1.600
  344SOL    HW1 1931   0.782   3.361   1.656
  344SOL    HW2 1932   0.670   3.339   1.539
  345SOL     OW 1933   5.419   2.239   3.609
  345SOL    HW1 1934   5.464   2.279   3.529
  345SOL    HW2 1935   5.321   2.233   3.594
  346SOL     OW 1936   1.841   1.174   2.495
  346SOL    HW1 1937   1.824   1.082   2.461
  346SOL    HW2 1938   1.939   1.185   2.513
  347SOL     OW 1939   2.694   5.666   0.012
  347SOL    HW1 1940   2.697   5.761   7.009
  347SOL    HW2 1941   2.781   5.641   0.054
  348SOL     OW 1942   4.921   3.897   2.509
  348SOL    HW1 1943   4.958   3.990   2.508
  348SOL    HW2 1944   4.828   3.898   2.544
  349SOL     OW 1945   6.994   5.077   1.326
  349SOL    HW1 1946   6.961   5.124   1.407
  349SOL    HW2 1947   6.994   4.978   1.342
  350SOL     OW 1948   3.014   2.022   1.221
  350SOL    HW1 1949   2.985   2.115   1.241
  350SOL    HW2 1950   2.976   1.960   1.290
  351SOL     OW 1951   2.842   3.408   0.769
  351SOL    HW1 1952   2.781   3.328   0.772
  351SOL    HW2 1953   2.868   3.427   0.675
  352SOL     OW 1954   3.143   6.757   3.565
  352SOL    HW1 1955   3.151   6.857   3.567
  352SOL    HW2 1956   3.082   6.730   3.491
  353SOL     OW 1957   3.221   0.186   6.882
  353SOL    HW1 1958   3.286   0.112   6.901
  353SOL    HW2 1959   3.230   0.214   6.786
  354SOL     OW 1960   4.570   2.396   1.549
  354SOL    HW1 1961   4.661   2.430   1.570
  354SOL    HW2 1962   4.576   2.301   1.518
  355SOL     OW 1963   1.504   3.894   2.708
  355SOL    HW1 1964   1.602   3.882   2.689
  355SOL    HW2 1965   1.475   3.825   2.775
  356SOL     OW 1966   2.116   0.440   5.473
  356SOL    HW1 1967   2.165   0.493   5.541
  356SOL    HW2 1968   2.018   0.459   5.481
  357SOL     OW 1969   6.923   6.773   5.124
  357SOL    HW1 1970   7.001   6.729   5.078
  357SOL    HW2 1971   6.950   6.799   5.216
  358SOL     OW 1972   4.860   6.473   0.356
  358SOL    HW1 1973   4.781   6.533   0.367
  358SOL    HW2 1974   4.881   6.428   0.443
  359SOL     OW 1975   3.108   2.118   1.693
  359SOL    HW1 1976   3.177   2.172   1.644
  359SOL    HW2 1977   3.102   2.027   1.652
  360SOL     OW 1978   1.195   4.367   5.322
  360SOL    HW1 1979   1.157   4.292   5.376
  360SOL    HW2 1980   1.153   4.367   5.231
  361SOL     OW 1981   6.841   6.122   2.912
  361SOL    HW1 1982   6.819   6.219   2.919
  361SOL    HW2 1983   6.851   6.083   3.004
  362SOL     OW 1984   3.315   2.631   1.568
  362SOL    HW1 1985   3.223   2.600   1.548
  362SOL    HW2 1986   3.379   2.590   1.503
  363SOL     OW 1987   5.588   3.795   3.049
  363SOL    HW1 1988   5.507   3.792   2.990
  363SOL    HW2 1989   5.657   3.854   3.007
  364SOL     OW 1990   6.407   4.980   6.470
  364SOL    HW1 1991   6.489   4.943   6.514
  364SOL    HW2 1992   6.428   5.067   6.427
  365SOL     OW 1993   5.610   6.964   2.105
  365SOL    HW1 1994   5.570   0.022   2.064
  365SOL    HW2 1995   5.611   6.891   2.036
  366SOL     OW 1996   5.344   1.233   0.062
  366SOL    HW1 1997   5.401   1.151   0.070
  366SOL    HW2 1998   5.250   1.211   0.090
  367SOL     OW 1999   5.876   2.544   1.217
  367SOL    HW1 2000   5.921   2.580   1.299
  367SOL    HW2 2001   5.852   2.448   1.232
  368SOL     OW 2002   0.465   2.941   5.644
  368SOL    HW1 2003   0.559   2.974   5.647
  368SOL    HW2 2004   0.435   2.918   5.737
  369SOL     OW 2005   6.148   5.347   2.867
  369SOL    HW1 2006   6.145   5.419   2.798
  369SOL    HW2 2007   6.234   5.297   2.860
  370SOL     OW 2008   1.794   1.689   5.232
  370SOL    HW1 2009   1.847   1.711   5.150
  370SOL    HW2 2010   1.809   1.760   5.301
  371SOL     OW 2011   1.447   4.588   5.644
  371SOL    HW1 2012   1.512   4.512   5.649
  371SOL    HW2 2013   1.435   4.628   5.735
  372SOL     OW 2014   1.659   6.942   6.287
  372SOL    HW1 2015   1.626   6.912   6.198
  372SOL    HW2 2016   1.746   6.991   6.276
  373SOL     OW 2017   6.249   6.542   4.775
  373SOL    HW1 2018   6.308   6.462   4.764
  373SOL    HW2 2019   6.250   6.571   4.870
  374SOL     OW 2020   2.705   1.616   4.319
  374SOL    HW1 2021   2.679   1.520   4.309
  374SOL    HW2 2022   2.658   1.671   4.250
  375SOL     OW 2023   1.092   4.597   3.708
  375SOL    HW1 2024   1.142   4.608   3.622
  375SOL    HW2 2025   1.088   4.684   3.756
  376SOL     OW 2026   2.296   0.981   5.397
  376SOL    HW1 2027   2.303   1.025   5.486
  376SOL    HW2 2028   2.235   1.034   5.338
  377SOL     OW 2029   1.386   1.922   0.774
  377SOL    HW1 2030   1.416   1.929   0.870
  377SOL    HW2 2031   1.305   1.863   0.769
  378SOL     OW 2032   4.784   2.548   6.568
  378SOL    HW1 2033   4.803   2.576   6.474
  378SOL    HW2 2034   4.729   2.464   6.567
  379SOL     OW 2035   6.119   2.597   1.666
  379SOL    HW1 2036   6.055   2.559   1.733
  379SOL    HW2 2037   6.195   2.641   1.713
  380SOL     OW 2038   3.226   1.209   0.645
  380SOL    HW1 2039   3.248   1.304   0.621
  380SOL    HW2 2040   3.128   1.199   0.656
  381SOL     OW 2041   1.467   4.196   3.170
  381SOL    HW1 2042   1.566   4.190   3.160
  381SOL    HW2 2043   1.427   4.238   3.088
  382SOL     OW 2044   6.018   0.720   0.082
  382SOL    HW1 2045   6.074   0.653   0.034
  382SOL    HW2 2046   5.994   0.794   0.019
  383SOL     OW 2047   3.968   3.970   6.622
  383SOL    HW1 2048   3.886   4.024   6.644
  383SOL    HW2 2049   4.045   4.002   6.678
  384SOL     OW 2050   6.800   5.452   4.255
  384SOL    HW1 2051   6.723   5.400   4.216
  384SOL    HW2 2052   6.833   5.518   4.188
  385SOL     OW 2053   3.017   4.831   5.167
  385SOL    HW1 2054   2.975   4.742   5.151
  385SOL    HW2 2055   3.091   4.822   5.233
  386SOL     OW 2056   2.766   6.757   4.452
  386SOL    HW1 2057   2.859   6.793   4.459
  386SOL    HW2 2058   2.710   6.820   4.397
  387SOL     OW 2059   1.259   6.571   2.207
  387SOL    HW1 2060   1.315   6.649   2.179
  387SOL    HW2 2061   1.312   6.486   2.195
  388SOL     OW 2062   1.201   2.178   5.400
  388SOL    HW1 2063   1.119   2.190   5.457
  388SOL    HW2 2064   1.213   2.081   5.378
  389SOL     OW 2065   3.792   3.673   1.757
  389SOL    HW1 2066   3.837   3.623   1.682
  389SOL    HW2 2067   3.734   3.745   1.719
  390SOL     OW 2068   2.752   1.596   1.853
  390SOL    HW1 2069   2.675   1.616   1.914
  390SOL    HW2 2070   2.781   1.679   1.806
  391SOL     OW 2071   2.177   2.652   6.746
  391SOL    HW1 2072   2.172   2.552   6.757
  391SOL    HW2 2073   2.113   2.696   6.809
  392SOL     OW 2074   1.291   4.403   0.520
  392SOL    HW1 2075   1.352   4.374   0.446
  392SOL    HW2 2076   1.260   4.496   0.502
  393SOL     OW 2077   1.145   4.589   6.315
  393SOL    HW1 2078   1.203   4.509   6.327
  393SOL    HW2 2079   1.131   4.634   6.403
  394SOL     OW 2080   6.732   1.767   0.112
  394SOL    HW1 2081   6.817   1.793   0.158
  394SOL    HW2 2082   6.740   1.675   0.075
  395SOL     OW 2083   4.855   3.690   2.855
  395SOL    HW1 2084   4.819   3.632   2.782
  395SOL    HW2 2085   4.877   3.634   2.935
  396SOL     OW 2086   3.571   3.789   1.520
  396SOL    HW1 2087   3.660   3.817   1.484
  396SOL    HW2 2088   3.504   3.862   1.505
  397SOL     OW 2089   5.953   1.718   5.539
  397SOL    HW1 2090   5.914   1.647   5.481
  397SOL    HW2 2091   6.052   1.720   5.527
  398SOL     OW 2092   0.493   6.694   2.066
  398SOL    HW1 2093   0.443   6.781   2.070
  398SOL    HW2 2094   0.576   6.701   2.123
  399SOL     OW 2095   6.163   5.982   2.503
  399SOL    HW1 2096   6.097   6.052   2.477
  399SOL    HW2 2097   6.238   6.023   2.555
  400SOL     OW 2098   6.590   6.427   5.615
  400SOL    HW1 2099   6.627   6.336   5.633
  400SOL    HW2 2100   6.575   6.438   5.517
  401SOL     OW 2101   5.828   0.710   6.395
  401SOL    HW1 2102   5.790   0.797   6.426
  401SOL    HW2 2103   5.800   0.693   6.301
  402SOL     OW 2104   5.667   0.070   3.674
  402SOL    HW1 2105   5.598   0.053   3.604
  402SOL    HW2 2106   5.624   0.066   3.764
  403SOL     OW 2107   3.661   2.087   4.315
  403SOL    HW1 2108   3.700   2.052   4.230
  403SOL    HW2 2109   3.567   2.053   4.325
  404SOL     OW 2110   1.757   4.934   4.089
  404SOL    HW1 2111   1.780   4.844   4.127
  404SOL    HW2 2112   1.660   4.952   4.104
  405SOL     OW 2113   1.367   3.596   1.790
  405SOL    HW1 2114   1.421   3.670   1.830
  405SOL    HW2 2115   1.315   3.550   1.862
  406SOL     OW 2116   0.966   4.317   4.650
  406SOL    HW1 2117   0.943   4.292   4.744
  406SOL    HW2 2118   1.062   4.345   4.645
  407SOL     OW 2119   1.958   0.553   4.224
  407SOL    HW1 2120   1.956   0.561   4.324
  407SOL    HW2 2121   2.050   0.528   4.195
  408SOL     OW 2122   1.185   2.358   2.920
  408SOL    HW1 2123   1.158   2.321   3.009
  408SOL    HW2 2124   1.229   2.286   2.867
  409SOL     OW 2125   6.915   3.099   1.744
  409SOL    HW1 2126   6.887   3.177   1.689
  409SOL    HW2 2127   6.837   3.038   1.759
  410SOL     OW 2128   2.034   1.340   1.116
  410SOL    HW1 2129   2.040   1.440   1.121
  410SOL    HW2 2130   2.126   1.301   1.120
  411SOL     OW 2131   5.702   6.648   1.704
  411SOL    HW1 2132   5.751   6.565   1.732
  411SOL    HW2 2133   5.616   6.621   1.659
  412SOL     OW 2134   4.362   6.012   4.005
  412SOL    HW1 2135   4.313   5.988   4.089
  412SOL    HW2 2136   4.312   6.082   3.955
  413SOL     OW 2137   4.947   3.698   1.313
  413SOL    HW1 2138   4.937   3.670   1.218
  413SOL    HW2 2139   5.042   3.725   1.331
  414SOL     OW 2140   3.829   5.664   3.577
  414SOL    HW1 2141   3.919   5.620   3.587
  414SOL    HW2 2142   3.835   5.737   3.510
  415SOL     OW 2143   0.888   6.126   6.661
  415SOL    HW1 2144   0.969   6.081   6.698
  415SOL    HW2 2145   0.806   6.079   6.693
  416SOL     OW 2146   4.911   6.679   4.665
  416SOL    HW1 2147   4.855   6.759   4.687
  416SOL    HW2 2148   4.895   6.652   4.570
  417SOL     OW 2149   2.449   5.334   6.496
  417SOL    HW1 2150   2.362   5.379   6.477
  417SOL    HW2 2151   2.482   5.289   6.413
  418SOL     OW 2152   4.508   6.260   0.086
  418SOL    HW1 2153   4.591   6.238   0.034
  418SOL    HW2 2154   4.432   6.202   0.054
  419SOL     OW 2155   2.226   6.910   1.624
  419SOL    HW1 2156   2.311   6.877   1.666
  419SOL    HW2 2157   2.148   6.877   1.677
  420SOL     OW 2158   5.958   1.538   0.061
  420SOL    HW1 2159   5.970   1.544   6.987
  420SOL    HW2 2160   5.898   1.612   0.091
  421SOL     OW 2161   6.936   4.400   5.819
  421SOL    HW1 2162   6.882   4.316   5.816
  421SOL    HW2 2163   7.003   4.399   5.744
  422SOL     OW 2164   5.564   3.620   1.747
  422SOL    HW1 2165   5.474   3.662   1.731
  422SOL    HW2 2166   5.588   3.563   1.668
  423SOL     OW 2167   0.619   1.949   6.187
  423SOL    HW1 2168   0.648   1.887   6.114
  423SOL    HW2 2169   0.663   1.923   6.273
  424SOL     OW 2170   1.870   5.034   0.774
  424SOL    HW1 2171   1.881   4.941   0.739
  424SOL    HW2 2172   1.918   5.042   0.862
  425SOL     OW 2173   4.833   1.680   3.741
  425SOL    HW1 2174   4.789   1.708   3.655
  425SOL    HW2 2175   4.839   1.581   3.745
  426SOL     OW 2176   3.738   1.893   4.569
  426SOL    HW1 2177   3.639   1.888   4.580
  426SOL    HW2 2178   3.766   1.989   4.563
  427SOL     OW 2179   5.419   6.500   3.795
  427SOL    HW1 2180   5.508   6.541   3.777
  427SOL    HW2 2181   5.348   6.553   3.747
  428SOL     OW 2182   4.249   0.362   4.209
  428SOL    HW1 2183   4.265   0.270   4.244
  428SOL    HW2 2184   4.245   0.426   4.286
  429SOL     OW 2185   1.257   4.549   1.164
  429SOL    HW1 2186   1.161   4.523   1.153
  429SOL    HW2 2187   1.315   4.473   1.134
  430SOL     OW 2188   0.649   0.453   4.707
  430SOL    HW1 2189   0.647   0.353   4.700
  430SOL    HW2 2190   0.664   0.480   4.802
  431SOL     OW 2191   2.603   0.306   0.929
  431SOL    HW1 2192   2.543   0.338   1.002
  431SOL    HW2 2193   2.556   0.238   0.873
  432SOL     OW 2194   6.380   1.837   0.753
  432SOL    HW1 2195   6.388   1.812   0.657
  432SOL    HW2 2196   6.362   1.935   0.761
  433SOL     OW 2197   2.372   6.643   4.728
  433SOL    HW1 2198   2.468   6.645   4.757
  433SOL    HW2 2199   2.343   6.735   4.702
  434SOL     OW 2200   3.251   5.320   2.794
  434SOL    HW1 2201   3.314   5.394   2.817
  434SOL    HW2 2202   3.276   5.238   2.844
  435SOL     OW 2203   4.918   2.928   6.819
  435SOL    HW1 2204   4.857   2.867   6.768
  435SOL    HW2 2205   4.991   2.874   6.862
  436SOL     OW 2206   3.194   5.799   1.784
  436SOL    HW1 2207   3.289   5.832   1.785
  436SOL    HW2 2208   3.178   5.744   1.703
  437SOL     OW 2209   0.891   1.378   0.374
  437SOL    HW1 2210   0.889   1.287   0.333
  437SOL    HW2 2211   0.812   1.390   0.434
  438SOL     OW 2212   2.212   4.047   3.558
  438SOL    HW1 2213   2.276   4.071   3.485
  438SOL    HW2 2214   2.210   4.121   3.625
  439SOL     OW 2215   5.787   5.216   2.395
  439SOL    HW1 2216   5.884   5.193   2.401
  439SOL    HW2 2217   5.752   5.235   2.487
  440SOL     OW 2218   2.363   1.400   4.990
  440SOL    HW1 2219   2.459   1.417   4.968
  440SOL    HW2 2220   2.307   1.412   4.908
  441SOL     OW 2221   0.456   3.136   4.265
  441SOL    HW1 2222   0.382   3.194   4.300
  441SOL    HW2 2223   0.503   3.183   4.190
  442SOL     OW 2224   3.948   5.533   5.845
  442SOL    HW1 2225   4.024   5.588   5.880
  442SOL    HW2 2226   3.938   5.550   5.746
  443SOL     OW 2227   6.171   4.547   3.723
  443SOL    HW1 2228   6.091   4.567   3.666
  443SOL    HW2 2229   6.189   4.625   3.783
  444SOL     OW 2230   4.789   0.879   6.321
  444SOL    HW1 2231   4.846   0.808   6.364
  444SOL    HW2 2232   4.818   0.893   6.227
  445SOL     OW 2233   1.002   5.654   2.790
  445SOL    HW1 2234   1.052   5.669   2.704
  445SOL    HW2 2235   0.912   5.698   2.784
  446SOL     OW 2236   3.253   5.422   3.991
  446SOL    HW1 2237   3.324   5.359   3.960
  446SOL    HW2 2238   3.296   5.507   4.024
  447SOL     OW 2239   0.299   2.901   6.246
  447SOL    HW1 2240   0.397   2.921   6.238
  447SOL    HW2 2241   0.252   2.933   6.164
  448SOL     OW 2242   1.899   0.128   3.598
  448SOL    HW1 2243   1.813   0.088   3.628
  448SOL    HW2 2244   1.893   0.228   3.605
  449SOL     OW 2245   3.342   1.121   3.617
  449SOL    HW1 2246   3.286   1.203   3.613
  449SOL    HW2 2247   3.400   1.116   3.536
  450SOL     OW 2248   1.460   5.018   2.781
  450SOL    HW1 2249   1.441   4.932   2.828
  450SOL    HW2 2250   1.467   5.092   2.848
  451SOL     OW 2251   1.450   2.464   3.630
  451SOL    HW1 2252   1.386   2.442   3.703
  451SOL    HW2 2253   1.440   2.560   3.604
  452SOL     OW 2254   5.340   6.819   0.610
  452SOL    HW1 2255   5.277   6.747   0.584
  452SOL    HW2 2256   5.427   6.806   0.563
  453SOL     OW 2257   4.443   0.335   6.187
  453SOL    HW1 2258   4.534   0.370   6.166
  453SOL    HW2 2259   4.421   0.354   6.282
  454SOL     OW 2260   6.533   4.358   5.905
  454SOL    HW1 2261   6.577   4.297   5.970
  454SOL    HW2 2262   6.585   4.443   5.898
  455SOL     OW 2263   5.797   2.176   4.109
  455SOL    HW1 2264   5.700   2.183   4.131
  455SOL    HW2 2265   5.809   2.117   4.028
  456SOL     OW 2266   6.654   6.497   3.979
  456SOL    HW1 2267   6.579   6.457   4.032
  456SOL    HW2 2268   6.728   6.430   3.969
  457SOL     OW 2269   2.050   2.622   3.949
  457SOL    HW1 2270   2.021   2.544   3.894
  457SOL    HW2 2271   2.096   2.591   4.031
  458SOL     OW 2272   4.225   5.880   2.904
  458SOL    HW1 2273   4.296   5.919   2.963
  458SOL    HW2 2274   4.136   5.916   2.932
  459SOL     OW 2275   1.870   6.924   5.788
  459SOL    HW1 2276   1.806   6.950   5.716
  459SOL    HW2 2277   1.957   6.897   5.748
  460SOL     OW 2278   2.603   6.498   3.997
  460SOL    HW1 2279   2.683   6.459   3.952
  460SOL    HW2 2280   2.596   6.464   4.091
  461SOL     OW 2281   6.744   6.013   6.104
  461SOL    HW1 2282   6.776   5.952   6.031
  461SOL    HW2 2283   6.650   5.990   6.127
  462SOL     OW 2284   4.167   3.511   0.139
  462SOL    HW1 2285   4.146   3.490   0.234
  462SOL    HW2 2286   4.164   3.610   0.124
  463SOL     OW 2287   5.731   5.925   3.481
  463SOL    HW1 2288   5.634   5.946   3.476
  463SOL    HW2 2289   5.779   5.968   3.404
  464SOL     OW 2290   2.590   1.592   5.549
  464SOL    HW1 2291   2.577   1.569   5.453
  464SOL    HW2 2292   2.530   1.668   5.573
  465SOL     OW 2293   0.623   2.806   0.506
  465SOL    HW1 2294   0.581   2.777   0.421
  465SOL    HW2 2295   0.557   2.796   0.581
  466SOL     OW 2296   1.359   6.178   3.291
  466SOL    HW1 2297   1.320   6.137   3.209
  466SOL    HW2 2298   1.395   6.106   3.351
  467SOL     OW 2299   1.640   1.014   0.859
  467SOL    HW1 2300   1.704   1.004   0.935
  467SOL    HW2 2301   1.586   0.930   0.850
  468SOL     OW 2302   3.907   6.800   5.877
  468SOL    HW1 2303   3.986   6.739   5.880
  468SOL    HW2 2304   3.934   6.891   5.910
  469SOL     OW 2305   2.860   3.432   6.638
  469SOL    HW1 2306   2.886   3.518   6.594
  469SOL    HW2 2307   2.941   3.389   6.677
  470SOL     OW 2308   4.371   6.343   1.422
  470SOL    HW1 2309   4.384   6.309   1.515
  470SOL    HW2 2310   4.457   6.335   1.372
  471SOL     OW 2311   2.556   2.453   3.764
  471SOL    HW1 2312   2.577   2.390   3.690
  471SOL    HW2 2313   2.568   2.407   3.852
  472SOL     OW 2314   4.134   3.742   6.990
  472SOL    HW1 2315   4.116   3.835   7.022
  472SOL    HW2 2316   4.051   3.702   6.952
  473SOL     OW 2317   1.645   2.152   2.594
  473SOL    HW1 2318   1.718   2.181   2.532
  473SOL    HW2 2319   1.635   2.218   2.668
  474SOL     OW 2320   5.829   5.516   4.783
  474SOL    HW1 2321   5.860   5.438   4.728
  474SOL    HW2 2322   5.828   5.598   4.725
  475SOL     OW 2323   5.943   1.399   6.474
  475SOL    HW1 2324   5.882   1.436   6.405
  475SOL    HW2 2325   5.892   1.384   6.559
  476SOL     OW 2326   0.409   3.298   2.807
  476SOL    HW1 2327   0.362   3.254   2.883
  476SOL    HW2 2328   0.507   3.304   2.826
  477SOL     OW 2329   2.799   6.167   2.972
  477SOL    HW1 2330   2.898   6.153   2.977
  477SOL    HW2 2331   2.777   6.222   2.892
  478SOL     OW 2332   3.590   6.458   2.733
  478SOL    HW1 2333   3.565   6.410   2.817
  478SOL    HW2 2334   3.641   6.396   2.673
  479SOL     OW 2335   4.135   2.354   6.076
  479SOL    HW1 2336   4.060   2.363   6.009
  479SOL    HW2 2337   4.108   2.397   6.162
  480SOL     OW 2338   2.857   0.257   0.183
  480SOL    HW1 2339   2.916   0.337   0.180
  480SOL    HW2 2340   2.783   0.273   0.249
  481SOL     OW 2341   2.251   6.677   1.352
  481SOL    HW1 2342   2.265   6.650   1.257
  481SOL    HW2 2343   2.316   6.750   1.376
  482SOL     OW 2344   3.799   4.842   2.192
  482SOL    HW1 2345   3.746   4.910   2.241
  482SOL    HW2 2346   3.744   4.803   2.118
  483SOL     OW 2347   6.225   1.974   2.271
  483SOL    HW1 2348   6.296   1.917   2.232
  483SOL    HW2 2349   6.200   1.940   2.362
  484SOL     OW 2350   1.632   3.307   5.070
  484SOL    HW1 2351   1.597   3.374   5.135
  484SOL    HW2 2352   1.726   3.332   5.044
  485SOL     OW 2353   3.925   5.241   2.847
  485SOL    HW1 2354   3.914   5.146   2.816
  485SOL    HW2 2355   3.867   5.300   2.792
  486SOL     OW 2356   6.573   1.860   0.326
  486SOL    HW1 2357   6.621   1.870   0.413
  486SOL    HW2 2358   6.635   1.821   0.258
  487SOL     OW 2359   0.950   0.464   3.064
  487SOL    HW1 2360   0.971   0.416   2.979
  487SOL    HW2 2361   0.999   0.421   3.139
  488SOL     OW 2362   0.910   1.204   1.844
  488SOL    HW1 2363   0.964   1.138   1.793
  488SOL    HW2 2364   0.861   1.264   1.781
  489SOL     OW 2365   4.374   5.839   5.845
  489SOL    HW1 2366   4.395   5.870   5.752
  489SOL    HW2 2367   4.457   5.844   5.901
  490SOL     OW 2368   0.660   5.917   3.116
  490SOL    HW1 2369   0.620   6.007   3.135
  490SOL    HW2 2370   0.615   5.877   3.036
  491SOL     OW 2371   1.215   4.061   2.351
  491SOL    HW1 2372   1.181   3.978   2.395
  491SOL    HW2 2373   1.295   4.039   2.295
  492SOL     OW 2374   1.224   0.588   5.355
  492SOL    HW1 2375   1.191   0.494   5.354
  492SOL    HW2 2376   1.286   0.603   5.278
  493SOL     OW 2377   4.595   6.460   5.445
  493SOL    HW1 2378   4.655   6.510   5.508
  493SOL    HW2 2379   4.649   6.422   5.370
  494SOL     OW 2380   0.715   6.794   6.814
  494SOL    HW1 2381   0.702   6.893   6.811
  494SOL    HW2 2382   0.773   6.772   6.893
  495SOL     OW 2383   4.762   6.078   3.587
  495SOL    HW1 2384   4.667   6.072   3.620
  495SOL    HW2 2385   4.807   5.990   3.600
  496SOL     OW 2386   4.968   2.642   1.830
  496SOL    HW1 2387   4.970   2.545   1.806
  496SOL    HW2 2388   4.981   2.697   1.747
  497SOL     OW 2389   2.742   1.742   4.970
  497SOL    HW1 2390   2.758   1.840   4.977
  497SOL    HW2 2391   2.823   1.698   4.932
  498SOL     OW 2392   0.734   4.671   1.556
  498SOL    HW1 2393   0.676   4.669   1.475
  498SOL    HW2 2394   0.812   4.731   1.540
  499SOL     OW 2395   1.441   5.857   4.188
  499SOL    HW1 2396   1.447   5.941   4.241
  499SOL    HW2 2397   1.368   5.799   4.224
  500SOL     OW 2398   6.982   2.090   5.889
  500SOL    HW1 2399   6.950   2.115   5.980
  500SOL    HW2 2400   0.016   2.010   5.895
  501SOL     OW 2401   2.850   0.354   0.563
  501SOL    HW1 2402   2.944   0.381   0.541
  501SOL    HW2 2403   2.790   0.379   0.487
  502SOL     OW 2404   0.985   3.784   6.219
  502SOL    HW1 2405   1.053   3.856   6.206
  502SOL    HW2 2406   0.909   3.820   6.272
  503SOL     OW 2407   6.775   4.900   6.843
  503SOL    HW1 2408   6.714   4.858   6.910
  503SOL    HW2 2409   6.855   4.841   6.829
  504SOL     OW 2410   0.998   4.949   2.303
  504SOL    HW1 2411   0.993   4.982   2.209
  504SOL    HW2 2412   1.075   4.885   2.311
  505SOL     OW 2413   3.032   5.795   4.683
  505SOL    HW1 2414   3.068   5.843   4.763
  505SOL    HW2 2415   3.015   5.861   4.609
  506SOL     OW 2416   3.410   5.029   3.898
  506SOL    HW1 2417   3.372   5.052   3.988
  506SOL    HW2 2418   3.407   5.110   3.839
  507SOL     OW 2419   3.303   6.900   3.348
  507SOL    HW1 2420   3.307   6.963   3.270
  507SOL    HW2 2421   3.247   6.940   3.421
  508SOL     OW 2422   6.765   3.764   2.947
  508SOL    HW1 2423   6.727   3.855   2.932
  508SOL    HW2 2424   6.865   3.770   2.954
  509SOL     OW 2425   2.467   1.422   1.518
  509SOL    HW1 2426   2.432   1.446   1.608
  509SOL    HW2 2427   2.565   1.442   1.513
  510SOL     OW 2428   6.175   4.142   6.607
  510SOL    HW1 2429   6.143   4.051   6.634
  510SOL    HW2 2430   6.156   4.207   6.681
  511SOL     OW 2431   1.079   2.396   6.222
  511SOL    HW1 2432   1.172   2.418   6.249
  511SOL    HW2 2433   1.062   2.427   6.129
  512SOL     OW 2434   6.858   2.918   6.266
  512SOL    HW1 2435   6.863   2.825   6.230
  512SOL    HW2 2436   6.857   2.915   6.366
  513SOL     OW 2437   5.646   6.624   3.700
  513SOL    HW1 2438   5.714   6.690   3.732
  513SOL    HW2 2439   5.671   6.593   3.608
  514SOL     OW 2440   6.188   0.971   4.329
  514SOL    HW1 2441   6.243   0.939   4.406
  514SOL    HW2 2442   6.200   1.069   4.318
  515SOL     OW 2443   1.054   6.281   0.496
  515SOL    HW1 2444   1.036   6.266   0.399
  515SOL    HW2 2445   1.097   6.199   0.534
  516SOL     OW 2446   2.666   4.655   2.260
  516SOL    HW1 2447   2.617   4.736   2.227
  516SOL    HW2 2448   2.725   4.620   2.188
  517SOL     OW 2449   4.144   5.196   1.465
  517SOL    HW1 2450   4.068   5.176   1.403
  517SOL    HW2 2451   4.171   5.112   1.512
  518SOL     OW 2452   2.600   1.918   3.345
  518SOL    HW1 2453   2.546   1.982   3.400
  518SOL    HW2 2454   2.546   1.834   3.330
  519SOL     OW 2455   0.191   6.166   4.111
  519SOL    HW1 2456   0.183   6.173   4.210
  519SOL    HW2 2457   0.276   6.211   4.082
  520SOL     OW 2458   5.965   3.463   6.887
  520SOL    HW1 2459   5.901   3.476   6.812
  520SOL    HW2 2460   5.975   3.548   6.939
  521SOL     OW 2461   6.161   5.806   5.129
  521SOL    HW1 2462   6.172   5.719   5.082
  521SOL    HW2 2463   6.064   5.824   5.145
  522SOL     OW 2464   3.229   3.532   4.707
  522SOL    HW1 2465   3.282   3.545   4.791
  522SOL    HW2 2466   3.161   3.460   4.721
  523SOL     OW 2467   1.178   5.492   1.351
  523SOL    HW1 2468   1.203   5.429   1.425
  523SOL    HW2 2469   1.136   5.574   1.389
  524SOL     OW 2470   0.524   1.877   2.453
  524SOL    HW1 2471   0.577   1.876   2.538
  524SOL    HW2 2472   0.430   1.847   2.472
  525SOL     OW 2473   1.939   4.300   6.097
  525SOL    HW1 2474   2.019   4.244   6.120
  525SOL    HW2 2475   1.936   4.315   5.998
  526SOL     OW 2476   4.060   5.636   3.944
  526SOL    HW1 2477   3.972   5.681   3.932
  526SOL    HW2 2478   4.104   5.625   3.855
  527SOL     OW 2479   6.188   2.964   0.539
  527SOL    HW1 2480   6.130   2.918   0.471
  527SOL    HW2 2481   6.242   3.035   0.493
  528SOL     OW 2482   1.171   2.592   3.848
  528SOL    HW1 2483   1.084   2.564   3.890
  528SOL    HW2 2484   1.239   2.520   3.864
  529SOL     OW 2485   1.519   6.162   4.715
  529SOL    HW1 2486   1.511   6.215   4.630
  529SOL    HW2 2487   1.600   6.103   4.710
  530SOL     OW 2488   3.283   3.318   4.119
  530SOL    HW1 2489   3.242   3.228   4.101
  530SOL    HW2 2490   3.249   3.384   4.052
  531SOL     OW 2491   0.434   1.926   3.088
  531SOL    HW1 2492   0.382   1.937   3.173
  531SOL    HW2 2493   0.410   2.000   3.026
  532SOL     OW 2494   0.721   2.949   6.950
  532SOL    HW1 2495   0.790   2.950   7.023
  532SOL    HW2 2496   0.657   2.874   6.965
  533SOL     OW 2497   4.022   6.758   4.258
  533SOL    HW1 2498   3.981   6.669   4.241
  533SOL    HW2 2499   4.064   6.759   4.349
  534SOL     OW 2500   5.257   6.142   2.003
  534SOL    HW1 2501   5.259   6.062   1.942
  534SOL    HW2 2502   5.267   6.111   2.098
  535SOL     OW 2503   6.864   3.442   4.462
  535SOL    HW1 2504   6.957   3.421   4.493
  535SOL    HW2 2505   6.863   3.457   4.364
  536SOL     OW 2506   6.119   4.840   2.335
  536SOL    HW1 2507   6.191   4.793   2.386
  536SOL    HW2 2508   6.035   4.785   2.337
  537SOL     OW 2509   2.520   6.453   4.514
  537SOL    HW1 2510   2.436   6.500   4.487
  537SOL    HW2 2511   2.560   6.499   4.593
  538SOL     OW 2512   1.640   5.289   3.954
  538SOL    HW1 2513   1.707   5.295   3.880
  538SOL    HW2 2514   1.551   5.265   3.915
  539SOL     OW 2515   2.151   5.680   1.139
  539SOL    HW1 2516   2.160   5.662   1.041
  539SOL    HW2 2517   2.186   5.771   1.160
  540SOL     OW 2518   1.515   1.417   3.302
  540SOL    HW1 2519   1.499   1.474   3.221
  540SOL    HW2 2520   1.589   1.353   3.284
  541SOL     OW 2521   4.769   5.382   3.528
  541SOL    HW1 2522   4.853   5.336   3.499
  541SOL    HW2 2523   4.756   5.368   3.626
  542SOL     OW 2524   5.850   6.108   6.436
  542SOL    HW1 2525   5.824   6.125   6.341
  542SOL    HW2 2526   5.916   6.176   6.466
  543SOL     OW 2527   0.866   3.259   4.734
  543SOL    HW1 2528   0.956   3.303   4.738
  543SOL    HW2 2529   0.805   3.303   4.799
  544SOL     OW 2530   2.192   4.837   6.991
  544SOL    HW1 2531   2.112   4.895   6.974
  544SOL    HW2 2532   2.201   4.821   0.064
  545SOL     OW 2533   3.319   1.411   1.464
  545SOL    HW1 2534   3.417   1.420   1.444
  545SOL    HW2 2535   3.306   1.407   1.564
  546SOL     OW 2536   1.802   3.016   0.568
  546SOL    HW1 2537   1.881   3.018   0.629
  546SOL    HW2 2538   1.731   3.078   0.603
  547SOL     OW 2539   3.244   0.948   0.347
  547SOL    HW1 2540   3.289   1.028   0.387
  547SOL    HW2 2541   3.147   0.968   0.334
  548SOL     OW 2542   3.534   3.323   1.992
  548SOL    HW1 2543   3.504   3.417   2.008
  548SOL    HW2 2544   3.467   3.260   2.031
  549SOL     OW 2545   5.454   3.098   1.060
  549SOL    HW1 2546   5.436   3.025   0.994
  549SOL    HW2 2547   5.369   3.146   1.082
  550SOL     OW 2548   1.183   5.564   4.007
  550SOL    HW1 2549   1.166   5.663   4.005
  550SOL    HW2 2550   1.130   5.520   3.934
  551SOL     OW 2551   1.168   0.732   2.323
  551SOL    HW1 2552   1.230   0.670   2.372
  551SOL    HW2 2553   1.220   0.791   2.263
  552SOL     OW 2554   6.064   4.504   0.164
  552SOL    HW1 2555   6.047   4.591   0.118
  552SOL    HW2 2556   5.978   4.469   0.202
  553SOL     OW 2557   2.759   6.670   2.690
  553SOL    HW1 2558   2.670   6.652   2.731
  553SOL    HW2 2559   2.763   6.765   2.659
  554SOL     OW 2560   5.693   0.095   6.779
  554SOL    HW1 2561   5.631   0.079   6.702
  554SOL    HW2 2562   5.727   0.008   6.814
  555SOL     OW 2563   2.094   4.565   4.188
  555SOL    HW1 2564   2.065   4.505   4.114
  555SOL    HW2 2565   2.014   4.599   4.237
  556SOL     OW 2566   4.053   2.268   3.803
  556SOL    HW1 2567   3.995   2.284   3.883
  556SOL    HW2 2568   4.114   2.191   3.821
  557SOL     OW 2569   0.174   5.464   0.691
  557SOL    HW1 2570   0.208   5.489   0.781
  557SOL    HW2 2571   0.157   5.546   0.637
  558SOL     OW 2572   2.935   3.323   4.372
  558SOL    HW1 2573   2.890   3.291   4.455
  558SOL    HW2 2574   2.886   3.286   4.292
  559SOL     OW 2575   6.819   6.180   0.564
  559SOL    HW1 2576   6.863   6.178   0.475
  559SOL    HW2 2577   6.727   6.219   0.555
  560SOL     OW 2578   5.116   4.587   6.465
  560SOL    HW1 2579   5.185   4.659   6.473
  560SOL    HW2 2580   5.029   4.627   6.435
  561SOL     OW 2581   0.791   1.596   1.700
  561SOL    HW1 2582   0.775   1.600   1.799
  561SOL    HW2 2583   0.888   1.578   1.683
  562SOL     OW 2584   4.834   0.911   6.071
  562SOL    HW1 2585   4.755   0.970   6.057
  562SOL    HW2 2586   4.828   0.831   6.012
  563SOL     OW 2587   2.589   0.509   3.594
  563SOL    HW1 2588   2.599   0.575   3.668
  563SOL    HW2 2589   2.521   0.440   3.620
  564SOL     OW 2590   1.659   1.708   0.103
  564SOL    HW1 2591   1.753   1.675   0.093
  564SOL    HW2 2592   1.647   1.791   0.048
  565SOL     OW 2593   3.106   3.195   5.051
  565SOL    HW1 2594   3.123   3.140   5.133
  565SOL    HW2 2595   3.062   3.281   5.078
  566SOL     OW 2596   6.801   4.929   3.176
  566SOL    HW1 2597   6.775   5.012   3.225
  566SOL    HW2 2598   6.723   4.896   3.124
  567SOL     OW 2599   3.064   2.862   1.345
  567SOL    HW1 2600   3.037   2.953   1.377
  567SOL    HW2 2601   3.055   2.796   1.419
  568SOL     OW 2602   5.079   1.262   0.162
  568SOL    HW1 2603   5.059   1.357   0.137
  568SOL    HW2 2604   5.023   1.200   0.107
  569SOL     OW 2605   1.677   3.353   6.265
  569SOL    HW1 2606   1.752   3.420   6.265
  569SOL    HW2 2607   1.596   3.393   6.308
  570SOL     OW 2608   3.448   6.572   6.870
  570SOL    HW1 2609   3.498   6.512   6.807
  570SOL    HW2 2610   3.438   6.662   6.829
  571SOL     OW 2611   2.967   0.118   1.882
  571SOL    HW1 2612   2.893   0.161   1.934
  571SOL    HW2 2613   2.988   0.028   1.921
  572SOL     OW 2614   2.414   4.964   5.530
  572SOL    HW1 2615   2.492   4.914   5.568
  572SOL    HW2 2616   2.415   5.058   5.565
  573SOL     OW 2617   5.725   1.890   5.602
  573SOL    HW1 2618   5.792   1.822   5.633
  573SOL    HW2 2619   5.739   1.908   5.504
  574SOL     OW 2620   3.402   1.849   4.193
  574SOL    HW1 2621   3.434   1.801   4.275
  574SOL    HW2 2622   3.393   1.947   4.212
  575SOL     OW 2623   5.102   3.972   6.938
  575SOL    HW1 2624   5.134   4.018   7.021
  575SOL    HW2 2625   5.180   3.959   6.876
  576SOL     OW 2626   0.566   2.322   2.882
  576SOL    HW1 2627   0.489   2.385   2.884
  576SOL    HW2 2628   0.630   2.345   2.955
  577SOL     OW 2629   1.511   0.912   2.491
  577SOL    HW1 2630   1.444   0.985   2.480
  577SOL    HW2 2631   1.509   0.878   2.585
  578SOL     OW 2632   5.920   6.095   3.655
  578SOL    HW1 2633   5.844   6.041   3.618
  578SOL    HW2 2634   5.902   6.192   3.641
  579SOL     OW 2635   2.025   3.086   2.672
  579SOL    HW1 2636   1.966   3.008   2.693
  579SOL    HW2 2637   2.118   3.068   2.705
  580SOL     OW 2638   6.146   5.380   0.721
  580SOL    HW1 2639   6.188   5.395   0.631
  580SOL    HW2 2640   6.158   5.284   0.748
  581SOL     OW 2641   2.538   3.263   1.291
  581SOL    HW1 2642   2.567   3.297   1.202
  581SOL    HW2 2643   2.617   3.255   1.352
  582SOL     OW 2644   4.298   6.943   1.565
  582SOL    HW1 2645   4.333   0.008   1.542
  582SOL    HW2 2646   4.366   6.874   1.542
  583SOL     OW 2647   2.851   5.108   5.767
  583SOL    HW1 2648   2.886   5.150   5.684
  583SOL    HW2 2649   2.755   5.132   5.779
  584SOL     OW 2650   2.955   4.252   6.322
  584SOL    HW1 2651   2.899   4.172   6.301
  584SOL    HW2 2652   2.941   4.278   6.417
  585SOL     OW 2653   5.612   2.969   6.323
  585SOL    HW1 2654   5.544   3.036   6.354
  585SOL    HW2 2655   5.573   2.913   6.250
  586SOL     OW 2656   3.979   1.656   5.782
  586SOL    HW1 2657   4.037   1.736   5.799
  586SOL    HW2 2658   3.994   1.589   5.854
  587SOL     OW 2659   4.462   1.871   5.789
  587SOL    HW1 2660   4.425   1.873   5.696
  587SOL    HW2 2661   4.516   1.787   5.801
  588SOL     OW 2662   1.915   4.407   1.875
  588SOL    HW1 2663   1.848   4.349   1.829
  588SOL    HW2 2664   1.898   4.503   1.853
  589SOL     OW 2665   3.323   4.449   1.305
  589SOL    HW1 2666   3.265   4.530   1.300
  589SOL    HW2 2667   3.396   4.463   1.373
  590SOL     OW 2668   4.836   3.170   3.355
  590SOL    HW1 2669   4.740   3.194   3.345
  590SOL    HW2 2670   4.851   3.128   3.444
  591SOL     OW 2671   3.830   5.762   3.928
  591SOL    HW1 2672   3.801   5.775   4.022
  591SOL    HW2 2673   3.768   5.698   3.882
  592SOL     OW 2674   3.318   0.932   1.301
  592SOL    HW1 2675   3.417   0.944   1.294
  592SOL    HW2 2676   3.275   0.957   1.214
  593SOL     OW 2677   4.771   2.526   3.296
  593SOL    HW1 2678   4.841   2.589   3.264
  593SOL    HW2 2679   4.682   2.554   3.259
  594SOL     OW 2680   6.189   2.121   6.681
  594SOL    HW1 2681   6.109   2.121   6.741
  594SOL    HW2 2682   6.272   2.125   6.736
  595SOL     OW 2683   5.913   6.803   3.513
  595SOL    HW1 2684   5.818   6.805   3.485
  595SOL    HW2 2685   5.928   6.870   3.586
  596SOL     OW 2686   1.470   4.778   3.339
  596SOL    HW1 2687   1.566   4.769   3.315
  596SOL    HW2 2688   1.433   4.860   3.296
  597SOL     OW 2689   3.854   0.241   0.277
  597SOL    HW1 2690   3.836   0.251   0.179
  597SOL    HW2 2691   3.876   0.145   0.298
  598SOL     OW 2692   4.064   4.887   5.432
  598SOL    HW1 2693   4.052   4.948   5.510
  598SOL    HW2 2694   3.986   4.896   5.370
  599SOL     OW 2695   2.393   6.382   1.968
  599SOL    HW1 2696   2.449   6.306   1.935
  599SOL    HW2 2697   2.415   6.401   2.064
  600SOL     OW 2698   0.542   1.351   0.383
  600SOL    HW1 2699   0.553   1.421   0.313
  600SOL    HW2 2700   0.488   1.276   0.347
  601SOL     OW 2701   2.666   0.282   4.424
  601SOL    HW1 2702   2.609   0.363   4.432
  601SOL    HW2 2703   2.617   0.203   4.463
  602SOL     OW 2704   1.787   2.888   6.539
  602SOL    HW1 2705   1.808   2.943   6.620
  602SOL    HW2 2706   1.795   2.944   6.457
  603SOL     OW 2707   2.931   2.105   4.706
  603SOL    HW1 2708   2.932   2.165   4.786
  603SOL    HW2 2709   2.886   2.019   4.728
  604SOL     OW 2710   1.012   3.403   1.470
  604SOL    HW1 2711   1.112   3.392   1.468
  604SOL    HW2 2712   0.987   3.474   1.536
  605SOL     OW 2713   6.891   6.579   2.187
  605SOL    HW1 2714   6.906   6.488   2.149
  605SOL    HW2 2715   6.794   6.604   2.177
  606SOL     OW 2716   4.750   0.074   6.903
  606SOL    HW1 2717   4.775   7.008   6.871
  606SOL    HW2 2718   4.796   0.142   6.846
  607SOL     OW 2719   6.655   6.982   6.272
  607SOL    HW1 2720   6.649   0.007   6.358
  607SOL    HW2 2721   6.599   0.002   6.202
  608SOL     OW 2722   2.947   6.489   6.275
  608SOL    HW1 2723   2.990   6.453   6.192
  608SOL    HW2 2724   3.017   6.504   6.345
  609SOL     OW 2725   4.119   3.337   3.260
  609SOL    HW1 2726   4.047   3.376   3.203
  609SOL    HW2 2727   4.088   3.333   3.355
  610SOL     OW 2728   5.041   3.276   2.440
  610SOL    HW1 2729   5.043   3.369   2.404
  610SOL    HW2 2730   4.989   3.217   2.378
  611SOL     OW 2731   3.804   7.018   0.552
  611SOL    HW1 2732   3.897   0.018   0.526
  611SOL    HW2 2733   3.747   0.075   0.558
  612SOL     OW 2734   4.261   6.868   5.703
  612SOL    HW1 2735   4.253   6.784   5.756
  612SOL    HW2 2736   4.351   6.908   5.717
  613SOL     OW 2737   3.990   0.042   5.697
  613SOL    HW1 2738   4.021   6.973   5.690
  613SOL    HW2 2739   4.066   0.104   5.678
  614SOL     OW 2740   4.648   4.646   1.400
  614SOL    HW1 2741   4.617   4.697   1.480
  614SOL    HW2 2742   4.569   4.612   1.349
  615SOL     OW 2743   6.876   2.799   1.934
  615SOL    HW1 2744   6.916   2.889   1.947
  615SOL    HW2 2745   6.846   2.763   2.023
  616SOL     OW 2746   0.644   2.002   4.041
  616SOL    HW1 2747   0.705   2.056   3.982
  616SOL    HW2 2748   0.588   2.064   4.096
  617SOL     OW 2749   6.384   4.285   6.269
  617SOL    HW1 2750   6.343   4.360   6.218
  617SOL    HW2 2751   6.467   4.254   6.223
  618SOL     OW 2752   6.621   2.467   6.540
  618SOL    HW1 2753   6.600   2.512   6.454
  618SOL    HW2 2754   6.568   2.382   6.547
  619SOL     OW 2755   4.426   1.053   6.780
  619SOL    HW1 2756   4.499   0.985   6.777
  619SOL    HW2 2757   4.429   1.109   6.697
  620SOL     OW 2758   4.537   3.350   1.560
  620SOL    HW1 2759   4.460   3.384   1.614
  620SOL    HW2 2760   4.622   3.385   1.599
  621SOL     OW 2761   2.476   6.136   6.418
  621SOL    HW1 2762   2.574   6.149   6.432
  621SOL    HW2 2763   2.448   6.180   6.333
  622SOL     OW 2764   1.438   0.990   5.085
  622SOL    HW1 2765   1.434   1.079   5.040
  622SOL    HW2 2766   1.345   0.960   5.108
  623SOL     OW 2767   0.873   5.851   6.028
  623SOL    HW1 2768   0.912   5.792   5.958
  623SOL    HW2 2769   0.833   5.932   5.985
  624SOL     OW 2770   0.042   1.875   1.868
  624SOL    HW1 2771   6.995   1.937   1.837
  624SOL    HW2 2772   0.012   1.781   1.854
  625SOL     OW 2773   1.051   1.852   1.995
  625SOL    HW1 2774   1.143   1.864   2.031
  625SOL    HW2 2775   1.053   1.788   1.918
  626SOL     OW 2776   0.989   6.073   3.266
  626SOL    HW1 2777   1.052   6.046   3.193
  626SOL    HW2 2778   0.898   6.086   3.227
  627SOL     OW 2779   6.187   6.432   0.898
  627SOL    HW1 2780   6.219   6.374   0.973
  627SOL    HW2 2781   6.098   6.401   0.867
  628SOL     OW 2782   5.546   5.789   5.852
  628SOL    HW1 2783   5.527   5.692   5.838
  628SOL    HW2 2784   5.507   5.843   5.777
  629SOL     OW 2785   0.250   1.089   6.609
  629SOL    HW1 2786   0.265   0.996   6.576
  629SOL    HW2 2787   0.216   1.085   6.703
  630SOL     OW 2788   0.410   1.539   1.222
  630SOL    HW1 2789   0.345   1.606   1.260
  630SOL    HW2 2790   0.413   1.548   1.123
  631SOL     OW 2791   4.321   1.020   5.279
  631SOL    HW1 2792   4.286   0.975   5.361
  631SOL    HW2 2793   4.334   1.117   5.297
  632SOL     OW 2794   4.047   1.592   1.463
  632SOL    HW1 2795   4.084   1.684   1.480
  632SOL    HW2 2796   3.999   1.561   1.545
  633SOL     OW 2797   3.730   3.473   6.844
  633SOL    HW1 2798   3.751   3.378   6.819
  633SOL    HW2 2799   3.815   3.527   6.843
  634SOL     OW 2800   4.094   3.209   2.471
  634SOL    HW1 2801   4.097   3.170   2.379
  634SOL    HW2 2802   4.133   3.143   2.536
  635SOL     OW 2803   4.352   5.185   0.671
  635SOL    HW1 2804   4.427   5.245   0.700
  635SOL    HW2 2805   4.363   5.095   0.713
  636SOL     OW 2806   2.737   6.294   0.346
  636SOL    HW1 2807   2.700   6.337   0.263
  636SOL    HW2 2808   2.795   6.359   0.394
  637SOL     OW 2809   6.893   3.207   2.826
  637SOL    HW1 2810   6.822   3.270   2.796
  637SOL    HW2 2811   6.976   3.259   2.849
  638SOL     OW 2812   5.775   2.343   3.672
  638SOL    HW1 2813   5.700   2.377   3.615
  638SOL    HW2 2814   5.741   2.318   3.762
  639SOL     OW 2815   4.925   3.559   3.092
  639SOL    HW1 2816   4.914   3.558   3.191
  639SOL    HW2 2817   4.928   3.465   3.058
  640SOL     OW 2818   0.409   5.228   4.004
  640SOL    HW1 2819   0.425   5.236   4.102
  640SOL    HW2 2820   0.323   5.272   3.980
  641SOL     OW 2821   0.107   4.907   5.087
  641SOL    HW1 2822   0.051   4.826   5.102
  641SOL    HW2 2823   0.197   4.894   5.127
  642SOL     OW 2824   6.894   3.162   3.975
  642SOL    HW1 2825   6.913   3.110   4.058
  642SOL    HW2 2826   6.963   3.141   3.906
  643SOL     OW 2827   5.607   5.788   6.158
  643SOL    HW1 2828   5.585   5.791   6.060
  643SOL    HW2 2829   5.583   5.875   6.200
  644SOL     OW 2830   1.587   6.697   4.523
  644SOL    HW1 2831   1.640   6.617   4.551
  644SOL    HW2 2832   1.615   6.726   4.432
  645SOL     OW 2833   4.483   0.335   4.692
  645SOL    HW1 2834   4.532   0.248   4.701
  645SOL    HW2 2835   4.536   0.396   4.633
  646SOL     OW 2836   3.540   0.809   4.412
  646SOL    HW1 2837   3.621   0.775   4.365
  646SOL    HW2 2838   3.509   0.894   4.367
  647SOL     OW 2839   5.711   1.996   5.324
  647SOL    HW1 2840   5.651   1.965   5.250
  647SOL    HW2 2841   5.738   2.091   5.308
  648SOL     OW 2842   0.771   3.388   3.296
  648SOL    HW1 2843   0.714   3.467   3.275
  648SOL    HW2 2844   0.717   3.320   3.345
  649SOL     OW 2845   2.468   4.110   0.783
  649SOL    HW1 2846   2.410   4.090   0.705
  649SOL    HW2 2847   2.541   4.173   0.756
  650SOL     OW 2848   5.749   4.287   0.090
  650SOL    HW1 2849   5.758   4.188   0.096
  650SOL    HW2 2850   5.662   4.315   0.132
  651SOL     OW 2851   0.523   6.535   6.239
  651SOL    HW1 2852   0.561   6.443   6.247
  651SOL    HW2 2853   0.514   6.575   6.330
  652SOL     OW 2854   4.856   0.408   4.024
  652SOL    HW1 2855   4.773   0.372   3.981
  652SOL    HW2 2856   4.855   0.508   4.020
  653SOL     OW 2857   0.698   5.775   6.549
  653SOL    HW1 2858   0.646   5.857   6.573
  653SOL    HW2 2859   0.767   5.798   6.481
  654SOL     OW 2860   0.483   5.250   6.849
  654SOL    HW1 2861   0.430   5.178   6.893
  654SOL    HW2 2862   0.580   5.235   6.864
  655SOL     OW 2863   0.240   5.705   1.780
  655SOL    HW1 2864   0.285   5.616   1.769
  655SOL    HW2 2865   0.171   5.699   1.851
  656SOL     OW 2866   1.683   6.286   1.342
  656SOL    HW1 2867   1.601   6.256   1.293
  656SOL    HW2 2868   1.750   6.321   1.276
  657SOL     OW 2869   2.486   3.658   1.726
  657SOL    HW1 2870   2.499   3.638   1.629
  657SOL    HW2 2871   2.428   3.588   1.768
  658SOL     OW 2872   2.503   3.707   6.707
  658SOL    HW1 2873   2.552   3.752   6.632
  658SOL    HW2 2874   2.440   3.773   6.749
  659SOL     OW 2875   1.389   5.798   5.367
  659SOL    HW1 2876   1.291   5.817   5.368
  659SOL    HW2 2877   1.404   5.699   5.369
  660SOL     OW 2878   5.569   3.673   2.305
  660SOL    HW1 2879   5.542   3.577   2.312
  660SOL    HW2 2880   5.663   3.679   2.272
  661SOL     OW 2881   4.957   4.331   2.974
  661SOL    HW1 2882   4.939   4.410   3.032
  661SOL    HW2 2883   4.897   4.256   2.999
  662SOL     OW 2884   4.233   0.492   4.452
  662SOL    HW1 2885   4.296   0.532   4.519
  662SOL    HW2 2886   4.184   0.415   4.495
  663SOL     OW 2887   1.420   3.863   7.016
  663SOL    HW1 2888   1.441   3.956   0.020
  663SOL    HW2 2889   1.419   3.859   6.916
  664SOL     OW 2890   0.045   5.165   6.663
  664SOL    HW1 2891   0.106   5.113   6.722
  664SOL    HW2 2892   0.069   5.149   6.568
  665SOL     OW 2893   4.776   4.812   1.202
  665SOL    HW1 2894   4.717   4.758   1.263
  665SOL    HW2 2895   4.726   4.892   1.170
  666SOL     OW 2896   4.841   1.910   2.913
  666SOL    HW1 2897   4.763   1.850   2.897
  666SOL    HW2 2898   4.886   1.931   2.826
  667SOL     OW 2899   6.559   3.628   3.787
  667SOL    HW1 2900   6.581   3.683   3.706
  667SOL    HW2 2901   6.599   3.537   3.778
  668SOL     OW 2902   4.613   5.813   6.734
  668SOL    HW1 2903   4.675   5.734   6.726
  668SOL    HW2 2904   4.595   5.850   6.643
  669SOL     OW 2905   4.034   6.240   3.603
  669SOL    HW1 2906   4.070   6.163   3.551
  669SOL    HW2 2907   4.056   6.229   3.700
  670SOL     OW 2908   2.388   3.055   1.269
  670SOL    HW1 2909   2.454   3.130   1.276
  670SOL    HW2 2910   2.348   3.037   1.359
  671SOL     OW 2911   2.476   5.711   0.215
  671SOL    HW1 2912   2.399   5.706   0.152
  671SOL    HW2 2913   2.561   5.721   0.163
  672SOL     OW 2914   0.968   4.746   2.035
  672SOL    HW1 2915   1.001   4.713   1.946
  672SOL    HW2 2916   0.918   4.672   2.081
  673SOL     OW 2917   0.204   0.685   1.587
  673SOL    HW1 2918   0.230   0.647   1.499
  673SOL    HW2 2919   0.106   0.673   1.602
  674SOL     OW 2920   0.119   3.114   4.564
  674SOL    HW1 2921   0.215   3.109   4.592
  674SOL    HW2 2922   0.068   3.171   4.629
  675SOL     OW 2923   0.709   0.405   4.246
  675SOL    HW1 2924   0.655   0.327   4.214
  675SOL    HW2 2925   0.707   0.478   4.178
  676SOL     OW 2926   4.071   5.982   2.702
  676SOL    HW1 2927   4.145   5.931   2.748
  676SOL    HW2 2928   4.088   6.080   2.710
  677SOL     OW 2929   6.500   1.534   6.760
  677SOL    HW1 2930   6.467   1.484   6.679
  677SOL    HW2 2931   6.450   1.501   6.841
  678SOL     OW 2932   1.854   0.994   4.827
  678SOL    HW1 2933   1.778   0.955   4.774
  678SOL    HW2 2934   1.880   0.930   4.900
  679SOL     OW 2935   4.644   1.705   4.343
  679SOL    HW1 2936   4.629   1.804   4.337
  679SOL    HW2 2937   4.572   1.664   4.399
  680SOL     OW 2938   6.077   5.451   5.694
  680SOL    HW1 2939   6.115   5.489   5.610
  680SOL    HW2 2940   6.030   5.524   5.745
  681SOL     OW 2941   5.193   5.695   1.594
  681SOL    HW1 2942   5.120   5.724   1.656
  681SOL    HW2 2943   5.188   5.748   1.509
  682SOL     OW 2944   1.500   0.726   0.597
  682SOL    HW1 2945   1.570   0.655   0.611
  682SOL    HW2 2946   1.441   0.731   0.677
  683SOL     OW 2947   4.009   3.111   6.934
  683SOL    HW1 2948   4.104   3.099   6.906
  683SOL    HW2 2949   3.970   3.022   6.959
  684SOL     OW 2950   6.893   1.040   0.213
  684SOL    HW1 2951   6.801   1.000   0.208
  684SOL    HW2 2952   6.939   1.029   0.125
  685SOL     OW 2953   4.859   1.090   4.316
  685SOL    HW1 2954   4.787   1.043   4.265
  685SOL    HW2 2955   4.938   1.103   4.257
  686SOL     OW 2956   5.477   1.970   3.905
  686SOL    HW1 2957   5.396   1.924   3.941
  686SOL    HW2 2958   5.530   1.906   3.849
  687SOL     OW 2959   0.761   2.462   4.112
  687SOL    HW1 2960   0.816   2.398   4.166
  687SOL    HW2 2961   0.722   2.532   4.172
  688SOL     OW 2962   1.007   2.618   0.318
  688SOL    HW1 2963   0.962   2.592   0.403
  688SOL    HW2 2964   1.092   2.666   0.340
  689SOL     OW 2965   0.201   4.058   6.096
  689SOL    HW1 2966   0.271   4.002   6.053
  689SOL    HW2 2967   0.170   4.129   6.032
  690SOL     OW 2968   0.627   4.018   3.201
  690SOL    HW1 2969   0.584   3.967   3.275
  690SOL    HW2 2970   0.695   4.081   3.239
  691SOL     OW 2971   2.988   0.299   6.439
  691SOL    HW1 2972   2.909   0.345   6.480
  691SOL    HW2 2973   3.069   0.315   6.496
  692SOL     OW 2974   3.896   5.979   3.794
  692SOL    HW1 2975   3.875   5.902   3.854
  692SOL    HW2 2976   3.953   5.948   3.718
  693SOL     OW 2977   6.473   0.533   3.549
  693SOL    HW1 2978   6.387   0.513   3.502
  693SOL    HW2 2979   6.473   0.491   3.639
  694SOL     OW 2980   4.012   6.105   2.323
  694SOL    HW1 2981   4.111   6.121   2.317
  694SOL    HW2 2982   3.966   6.191   2.344
  695SOL     OW 2983   4.550   5.949   4.859
  695SOL    HW1 2984   4.470   5.913   4.908
  695SOL    HW2 2985   4.537   5.937   4.761
  696SOL     OW 2986   3.331   5.451   2.310
  696SOL    HW1 2987   3.249   5.479   2.361
  696SOL    HW2 2988   3.305   5.384   2.240
  697SOL     OW 2989   1.898   2.875   3.477
  697SOL    HW1 2990   1.821   2.937   3.463
  697SOL    HW2 2991   1.935   2.847   3.388
  698SOL     OW 2992   5.698   6.641   0.020
  698SOL    HW1 2993   5.644   6.670   0.100
  698SOL    HW2 2994   5.638   6.595   6.980
  699SOL     OW 2995   2.030   3.903   6.146
  699SOL    HW1 2996   1.991   3.941   6.230
  699SOL    HW2 2997   2.106   3.842   6.169
  700SOL     OW 2998   2.631   1.444   3.500
  700SOL    HW1 2999   2.533   1.423   3.502
  700SOL    HW2 3000   2.671   1.405   3.417
  701SOL     OW 3001   5.907   3.684   4.894
  701SOL    HW1 3002   5.950   3.601   4.930
  701SOL    HW2 3003   5.950   3.764   4.934
  702SOL     OW 3004   0.428   6.226   5.783
  702SOL    HW1 3005   0.420   6.325   5.767
  702SOL    HW2 3006   0.476   6.184   5.706
  703SOL     OW 3007   3.334   4.315   6.396
  703SOL    HW1 3008   3.305   4.409   6.376
  703SOL    HW2 3009   3.300   4.254   6.325
  704SOL     OW 3010   1.317   1.500   0.175
  704SOL    HW1 3011   1.396   1.510   0.114
  704SOL    HW2 3012   1.346   1.515   0.269
  705SOL     OW 3013   6.131   5.942   3.018
  705SOL    HW1 3014   6.128   5.944   3.118
  705SOL    HW2 3015   6.153   6.033   2.984
  706SOL     OW 3016   4.767   2.552   4.292
  706SOL    HW1 3017   4.807   2.480   4.235
  706SOL    HW2 3018   4.668   2.545   4.290
  707SOL     OW 3019   5.276   6.819   2.271
  707SOL    HW1 3020   5.258   6.758   2.348
  707SOL    HW2 3021   5.318   6.767   2.196
  708SOL     OW 3022   3.777   0.656   1.465
  708SOL    HW1 3023   3.756   0.656   1.562
  708SOL    HW2 3024   3.851   0.591   1.446
  709SOL     OW 3025   1.137   5.392   1.104
  709SOL    HW1 3026   1.143   5.424   1.199
  709SOL    HW2 3027   1.223   5.414   1.056
  710SOL     OW 3028   3.634   3.052   2.940
  710SOL    HW1 3029   3.595   2.985   3.003
  710SOL    HW2 3030   3.615   3.024   2.846
  711SOL     OW 3031   0.120   2.645   5.344
  711SOL    HW1 3032   0.171   2.699   5.277
  711SOL    HW2 3033   0.123   2.548   5.319
  712SOL     OW 3034   4.124   3.690   1.158
  712SOL    HW1 3035   4.150   3.707   1.253
  712SOL    HW2 3036   4.047   3.748   1.134
  713SOL     OW 3037   4.167   2.861   6.082
  713SOL    HW1 3038   4.099   2.810   6.030
  713SOL    HW2 3039   4.127   2.946   6.116
  714SOL     OW 3040   6.514   4.386   3.825
  714SOL    HW1 3041   6.452   4.318   3.787
  714SOL    HW2 3042   6.571   4.344   3.896
  715SOL     OW 3043   5.971   5.559   0.140
  715SOL    HW1 3044   6.064   5.595   0.144
  715SOL    HW2 3045   5.961   5.501   0.059
  716SOL     OW 3046   1.151   0.086   1.022
  716SOL    HW1 3047   1.241   0.111   1.057
  716SOL    HW2 3048   1.161   0.045   0.931
  717SOL     OW 3049   6.239   4.945   5.871
  717SOL    HW1 3050   6.251   4.997   5.956
  717SOL    HW2 3051   6.310   4.875   5.865
  718SOL     OW 3052   5.086   2.408   6.105
  718SOL    HW1 3053   5.062   2.501   6.077
  718SOL    HW2 3054   5.176   2.407   6.147
  719SOL     OW 3055   6.556   0.318   1.952
  719SOL    HW1 3056   6.525   0.404   1.993
  719SOL    HW2 3057   6.478   0.270   1.912
  720SOL     OW 3058   3.523   1.094   6.640
  720SOL    HW1 3059   3.459   1.024   6.674
  720SOL    HW2 3060   3.508   1.179   6.690
  721SOL     OW 3061   2.982   0.826   4.119
  721SOL    HW1 3062   2.995   0.913   4.165
  721SOL    HW2 3063   3.071   0.786   4.097
  722SOL     OW 3064   2.977   0.868   4.777
  722SOL    HW1 3065   2.946   0.844   4.869
  722SOL    HW2 3066   3.072   0.840   4.765
  723SOL     OW 3067   1.695   3.740   3.187
  723SOL    HW1 3068   1.752   3.670   3.143
  723SOL    HW2 3069   1.753   3.815   3.219
  724SOL     OW 3070   1.172   3.203   4.372
  724SOL    HW1 3071   1.192   3.134   4.303
  724SOL    HW2 3072   1.197   3.169   4.463
  725SOL     OW 3073   3.510   5.768   0.643
  725SOL    HW1 3074   3.557   5.852   0.668
  725SOL    HW2 3075   3.565   5.718   0.576
  726SOL     OW 3076   4.039   4.630   0.843
  726SOL    HW1 3077   4.109   4.560   0.835
  726SOL    HW2 3078   4.019   4.646   0.940
  727SOL     OW 3079   5.767   4.711   5.932
  727SOL    HW1 3080   5.848   4.766   5.912
  727SOL    HW2 3081   5.715   4.697   5.848
  728SOL     OW 3082   6.769   3.213   4.621
  728SOL    HW1 3083   6.670   3.210   4.623
  728SOL    HW2 3084   6.800   3.274   4.549
  729SOL     OW 3085   1.397   2.111   1.196
  729SOL    HW1 3086   1.375   2.165   1.115
  729SOL    HW2 3087   1.319   2.113   1.260
  730SOL     OW 3088   5.625   0.786   3.512
  730SOL    HW1 3089   5.723   0.790   3.496
  730SOL    HW2 3090   5.576   0.809   3.427
  731SOL     OW 3091   5.533   4.365   5.890
  731SOL    HW1 3092   5.492   4.355   5.981
  731SOL    HW2 3093   5.592   4.287   5.871
  732SOL     OW 3094   6.906   2.078   1.815
  732SOL    HW1 3095   6.955   2.137   1.751
  732SOL    HW2 3096   6.904   2.121   1.905
  733SOL     OW 3097   5.975   6.003   5.585
  733SOL    HW1 3098   5.876   6.016   5.596
  733SOL    HW2 3099   6.024   6.060   5.651
  734SOL     OW 3100   0.376   4.749   2.822
  734SOL    HW1 3101   0.419   4.837   2.798
  734SOL    HW2 3102   0.436   4.698   2.883
  735SOL     OW 3103   3.720   1.889   0.309
  735SOL    HW1 3104   3.796   1.825   0.301
  735SOL    HW2 3105   3.669   1.891   0.223
  736SOL     OW 3106   0.947   0.759   3.354
  736SOL    HW1 3107   0.960   0.677   3.299
  736SOL    HW2 3108   1.001   0.752   3.438
  737SOL     OW 3109   4.772   2.142   5.852
  737SOL    HW1 3110   4.811   2.050   5.858
  737SOL    HW2 3111   4.675   2.139   5.876
  738SOL     OW 3112   1.933   4.123   1.787
  738SOL    HW1 3113   1.879   4.090   1.710
  738SOL    HW2 3114   2.027   4.138   1.758
  739SOL     OW 3115   4.122   0.226   3.969
  739SOL    HW1 3116   4.156   0.181   3.886
  739SOL    HW2 3117   4.195   0.230   4.038
  740SOL     OW 3118   5.814   0.388   1.207
  740SOL    HW1 3119   5.754   0.463   1.181
  740SOL    HW2 3120   5.760   0.318   1.255
  741SOL     OW 3121   2.533   6.260   3.306
  741SOL    HW1 3122   2.573   6.252   3.397
  741SOL    HW2 3123   2.578   6.195   3.244
  742SOL     OW 3124   2.572   6.806   2.432
  742SOL    HW1 3125   2.584   6.762   2.343
  742SOL    HW2 3126   2.655   6.857   2.455
  743SOL     OW 3127   0.222   3.644   3.687
  743SOL    HW1 3128   0.142   3.585   3.692
  743SOL    HW2 3129   0.278   3.633   3.769
  744SOL     OW 3130   5.856   0.446   6.955
  744SOL    HW1 3131   5.784   0.451   7.025
  744SOL    HW2 3132   5.890   0.538   6.935
  745SOL     OW 3133   0.966   5.636   5.026
  745SOL    HW1 3134   1.029   5.578   5.077
  745SOL    HW2 3135   1.018   5.702   4.971
  746SOL     OW 3136   0.019   4.682   6.169
  746SOL    HW1 3137   6.986   4.611   6.129
  746SOL    HW2 3138   0.047   4.746   6.098
  747SOL     OW 3139   3.812   6.469   4.554
  747SOL    HW1 3140   3.868   6.496   4.632
  747SOL    HW2 3141   3.745   6.400   4.583
  748SOL     OW 3142   3.669   5.041   2.323
  748SOL    HW1 3143   3.664   5.035   2.422
  748SOL    HW2 3144   3.627   5.126   2.292
  749SOL     OW 3145   6.426   4.505   4.617
  749SOL    HW1 3146   6.340   4.505   4.567
  749SOL    HW2 3147   6.500   4.532   4.555
  750SOL     OW 3148   1.658   2.017   1.098
  750SOL    HW1 3149   1.568   2.060   1.110
  750SOL    HW2 3150   1.729   2.086   1.112
  751SOL     OW 3151   4.211   2.569   6.663
  751SOL    HW1 3152   4.132   2.515   6.693
  751SOL    HW2 3153   4.181   2.637   6.596
  752SOL     OW 3154   3.465   1.145   2.486
  752SOL    HW1 3155   3.411   1.160   2.568
  752SOL    HW2 3156   3.510   1.231   2.459
  753SOL     OW 3157   2.097   3.346   5.455
  753SOL    HW1 3158   2.122   3.394   5.371
  753SOL    HW2 3159   2.100   3.410   5.532
  754SOL     OW 3160   5.005   2.604   5.535
  754SOL    HW1 3161   4.920   2.615   5.587
  754SOL    HW2 3162   4.991   2.638   5.442
  755SOL     OW 3163   1.453   4.328   5.245
  755SOL    HW1 3164   1.364   4.333   5.289
  755SOL    HW2 3165   1.490   4.420   5.233
  756SOL     OW 3166   3.099   6.279   0.387
  756SOL    HW1 3167   3.046   6.253   0.307
  756SOL    HW2 3168   3.177   6.335   0.360
  757SOL     OW 3169   0.956   0.364   3.677
  757SOL    HW1 3170   0.876   0.386   3.733
  757SOL    HW2 3171   0.948   0.270   3.644
  758SOL     OW 3172   3.601   0.045   1.887
  758SOL    HW1 3173   3.634   0.041   1.981
  758SOL    HW2 3174   3.657   7.010   1.829
  759SOL     OW 3175   0.277   1.408   1.523
  759SOL    HW1 3176   0.206   1.472   1.493
  759SOL    HW2 3177   0.366   1.454   1.521
  760SOL     OW 3178   5.502   0.298   5.643
  760SOL    HW1 3179   5.461   0.224   5.696
  760SOL    HW2 3180   5.512   0.269   5.547
  761SOL     OW 3181   5.648   3.225   5.866
  761SOL    HW1 3182   5.596   3.299   5.825
  761SOL    HW2 3183   5.610   3.137   5.838
  762SOL     OW 3184   2.470   0.737   4.739
  762SOL    HW1 3185   2.551   0.681   4.757
  762SOL    HW2 3186   2.497   0.820   4.691
  763SOL     OW 3187   4.227   5.283   6.285
  763SOL    HW1 3188   4.247   5.351   6.214
  763SOL    HW2 3189   4.133   5.294   6.316
  764SOL     OW 3190   5.405   2.170   5.320
  764SOL    HW1 3191   5.446   2.254   5.357
  764SOL    HW2 3192   5.459   2.091   5.350
  765SOL     OW 3193   1.085   6.218   1.619
  765SOL    HW1 3194   1.121   6.127   1.602
  765SOL    HW2 3195   1.062   6.263   1.533
  766SOL     OW 3196   2.608   3.367   6.549
  766SOL    HW1 3197   2.699   3.396   6.579
  766SOL    HW2 3198   2.548   3.357   6.628
  767SOL     OW 3199   6.185   5.855   1.855
  767SOL    HW1 3200   6.180   5.774   1.913
  767SOL    HW2 3201   6.183   5.828   1.759
  768SOL     OW 3202   1.991   6.544   1.974
  768SOL    HW1 3203   2.004   6.449   2.001
  768SOL    HW2 3204   1.978   6.600   2.056
  769SOL     OW 3205   3.315   1.021   4.738
  769SOL    HW1 3206   3.266   0.974   4.811
  769SOL    HW2 3207   3.383   1.083   4.777
  770SOL     OW 3208   1.969   4.409   2.926
  770SOL    HW1 3209   1.888   4.448   2.969
  770SOL    HW2 3210   2.049   4.462   2.952
  771SOL     OW 3211   2.329   5.028   2.523
  771SOL    HW1 3212   2.285   5.094   2.583
  771SOL    HW2 3213   2.267   5.003   2.449
  772SOL     OW 3214   5.698   5.295   0.367
  772SOL    HW1 3215   5.740   5.384   0.348
  772SOL    HW2 3216   5.599   5.304   0.371
  773SOL     OW 3217   0.119   3.668   4.750
  773SOL    HW1 3218   0.084   3.615   4.827
  773SOL    HW2 3219   0.203   3.626   4.716
  774SOL     OW 3220   1.119   1.759   1.406
  774SOL    HW1 3221   1.035   1.765   1.353
  774SOL    HW2 3222   1.116   1.825   1.480
  775SOL     OW 3223   0.371   2.102   2.882
  775SOL    HW1 3224   0.288   2.138   2.924
  775SOL    HW2 3225   0.431   2.178   2.855
  776SOL     OW 3226   1.142   0.552   6.299
  776SOL    HW1 3227   1.110   0.495   6.223
  776SOL    HW2 3228   1.112   0.646   6.285
  777SOL     OW 3229   2.157   4.868   1.561
  777SOL    HW1 3230   2.151   4.967   1.549
  777SOL    HW2 3231   2.146   4.845   1.658
  778SOL     OW 3232   2.606   1.280   2.107
  778SOL    HW1 3233   2.660   1.361   2.125
  778SOL    HW2 3234   2.561   1.250   2.191
  779SOL     OW 3235   6.788   2.780   2.231
  779SOL    HW1 3236   6.786   2.880   2.231
  779SOL    HW2 3237   6.706   2.745   2.277
  780SOL     OW 3238   6.306   3.617   3.918
  780SOL    HW1 3239   6.307   3.658   4.009
  780SOL    HW2 3240   6.386   3.647   3.866
  781SOL     OW 3241   5.590   1.063   0.087
  781SOL    HW1 3242   5.620   1.056   0.182
  781SOL    HW2 3243   5.654   1.121   0.036
  782SOL     OW 3244   1.445   4.428   6.639
  782SOL    HW1 3245   1.374   4.423   6.569
  782SOL    HW2 3246   1.503   4.347   6.631
  783SOL     OW 3247   4.364   4.960   0.822
  783SOL    HW1 3248   4.342   5.007   0.907
  783SOL    HW2 3249   4.453   4.914   0.830
  784SOL     OW 3250   5.219   5.835   0.384
  784SOL    HW1 3251   5.153   5.896   0.427
  784SOL    HW2 3252   5.197   5.824   0.287
  785SOL     OW 3253   0.547   2.173   3.445
  785SOL    HW1 3254   0.631   2.224   3.463
  785SOL    HW2 3255   0.571   2.082   3.411
  786SOL     OW 3256   1.623   1.033   1.793
  786SOL    HW1 3257   1.690   1.087   1.743
  786SOL    HW2 3258   1.612   0.945   1.747
  787SOL     OW 3259   2.846   0.508   6.979
  787SOL    HW1 3260   2.841   0.442   6.904
  787SOL    HW2 3261   2.925   0.488   0.011
  788SOL     OW 3262   3.765   3.217   5.731
  788SOL    HW1 3263   3.737   3.139   5.676
  788SOL    HW2 3264   3.814   3.186   5.812
  789SOL     OW 3265   5.129   3.962   0.502
  789SOL    HW1 3266   5.120   3.927   0.595
  789SOL    HW2 3267   5.178   3.895   0.446
  790SOL     OW 3268   2.308   1.124   3.998
  790SOL    HW1 3269   2.398   1.110   3.955
  790SOL    HW2 3270   2.236   1.109   3.930
  791SOL     OW 3271   3.276   5.913   4.190
  791SOL    HW1 3272   3.311   6.004   4.166
  791SOL    HW2 3273   3.180   5.920   4.216
  792SOL     OW 3274   1.198   0.016   0.747
  792SOL    HW1 3275   1.190   6.942   0.758
  792SOL    HW2 3276   1.198   0.040   0.650
  793SOL     OW 3277   4.829   4.959   3.482
  793SOL    HW1 3278   4.863   4.980   3.574
  793SOL    HW2 3279   4.876   4.879   3.447
  794SOL     OW 3280   3.551   3.665   5.025
  794SOL    HW1 3281   3.567   3.760   5.051
  794SOL    HW2 3282   3.619   3.606   5.068
  795SOL     OW 3283   3.302   6.734   4.076
  795SOL    HW1 3284   3.249   6.734   3.991
  795SOL    HW2 3285   3.270   6.809   4.135
  796SOL     OW 3286   0.321   1.714   6.457
  796SOL    HW1 3287   0.395   1.648   6.448
  796SOL    HW2 3288   0.326   1.780   6.383
  797SOL     OW 3289   5.762   3.220   0.813
  797SOL    HW1 3290   5.825   3.189   0.742
  797SOL    HW2 3291   5.720   3.140   0.856
  798SOL     OW 3292   3.918   0.418   2.580
  798SOL    HW1 3293   3.831   0.375   2.556
  798SOL    HW2 3294   3.990   0.350   2.580
  799SOL     OW 3295   0.120   0.266   5.897
  799SOL    HW1 3296   0.063   0.348   5.895
  799SOL    HW2 3297   0.121   0.228   5.989
  800SOL     OW 3298   5.250   2.214   2.670
  800SOL    HW1 3299   5.264   2.313   2.662
  800SOL    HW2 3300   5.269   2.171   2.582
  801SOL     OW 3301   1.374   3.582   4.205
  801SOL    HW1 3302   1.297   3.570   4.269
  801SOL    HW2 3303   1.456   3.609   4.256
  802SOL     OW 3304   3.995   1.771   1.040
  802SOL    HW1 3305   3.939   1.829   1.099
  802SOL    HW2 3306   3.958   1.773   0.947
  803SOL     OW 3307   0.422   6.884   5.510
  803SOL    HW1 3308   0.441   6.787   5.524
  803SOL    HW2 3309   0.368   6.918   5.587
  804SOL     OW 3310   5.221   5.502   0.007
  804SOL    HW1 3311   5.219   5.553   6.947
  804SOL    HW2 3312   5.145   5.436   0.009
  805SOL     OW 3313   3.781   0.036   5.326
  805SOL    HW1 3314   3.843   6.992   5.290
  805SOL    HW2 3315   3.819   0.127   5.310
  806SOL     OW 3316   5.335   1.030   4.649
  806SOL    HW1 3317   5.404   1.046   4.719
  806SOL    HW2 3318   5.269   0.963   4.682
  807SOL     OW 3319   1.742   1.941   4.054
  807SOL    HW1 3320   1.746   1.842   4.042
  807SOL    HW2 3321   1.763   1.964   4.149
  808SOL     OW 3322   4.794   3.480   6.250
  808SOL    HW1 3323   4.841   3.564   6.275
  808SOL    HW2 3324   4.848   3.401   6.282
  809SOL     OW 3325   6.652   5.053   0.960
  809SOL    HW1 3326   6.718   4.992   1.004
  809SOL    HW2 3327   6.642   5.028   0.864
  810SOL     OW 3328   3.266   3.159   1.584
  810SOL    HW1 3329   3.274   3.207   1.672
  810SOL    HW2 3330   3.297   3.065   1.595
  811SOL     OW 3331   4.243   5.514   5.196
  811SOL    HW1 3332   4.290   5.549   5.278
  811SOL    HW2 3333   4.154   5.478   5.222
  812SOL     OW 3334   0.710   1.494   2.295
  812SOL    HW1 3335   0.640   1.480   2.365
  812SOL    HW2 3336   0.795   1.449   2.324
  813SOL     OW 3337   3.321   6.329   5.080
  813SOL    HW1 3338   3.228   6.350   5.109
  813SOL    HW2 3339   3.365   6.270   5.148
  814SOL     OW 3340   6.721   5.956   2.416
  814SOL    HW1 3341   6.737   5.901   2.334
  814SOL    HW2 3342   6.798   6.018   2.430
  815SOL     OW 3343   0.604   3.331   3.035
  815SOL    HW1 3344   0.530   3.398   3.026
  815SOL    HW2 3345   0.680   3.358   2.977
  816SOL     OW 3346   6.176   6.652   0.702
  816SOL    HW1 3347   6.169   6.596   0.785
  816SOL    HW2 3348   6.259   6.706   0.705
  817SOL     OW 3349   2.136   4.509   0.564
  817SOL    HW1 3350   2.221   4.495   0.512
  817SOL    HW2 3351   2.149   4.583   0.629
  818SOL     OW 3352   6.125   3.209   2.323
  818SOL    HW1 3353   6.046   3.172   2.273
  818SOL    HW2 3354   6.173   3.134   2.369
  819SOL     OW 3355   5.708   2.479   3.224
  819SOL    HW1 3356   5.651   2.546   3.175
  819SOL    HW2 3357   5.795   2.522   3.249
  820SOL     OW 3358   3.003   2.479   5.408
  820SOL    HW1 3359   3.040   2.442   5.323
  820SOL    HW2 3360   2.964   2.569   5.392
  821SOL     OW 3361   1.727   4.734   1.528
  821SOL    HW1 3362   1.673   4.690   1.457
  821SOL    HW2 3363   1.749   4.828   1.500
  822SOL     OW 3364   1.909   4.416   3.656
  822SOL    HW1 3365   1.862   4.397   3.742
  822SOL    HW2 3366   1.846   4.457   3.591
  823SOL     OW 3367   5.120   3.750   6.508
  823SOL    HW1 3368   5.090   3.832   6.558
  823SOL    HW2 3369   5.197   3.774   6.449
  824SOL     OW 3370   5.736   0.975   6.086
  824SOL    HW1 3371   5.762   0.942   6.177
  824SOL    HW2 3372   5.716   1.073   6.091
  825SOL     OW 3373   0.517   4.313   1.425
  825SOL    HW1 3374   0.590   4.325   1.492
  825SOL    HW2 3375   0.553   4.331   1.333
  826SOL     OW 3376   5.437   3.240   5.525
  826SOL    HW1 3377   5.517   3.257   5.467
  826SOL    HW2 3378   5.429   3.313   5.593
  827SOL     OW 3379   2.669   5.128   5.516
  827SOL    HW1 3380   2.708   5.074   5.590
  827SOL    HW2 3381   2.677   5.077   5.430
  828SOL     OW 3382   5.738   6.835   6.316
  828SOL    HW1 3383   5.641   6.825   6.292
  828SOL    HW2 3384   5.756   6.786   6.402
  829SOL     OW 3385   3.247   4.106   2.671
  829SOL    HW1 3386   3.327   4.145   2.716
  829SOL    HW2 3387   3.257   4.112   2.572
  830SOL     OW 3388   5.151   5.086   6.624
  830SOL    HW1 3389   5.164   4.998   6.578
  830SOL    HW2 3390   5.057   5.117   6.611
  831SOL     OW 3391   6.491   0.558   0.127
  831SOL    HW1 3392   6.464   0.477   0.076
  831SOL    HW2 3393   6.591   0.563   0.132
  832SOL     OW 3394   3.243   0.658   1.711
  832SOL    HW1 3395   3.319   0.717   1.683
  832SOL    HW2 3396   3.229   0.666   1.810
  833SOL     OW 3397   0.648   4.074   5.566
  833SOL    HW1 3398   0.633   4.065   5.664
  833SOL    HW2 3399   0.573   4.030   5.517
  834SOL     OW 3400   3.898   3.932   0.304
  834SOL    HW1 3401   3.855   3.853   0.348
  834SOL    HW2 3402   3.921   4.001   0.373
  835SOL     OW 3403   3.876   0.298   5.276
  835SOL    HW1 3404   3.793   0.350   5.252
  835SOL    HW2 3405   3.912   0.332   5.363
  836SOL     OW 3406   3.545   6.459   6.621
  836SOL    HW1 3407   3.449   6.431   6.615
  836SOL    HW2 3408   3.582   6.467   6.528
  837SOL     OW 3409   5.573   0.488   0.579
  837SOL    HW1 3410   5.614   0.578   0.593
  837SOL    HW2 3411   5.623   0.440   0.507
  838SOL     OW 3412   2.422   0.422   4.622
  838SOL    HW1 3413   2.411   0.328   4.655
  838SOL    HW2 3414   2.439   0.483   4.699
  839SOL     OW 3415   1.601   3.043   2.157
  839SOL    HW1 3416   1.645   3.004   2.237
  839SOL    HW2 3417   1.586   2.972   2.088
  840SOL     OW 3418   6.330   6.382   0.251
  840SOL    HW1 3419   6.245   6.426   0.276
  840SOL    HW2 3420   6.320   6.282   0.257
  841SOL     OW 3421   4.348   4.911   6.679
  841SOL    HW1 3422   4.253   4.889   6.704
  841SOL    HW2 3423   4.348   4.986   6.612
  842SOL     OW 3424   4.224   0.199   5.231
  842SOL    HW1 3425   4.288   0.245   5.170
  842SOL    HW2 3426   4.139   0.181   5.183
  843SOL     OW 3427   1.199   1.573   1.030
  843SOL    HW1 3428   1.243   1.636   1.095
  843SOL    HW2 3429   1.267   1.509   0.995
  844SOL     OW 3430   6.348   0.685   0.757
  844SOL    HW1 3431   6.375   0.667   0.663
  844SOL    HW2 3432   6.340   0.784   0.772
  845SOL     OW 3433   5.303   4.439   5.277
  845SOL    HW1 3434   5.288   4.357   5.332
  845SOL    HW2 3435   5.234   4.507   5.298
  846SOL     OW 3436   1.669   2.133   6.686
  846SOL    HW1 3437   1.755   2.159   6.729
  846SOL    HW2 3438   1.598   2.199   6.711
  847SOL     OW 3439   1.621   3.067   1.495
  847SOL    HW1 3440   1.686   3.098   1.565
  847SOL    HW2 3441   1.545   3.131   1.489
  848SOL     OW 3442   6.354   0.857   6.305
  848SOL    HW1 3443   6.347   0.798   6.224
  848SOL    HW2 3444   6.292   0.934   6.295
  849SOL     OW 3445   0.465   4.174   6.287
  849SOL    HW1 3446   0.389   4.138   6.233
  849SOL    HW2 3447   0.452   4.150   6.383
  850SOL     OW 3448   4.812   0.247   3.285
  850SOL    HW1 3449   4.903   0.289   3.284
  850SOL    HW2 3450   4.742   0.318   3.274
  851SOL     OW 3451   0.089   1.424   2.618
  851SOL    HW1 3452   0.184   1.394   2.617
  851SOL    HW2 3453   0.046   1.396   2.704
  852SOL     OW 3454   1.459   2.994   6.668
  852SOL    HW1 3455   1.486   3.087   6.644
  852SOL    HW2 3456   1.407   2.953   6.593
  853SOL     OW 3457   1.823   4.805   2.011
  853SOL    HW1 3458   1.856   4.855   1.931
  853SOL    HW2 3459   1.753   4.739   1.982
  854SOL     OW 3460   4.409   6.048   1.388
  854SOL    HW1 3461   4.390   6.006   1.477
  854SOL    HW2 3462   4.341   6.119   1.370
  855SOL     OW 3463   0.144   0.280   1.928
  855SOL    HW1 3464   0.222   0.341   1.939
  855SOL    HW2 3465   0.116   0.245   2.017
  856SOL     OW 3466   1.270   2.394   5.243
  856SOL    HW1 3467   1.255   2.324   5.312
  856SOL    HW2 3468   1.214   2.373   5.162
  857SOL     OW 3469   5.884   4.450   1.835
  857SOL    HW1 3470   5.972   4.409   1.861
  857SOL    HW2 3471   5.871   4.534   1.888
  858SOL     OW 3472   2.695   3.370   1.070
  858SOL    HW1 3473   2.757   3.292   1.061
  858SOL    HW2 3474   2.706   3.431   0.992
  859SOL     OW 3475   5.343   5.851   5.612
  859SOL    HW1 3476   5.311   5.887   5.525
  859SOL    HW2 3477   5.270   5.799   5.656
  860SOL     OW 3478   5.212   3.443   0.107
  860SOL    HW1 3479   5.179   3.431   0.013
  860SOL    HW2 3480   5.140   3.486   0.162
  861SOL     OW 3481   2.956   6.172   3.529
  861SOL    HW1 3482   2.918   6.080   3.536
  861SOL    HW2 3483   3.010   6.193   3.611
  862SOL     OW 3484   0.842   4.295   4.880
  862SOL    HW1 3485   0.873   4.265   4.971
  862SOL    HW2 3486   0.770   4.363   4.891
  863SOL     OW 3487   6.228   0.636   1.113
  863SOL    HW1 3488   6.227   0.661   1.210
  863SOL    HW2 3489   6.277   0.550   1.100
  864SOL     OW 3490   4.181   4.738   3.741
  864SOL    HW1 3491   4.173   4.742   3.841
  864SOL    HW2 3492   4.101   4.780   3.699
  865SOL     OW 3493   0.436   6.129   6.045
  865SOL    HW1 3494   0.429   6.165   5.952
  865SOL    HW2 3495   0.368   6.056   6.057
  866SOL     OW 3496   1.958   1.932   1.444
  866SOL    HW1 3497   2.016   1.850   1.445
  866SOL    HW2 3498   2.004   2.005   1.393
  867SOL     OW 3499   4.308   3.831   0.856
  867SOL    HW1 3500   4.408   3.831   0.865
  867SOL    HW2 3501   4.280   3.757   0.794
  868SOL     OW 3502   5.986   0.740   1.079
  868SOL    HW1 3503   5.929   0.684   1.020
  868SOL    HW2 3504   6.076   0.699   1.088
  869SOL     OW 3505   0.043   5.424   3.361
  869SOL    HW1 3506   0.084   5.345   3.314
  869SOL    HW2 3507   6.979   5.397   3.397
  870SOL     OW 3508   4.060   3.529   0.718
  870SOL    HW1 3509   4.091   3.435   0.714
  870SOL    HW2 3510   4.134   3.590   0.689
  871SOL     OW 3511   4.770   2.740   3.512
  871SOL    HW1 3512   4.686   2.696   3.544
  871SOL    HW2 3513   4.792   2.708   3.420
  872SOL     OW 3514   5.221   3.895   4.032
  872SOL    HW1 3515   5.172   3.914   3.947
  872SOL    HW2 3516   5.187   3.956   4.104
  873SOL     OW 3517   5.711   6.867   4.088
  873SOL    HW1 3518   5.625   6.913   4.063
  873SOL    HW2 3519   5.760   6.842   4.004
  874SOL     OW 3520   1.024   4.016   6.002
  874SOL    HW1 3521   1.003   4.016   5.904
  874SOL    HW2 3522   0.977   4.093   6.046
  875SOL     OW 3523   3.424   2.884   0.454
  875SOL    HW1 3524   3.458   2.796   0.487
  875SOL    HW2 3525   3.501   2.946   0.439
  876SOL     OW 3526   0.679   5.155   2.772
  876SOL    HW1 3527   0.724   5.065   2.770
  876SOL    HW2 3528   0.632   5.166   2.860
  877SOL     OW 3529   4.177   4.004   6.834
  877SOL    HW1 3530   4.225   3.921   6.807
  877SOL    HW2 3531   4.189   4.019   6.932
  878SOL     OW 3532   3.970   5.855   5.263
  878SOL    HW1 3533   4.059   5.852   5.310
  878SOL    HW2 3534   3.984   5.853   5.164
  879SOL     OW 3535   2.944   2.297   1.566
  879SOL    HW1 3536   2.855   2.328   1.601
  879SOL    HW2 3537   2.985   2.235   1.632
  880SOL     OW 3538   3.366   4.321   5.568
  880SOL    HW1 3539   3.274   4.344   5.535
  880SOL    HW2 3540   3.389   4.379   5.646
  881SOL     OW 3541   4.630   4.090   5.196
  881SOL    HW1 3542   4.623   4.145   5.113
  881SOL    HW2 3543   4.715   4.039   5.195
  882SOL     OW 3544   0.958   1.767   4.339
  882SOL    HW1 3545   1.033   1.832   4.353
  882SOL    HW2 3546   0.923   1.777   4.245
  883SOL     OW 3547   4.839   5.765   5.955
  883SOL    HW1 3548   4.854   5.856   5.916
  883SOL    HW2 3549   4.888   5.697   5.901
  884SOL     OW 3550   0.019   4.073   0.284
  884SOL    HW1 3551   0.111   4.046   0.314
  884SOL    HW2 3552   0.010   4.058   0.186
  885SOL     OW 3553   4.763   5.565   6.717
  885SOL    HW1 3554   4.813   5.539   6.635
  885SOL    HW2 3555   4.813   5.534   6.798
  886SOL     OW 3556   3.857   0.768   1.205
  886SOL    HW1 3557   3.796   0.735   1.277
  886SOL    HW2 3558   3.935   0.706   1.195
  887SOL     OW 3559   3.504   6.913   3.991
  887SOL    HW1 3560   3.519   6.906   3.893
  887SOL    HW2 3561   3.471   6.825   4.027
  888SOL     OW 3562   5.599   6.207   3.241
  888SOL    HW1 3563   5.557   6.175   3.156
  888SOL    HW2 3564   5.698   6.193   3.237
  889SOL     OW 3565   1.850   6.776   6.015
  889SOL    HW1 3566   1.867   6.852   5.951
  889SOL    HW2 3567   1.752   6.766   6.029
  890SOL     OW 3568   2.348   5.101   2.065
  890SOL    HW1 3569   2.443   5.134   2.071
  890SOL    HW2 3570   2.348   5.007   2.031
  891SOL     OW 3571   6.364   4.238   0.455
  891SOL    HW1 3572   6.365   4.202   0.549
  891SOL    HW2 3573   6.438   4.195   0.403
  892SOL     OW 3574   3.663   3.949   5.481
  892SOL    HW1 3575   3.703   3.886   5.548
  892SOL    HW2 3576   3.711   3.940   5.394
  893SOL     OW 3577   1.971   1.162   1.919
  893SOL    HW1 3578   2.065   1.138   1.943
  893SOL    HW2 3579   1.908   1.106   1.972
  894SOL     OW 3580   1.527   2.294   2.868
  894SOL    HW1 3581   1.491   2.363   2.930
  894SOL    HW2 3582   1.626   2.286   2.879
  895SOL     OW 3583   1.157   5.339   4.569
  895SOL    HW1 3584   1.206   5.368   4.487
  895SOL    HW2 3585   1.107   5.416   4.608
  896SOL     OW 3586   6.546   6.337   1.878
  896SOL    HW1 3587   6.526   6.352   1.781
  896SOL    HW2 3588   6.461   6.319   1.927
  897SOL     OW 3589   4.619   0.673   7.024
  897SOL    HW1 3590   4.555   0.681   0.074
  897SOL    HW2 3591   4.669   0.587   0.005
  898SOL     OW 3592   3.901   6.199   2.854
  898SOL    HW1 3593   3.979   6.249   2.818
  898SOL    HW2 3594   3.918   6.176   2.950
  899SOL     OW 3595   0.113   5.015   0.521
  899SOL    HW1 3596   0.016   5.030   0.502
  899SOL    HW2 3597   0.162   5.102   0.513
  900SOL     OW 3598   4.281   6.512   0.579
  900SOL    HW1 3599   4.274   6.601   0.533
  900SOL    HW2 3600   4.256   6.439   0.516
  901SOL     OW 3601   0.945   1.144   5.360
  901SOL    HW1 3602   0.937   1.070   5.428
  901SOL    HW2 3603   1.007   1.214   5.395
  902SOL     OW 3604   0.644   2.340   0.832
  902SOL    HW1 3605   0.657   2.312   0.736
  902SOL    HW2 3606   0.732   2.337   0.879
  903SOL     OW 3607   6.857   4.078   5.748
  903SOL    HW1 3608   6.903   4.045   5.830
  903SOL    HW2 3609   6.769   4.031   5.737
  904SOL     OW 3610   2.034   2.547   3.116
  904SOL    HW1 3611   1.963   2.477   3.113
  904SOL    HW2 3612   2.121   2.508   3.084
  905SOL     OW 3613   4.779   3.869   6.158
  905SOL    HW1 3614   4.806   3.788   6.106
  905SOL    HW2 3615   4.681   3.886   6.146
  906SOL     OW 3616   0.595   3.166   5.909
  906SOL    HW1 3617   0.666   3.196   5.971
  906SOL    HW2 3618   0.607   3.210   5.820
  907SOL     OW 3619   5.907   2.661   2.906
  907SOL    HW1 3620   5.987   2.704   2.865
  907SOL    HW2 3621   5.900   2.567   2.873
  908SOL     OW 3622   1.696   5.853   3.281
  908SOL    HW1 3623   1.658   5.764   3.304
  908SOL    HW2 3624   1.645   5.894   3.205
  909SOL     OW 3625   2.790   6.209   2.057
  909SOL    HW1 3626   2.821   6.114   2.052
  909SOL    HW2 3627   2.861   6.265   2.100
  910SOL     OW 3628   2.970   0.910   0.656
  910SOL    HW1 3629   3.067   0.887   0.660
  910SOL    HW2 3630   2.920   0.853   0.721
  911SOL     OW 3631   0.054   5.218   0.897
  911SOL    HW1 3632   0.085   5.294   0.839
  911SOL    HW2 3633   7.017   5.253   0.967
  912SOL     OW 3634   6.116   0.296   3.841
  912SOL    HW1 3635   6.113   0.277   3.743
  912SOL    HW2 3636   6.123   0.395   3.856
  913SOL     OW 3637   1.795   0.971   2.984
  913SOL    HW1 3638   1.723   0.906   3.012
  913SOL    HW2 3639   1.775   1.061   3.023
  914SOL     OW 3640   2.517   5.902   4.933
  914SOL    HW1 3641   2.576   5.961   4.878
  914SOL    HW2 3642   2.558   5.811   4.940
  915SOL     OW 3643   1.375   3.515   7.015
  915SOL    HW1 3644   1.312   3.517   0.067
  915SOL    HW2 3645   1.463   3.478   0.019
  916SOL     OW 3646   1.099   2.655   2.014
  916SOL    HW1 3647   1.070   2.740   1.969
  916SOL    HW2 3648   1.122   2.587   1.944
  917SOL     OW 3649   5.893   0.324   2.182
  917SOL    HW1 3650   5.800   0.361   2.182
  917SOL    HW2 3651   5.923   0.309   2.087
  918SOL     OW 3652   2.957   6.726   6.939
  918SOL    HW1 3653   2.975   6.683   6.851
  918SOL    HW2 3654   2.903   6.664   6.997
  919SOL     OW 3655   6.649   5.163   2.639
  919SOL    HW1 3656   6.617   5.258   2.636
  919SOL    HW2 3657   6.727   5.152   2.577
  920SOL     OW 3658   2.250   5.915   3.192
  920SOL    HW1 3659   2.294   5.948   3.109
  920SOL    HW2 3660   2.252   5.987   3.261
  921SOL     OW 3661   4.649   4.241   3.261
  921SOL    HW1 3662   4.736   4.223   3.215
  921SOL    HW2 3663   4.576   4.188   3.217
  922SOL     OW 3664   3.354   2.971   5.729
  922SOL    HW1 3665   3.435   2.929   5.768
  922SOL    HW2 3666   3.316   2.912   5.657
  923SOL     OW 3667   2.861   4.464   6.174
  923SOL    HW1 3668   2.881   4.553   6.215
  923SOL    HW2 3669   2.847   4.396   6.246
  924SOL     OW 3670   6.320   2.629   2.510
  924SOL    HW1 3671   6.248   2.657   2.448
  924SOL    HW2 3672   6.286   2.634   2.604
  925SOL     OW 3673   7.014   1.973   6.491
  925SOL    HW1 3674   6.927   1.991   6.537
  925SOL    HW2 3675   0.048   1.922   6.553
  926SOL     OW 3676   6.088   1.635   0.710
  926SOL    HW1 3677   6.110   1.719   0.760
  926SOL    HW2 3678   6.086   1.558   0.774
  927SOL     OW 3679   5.862   3.688   3.491
  927SOL    HW1 3680   5.910   3.622   3.434
  927SOL    HW2 3681   5.804   3.639   3.557
  928SOL     OW 3682   1.059   6.275   0.768
  928SOL    HW1 3683   1.044   6.285   0.669
  928SOL    HW2 3684   0.995   6.209   0.806
  929SOL     OW 3685   0.524   0.643   1.410
  929SOL    HW1 3686   0.591   0.702   1.366
  929SOL    HW2 3687   0.559   0.613   1.499
  930SOL     OW 3688   5.708   6.171   4.645
  930SOL    HW1 3689   5.635   6.135   4.586
  930SOL    HW2 3690   5.668   6.231   4.714
  931SOL     OW 3691   5.587   2.650   2.878
  931SOL    HW1 3692   5.686   2.661   2.872
  931SOL    HW2 3693   5.564   2.553   2.866
  932SOL     OW 3694   3.327   6.775   2.945
  932SOL    HW1 3695   3.366   6.696   2.993
  932SOL    HW2 3696   3.359   6.776   2.850
  933SOL     OW 3697   0.956   5.405   3.514
  933SOL    HW1 3698   0.934   5.307   3.507
  933SOL    HW2 3699   0.884   5.458   3.470
  934SOL     OW 3700   1.693   0.623   4.987
  934SOL    HW1 3701   1.715   0.649   5.081
  934SOL    HW2 3702   1.649   0.701   4.941
  935SOL     OW 3703   4.973   4.549   5.020
  935SOL    HW1 3704   4.965   4.471   5.082
  935SOL    HW2 3705   5.027   4.621   5.063
  936SOL     OW 3706   1.832   0.644   6.473
  936SOL    HW1 3707   1.779   0.592   6.407
  936SOL    HW2 3708   1.820   0.604   6.564
  937SOL     OW 3709   5.035   1.405   5.099
  937SOL    HW1 3710   5.018   1.426   5.195
  937SOL    HW2 3711   5.130   1.428   5.076
  938SOL     OW 3712   0.200   5.524   6.041
  938SOL    HW1 3713   0.107   5.561   6.040
  938SOL    HW2 3714   0.265   5.597   6.018
  939SOL     OW 3715   5.915   0.591   5.764
  939SOL    HW1 3716   5.856   0.649   5.819
  939SOL    HW2 3717   5.994   0.562   5.819
  940SOL     OW 3718   0.622   2.727   2.104
  940SOL    HW1 3719   0.535   2.678   2.111
  940SOL    HW2 3720   0.636   2.754   2.009
  941SOL     OW 3721   6.366   1.003   5.098
  941SOL    HW1 3722   6.373   0.906   5.076
  941SOL    HW2 3723   6.285   1.042   5.054
  942SOL     OW 3724   4.861   0.062   3.486
  942SOL    HW1 3725   4.789   7.018   3.478
  942SOL    HW2 3726   4.842   0.136   3.421
  943SOL     OW 3727   1.873   3.405   3.531
  943SOL    HW1 3728   1.887   3.358   3.618
  943SOL    HW2 3729   1.910   3.498   3.536
  944SOL     OW 3730   6.715   4.058   5.459
  944SOL    HW1 3731   6.785   4.026   5.523
  944SOL    HW2 3732   6.640   4.101   5.509
  945SOL     OW 3733   6.575   4.515   5.304
  945SOL    HW1 3734   6.649   4.499   5.238
  945SOL    HW2 3735   6.614   4.516   5.396
  946SOL     OW 3736   4.612   3.014   5.837
  946SOL    HW1 3737   4.679   3.031   5.909
  946SOL    HW2 3738   4.533   2.967   5.875
  947SOL     OW 3739   3.555   3.092   4.347
  947SOL    HW1 3740   3.650   3.062   4.353
  947SOL    HW2 3741   3.503   3.053   4.424
  948SOL     OW 3742   4.263   0.064   0.890
  948SOL    HW1 3743   4.298   0.126   0.960
  948SOL    HW2 3744   4.170   0.092   0.865
  949SOL     OW 3745   0.858   6.491   6.153
  949SOL    HW1 3746   0.777   6.540   6.187
  949SOL    HW2 3747   0.938   6.550   6.161
  950SOL     OW 3748   4.419   4.863   1.794
  950SOL    HW1 3749   4.324   4.842   1.816
  950SOL    HW2 3750   4.469   4.884   1.878
  951SOL     OW 3751   2.165   0.526   3.174
  951SOL    HW1 3752   2.169   0.618   3.214
  951SOL    HW2 3753   2.239   0.470   3.213
  952SOL     OW 3754   5.208   2.083   2.911
  952SOL    HW1 3755   5.217   2.136   2.827
  952SOL    HW2 3756   5.290   2.093   2.966
  953SOL     OW 3757   5.258   5.240   4.286
  953SOL    HW1 3758   5.277   5.145   4.259
  953SOL    HW2 3759   5.343   5.284   4.314
  954SOL     OW 3760   4.589   6.047   0.639
  954SOL    HW1 3761   4.554   6.028   0.731
  954SOL    HW2 3762   4.595   6.146   0.625
  955SOL     OW 3763   6.794   4.285   2.964
  955SOL    HW1 3764   6.695   4.282   2.977
  955SOL    HW2 3765   6.836   4.205   3.007
  956SOL     OW 3766   6.882   2.317   2.753
  956SOL    HW1 3767   6.819   2.317   2.830
  956SOL    HW2 3768   6.832   2.297   2.669
  957SOL     OW 3769   0.675   5.042   4.870
  957SOL    HW1 3770   0.714   4.951   4.861
  957SOL    HW2 3771   0.647   5.057   4.965
  958SOL     OW 3772   4.427   1.743   3.123
  958SOL    HW1 3773   4.378   1.666   3.082
  958SOL    HW2 3774   4.383   1.767   3.210
  959SOL     OW 3775   3.588   5.219   3.075
  959SOL    HW1 3776   3.560   5.235   2.980
  959SOL    HW2 3777   3.651   5.290   3.104
  960SOL     OW 3778   1.009   5.798   3.358
  960SOL    HW1 3779   0.956   5.758   3.283
  960SOL    HW2 3780   1.017   5.896   3.345
  961SOL     OW 3781   4.386   0.204   3.375
  961SOL    HW1 3782   4.324   0.283   3.377
  961SOL    HW2 3783   4.429   0.198   3.285
  962SOL     OW 3784   1.357   1.096   4.471
  962SOL    HW1 3785   1.430   1.109   4.405
  962SOL    HW2 3786   1.287   1.167   4.459
  963SOL     OW 3787   0.102   2.266   6.108
  963SOL    HW1 3788   0.041   2.309   6.042
  963SOL    HW2 3789   0.051   2.200   6.163
  964SOL     OW 3790   6.252   4.477   6.725
  964SOL    HW1 3791   6.346   4.465   6.755
  964SOL    HW2 3792   6.217   4.565   6.756
  965SOL     OW 3793   5.910   1.923   1.034
  965SOL    HW1 3794   5.917   2.013   1.076
  965SOL    HW2 3795   5.814   1.898   1.024
  966SOL     OW 3796   5.227   2.701   1.905
  966SOL    HW1 3797   5.129   2.696   1.923
  966SOL    HW2 3798   5.244   2.766   1.831
  967SOL     OW 3799   2.188   4.489   1.885
  967SOL    HW1 3800   2.252   4.445   1.948
  967SOL    HW2 3801   2.113   4.426   1.864
  968SOL     OW 3802   3.680   1.499   2.216
  968SOL    HW1 3803   3.756   1.555   2.184
  968SOL    HW2 3804   3.595   1.529   2.173
  969SOL     OW 3805   3.423   5.962   6.312
  969SOL    HW1 3806   3.474   5.908   6.378
  969SOL    HW2 3807   3.325   5.949   6.326
  970SOL     OW 3808   5.110   0.953   6.129
  970SOL    HW1 3809   5.141   0.862   6.100
  970SOL    HW2 3810   5.013   0.963   6.109
  971SOL     OW 3811   6.606   2.020   3.154
  971SOL    HW1 3812   6.517   1.995   3.114
  971SOL    HW2 3813   6.595   2.102   3.210
  972SOL     OW 3814   5.774   3.945   1.646
  972SOL    HW1 3815   5.817   3.857   1.665
  972SOL    HW2 3816   5.683   3.930   1.608
  973SOL     OW 3817   6.677   4.486   6.854
  973SOL    HW1 3818   6.739   4.523   6.922
  973SOL    HW2 3819   6.612   4.557   6.826
  974SOL     OW 3820   5.714   6.710   2.546
  974SOL    HW1 3821   5.676   6.799   2.569
  974SOL    HW2 3822   5.748   6.665   2.629
  975SOL     OW 3823   1.560   5.545   6.681
  975SOL    HW1 3824   1.516   5.634   6.677
  975SOL    HW2 3825   1.646   5.552   6.732
  976SOL     OW 3826   0.207   3.606   2.912
  976SOL    HW1 3827   0.293   3.584   2.960
  976SOL    HW2 3828   0.227   3.623   2.816
  977SOL     OW 3829   1.321   0.552   2.915
  977SOL    HW1 3830   1.261   0.630   2.899
  977SOL    HW2 3831   1.284   0.470   2.871
  978SOL     OW 3832   4.584   4.033   5.490
  978SOL    HW1 3833   4.595   4.036   5.391
  978SOL    HW2 3834   4.664   3.988   5.532
  979SOL     OW 3835   6.773   2.288   1.241
  979SOL    HW1 3836   6.701   2.357   1.254
  979SOL    HW2 3837   6.746   2.225   1.169
  980SOL     OW 3838   4.495   2.528   4.315
  980SOL    HW1 3839   4.430   2.454   4.298
  980SOL    HW2 3840   4.507   2.540   4.414
  981SOL     OW 3841   1.197   1.911   5.361
  981SOL    HW1 3842   1.098   1.895   5.363
  981SOL    HW2 3843   1.239   1.847   5.297
  982SOL     OW 3844   2.435   2.096   3.495
  982SOL    HW1 3845   2.342   2.059   3.483
  982SOL    HW2 3846   2.432   2.195   3.488
  983SOL     OW 3847   5.888   2.182   4.771
  983SOL    HW1 3848   5.964   2.237   4.736
  983SOL    HW2 3849   5.834   2.146   4.694
  984SOL     OW 3850   2.959   1.632   4.465
  984SOL    HW1 3851   2.877   1.671   4.423
  984SOL    HW2 3852   3.038   1.690   4.442
  985SOL     OW 3853   5.036   4.439   5.804
  985SOL    HW1 3854   4.982   4.523   5.801
  985SOL    HW2 3855   4.985   4.368   5.853
  986SOL     OW 3856   5.513   4.297   0.727
  986SOL    HW1 3857   5.458   4.220   0.696
  986SOL    HW2 3858   5.586   4.264   0.786
  987SOL     OW 3859   4.469   7.008   1.839
  987SOL    HW1 3860   4.408   6.992   1.762
  987SOL    HW2 3861   4.535   6.933   1.845
  988SOL     OW 3862   3.346   3.527   3.204
  988SOL    HW1 3863   3.416   3.456   3.217
  988SOL    HW2 3864   3.354   3.595   3.276
  989SOL     OW 3865   6.683   0.456   5.178
  989SOL    HW1 3866   6.705   0.457   5.081
  989SOL    HW2 3867   6.673   0.550   5.212
  990SOL     OW 3868   4.105   0.037   1.954
  990SOL    HW1 3869   4.068   0.040   2.047
  990SOL    HW2 3870   4.138   0.128   1.929
  991SOL     OW 3871   1.338   2.654   5.237
  991SOL    HW1 3872   1.308   2.558   5.234
  991SOL    HW2 3873   1.421   2.664   5.183
  992SOL     OW 3874   6.777   2.272   2.178
  992SOL    HW1 3875   6.693   2.311   2.214
  992SOL    HW2 3876   6.760   2.180   2.143
  993SOL     OW 3877   1.570   4.148   1.915
  993SOL    HW1 3878   1.508   4.069   1.915
  993SOL    HW2 3879   1.626   4.147   1.997
  994SOL     OW 3880   3.369   3.902   2.105
  994SOL    HW1 3881   3.318   3.976   2.062
  994SOL    HW2 3882   3.305   3.839   2.150
  995SOL     OW 3883   3.669   2.985   5.543
  995SOL    HW1 3884   3.637   2.920   5.612
  995SOL    HW2 3885   3.762   2.962   5.516
  996SOL     OW 3886   3.034   4.885   4.122
  996SOL    HW1 3887   2.975   4.848   4.193
  996SOL    HW2 3888   3.108   4.938   4.164
  997SOL     OW 3889   1.499   0.883   3.084
  997SOL    HW1 3890   1.454   0.918   3.002
  997SOL    HW2 3891   1.550   0.800   3.061
  998SOL     OW 3892   4.666   0.227   4.297
  998SOL    HW1 3893   4.745   0.210   4.237
  998SOL    HW2 3894   4.661   0.155   4.366
  999SOL     OW 3895   5.150   4.546   2.184
  999SOL    HW1 3896   5.137   4.545   2.283
  999SOL    HW2 3897   5.075   4.596   2.141
 1000SOL     OW 3898   2.180   1.012   2.377
 1000SOL    HW1 3899   2.095   0.960   2.370
 1000SOL    HW2 3900   2.162   1.099   2.423
 1001SOL     OW 3901   5.265   6.331   0.525
 1001SOL    HW1 3902   5.312   6.395   0.585
 1001SOL    HW2 3903   5.231   6.253   0.578
 1002SOL     OW 3904   6.146   1.666   0.407
 1002SOL    HW1 3905   6.073   1.702   0.465
 1002SOL    HW2 3906   6.234   1.681   0.451
 1003SOL     OW 3907   2.277   5.991   1.373
 1003SOL    HW1 3908   2.265   6.080   1.416
 1003SOL    HW2 3909   2.364   5.989   1.324
 1004SOL     OW 3910   0.299   0.508   2.026
 1004SOL    HW1 3911   0.309   0.573   1.950
 1004SOL    HW2 3912   0.381   0.513   2.084
 1005SOL     OW 3913   1.442   2.719   3.520
 1005SOL    HW1 3914   1.421   2.793   3.456
 1005SOL    HW2 3915   1.512   2.750   3.585
 1006SOL     OW 3916   1.536   4.687   1.026
 1006SOL    HW1 3917   1.564   4.627   1.100
 1006SOL    HW2 3918   1.515   4.633   0.944
 1007SOL     OW 3919   4.931   0.350   5.325
 1007SOL    HW1 3920   4.912   0.265   5.276
 1007SOL    HW2 3921   5.029   0.355   5.345
 1008SOL     OW 3922   1.448   2.482   4.878
 1008SOL    HW1 3923   1.502   2.399   4.888
 1008SOL    HW2 3924   1.351   2.460   4.892
 1009SOL     OW 3925   6.841   5.890   4.860
 1009SOL    HW1 3926   6.885   5.977   4.840
 1009SOL    HW2 3927   6.776   5.868   4.787
 1010SOL     OW 3928   3.289   2.716   5.896
 1010SOL    HW1 3929   3.271   2.663   5.813
 1010SOL    HW2 3930   3.351   2.666   5.956
 1011SOL     OW 3931   2.064   4.944   2.320
 1011SOL    HW1 3932   2.023   4.931   2.230
 1011SOL    HW2 3933   2.113   4.861   2.347
 1012SOL     OW 3934   6.346   0.765   1.543
 1012SOL    HW1 3935   6.390   0.712   1.616
 1012SOL    HW2 3936   6.344   0.861   1.567
 1013SOL     OW 3937   0.761   1.152   5.721
 1013SOL    HW1 3938   0.814   1.083   5.772
 1013SOL    HW2 3939   0.704   1.106   5.653
 1014SOL     OW 3940   5.162   5.691   6.838
 1014SOL    HW1 3941   5.108   5.768   6.873
 1014SOL    HW2 3942   5.159   5.690   6.738
 1015SOL     OW 3943   2.449   6.676   5.642
 1015SOL    HW1 3944   2.398   6.757   5.613
 1015SOL    HW2 3945   2.429   6.655   5.737
 1016SOL     OW 3946   3.828   3.716   6.756
 1016SOL    HW1 3947   3.764   3.642   6.738
 1016SOL    HW2 3948   3.859   3.756   6.669
 1017SOL     OW 3949   3.946   2.400   1.514
 1017SOL    HW1 3950   4.032   2.356   1.538
 1017SOL    HW2 3951   3.869   2.344   1.544
 1018SOL     OW 3952   0.793   3.517   4.206
 1018SOL    HW1 3953   0.798   3.611   4.170
 1018SOL    HW2 3954   0.816   3.452   4.133
 1019SOL     OW 3955   6.855   0.140   1.552
 1019SOL    HW1 3956   6.758   0.139   1.576
 1019SOL    HW2 3957   6.907   0.093   1.623
 1020SOL     OW 3958   1.084   6.926   1.231
 1020SOL    HW1 3959   0.993   6.884   1.228
 1020SOL    HW2 3960   1.084   7.009   1.175
 1021SOL     OW 3961   5.025   6.917   1.412
 1021SOL    HW1 3962   5.116   6.952   1.432
 1021SOL    HW2 3963   4.981   6.975   1.344
 1022SOL     OW 3964   3.859   5.078   5.811
 1022SOL    HW1 3965   3.855   5.042   5.905
 1022SOL    HW2 3966   3.903   5.167   5.811
 1023SOL     OW 3967   0.844   6.704   2.922
 1023SOL    HW1 3968   0.883   6.736   3.008
 1023SOL    HW2 3969   0.873   6.765   2.847
 1024SOL     OW 3970   0.117   2.692   4.224
 1024SOL    HW1 3971   0.149   2.762   4.161
 1024SOL    HW2 3972   0.187   2.675   4.294
 1025SOL     OW 3973   2.594   2.854   0.647
 1025SOL    HW1 3974   2.584   2.821   0.553
 1025SOL    HW2 3975   2.672   2.809   0.690
 1026SOL     OW 3976   2.560   2.587   1.376
 1026SOL    HW1 3977   2.569   2.684   1.399
 1026SOL    HW2 3978   2.547   2.578   1.277
 1027SOL     OW 3979   3.052   6.648   1.365
 1027SOL    HW1 3980   3.063   6.591   1.284
 1027SOL    HW2 3981   3.061   6.744   1.340
 1028SOL     OW 3982   3.039   6.217   0.629
 1028SOL    HW1 3983   3.080   6.256   0.546
 1028SOL    HW2 3984   2.963   6.157   0.603
 1029SOL     OW 3985   1.757   0.166   0.296
 1029SOL    HW1 3986   1.805   0.249   0.324
 1029SOL    HW2 3987   1.676   0.155   0.354
 1030SOL     OW 3988   3.115   3.305   1.851
 1030SOL    HW1 3989   3.125   3.297   1.950
 1030SOL    HW2 3990   3.026   3.345   1.830
 1031SOL     OW 3991   4.828   5.108   0.877
 1031SOL    HW1 3992   4.841   5.047   0.799
 1031SOL    HW2 3993   4.759   5.177   0.853
 1032SOL     OW 3994   2.219   1.699   4.769
 1032SOL    HW1 3995   2.301   1.721   4.823
 1032SOL    HW2 3996   2.200   1.601   4.776
 1033SOL     OW 3997   1.690   6.337   0.750
 1033SOL    HW1 3998   1.688   6.291   0.839
 1033SOL    HW2 3999   1.693   6.436   0.763
 1034SOL     OW 4000   0.420   5.709   5.025
 1034SOL    HW1 4001   0.337   5.671   5.066
 1034SOL    HW2 4002   0.406   5.806   5.004
 1035SOL     OW 4003   0.892   0.936   4.827
 1035SOL    HW1 4004   0.902   1.034   4.841
 1035SOL    HW2 4005   0.926   0.912   4.735
 1036SOL     OW 4006   3.152   1.097   2.062
 1036SOL    HW1 4007   3.158   1.080   1.964
 1036SOL    HW2 4008   3.146   1.195   2.079
 1037SOL     OW 4009   1.387   0.670   1.840
 1037SOL    HW1 4010   1.413   0.717   1.924
 1037SOL    HW2 4011   1.450   0.595   1.823
 1038SOL     OW 4012   1.404   0.073   5.686
 1038SOL    HW1 4013   1.338   0.123   5.741
 1038SOL    HW2 4014   1.478   0.041   5.744
 1039SOL     OW 4015   3.359   3.254   5.902
 1039SOL    HW1 4016   3.271   3.269   5.947
 1039SOL    HW2 4017   3.395   3.165   5.930
 1040SOL     OW 4018   4.812   3.013   2.876
 1040SOL    HW1 4019   4.903   2.985   2.907
 1040SOL    HW2 4020   4.819   3.062   2.790
 1041SOL     OW 4021   6.606   6.853   4.260
 1041SOL    HW1 4022   6.690   6.805   4.236
 1041SOL    HW2 4023   6.530   6.819   4.205
 1042SOL     OW 4024   4.296   4.916   2.208
 1042SOL    HW1 4025   4.296   4.882   2.302
 1042SOL    HW2 4026   4.339   5.007   2.206
 1043SOL     OW 4027   3.740   1.435   4.937
 1043SOL    HW1 4028   3.772   1.509   4.996
 1043SOL    HW2 4029   3.706   1.360   4.993
 1044SOL     OW 4030   4.950   4.300   2.264
 1044SOL    HW1 4031   4.852   4.319   2.265
 1044SOL    HW2 4032   4.998   4.375   2.218
 1045SOL     OW 4033   4.170   6.515   2.194
 1045SOL    HW1 4034   4.248   6.499   2.254
 1045SOL    HW2 4035   4.184   6.469   2.106
 1046SOL     OW 4036   1.034   0.540   0.448
 1046SOL    HW1 4037   1.032   0.502   0.355
 1046SOL    HW2 4038   0.950   0.591   0.464
 1047SOL     OW 4039   1.935   0.748   3.153
 1047SOL    HW1 4040   1.848   0.792   3.131
 1047SOL    HW2 4041   2.005   0.781   3.090
 1048SOL     OW 4042   5.907   6.322   4.497
 1048SOL    HW1 4043   5.824   6.268   4.513
 1048SOL    HW2 4044   5.883   6.410   4.456
 1049SOL     OW 4045   6.489   5.642   4.373
 1049SOL    HW1 4046   6.430   5.697   4.313
 1049SOL    HW2 4047   6.578   5.687   4.382
 1050SOL     OW 4048   4.498   5.238   1.061
 1050SOL    HW1 4049   4.508   5.224   0.962
 1050SOL    HW2 4050   4.421   5.299   1.078
 1051SOL     OW 4051   2.436   6.001   1.112
 1051SOL    HW1 4052   2.361   5.966   1.056
 1051SOL    HW2 4053   2.459   6.094   1.082
 1052SOL     OW 4054   3.859   0.623   4.588
 1052SOL    HW1 4055   3.813   0.603   4.674
 1052SOL    HW2 4056   3.924   0.550   4.566
 1053SOL     OW 4057   5.948   4.771   2.950
 1053SOL    HW1 4058   5.989   4.817   2.871
 1053SOL    HW2 4059   5.972   4.674   2.948
 1054SOL     OW 4060   2.602   4.196   5.976
 1054SOL    HW1 4061   2.562   4.107   6.001
 1054SOL    HW2 4062   2.642   4.190   5.885
 1055SOL     OW 4063   5.121   6.600   4.313
 1055SOL    HW1 4064   5.076   6.676   4.266
 1055SOL    HW2 4065   5.213   6.587   4.275
 1056SOL     OW 4066   2.091   4.773   5.742
 1056SOL    HW1 4067   2.040   4.824   5.673
 1056SOL    HW2 4068   2.133   4.693   5.699
 1057SOL     OW 4069   3.162   2.996   2.500
 1057SOL    HW1 4070   3.243   2.941   2.522
 1057SOL    HW2 4071   3.117   2.959   2.419
 1058SOL     OW 4072   4.510   1.648   3.531
 1058SOL    HW1 4073   4.482   1.633   3.626
 1058SOL    HW2 4074   4.547   1.563   3.494
 1059SOL     OW 4075   2.172   6.980   1.183
 1059SOL    HW1 4076   2.225   6.968   1.267
 1059SOL    HW2 4077   2.231   7.017   1.112
 1060SOL     OW 4078   6.936   4.404   4.298
 1060SOL    HW1 4079   6.992   4.327   4.267
 1060SOL    HW2 4080   6.840   4.386   4.277
 1061SOL     OW 4081   5.566   3.907   1.500
 1061SOL    HW1 4082   5.647   3.889   1.444
 1061SOL    HW2 4083   5.493   3.843   1.474
 1062SOL     OW 4084   5.956   3.810   6.467
 1062SOL    HW1 4085   5.925   3.905   6.474
 1062SOL    HW2 4086   6.053   3.806   6.491
 1063SOL     OW 4087   1.888   4.651   1.732
 1063SOL    HW1 4088   1.824   4.706   1.677
 1063SOL    HW2 4089   1.947   4.712   1.785
 1064SOL     OW 4090   1.825   3.835   1.770
 1064SOL    HW1 4091   1.888   3.765   1.804
 1064SOL    HW2 4092   1.864   3.926   1.787
 1065SOL     OW 4093   3.995   6.932   4.010
 1065SOL    HW1 4094   4.019   0.002   3.991
 1065SOL    HW2 4095   4.077   6.875   4.005
 1066SOL     OW 4096   4.606   0.489   3.802
 1066SOL    HW1 4097   4.618   0.580   3.842
 1066SOL    HW2 4098   4.604   0.420   3.874
 1067SOL     OW 4099   0.653   3.282   0.981
 1067SOL    HW1 4100   0.627   3.220   1.056
 1067SOL    HW2 4101   0.702   3.231   0.911
 1068SOL     OW 4102   5.385   4.800   2.711
 1068SOL    HW1 4103   5.484   4.807   2.700
 1068SOL    HW2 4104   5.355   4.709   2.683
 1069SOL     OW 4105   4.868   4.747   0.926
 1069SOL    HW1 4106   4.839   4.789   1.012
 1069SOL    HW2 4107   4.930   4.671   0.945
 1070SOL     OW 4108   0.030   0.209   2.369
 1070SOL    HW1 4109   0.016   0.144   2.443
 1070SOL    HW2 4110   0.043   0.301   2.407
 1071SOL     OW 4111   1.739   0.221   3.345
 1071SOL    HW1 4112   1.822   0.265   3.379
 1071SOL    HW2 4113   1.719   0.256   3.253
 1072SOL     OW 4114   1.743   0.592   0.954
 1072SOL    HW1 4115   1.738   0.603   0.855
 1072SOL    HW2 4116   1.839   0.581   0.982
 1073SOL     OW 4117   4.570   6.762   1.678
 1073SOL    HW1 4118   4.655   6.808   1.653
 1073SOL    HW2 4119   4.519   6.739   1.595
 1074SOL     OW 4120   2.662   5.160   0.636
 1074SOL    HW1 4121   2.732   5.231   0.640
 1074SOL    HW2 4122   2.593   5.185   0.569
 1075SOL     OW 4123   4.646   6.723   4.161
 1075SOL    HW1 4124   4.642   6.772   4.074
 1075SOL    HW2 4125   4.571   6.657   4.165
 1076SOL     OW 4126   6.654   3.382   5.648
 1076SOL    HW1 4127   6.703   3.341   5.725
 1076SOL    HW2 4128   6.584   3.320   5.615
 1077SOL     OW 4129   5.523   0.298   1.056
 1077SOL    HW1 4130   5.532   0.283   0.958
 1077SOL    HW2 4131   5.537   0.395   1.076
 1078SOL     OW 4132   1.003   1.665   2.178
 1078SOL    HW1 4133   1.015   1.730   2.103
 1078SOL    HW2 4134   0.945   1.590   2.148
 1079SOL     OW 4135   1.960   6.296   2.070
 1079SOL    HW1 4136   2.046   6.287   2.120
 1079SOL    HW2 4137   1.930   6.205   2.040
 1080SOL     OW 4138   1.432   4.609   3.736
 1080SOL    HW1 4139   1.498   4.672   3.778
 1080SOL    HW2 4140   1.424   4.527   3.792
 1081SOL     OW 4141   0.264   6.241   6.260
 1081SOL    HW1 4142   0.275   6.317   6.196
 1081SOL    HW2 4143   0.224   6.163   6.212
 1082SOL     OW 4144   3.739   2.073   5.614
 1082SOL    HW1 4145   3.816   2.010   5.627
 1082SOL    HW2 4146   3.676   2.035   5.546
 1083SOL     OW 4147   4.264   3.895   0.489
 1083SOL    HW1 4148   4.311   3.916   0.404
 1083SOL    HW2 4149   4.255   3.978   0.544
 1084SOL     OW 4150   6.230   5.661   0.180
 1084SOL    HW1 4151   6.275   5.709   0.104
 1084SOL    HW2 4152   6.271   5.571   0.192
 1085SOL     OW 4153   1.299   3.712   3.979
 1085SOL    HW1 4154   1.362   3.789   3.974
 1085SOL    HW2 4155   1.316   3.661   4.064
 1086SOL     OW 4156   6.469   6.479   1.406
 1086SOL    HW1 4157   6.389   6.536   1.388
 1086SOL    HW2 4158   6.522   6.518   1.481
 1087SOL     OW 4159   5.835   2.726   5.344
 1087SOL    HW1 4160   5.890   2.649   5.377
 1087SOL    HW2 4161   5.859   2.809   5.394
 1088SOL     OW 4162   6.526   4.455   3.313
 1088SOL    HW1 4163   6.519   4.492   3.405
 1088SOL    HW2 4164   6.449   4.486   3.258
 1089SOL     OW 4165   1.529   6.340   4.491
 1089SOL    HW1 4166   1.604   6.281   4.462
 1089SOL    HW2 4167   1.510   6.407   4.419
 1090SOL     OW 4168   2.121   1.645   3.384
 1090SOL    HW1 4169   2.077   1.566   3.341
 1090SOL    HW2 4170   2.051   1.709   3.416
 1091SOL     OW 4171   2.373   2.734   5.690
 1091SOL    HW1 4172   2.311   2.742   5.612
 1091SOL    HW2 4173   2.322   2.702   5.769
 1092SOL     OW 4174   1.832   4.074   1.045
 1092SOL    HW1 4175   1.805   3.978   1.052
 1092SOL    HW2 4176   1.871   4.091   0.955
 1093SOL     OW 4177   1.296   1.802   2.105
 1093SOL    HW1 4178   1.383   1.822   2.060
 1093SOL    HW2 4179   1.306   1.722   2.163
 1094SOL     OW 4180   1.115   6.346   3.762
 1094SOL    HW1 4181   1.057   6.417   3.723
 1094SOL    HW2 4182   1.170   6.304   3.689
 1095SOL     OW 4183   0.585   2.959   6.519
 1095SOL    HW1 4184   0.504   2.982   6.574
 1095SOL    HW2 4185   0.651   2.911   6.575
 1096SOL     OW 4186   3.348   4.349   1.616
 1096SOL    HW1 4187   3.385   4.256   1.606
 1096SOL    HW2 4188   3.414   4.415   1.579
 1097SOL     OW 4189   2.200   4.211   4.249
 1097SOL    HW1 4190   2.188   4.141   4.320
 1097SOL    HW2 4191   2.112   4.254   4.230
 1098SOL     OW 4192   4.806   3.632   0.757
 1098SOL    HW1 4193   4.781   3.712   0.812
 1098SOL    HW2 4194   4.836   3.558   0.817
 1099SOL     OW 4195   4.144   1.753   5.188
 1099SOL    HW1 4196   4.116   1.829   5.246
 1099SOL    HW2 4197   4.111   1.667   5.227
 1100SOL     OW 4198   3.382   1.970   6.085
 1100SOL    HW1 4199   3.412   2.011   6.171
 1100SOL    HW2 4200   3.447   1.900   6.057
 1101SOL     OW 4201   6.157   1.823   0.194
 1101SOL    HW1 4202   6.086   1.891   0.211
 1101SOL    HW2 4203   6.169   1.766   0.275
 1102SOL     OW 4204   0.996   5.676   4.321
 1102SOL    HW1 4205   0.913   5.630   4.354
 1102SOL    HW2 4206   1.055   5.610   4.275
 1103SOL     OW 4207   3.619   2.189   0.740
 1103SOL    HW1 4208   3.572   2.277   0.738
 1103SOL    HW2 4209   3.587   2.132   0.665
 1104SOL     OW 4210   2.242   3.504   5.290
 1104SOL    HW1 4211   2.298   3.586   5.305
 1104SOL    HW2 4212   2.302   3.425   5.281
 1105SOL     OW 4213   6.210   4.118   5.166
 1105SOL    HW1 4214   6.188   4.212   5.142
 1105SOL    HW2 4215   6.302   4.096   5.135
 1106SOL     OW 4216   1.089   1.933   1.655
 1106SOL    HW1 4217   1.055   2.026   1.669
 1106SOL    HW2 4218   1.165   1.915   1.717
 1107SOL     OW 4219   2.255   0.360   6.537
 1107SOL    HW1 4220   2.229   0.451   6.570
 1107SOL    HW2 4221   2.225   0.349   6.442
 1108SOL     OW 4222   3.413   0.766   5.537
 1108SOL    HW1 4223   3.493   0.827   5.532
 1108SOL    HW2 4224   3.358   0.790   5.617
 1109SOL     OW 4225   4.652   7.011   4.402
 1109SOL    HW1 4226   4.609   6.932   4.359
 1109SOL    HW2 4227   4.583   0.037   4.453
 1110SOL     OW 4228   2.583   2.122   3.165
 1110SOL    HW1 4229   2.580   2.050   3.235
 1110SOL    HW2 4230   2.658   2.104   3.102
 1111SOL     OW 4231   5.206   5.299   6.149
 1111SOL    HW1 4232   5.179   5.348   6.066
 1111SOL    HW2 4233   5.303   5.279   6.146
 1112SOL     OW 4234   5.084   1.393   2.299
 1112SOL    HW1 4235   5.061   1.381   2.203
 1112SOL    HW2 4236   5.144   1.319   2.329
 1113SOL     OW 4237   7.018   3.650   2.426
 1113SOL    HW1 4238   0.067   3.603   2.378
 1113SOL    HW2 4239   6.971   3.586   2.486
 1114SOL     OW 4240   4.021   2.045   6.456
 1114SOL    HW1 4241   4.120   2.058   6.452
 1114SOL    HW2 4242   3.975   2.133   6.439
 1115SOL     OW 4243   4.070   3.461   0.406
 1115SOL    HW1 4244   4.082   3.560   0.396
 1115SOL    HW2 4245   4.118   3.429   0.488
 1116SOL     OW 4246   5.393   6.345   5.081
 1116SOL    HW1 4247   5.478   6.385   5.116
 1116SOL    HW2 4248   5.351   6.408   5.015
 1117SOL     OW 4249   1.145   2.454   1.822
 1117SOL    HW1 4250   1.061   2.401   1.807
 1117SOL    HW2 4251   1.201   2.449   1.740
 1118SOL     OW 4252   2.688   4.422   1.410
 1118SOL    HW1 4253   2.687   4.514   1.372
 1118SOL    HW2 4254   2.635   4.420   1.495
 1119SOL     OW 4255   4.232   4.272   0.417
 1119SOL    HW1 4256   4.134   4.287   0.403
 1119SOL    HW2 4257   4.274   4.245   0.330
 1120SOL     OW 4258   6.173   0.160   4.755
 1120SOL    HW1 4259   6.155   0.198   4.664
 1120SOL    HW2 4260   6.144   0.226   4.824
 1121SOL     OW 4261   4.933   5.103   2.798
 1121SOL    HW1 4262   4.959   5.039   2.725
 1121SOL    HW2 4263   4.876   5.056   2.865
 1122SOL     OW 4264   4.973   3.654   6.883
 1122SOL    HW1 4265   4.968   3.724   6.812
 1122SOL    HW2 4266   4.948   3.565   6.843
 1123SOL     OW 4267   5.161   1.210   3.467
 1123SOL    HW1 4268   5.184   1.189   3.372
 1123SOL    HW2 4269   5.066   1.182   3.484
 1124SOL     OW 4270   6.432   3.761   5.223
 1124SOL    HW1 4271   6.349   3.749   5.279
 1124SOL    HW2 4272   6.504   3.700   5.257
 1125SOL     OW 4273   3.125   1.299   5.131
 1125SOL    HW1 4274   3.216   1.311   5.091
 1125SOL    HW2 4275   3.056   1.338   5.070
 1126SOL     OW 4276   5.779   5.373   6.693
 1126SOL    HW1 4277   5.730   5.320   6.762
 1126SOL    HW2 4278   5.828   5.311   6.632
 1127SOL     OW 4279   4.667   4.890   4.229
 1127SOL    HW1 4280   4.731   4.856   4.298
 1127SOL    HW2 4281   4.608   4.960   4.270
 1128SOL     OW 4282   5.709   2.127   5.751
 1128SOL    HW1 4283   5.726   2.044   5.697
 1128SOL    HW2 4284   5.611   2.140   5.762
 1129SOL     OW 4285   3.471   0.499   6.959
 1129SOL    HW1 4286   3.439   0.511   6.865
 1129SOL    HW2 4287   3.471   0.401   6.981
 1130SOL     OW 4288   2.064   4.831   0.485
 1130SOL    HW1 4289   2.109   4.812   0.572
 1130SOL    HW2 4290   2.081   4.927   0.459
 1131SOL     OW 4291   0.155   6.587   6.307
 1131SOL    HW1 4292   0.072   6.535   6.289
 1131SOL    HW2 4293   0.194   6.560   6.395
 1132SOL     OW 4294   5.169   0.184   1.319
 1132SOL    HW1 4295   5.133   0.171   1.227
 1132SOL    HW2 4296   5.233   0.111   1.340
 1133SOL     OW 4297   0.990   0.477   1.132
 1133SOL    HW1 4298   0.907   0.504   1.181
 1133SOL    HW2 4299   0.967   0.409   1.062
 1134SOL     OW 4300   4.910   1.408   1.561
 1134SOL    HW1 4301   4.819   1.412   1.520
 1134SOL    HW2 4302   4.980   1.418   1.490
 1135SOL     OW 4303   2.072   1.255   2.755
 1135SOL    HW1 4304   2.000   1.323   2.769
 1135SOL    HW2 4305   2.037   1.164   2.777
 1136SOL     OW 4306   3.051   4.966   4.720
 1136SOL    HW1 4307   2.981   4.902   4.750
 1136SOL    HW2 4308   3.055   5.043   4.783
 1137SOL     OW 4309   1.348   1.353   5.878
 1137SOL    HW1 4310   1.391   1.424   5.823
 1137SOL    HW2 4311   1.411   1.321   5.948
 1138SOL     OW 4312   0.668   1.356   6.791
 1138SOL    HW1 4313   0.655   1.266   6.831
 1138SOL    HW2 4314   0.766   1.372   6.775
 1139SOL     OW 4315   3.441   5.479   1.549
 1139SOL    HW1 4316   3.495   5.550   1.595
 1139SOL    HW2 4317   3.344   5.503   1.554
 1140SOL     OW 4318   4.150   1.010   1.956
 1140SOL    HW1 4319   4.068   1.065   1.940
 1140SOL    HW2 4320   4.197   1.045   2.037
 1141SOL     OW 4321   0.472   6.838   6.277
 1141SOL    HW1 4322   0.467   6.766   6.345
 1141SOL    HW2 4323   0.556   6.891   6.290
 1142SOL     OW 4324   2.782   7.017   4.651
 1142SOL    HW1 4325   2.795   6.951   4.725
 1142SOL    HW2 4326   2.832   6.987   4.570
 1143SOL     OW 4327   1.777   3.564   2.527
 1143SOL    HW1 4328   1.720   3.517   2.595
 1143SOL    HW2 4329   1.752   3.532   2.436
 1144SOL     OW 4330   6.678   4.895   5.334
 1144SOL    HW1 4331   6.762   4.866   5.287
 1144SOL    HW2 4332   6.661   4.992   5.312
 1145SOL     OW 4333   0.081   4.156   2.294
 1145SOL    HW1 4334   0.075   4.088   2.221
 1145SOL    HW2 4335   0.157   4.218   2.276
 1146SOL     OW 4336   6.180   0.669   1.978
 1146SOL    HW1 4337   6.122   0.664   1.896
 1146SOL    HW2 4338   6.219   0.761   1.985
 1147SOL     OW 4339   1.791   5.465   1.299
 1147SOL    HW1 4340   1.705   5.414   1.298
 1147SOL    HW2 4341   1.829   5.464   1.391
 1148SOL     OW 4342   5.090   0.064   0.131
 1148SOL    HW1 4343   5.089   0.095   0.036
 1148SOL    HW2 4344   5.168   0.103   0.179
 1149SOL     OW 4345   6.332   4.177   2.426
 1149SOL    HW1 4346   6.356   4.219   2.338
 1149SOL    HW2 4347   6.367   4.084   2.429
 1150SOL     OW 4348   2.705   4.123   0.458
 1150SOL    HW1 4349   2.655   4.069   0.390
 1150SOL    HW2 4350   2.803   4.119   0.438
 1151SOL     OW 4351   4.039   5.089   6.761
 1151SOL    HW1 4352   4.080   4.999   6.777
 1151SOL    HW2 4353   4.104   5.160   6.788
 1152SOL     OW 4354   6.684   5.262   5.968
 1152SOL    HW1 4355   6.662   5.180   5.915
 1152SOL    HW2 4356   6.629   5.339   5.935
 1153SOL     OW 4357   2.298   0.008   2.161
 1153SOL    HW1 4358   2.244   6.975   2.101
 1153SOL    HW2 4359   2.387   0.026   2.120
 1154SOL     OW 4360   0.941   4.222   1.593
 1154SOL    HW1 4361   1.008   4.275   1.541
 1154SOL    HW2 4362   0.927   4.133   1.549
 1155SOL     OW 4363   1.938   5.346   6.718
 1155SOL    HW1 4364   1.898   5.256   6.700
 1155SOL    HW2 4365   1.994   5.374   6.640
 1156SOL     OW 4366   2.853   1.272   4.697
 1156SOL    HW1 4367   2.832   1.179   4.667
 1156SOL    HW2 4368   2.936   1.304   4.651
 1157SOL     OW 4369   5.892   0.695   5.173
 1157SOL    HW1 4370   5.883   0.704   5.272
 1157SOL    HW2 4371   5.855   0.777   5.129
 1158SOL     OW 4372   0.094   6.149   5.225
 1158SOL    HW1 4373   0.057   6.224   5.279
 1158SOL    HW2 4374   0.019   6.095   5.186
 1159SOL     OW 4375   5.976   6.754   4.254
 1159SOL    HW1 4376   6.055   6.791   4.303
 1159SOL    HW2 4377   5.908   6.826   4.241
 1160SOL     OW 4378   3.736   3.557   1.221
 1160SOL    HW1 4379   3.658   3.564   1.282
 1160SOL    HW2 4380   3.746   3.642   1.169
 1161SOL     OW 4381   6.116   0.503   6.767
 1161SOL    HW1 4382   6.177   0.570   6.725
 1161SOL    HW2 4383   6.138   0.411   6.734
 1162SOL     OW 4384   2.478   2.092   6.114
 1162SOL    HW1 4385   2.504   2.175   6.163
 1162SOL    HW2 4386   2.532   2.015   6.147
 1163SOL     OW 4387   6.690   3.270   1.264
 1163SOL    HW1 4388   6.637   3.353   1.248
 1163SOL    HW2 4389   6.628   3.192   1.272
 1164SOL     OW 4390   5.443   2.795   5.055
 1164SOL    HW1 4391   5.485   2.773   5.144
 1164SOL    HW2 4392   5.444   2.714   4.997
 1165SOL     OW 4393   2.756   4.685   3.947
 1165SOL    HW1 4394   2.818   4.690   4.026
 1165SOL    HW2 4395   2.800   4.727   3.868
 1166SOL     OW 4396   3.735   6.790   6.973
 1166SOL    HW1 4397   3.736   6.859   0.021
 1166SOL    HW2 4398   3.772   6.704   7.009
 1167SOL     OW 4399   4.256   6.522   6.586
 1167SOL    HW1 4400   4.352   6.505   6.611
 1167SOL    HW2 4401   4.204   6.437   6.594
 1168SOL     OW 4402   5.702   1.628   4.012
 1168SOL    HW1 4403   5.754   1.638   3.927
 1168SOL    HW2 4404   5.684   1.718   4.051
 1169SOL     OW 4405   5.414   2.325   6.063
 1169SOL    HW1 4406   5.440   2.401   6.004
 1169SOL    HW2 4407   5.428   2.239   6.015
 1170SOL     OW 4408   5.252   1.274   2.887
 1170SOL    HW1 4409   5.284   1.314   2.974
 1170SOL    HW2 4410   5.157   1.245   2.896
 1171SOL     OW 4411   2.937   6.116   0.204
 1171SOL    HW1 4412   2.853   6.145   0.249
 1171SOL    HW2 4413   2.961   6.023   0.234
 1172SOL     OW 4414   3.527   3.912   1.872
 1172SOL    HW1 4415   3.470   3.914   1.955
 1172SOL    HW2 4416   3.500   3.835   1.815
 1173SOL     OW 4417   3.718   0.472   6.377
 1173SOL    HW1 4418   3.678   0.381   6.378
 1173SOL    HW2 4419   3.733   0.503   6.471
 1174SOL     OW 4420   3.231   3.957   0.090
 1174SOL    HW1 4421   3.272   3.881   0.039
 1174SOL    HW2 4422   3.132   3.959   0.073
 1175SOL     OW 4423   4.043   3.239   6.501
 1175SOL    HW1 4424   4.076   3.330   6.474
 1175SOL    HW2 4425   4.114   3.190   6.550
 1176SOL     OW 4426   5.831   4.710   0.241
 1176SOL    HW1 4427   5.764   4.782   0.255
 1176SOL    HW2 4428   5.923   4.746   0.259
 1177SOL     OW 4429   6.699   1.825   6.182
 1177SOL    HW1 4430   6.685   1.883   6.103
 1177SOL    HW2 4431   6.749   1.742   6.155
 1178SOL     OW 4432   3.285   3.370   1.406
 1178SOL    HW1 4433   3.259   3.291   1.461
 1178SOL    HW2 4434   3.236   3.369   1.320
 1179SOL     OW 4435   2.977   6.574   0.827
 1179SOL    HW1 4436   3.064   6.584   0.778
 1179SOL    HW2 4437   2.969   6.481   0.862
 1180SOL     OW 4438   2.587   5.828   3.903
 1180SOL    HW1 4439   2.589   5.881   3.819
 1180SOL    HW2 4440   2.493   5.798   3.921
 1181SOL     OW 4441   6.976   3.109   5.240
 1181SOL    HW1 4442   6.978   3.009   5.247
 1181SOL    HW2 4443   6.882   3.141   5.247
 1182SOL     OW 4444   3.227   5.475   3.641
 1182SOL    HW1 4445   3.129   5.470   3.659
 1182SOL    HW2 4446   3.242   5.476   3.542
 1183SOL     OW 4447   3.747   6.080   1.751
 1183SOL    HW1 4448   3.734   6.024   1.833
 1183SOL    HW2 4449   3.670   6.066   1.689
 1184SOL     OW 4450   5.058   6.979   6.754
 1184SOL    HW1 4451   5.059   0.042   6.800
 1184SOL    HW2 4452   4.967   6.938   6.760
 1185SOL     OW 4453   0.720   0.883   0.999
 1185SOL    HW1 4454   0.781   0.806   1.016
 1185SOL    HW2 4455   0.672   0.869   0.913
 1186SOL     OW 4456   5.709   6.206   5.825
 1186SOL    HW1 4457   5.779   6.252   5.879
 1186SOL    HW2 4458   5.699   6.254   5.737
 1187SOL     OW 4459   5.848   6.813   5.126
 1187SOL    HW1 4460   5.842   6.852   5.034
 1187SOL    HW2 4461   5.777   6.854   5.184
 1188SOL     OW 4462   3.779   5.872   6.141
 1188SOL    HW1 4463   3.809   5.871   6.045
 1188SOL    HW2 4464   3.728   5.957   6.158
 1189SOL     OW 4465   6.408   0.534   2.092
 1189SOL    HW1 4466   6.326   0.577   2.055
 1189SOL    HW2 4467   6.429   0.574   2.181
 1190SOL     OW 4468   3.240   5.393   3.343
 1190SOL    HW1 4469   3.217   5.466   3.279
 1190SOL    HW2 4470   3.253   5.308   3.292
 1191SOL     OW 4471   3.041   6.186   4.268
 1191SOL    HW1 4472   3.061   6.089   4.253
 1191SOL    HW2 4473   3.088   6.218   4.350
 1192SOL     OW 4474   5.447   6.126   2.919
 1192SOL    HW1 4475   5.376   6.161   2.981
 1192SOL    HW2 4476   5.461   6.029   2.937
 1193SOL     OW 4477   0.432   0.781   5.480
 1193SOL    HW1 4478   0.380   0.709   5.433
 1193SOL    HW2 4479   0.529   0.759   5.477
 1194SOL     OW 4480   0.079   1.626   0.955
 1194SOL    HW1 4481   0.060   1.673   1.041
 1194SOL    HW2 4482   0.035   1.536   0.955
 1195SOL     OW 4483   6.423   3.653   1.068
 1195SOL    HW1 4484   6.328   3.665   1.094
 1195SOL    HW2 4485   6.441   3.700   0.981
 1196SOL     OW 4486   5.936   4.507   2.632
 1196SOL    HW1 4487   5.841   4.520   2.602
 1196SOL    HW2 4488   5.940   4.435   2.702
 1197SOL     OW 4489   4.809   6.560   4.422
 1197SOL    HW1 4490   4.711   6.549   4.436
 1197SOL    HW2 4491   4.846   6.478   4.378
 1198SOL     OW 4492   1.141   3.816   2.452
 1198SOL    HW1 4493   1.046   3.787   2.443
 1198SOL    HW2 4494   1.201   3.743   2.419
 1199SOL     OW 4495   3.652   3.539   2.674
 1199SOL    HW1 4496   3.718   3.570   2.742
 1199SOL    HW2 4497   3.669   3.444   2.652
 1200SOL     OW 4498   4.030   3.817   4.015
 1200SOL    HW1 4499   3.994   3.730   4.050
 1200SOL    HW2 4500   4.097   3.799   3.943
 1201SOL     OW 4501   0.167   1.102   4.497
 1201SOL    HW1 4502   0.161   1.087   4.596
 1201SOL    HW2 4503   0.197   1.196   4.479
 1202SOL     OW 4504   6.533   0.170   6.119
 1202SOL    HW1 4505   6.610   0.178   6.055
 1202SOL    HW2 4506   6.451   0.145   6.068
 1203SOL     OW 4507   0.241   6.669   1.190
 1203SOL    HW1 4508   0.264   6.581   1.148
 1203SOL    HW2 4509   0.145   6.670   1.216
 1204SOL     OW 4510   4.701   1.621   1.660
 1204SOL    HW1 4511   4.679   1.569   1.577
 1204SOL    HW2 4512   4.799   1.640   1.662
 1205SOL     OW 4513   3.716   3.407   0.119
 1205SOL    HW1 4514   3.652   3.339   0.082
 1205SOL    HW2 4515   3.809   3.383   0.091
 1206SOL     OW 4516   1.291   3.034   4.580
 1206SOL    HW1 4517   1.347   2.970   4.528
 1206SOL    HW2 4518   1.207   2.988   4.610
 1207SOL     OW 4519   0.499   0.707   0.465
 1207SOL    HW1 4520   0.578   0.646   0.472
 1207SOL    HW2 4521   0.480   0.727   0.369
 1208SOL     OW 4522   3.510   3.559   1.390
 1208SOL    HW1 4523   3.512   3.643   1.444
 1208SOL    HW2 4524   3.442   3.497   1.428
 1209SOL     OW 4525   5.583   0.541   4.217
 1209SOL    HW1 4526   5.615   0.539   4.123
 1209SOL    HW2 4527   5.659   0.522   4.279
 1210SOL     OW 4528   4.810   6.616   3.625
 1210SOL    HW1 4529   4.805   6.520   3.650
 1210SOL    HW2 4530   4.904   6.649   3.641
 1211SOL     OW 4531   0.909   3.149   3.117
 1211SOL    HW1 4532   0.845   3.225   3.126
 1211SOL    HW2 4533   0.922   3.105   3.206
 1212SOL     OW 4534   6.622   0.937   5.836
 1212SOL    HW1 4535   6.689   0.864   5.836
 1212SOL    HW2 4536   6.617   0.977   5.928
 1213SOL     OW 4537   5.462   1.952   2.796
 1213SOL    HW1 4538   5.409   1.985   2.718
 1213SOL    HW2 4539   5.558   1.980   2.785
 1214SOL     OW 4540   0.532   2.521   6.458
 1214SOL    HW1 4541   0.499   2.613   6.477
 1214SOL    HW2 4542   0.627   2.525   6.428
 1215SOL     OW 4543   1.942   5.167   2.786
 1215SOL    HW1 4544   2.038   5.191   2.770
 1215SOL    HW2 4545   1.883   5.224   2.728
 1216SOL     OW 4546   6.409   1.566   0.856
 1216SOL    HW1 4547   6.396   1.660   0.824
 1216SOL    HW2 4548   6.362   1.553   0.943
 1217SOL     OW 4549   2.787   4.606   0.524
 1217SOL    HW1 4550   2.748   4.570   0.440
 1217SOL    HW2 4551   2.736   4.688   0.552
 1218SOL     OW 4552   1.339   3.423   5.589
 1218SOL    HW1 4553   1.282   3.476   5.527
 1218SOL    HW2 4554   1.409   3.374   5.537
 1219SOL     OW 4555   5.152   5.511   1.259
 1219SOL    HW1 4556   5.209   5.482   1.336
 1219SOL    HW2 4557   5.202   5.496   1.174
 1220SOL     OW 4558   6.765   3.747   2.319
 1220SOL    HW1 4559   6.742   3.838   2.356
 1220SOL    HW2 4560   6.861   3.727   2.338
 1221SOL     OW 4561   5.706   3.505   6.296
 1221SOL    HW1 4562   5.619   3.528   6.338
 1221SOL    HW2 4563   5.699   3.416   6.250
 1222SOL     OW 4564   0.447   0.916   6.860
 1222SOL    HW1 4565   0.451   0.903   6.762
 1222SOL    HW2 4566   0.437   0.828   6.906
 1223SOL     OW 4567   3.573   1.542   0.192
 1223SOL    HW1 4568   3.593   1.582   0.282
 1223SOL    HW2 4569   3.508   1.467   0.204
 1224SOL     OW 4570   3.440   5.725   6.767
 1224SOL    HW1 4571   3.451   5.823   6.748
 1224SOL    HW2 4572   3.345   5.707   6.794
 1225SOL     OW 4573   3.961   2.889   0.053
 1225SOL    HW1 4574   3.968   2.824   7.003
 1225SOL    HW2 4575   4.041   2.879   0.113
 1226SOL     OW 4576   3.805   6.203   0.566
 1226SOL    HW1 4577   3.725   6.256   0.537
 1226SOL    HW2 4578   3.880   6.217   0.502
 1227SOL     OW 4579   5.174   5.631   5.700
 1227SOL    HW1 4580   5.211   5.633   5.794
 1227SOL    HW2 4581   5.159   5.536   5.673
 1228SOL     OW 4582   3.638   2.475   6.434
 1228SOL    HW1 4583   3.658   2.464   6.337
 1228SOL    HW2 4584   3.539   2.472   6.448
 1229SOL     OW 4585   1.294   5.169   0.138
 1229SOL    HW1 4586   1.369   5.121   0.093
 1229SOL    HW2 4587   1.207   5.127   0.112
 1230SOL     OW 4588   6.064   5.918   2.194
 1230SOL    HW1 4589   6.014   5.914   2.280
 1230SOL    HW2 4590   6.085   5.825   2.163
 1231SOL     OW 4591   1.769   1.766   5.614
 1231SOL    HW1 4592   1.808   1.800   5.528
 1231SOL    HW2 4593   1.753   1.843   5.676
 1232SOL     OW 4594   6.466   1.401   4.952
 1232SOL    HW1 4595   6.369   1.403   4.977
 1232SOL    HW2 4596   6.484   1.323   4.893
 1233SOL     OW 4597   0.786   5.554   4.450
 1233SOL    HW1 4598   0.722   5.514   4.515
 1233SOL    HW2 4599   0.759   5.529   4.357
 1234SOL     OW 4600   6.135   2.286   5.252
 1234SOL    HW1 4601   6.196   2.229   5.307
 1234SOL    HW2 4602   6.166   2.287   5.157
 1235SOL     OW 4603   5.956   4.730   1.672
 1235SOL    HW1 4604   5.909   4.810   1.709
 1235SOL    HW2 4605   5.889   4.661   1.647
 1236SOL     OW 4606   4.311   1.377   1.738
 1236SOL    HW1 4607   4.286   1.291   1.694
 1236SOL    HW2 4608   4.245   1.398   1.811
 1237SOL     OW 4609   1.175   4.825   5.144
 1237SOL    HW1 4610   1.253   4.880   5.112
 1237SOL    HW2 4611   1.203   4.772   5.224
 1238SOL     OW 4612   1.069   0.431   6.039
 1238SOL    HW1 4613   1.080   0.332   6.036
 1238SOL    HW2 4614   0.994   0.459   5.979
 1239SOL     OW 4615   0.283   0.080   6.233
 1239SOL    HW1 4616   0.244   0.003   6.184
 1239SOL    HW2 4617   0.383   0.071   6.236
 1240SOL     OW 4618   5.784   6.108   1.186
 1240SOL    HW1 4619   5.841   6.110   1.104
 1240SOL    HW2 4620   5.792   6.195   1.234
 1241SOL     OW 4621   6.060   4.727   5.595
 1241SOL    HW1 4622   6.075   4.807   5.537
 1241SOL    HW2 4623   6.005   4.660   5.545
 1242SOL     OW 4624   2.128   4.520   1.035
 1242SOL    HW1 4625   2.172   4.610   1.027
 1242SOL    HW2 4626   2.190   4.450   1.001
 1243SOL     OW 4627   0.951   0.823   5.075
 1243SOL    HW1 4628   0.858   0.822   5.111
 1243SOL    HW2 4629   0.948   0.835   4.976
 1244SOL     OW 4630   5.186   5.995   4.727
 1244SOL    HW1 4631   5.262   5.949   4.774
 1244SOL    HW2 4632   5.168   5.950   4.640
 1245SOL     OW 4633   5.350   3.953   6.776
 1245SOL    HW1 4634   5.352   3.853   6.781
 1245SOL    HW2 4635   5.423   3.990   6.834
 1246SOL     OW 4636   2.922   1.477   1.589
 1246SOL    HW1 4637   2.997   1.523   1.638
 1246SOL    HW2 4638   2.952   1.455   1.496
 1247SOL     OW 4639   6.847   6.793   6.325
 1247SOL    HW1 4640   6.912   6.824   6.394
 1247SOL    HW2 4641   6.795   6.871   6.290
 1248SOL     OW 4642   1.923   6.193   3.458
 1248SOL    HW1 4643   1.831   6.202   3.493
 1248SOL    HW2 4644   1.945   6.270   3.398
 1249SOL     OW 4645   6.927   2.485   2.272
 1249SOL    HW1 4646   6.879   2.400   2.251
 1249SOL    HW2 4647   6.899   2.556   2.208
 1250SOL     OW 4648   5.590   5.133   3.342
 1250SOL    HW1 4649   5.501   5.165   3.308
 1250SOL    HW2 4650   5.595   5.034   3.333
 1251SOL     OW 4651   1.900   0.779   2.712
 1251SOL    HW1 4652   1.949   0.695   2.685
 1251SOL    HW2 4653   1.874   0.772   2.809
 1252SOL     OW 4654   3.868   4.619   6.954
 1252SOL    HW1 4655   3.866   4.707   7.001
 1252SOL    HW2 4656   3.782   4.605   6.904
 1253SOL     OW 4657   3.913   6.430   2.659
 1253SOL    HW1 4658   3.885   6.507   2.602
 1253SOL    HW2 4659   3.879   6.345   2.618
 1254SOL     OW 4660   0.564   2.316   3.711
 1254SOL    HW1 4661   0.551   2.408   3.673
 1254SOL    HW2 4662   0.589   2.253   3.637
 1255SOL     OW 4663   5.888   1.273   6.134
 1255SOL    HW1 4664   5.792   1.244   6.132
 1255SOL    HW2 4665   5.892   1.369   6.163
 1256SOL     OW 4666   0.392   6.565   4.171
 1256SOL    HW1 4667   0.356   6.554   4.078
 1256SOL    HW2 4668   0.481   6.611   4.167
 1257SOL     OW 4669   0.182   5.551   4.896
 1257SOL    HW1 4670   0.120   5.488   4.849
 1257SOL    HW2 4671   0.128   5.624   4.939
 1258SOL     OW 4672   1.922   4.815   2.876
 1258SOL    HW1 4673   1.984   4.775   2.943
 1258SOL    HW2 4674   1.949   4.909   2.857
 1259SOL     OW 4675   4.132   7.011   4.885
 1259SOL    HW1 4676   4.138   0.007   4.787
 1259SOL    HW2 4677   4.062   0.042   4.928
 1260SOL     OW 4678   3.586   1.847   0.552
 1260SOL    HW1 4679   3.642   1.875   0.474
 1260SOL    HW2 4680   3.515   1.916   0.569
 1261SOL     OW 4681   6.802   5.632   6.594
 1261SOL    HW1 4682   6.723   5.694   6.590
 1261SOL    HW2 4683   6.816   5.601   6.688
 1262SOL     OW 4684   5.403   4.853   1.342
 1262SOL    HW1 4685   5.400   4.756   1.317
 1262SOL    HW2 4686   5.497   4.886   1.338
 1263SOL     OW 4687   6.769   2.083   1.462
 1263SOL    HW1 4688   6.802   2.137   1.385
 1263SOL    HW2 4689   6.687   2.125   1.499
 1264SOL     OW 4690   0.112   3.701   1.507
 1264SOL    HW1 4691   0.085   3.795   1.487
 1264SOL    HW2 4692   0.088   3.678   1.602
 1265SOL     OW 4693   5.495   5.603   3.193
 1265SOL    HW1 4694   5.465   5.520   3.146
 1265SOL    HW2 4695   5.415   5.656   3.221
 1266SOL     OW 4696   0.938   1.223   4.201
 1266SOL    HW1 4697   0.971   1.312   4.172
 1266SOL    HW2 4698   0.917   1.225   4.299
 1267SOL     OW 4699   5.350   6.307   1.155
 1267SOL    HW1 4700   5.299   6.281   1.237
 1267SOL    HW2 4701   5.290   6.356   1.092
 1268SOL     OW 4702   4.005   3.046   0.499
 1268SOL    HW1 4703   4.005   2.961   0.447
 1268SOL    HW2 4704   4.001   3.123   0.436
 1269SOL     OW 4705   5.353   6.162   5.754
 1269SOL    HW1 4706   5.379   6.081   5.807
 1269SOL    HW2 4707   5.391   6.155   5.661
 1270SOL     OW 4708   2.464   4.401   3.995
 1270SOL    HW1 4709   2.447   4.303   4.004
 1270SOL    HW2 4710   2.479   4.424   3.899
 1271SOL     OW 4711   2.854   2.282   4.147
 1271SOL    HW1 4712   2.773   2.291   4.088
 1271SOL    HW2 4713   2.827   2.284   4.243
 1272SOL     OW 4714   5.537   5.704   0.223
 1272SOL    HW1 4715   5.493   5.656   0.299
 1272SOL    HW2 4716   5.523   5.802   0.233
 1273SOL     OW 4717   0.541   4.490   6.983
 1273SOL    HW1 4718   0.556   4.436   6.900
 1273SOL    HW2 4719   0.607   4.565   6.986
 1274SOL     OW 4720   6.418   3.902   1.791
 1274SOL    HW1 4721   6.324   3.871   1.807
 1274SOL    HW2 4722   6.458   3.934   1.878
 1275SOL     OW 4723   3.344   1.688   4.742
 1275SOL    HW1 4724   3.302   1.597   4.745
 1275SOL    HW2 4725   3.443   1.678   4.732
 1276SOL     OW 4726   0.028   6.958   4.667
 1276SOL    HW1 4727   6.982   6.895   4.638
 1276SOL    HW2 4728   0.007   0.025   4.634
 1277SOL     OW 4729   0.921   6.239   6.112
 1277SOL    HW1 4730   0.903   6.338   6.112
 1277SOL    HW2 4731   0.916   6.205   6.205
 1278SOL     OW 4732   1.046   0.312   5.607
 1278SOL    HW1 4733   1.136   0.312   5.651
 1278SOL    HW2 4734   1.022   0.405   5.579
 1279SOL     OW 4735   3.082   6.596   0.415
 1279SOL    HW1 4736   3.150   6.531   0.449
 1279SOL    HW2 4737   2.991   6.569   0.445
 1280SOL     OW 4738   3.167   6.364   4.470
 1280SOL    HW1 4739   3.129   6.422   4.398
 1280SOL    HW2 4740   3.149   6.405   4.559
 1281SOL     OW 4741   1.356   6.597   3.567
 1281SOL    HW1 4742   1.372   6.540   3.486
 1281SOL    HW2 4743   1.443   6.609   3.616
 1282SOL     OW 4744   0.538   1.738   6.875
 1282SOL    HW1 4745   0.467   1.795   6.917
 1282SOL    HW2 4746   0.542   1.756   6.777
 1283SOL     OW 4747   6.640   3.137   5.022
 1283SOL    HW1 4748   6.668   3.157   5.116
 1283SOL    HW2 4749   6.541   3.121   5.019
 1284SOL     OW 4750   4.783   1.455   2.011
 1284SOL    HW1 4751   4.852   1.383   2.001
 1284SOL    HW2 4752   4.704   1.434   1.953
 1285SOL     OW 4753   4.928   2.213   6.249
 1285SOL    HW1 4754   4.833   2.236   6.268
 1285SOL    HW2 4755   4.973   2.289   6.203
 1286SOL     OW 4756   5.084   3.809   2.315
 1286SOL    HW1 4757   5.040   3.843   2.397
 1286SOL    HW2 4758   5.016   3.798   2.242
 1287SOL     OW 4759   5.165   5.463   5.345
 1287SOL    HW1 4760   5.109   5.542   5.318
 1287SOL    HW2 4761   5.146   5.386   5.284
 1288SOL     OW 4762   4.413   3.712   6.956
 1288SOL    HW1 4763   4.314   3.710   6.945
 1288SOL    HW2 4764   4.445   3.622   6.984
 1289SOL     OW 4765   0.796   6.221   2.066
 1289SOL    HW1 4766   0.829   6.148   2.006
 1289SOL    HW2 4767   0.721   6.269   2.021
 1290SOL     OW 4768   0.976   6.644   6.645
 1290SOL    HW1 4769   0.977   6.743   6.627
 1290SOL    HW2 4770   0.957   6.629   6.742
 1291SOL     OW 4771   6.960   3.913   5.511
 1291SOL    HW1 4772   6.952   3.832   5.454
 1291SOL    HW2 4773   6.965   3.886   5.607
 1292SOL     OW 4774   0.423   6.095   2.590
 1292SOL    HW1 4775   0.336   6.068   2.549
 1292SOL    HW2 4776   0.418   6.087   2.690
 1293SOL     OW 4777   1.582   1.775   0.363
 1293SOL    HW1 4778   1.513   1.845   0.341
 1293SOL    HW2 4779   1.618   1.736   0.278
 1294SOL     OW 4780   1.087   3.570   6.877
 1294SOL    HW1 4781   1.184   3.550   6.865
 1294SOL    HW2 4782   1.034   3.485   6.874
 1295SOL     OW 4783   0.247   3.660   2.650
 1295SOL    HW1 4784   0.313   3.601   2.604
 1295SOL    HW2 4785   0.208   3.725   2.585
 1296SOL     OW 4786   3.700   0.380   5.768
 1296SOL    HW1 4787   3.730   0.317   5.839
 1296SOL    HW2 4788   3.653   0.330   5.696
 1297SOL     OW 4789   6.330   0.867   1.079
 1297SOL    HW1 4790   6.323   0.910   0.989
 1297SOL    HW2 4791   6.310   0.770   1.071
 1298SOL     OW 4792   5.901   4.810   2.522
 1298SOL    HW1 4793   5.906   4.716   2.555
 1298SOL    HW2 4794   5.816   4.852   2.554
 1299SOL     OW 4795   1.258   3.660   3.344
 1299SOL    HW1 4796   1.329   3.614   3.398
 1299SOL    HW2 4797   1.202   3.592   3.297
 1300SOL     OW 4798   3.513   2.843   2.029
 1300SOL    HW1 4799   3.607   2.876   2.035
 1300SOL    HW2 4800   3.511   2.757   1.977
 1301SOL     OW 4801   0.748   5.738   1.268
 1301SOL    HW1 4802   0.669   5.779   1.314
 1301SOL    HW2 4803   0.765   5.786   1.182
 1302SOL     OW 4804   4.805   0.523   5.589
 1302SOL    HW1 4805   4.798   0.608   5.640
 1302SOL    HW2 4806   4.897   0.514   5.552
 1303SOL     OW 4807   4.308   1.479   2.349
 1303SOL    HW1 4808   4.341   1.428   2.271
 1303SOL    HW2 4809   4.264   1.417   2.414
 1304SOL     OW 4810   2.007   1.008   6.380
 1304SOL    HW1 4811   1.980   0.966   6.293
 1304SOL    HW2 4812   2.074   1.080   6.363
 1305SOL     OW 4813   5.200   3.135   0.136
 1305SOL    HW1 4814   5.120   3.195   0.130
 1305SOL    HW2 4815   5.277   3.178   0.090
 1306SOL     OW 4816   0.138   4.888   4.356
 1306SOL    HW1 4817   0.167   4.894   4.451
 1306SOL    HW2 4818   0.199   4.942   4.298
 1307SOL     OW 4819   0.569   3.831   4.265
 1307SOL    HW1 4820   0.481   3.810   4.308
 1307SOL    HW2 4821   0.640   3.834   4.335
 1308SOL     OW 4822   5.824   6.449   4.942
 1308SOL    HW1 4823   5.800   6.365   4.990
 1308SOL    HW2 4824   5.872   6.428   4.858
 1309SOL     OW 4825   5.169   3.432   5.424
 1309SOL    HW1 4826   5.099   3.470   5.363
 1309SOL    HW2 4827   5.260   3.454   5.388
 1310SOL     OW 4828   7.017   3.676   4.227
 1310SOL    HW1 4829   0.040   3.599   4.267
 1310SOL    HW2 4830   0.047   3.759   4.236
 1311SOL     OW 4831   0.756   6.478   4.915
 1311SOL    HW1 4832   0.725   6.391   4.877
 1311SOL    HW2 4833   0.797   6.533   4.842
 1312SOL     OW 4834   1.729   0.485   6.252
 1312SOL    HW1 4835   1.798   0.549   6.219
 1312SOL    HW2 4836   1.681   0.444   6.175
 1313SOL     OW 4837   0.841   4.126   3.854
 1313SOL    HW1 4838   0.743   4.131   3.832
 1313SOL    HW2 4839   0.895   4.147   3.772
 1314SOL     OW 4840   4.165   1.017   5.891
 1314SOL    HW1 4841   4.133   0.960   5.814
 1314SOL    HW2 4842   4.100   1.091   5.906
 1315SOL     OW 4843   0.209   1.172   1.369
 1315SOL    HW1 4844   0.279   1.102   1.383
 1315SOL    HW2 4845   0.230   1.252   1.426
 1316SOL     OW 4846   2.400   6.323   5.012
 1316SOL    HW1 4847   2.407   6.415   5.051
 1316SOL    HW2 4848   2.343   6.326   4.930
 1317SOL     OW 4849   1.850   4.262   6.355
 1317SOL    HW1 4850   1.927   4.320   6.381
 1317SOL    HW2 4851   1.830   4.274   6.258
 1318SOL     OW 4852   1.141   1.334   1.292
 1318SOL    HW1 4853   1.085   1.408   1.330
 1318SOL    HW2 4854   1.236   1.346   1.322
 1319SOL     OW 4855   6.844   0.848   6.821
 1319SOL    HW1 4856   6.748   0.877   6.823
 1319SOL    HW2 4857   6.849   0.754   6.787
 1320SOL     OW 4858   5.118   3.934   0.791
 1320SOL    HW1 4859   5.191   3.927   0.859
 1320SOL    HW2 4860   5.042   3.874   0.817
 1321SOL     OW 4861   5.527   1.453   6.315
 1321SOL    HW1 4862   5.521   1.498   6.404
 1321SOL    HW2 4863   5.459   1.493   6.253
 1322SOL     OW 4864   3.720   0.632   3.987
 1322SOL    HW1 4865   3.642   0.570   3.982
 1322SOL    HW2 4866   3.799   0.582   4.023
 1323SOL     OW 4867   4.858   1.339   5.624
 1323SOL    HW1 4868   4.855   1.257   5.681
 1323SOL    HW2 4869   4.839   1.419   5.681
 1324SOL     OW 4870   1.199   3.436   0.678
 1324SOL    HW1 4871   1.294   3.465   0.692
 1324SOL    HW2 4872   1.165   3.472   0.591
 1325SOL     OW 4873   2.006   6.860   2.637
 1325SOL    HW1 4874   2.064   6.780   2.654
 1325SOL    HW2 4875   1.917   6.846   2.681
 1326SOL     OW 4876   5.027   3.291   4.999
 1326SOL    HW1 4877   5.039   3.371   5.057
 1326SOL    HW2 4878   4.956   3.232   5.037
 1327SOL     OW 4879   1.626   4.954   2.167
 1327SOL    HW1 4880   1.640   5.022   2.239
 1327SOL    HW2 4881   1.697   4.964   2.098
 1328SOL     OW 4882   1.227   3.011   1.151
 1328SOL    HW1 4883   1.324   3.033   1.139
 1328SOL    HW2 4884   1.174   3.096   1.153
 1329SOL     OW 4885   0.175   2.104   1.445
 1329SOL    HW1 4886   0.179   2.126   1.347
 1329SOL    HW2 4887   0.079   2.095   1.473
 1330SOL     OW 4888   0.246   1.394   1.939
 1330SOL    HW1 4889   0.264   1.364   2.033
 1330SOL    HW2 4890   0.311   1.466   1.915
 1331SOL     OW 4891   4.958   2.646   3.687
 1331SOL    HW1 4892   4.880   2.679   3.634
 1331SOL    HW2 4893   4.947   2.548   3.706
 1332SOL     OW 4894   3.155   6.907   0.037
 1332SOL    HW1 4895   3.094   6.888   6.985
 1332SOL    HW2 4896   3.171   6.824   0.089
 1333SOL     OW 4897   3.766   3.994   5.245
 1333SOL    HW1 4898   3.772   3.904   5.202
 1333SOL    HW2 4899   3.728   4.060   5.180
 1334SOL     OW 4900   6.685   2.143   4.249
 1334SOL    HW1 4901   6.646   2.206   4.316
 1334SOL    HW2 4902   6.745   2.194   4.186
 1335SOL     OW 4903   2.336   1.601   3.107
 1335SOL    HW1 4904   2.283   1.673   3.062
 1335SOL    HW2 4905   2.380   1.639   3.189
 1336SOL     OW 4906   1.804   2.462   5.556
 1336SOL    HW1 4907   1.888   2.497   5.597
 1336SOL    HW2 4908   1.818   2.368   5.525
 1337SOL     OW 4909   1.916   1.799   4.982
 1337SOL    HW1 4910   1.888   1.894   4.976
 1337SOL    HW2 4911   1.991   1.790   5.048
 1338SOL     OW 4912   5.853   2.263   5.266
 1338SOL    HW1 4913   5.951   2.246   5.273
 1338SOL    HW2 4914   5.832   2.303   5.177
 1339SOL     OW 4915   1.099   1.738   6.250
 1339SOL    HW1 4916   1.002   1.716   6.243
 1339SOL    HW2 4917   1.152   1.676   6.193
 1340SOL     OW 4918   0.296   1.772   2.571
 1340SOL    HW1 4919   0.231   1.702   2.540
 1340SOL    HW2 4920   0.246   1.846   2.616
 1341SOL     OW 4921   5.268   0.208   6.063
 1341SOL    HW1 4922   5.258   0.164   5.973
 1341SOL    HW2 4923   5.346   0.270   6.061
 1342SOL     OW 4924   1.903   5.341   6.367
 1342SOL    HW1 4925   1.993   5.339   6.409
 1342SOL    HW2 4926   1.903   5.284   6.285
 1343SOL     OW 4927   4.891   6.136   3.366
 1343SOL    HW1 4928   4.864   6.055   3.315
 1343SOL    HW2 4929   4.860   6.128   3.461
 1344SOL     OW 4930   6.648   4.678   4.144
 1344SOL    HW1 4931   6.701   4.687   4.059
 1344SOL    HW2 4932   6.711   4.663   4.221
 1345SOL     OW 4933   1.909   0.326   2.603
 1345SOL    HW1 4934   1.973   0.266   2.651
 1345SOL    HW2 4935   1.877   0.281   2.519
 1346SOL     OW 4936   0.842   5.930   4.311
 1346SOL    HW1 4937   0.837   6.004   4.378
 1346SOL    HW2 4938   0.887   5.851   4.353
 1347SOL     OW 4939   6.340   6.005   4.470
 1347SOL    HW1 4940   6.339   6.007   4.570
 1347SOL    HW2 4941   6.249   6.028   4.435
 1348SOL     OW 4942   5.272   5.195   2.492
 1348SOL    HW1 4943   5.272   5.131   2.569
 1348SOL    HW2 4944   5.179   5.206   2.457
 1349SOL     OW 4945   4.434   2.454   6.356
 1349SOL    HW1 4946   4.477   2.544   6.365
 1349SOL    HW2 4947   4.390   2.447   6.266
 1350SOL     OW 4948   5.081   4.521   6.153
 1350SOL    HW1 4949   5.006   4.561   6.102
 1350SOL    HW2 4950   5.047   4.485   6.240
 1351SOL     OW 4951   6.544   1.134   3.544
 1351SOL    HW1 4952   6.580   1.163   3.632
 1351SOL    HW2 4953   6.596   1.177   3.470
 1352SOL     OW 4954   6.956   6.759   3.035
 1352SOL    HW1 4955   6.900   6.676   3.037
 1352SOL    HW2 4956   6.898   6.837   3.012
 1353SOL     OW 4957   7.021   3.827   6.758
 1353SOL    HW1 4958   6.969   3.744   6.776
 1353SOL    HW2 4959   0.016   3.873   6.845
 1354SOL     OW 4960   0.717   3.070   0.513
 1354SOL    HW1 4961   0.691   2.976   0.490
 1354SOL    HW2 4962   0.720   3.081   0.612
 1355SOL     OW 4963   6.863   2.464   5.297
 1355SOL    HW1 4964   6.882   2.368   5.317
 1355SOL    HW2 4965   6.910   2.490   5.213
 1356SOL     OW 4966   2.879   3.670   2.668
 1356SOL    HW1 4967   2.854   3.651   2.763
 1356SOL    HW2 4968   2.937   3.752   2.665
 1357SOL     OW 4969   1.157   3.558   5.005
 1357SOL    HW1 4970   1.057   3.559   4.997
 1357SOL    HW2 4971   1.188   3.646   5.042
 1358SOL     OW 4972   3.635   1.194   5.935
 1358SOL    HW1 4973   3.563   1.125   5.928
 1358SOL    HW2 4974   3.665   1.202   6.030
 1359SOL     OW 4975   5.908   4.689   1.979
 1359SOL    HW1 4976   5.966   4.763   1.946
 1359SOL    HW2 4977   5.934   4.665   2.073
 1360SOL     OW 4978   3.901   2.575   0.260
 1360SOL    HW1 4979   3.932   2.503   0.323
 1360SOL    HW2 4980   3.801   2.576   0.258
 1361SOL     OW 4981   0.277   5.973   5.441
 1361SOL    HW1 4982   0.178   5.960   5.444
 1361SOL    HW2 4983   0.300   6.041   5.371
 1362SOL     OW 4984   3.102   4.052   4.389
 1362SOL    HW1 4985   3.074   3.970   4.440
 1362SOL    HW2 4986   3.087   4.132   4.447
 1363SOL     OW 4987   6.806   5.622   3.685
 1363SOL    HW1 4988   6.849   5.548   3.633
 1363SOL    HW2 4989   6.738   5.583   3.747
 1364SOL     OW 4990   6.483   2.380   1.357
 1364SOL    HW1 4991   6.392   2.410   1.384
 1364SOL    HW2 4992   6.530   2.339   1.435
 1365SOL     OW 4993   0.779   2.729   5.887
 1365SOL    HW1 4994   0.815   2.822   5.881
 1365SOL    HW2 4995   0.679   2.731   5.883
 1366SOL     OW 4996   0.533   4.757   0.332
 1366SOL    HW1 4997   0.576   4.685   0.387
 1366SOL    HW2 4998   0.490   4.824   0.392
 1367SOL     OW 4999   1.332   6.616   2.593
 1367SOL    HW1 5000   1.306   6.524   2.620
 1367SOL    HW2 5001   1.264   6.652   2.528
 1368SOL     OW 5002   6.986   0.427   4.095
 1368SOL    HW1 5003   7.016   0.516   4.062
 1368SOL    HW2 5004   6.893   0.434   4.130
 1369SOL     OW 5005   2.172   0.276   2.231
 1369SOL    HW1 5006   2.221   0.191   2.251
 1369SOL    HW2 5007   2.073   0.260   2.239
 1370SOL     OW 5008   4.177   1.293   2.478
 1370SOL    HW1 5009   4.154   1.245   2.393
 1370SOL    HW2 5010   4.099   1.348   2.506
 1371SOL     OW 5011   6.270   1.702   4.649
 1371SOL    HW1 5012   6.281   1.709   4.550
 1371SOL    HW2 5013   6.360   1.701   4.692
 1372SOL     OW 5014   1.151   2.829   0.418
 1372SOL    HW1 5015   1.230   2.886   0.396
 1372SOL    HW2 5016   1.124   2.844   0.513
 1373SOL     OW 5017   4.455   2.746   6.659
 1373SOL    HW1 5018   4.473   2.815   6.729
 1373SOL    HW2 5019   4.370   2.699   6.680
 1374SOL     OW 5020   4.595   2.093   0.462
 1374SOL    HW1 5021   4.649   2.024   0.413
 1374SOL    HW2 5022   4.499   2.065   0.463
 1375SOL     OW 5023   0.186   5.413   6.648
 1375SOL    HW1 5024   0.121   5.338   6.660
 1375SOL    HW2 5025   0.276   5.375   6.627
 1376SOL     OW 5026   4.435   4.732   5.099
 1376SOL    HW1 5027   4.527   4.758   5.071
 1376SOL    HW2 5028   4.417   4.637   5.072
 1377SOL     OW 5029   0.365   3.156   5.529
 1377SOL    HW1 5030   0.398   3.071   5.570
 1377SOL    HW2 5031   0.333   3.217   5.602
 1378SOL     OW 5032   6.066   1.620   4.881
 1378SOL    HW1 5033   5.983   1.653   4.835
 1378SOL    HW2 5034   6.138   1.605   4.813
 1379SOL     OW 5035   3.871   6.540   2.908
 1379SOL    HW1 5036   3.956   6.593   2.904
 1379SOL    HW2 5037   3.865   6.482   2.826
 1380SOL     OW 5038   0.798   0.177   3.384
 1380SOL    HW1 5039   0.841   0.267   3.377
 1380SOL    HW2 5040   0.867   0.108   3.404
 1381SOL     OW 5041   5.719   1.780   6.872
 1381SOL    HW1 5042   5.780   1.852   6.839
 1381SOL    HW2 5043   5.625   1.815   6.874
 1382SOL     OW 5044   4.854   3.274   0.648
 1382SOL    HW1 5045   4.925   3.329   0.606
 1382SOL    HW2 5046   4.887   3.179   0.657
 1383SOL     OW 5047   0.712   0.370   2.480
 1383SOL    HW1 5048   0.619   0.397   2.506
 1383SOL    HW2 5049   0.757   0.447   2.435
 1384SOL     OW 5050   4.748   0.700   2.026
 1384SOL    HW1 5051   4.801   0.622   1.993
 1384SOL    HW2 5052   4.765   0.779   1.966
 1385SOL     OW 5053   2.315   4.250   3.375
 1385SOL    HW1 5054   2.217   4.265   3.378
 1385SOL    HW2 5055   2.361   4.317   3.434
 1386SOL     OW 5056   3.095   0.470   4.281
 1386SOL    HW1 5057   3.141   0.543   4.332
 1386SOL    HW2 5058   3.025   0.510   4.222
 1387SOL     OW 5059   3.375   6.101   2.754
 1387SOL    HW1 5060   3.373   6.125   2.851
 1387SOL    HW2 5061   3.450   6.036   2.737
 1388SOL     OW 5062   0.626   0.483   3.085
 1388SOL    HW1 5063   0.713   0.521   3.116
 1388SOL    HW2 5064   0.620   0.386   3.112
 1389SOL     OW 5065   6.849   1.642   4.329
 1389SOL    HW1 5066   6.947   1.656   4.341
 1389SOL    HW2 5067   6.803   1.731   4.325
 1390SOL     OW 5068   6.558   3.277   6.079
 1390SOL    HW1 5069   6.467   3.273   6.121
 1390SOL    HW2 5070   6.627   3.289   6.150
 1391SOL     OW 5071   5.828   0.060   5.590
 1391SOL    HW1 5072   5.878   7.020   5.646
 1391SOL    HW2 5073   5.846   0.153   5.622
 1392SOL     OW 5074   6.140   6.670   5.503
 1392SOL    HW1 5075   6.192   6.635   5.424
 1392SOL    HW2 5076   6.194   6.741   5.549
 1393SOL     OW 5077   6.606   4.183   6.108
 1393SOL    HW1 5078   6.586   4.092   6.073
 1393SOL    HW2 5079   6.696   4.183   6.152
 1394SOL     OW 5080   3.188   5.891   5.261
 1394SOL    HW1 5081   3.238   5.817   5.307
 1394SOL    HW2 5082   3.090   5.873   5.264
 1395SOL     OW 5083   1.876   4.248   4.781
 1395SOL    HW1 5084   1.868   4.286   4.873
 1395SOL    HW2 5085   1.973   4.240   4.757
 1396SOL     OW 5086   0.310   0.952   4.901
 1396SOL    HW1 5087   0.387   1.015   4.912
 1396SOL    HW2 5088   0.319   0.903   4.815
 1397SOL     OW 5089   0.292   6.461   4.829
 1397SOL    HW1 5090   0.220   6.422   4.772
 1397SOL    HW2 5091   0.312   6.554   4.797
 1398SOL     OW 5092   2.957   0.893   6.596
 1398SOL    HW1 5093   2.967   0.923   6.691
 1398SOL    HW2 5094   2.860   0.893   6.572
 1399SOL     OW 5095   3.667   5.535   0.499
 1399SOL    HW1 5096   3.767   5.537   0.497
 1399SOL    HW2 5097   3.631   5.557   0.408
 1400SOL     OW 5098   0.548   1.854   4.350
 1400SOL    HW1 5099   0.562   1.775   4.290
 1400SOL    HW2 5100   0.617   1.853   4.422
 1401SOL     OW 5101   5.793   0.378   4.426
 1401SOL    HW1 5102   5.754   0.463   4.461
 1401SOL    HW2 5103   5.863   0.399   4.358
 1402SOL     OW 5104   5.532   4.274   6.358
 1402SOL    HW1 5105   5.619   4.282   6.308
 1402SOL    HW2 5106   5.473   4.351   6.335
 1403SOL     OW 5107   2.418   1.907   0.948
 1403SOL    HW1 5108   2.452   1.952   1.030
 1403SOL    HW2 5109   2.431   1.808   0.956
 1404SOL     OW 5110   6.776   0.664   0.083
 1404SOL    HW1 5111   6.867   0.659   0.124
 1404SOL    HW2 5112   6.744   0.759   0.086
 1405SOL     OW 5113   2.722   3.943   0.682
 1405SOL    HW1 5114   2.740   3.844   0.682
 1405SOL    HW2 5115   2.748   3.981   0.593
 1406SOL     OW 5116   1.548   5.974   0.734
 1406SOL    HW1 5117   1.477   6.039   0.761
 1406SOL    HW2 5118   1.616   5.966   0.806
 1407SOL     OW 5119   0.856   3.808   3.504
 1407SOL    HW1 5120   0.945   3.830   3.464
 1407SOL    HW2 5121   0.808   3.893   3.525
 1408SOL     OW 5122   5.382   0.549   6.518
 1408SOL    HW1 5123   5.480   0.534   6.504
 1408SOL    HW2 5124   5.338   0.463   6.542
 1409SOL     OW 5125   0.496   0.521   5.336
 1409SOL    HW1 5126   0.591   0.493   5.324
 1409SOL    HW2 5127   0.456   0.471   5.413
 1410SOL     OW 5128   1.603   4.211   6.439
 1410SOL    HW1 5129   1.696   4.233   6.411
 1410SOL    HW2 5130   1.539   4.240   6.368
 1411SOL     OW 5131   3.405   6.189   0.458
 1411SOL    HW1 5132   3.341   6.113   0.467
 1411SOL    HW2 5133   3.366   6.259   0.399
 1412SOL     OW 5134   0.731   3.868   1.303
 1412SOL    HW1 5135   0.733   3.927   1.223
 1412SOL    HW2 5136   0.674   3.788   1.284
 1413SOL     OW 5137   2.390   1.339   4.571
 1413SOL    HW1 5138   2.489   1.352   4.564
 1413SOL    HW2 5139   2.363   1.263   4.510
 1414SOL     OW 5140   2.138   1.655   1.806
 1414SOL    HW1 5141   2.058   1.614   1.762
 1414SOL    HW2 5142   2.120   1.667   1.903
 1415SOL     OW 5143   2.674   1.334   3.903
 1415SOL    HW1 5144   2.662   1.421   3.950
 1415SOL    HW2 5145   2.763   1.332   3.857
 1416SOL     OW 5146   4.314   6.599   5.146
 1416SOL    HW1 5147   4.367   6.561   5.071
 1416SOL    HW2 5148   4.288   6.693   5.124
 1417SOL     OW 5149   3.069   2.497   6.958
 1417SOL    HW1 5150   3.114   2.565   7.016
 1417SOL    HW2 5151   2.971   2.517   6.953
 1418SOL     OW 5152   2.870   3.444   1.741
 1418SOL    HW1 5153   2.838   3.478   1.653
 1418SOL    HW2 5154   2.810   3.371   1.772
 1419SOL     OW 5155   3.769   6.150   4.501
 1419SOL    HW1 5156   3.723   6.184   4.419
 1419SOL    HW2 5157   3.721   6.069   4.535
 1420SOL     OW 5158   3.689   6.067   3.128
 1420SOL    HW1 5159   3.746   6.141   3.164
 1420SOL    HW2 5160   3.596   6.078   3.161
 1421SOL     OW 5161   1.721   4.399   4.153
 1421SOL    HW1 5162   1.643   4.350   4.192
 1421SOL    HW2 5163   1.763   4.457   4.222
 1422SOL     OW 5164   1.920   3.970   6.387
 1422SOL    HW1 5165   1.824   3.949   6.405
 1422SOL    HW2 5166   1.934   4.069   6.392
 1423SOL     OW 5167   4.399   6.896   4.366
 1423SOL    HW1 5168   4.401   6.816   4.306
 1423SOL    HW2 5169   4.330   6.960   4.334
 1424SOL     OW 5170   6.709   3.835   6.762
 1424SOL    HW1 5171   6.711   3.811   6.859
 1424SOL    HW2 5172   6.795   3.809   6.719
 1425SOL     OW 5173   1.979   5.502   5.446
 1425SOL    HW1 5174   1.900   5.514   5.506
 1425SOL    HW2 5175   2.025   5.590   5.433
 1426SOL     OW 5176   2.441   2.231   6.686
 1426SOL    HW1 5177   2.412   2.146   6.730
 1426SOL    HW2 5178   2.539   2.228   6.668
 1427SOL     OW 5179   6.940   6.626   4.305
 1427SOL    HW1 5180   7.006   6.697   4.331
 1427SOL    HW2 5181   6.882   6.659   4.231
 1428SOL     OW 5182   0.743   2.406   1.396
 1428SOL    HW1 5183   0.749   2.338   1.469
 1428SOL    HW2 5184   0.816   2.474   1.407
 1429SOL     OW 5185   5.149   1.660   0.569
 1429SOL    HW1 5186   5.133   1.613   0.482
 1429SOL    HW2 5187   5.221   1.612   0.619
 1430SOL     OW 5188   2.158   4.956   3.929
 1430SOL    HW1 5189   2.136   4.860   3.914
 1430SOL    HW2 5190   2.074   5.010   3.926
 1431SOL     OW 5191   2.803   2.243   6.902
 1431SOL    HW1 5192   2.896   2.209   6.887
 1431SOL    HW2 5193   2.782   2.242   7.000
 1432SOL     OW 5194   3.101   1.498   1.028
 1432SOL    HW1 5195   3.017   1.454   0.996
 1432SOL    HW2 5196   3.174   1.484   0.961
 1433SOL     OW 5197   5.086   0.570   5.570
 1433SOL    HW1 5198   5.127   0.654   5.536
 1433SOL    HW2 5199   5.120   0.492   5.517
 1434SOL     OW 5200   0.831   0.849   6.541
 1434SOL    HW1 5201   0.846   0.841   6.640
 1434SOL    HW2 5202   0.920   0.858   6.495
 1435SOL     OW 5203   6.897   0.173   3.035
 1435SOL    HW1 5204   6.875   0.082   3.000
 1435SOL    HW2 5205   6.931   0.166   3.129
 1436SOL     OW 5206   5.532   4.302   6.770
 1436SOL    HW1 5207   5.449   4.258   6.738
 1436SOL    HW2 5208   5.607   4.235   6.775
 1437SOL     OW 5209   3.480   1.571   5.765
 1437SOL    HW1 5210   3.422   1.589   5.686
 1437SOL    HW2 5211   3.454   1.484   5.807
 1438SOL     OW 5212   2.494   0.094   1.981
 1438SOL    HW1 5213   2.577   0.141   2.011
 1438SOL    HW2 5214   2.430   0.161   1.944
 1439SOL     OW 5215   6.768   4.751   0.704
 1439SOL    HW1 5216   6.767   4.846   0.737
 1439SOL    HW2 5217   6.798   4.690   0.777
 1440SOL     OW 5218   3.663   2.774   6.055
 1440SOL    HW1 5219   3.704   2.836   6.121
 1440SOL    HW2 5220   3.606   2.707   6.103
 1441SOL     OW 5221   5.967   2.397   3.930
 1441SOL    HW1 5222   5.995   2.332   4.001
 1441SOL    HW2 5223   6.043   2.410   3.866
 1442SOL     OW 5224   5.979   5.079   6.677
 1442SOL    HW1 5225   5.890   5.050   6.712
 1442SOL    HW2 5226   6.023   5.002   6.631
 1443SOL     OW 5227   0.820   3.028   4.606
 1443SOL    HW1 5228   0.840   3.122   4.634
 1443SOL    HW2 5229   0.735   3.027   4.555
 1444SOL     OW 5230   3.782   6.022   1.052
 1444SOL    HW1 5231   3.848   5.952   1.025
 1444SOL    HW2 5232   3.818   6.113   1.030
 1445SOL     OW 5233   0.330   2.518   1.873
 1445SOL    HW1 5234   0.334   2.617   1.892
 1445SOL    HW2 5235   0.236   2.493   1.850
 1446SOL     OW 5236   4.753   2.550   0.017
 1446SOL    HW1 5237   4.811   2.570   6.964
 1446SOL    HW2 5238   4.734   2.451   0.020
 1447SOL     OW 5239   6.190   6.674   5.884
 1447SOL    HW1 5240   6.243   6.602   5.840
 1447SOL    HW2 5241   6.251   6.748   5.913
 1448SOL     OW 5242   6.479   2.945   6.964
 1448SOL    HW1 5243   6.506   3.041   6.970
 1448SOL    HW2 5244   6.485   2.915   6.868
 1449SOL     OW 5245   0.055   1.221   6.910
 1449SOL    HW1 5246   0.083   1.145   6.969
 1449SOL    HW2 5247   0.131   1.285   6.899
 1450SOL     OW 5248   0.674   2.000   1.800
 1450SOL    HW1 5249   0.718   1.957   1.721
 1450SOL    HW2 5250   0.732   1.990   1.880
 1451SOL     OW 5251   2.423   0.583   2.531
 1451SOL    HW1 5252   2.333   0.566   2.492
 1451SOL    HW2 5253   2.489   0.519   2.493
 1452SOL     OW 5254   4.396   0.635   4.622
 1452SOL    HW1 5255   4.398   0.584   4.708
 1452SOL    HW2 5256   4.490   0.650   4.590
 1453SOL     OW 5257   6.986   4.109   5.278
 1453SOL    HW1 5258   6.930   4.029   5.260
 1453SOL    HW2 5259   6.981   4.133   5.376
 1454SOL     OW 5260   6.567   2.992   2.373
 1454SOL    HW1 5261   6.632   2.960   2.442
 1454SOL    HW2 5262   6.559   2.923   2.301
 1455SOL     OW 5263   0.920   0.126   1.929
 1455SOL    HW1 5264   0.979   0.074   1.991
 1455SOL    HW2 5265   0.951   0.113   1.835
 1456SOL     OW 5266   6.278   6.881   5.617
 1456SOL    HW1 5267   6.319   6.952   5.560
 1456SOL    HW2 5268   6.314   6.888   5.710
 1457SOL     OW 5269   1.329   6.692   1.130
 1457SOL    HW1 5270   1.338   6.618   1.196
 1457SOL    HW2 5271   1.278   6.768   1.171
 1458SOL     OW 5272   5.761   5.678   3.121
 1458SOL    HW1 5273   5.702   5.660   3.043
 1458SOL    HW2 5274   5.706   5.692   3.203
 1459SOL     OW 5275   3.018   5.132   5.393
 1459SOL    HW1 5276   2.942   5.069   5.378
 1459SOL    HW2 5277   2.999   5.189   5.473
 1460SOL     OW 5278   0.409   5.537   5.698
 1460SOL    HW1 5279   0.387   5.617   5.754
 1460SOL    HW2 5280   0.504   5.542   5.669
 1461SOL     OW 5281   0.213   5.042   3.602
 1461SOL    HW1 5282   0.247   4.965   3.548
 1461SOL    HW2 5283   0.284   5.073   3.665
 1462SOL     OW 5284   1.086   0.931   6.492
 1462SOL    HW1 5285   1.170   0.932   6.437
 1462SOL    HW2 5286   1.104   0.973   6.581
 1463SOL     OW 5287   0.049   5.596   6.828
 1463SOL    HW1 5288   0.113   5.580   6.753
 1463SOL    HW2 5289   7.010   5.519   6.833
 1464SOL     OW 5290   5.718   6.915   0.664
 1464SOL    HW1 5291   5.782   6.854   0.711
 1464SOL    HW2 5292   5.685   6.984   0.729
 1465SOL     OW 5293   1.689   1.061   3.717
 1465SOL    HW1 5294   1.660   1.100   3.630
 1465SOL    HW2 5295   1.658   1.119   3.792
 1466SOL     OW 5296   1.283   1.554   2.225
 1466SOL    HW1 5297   1.185   1.570   2.227
 1466SOL    HW2 5298   1.301   1.456   2.221
 1467SOL     OW 5299   2.320   1.866   2.203
 1467SOL    HW1 5300   2.390   1.923   2.160
 1467SOL    HW2 5301   2.261   1.922   2.260
 1468SOL     OW 5302   5.474   5.667   2.791
 1468SOL    HW1 5303   5.536   5.590   2.808
 1468SOL    HW2 5304   5.465   5.681   2.692
 1469SOL     OW 5305   0.523   0.858   2.419
 1469SOL    HW1 5306   0.490   0.927   2.484
 1469SOL    HW2 5307   0.584   0.901   2.352
 1470SOL     OW 5308   1.402   1.719   2.451
 1470SOL    HW1 5309   1.364   1.682   2.366
 1470SOL    HW2 5310   1.400   1.647   2.522
 1471SOL     OW 5311   0.935   0.192   0.558
 1471SOL    HW1 5312   1.024   0.148   0.545
 1471SOL    HW2 5313   0.947   0.276   0.611
 1472SOL     OW 5314   3.766   6.267   5.234
 1472SOL    HW1 5315   3.824   6.227   5.163
 1472SOL    HW2 5316   3.707   6.197   5.272
 1473SOL     OW 5317   5.464   5.764   4.283
 1473SOL    HW1 5318   5.404   5.730   4.356
 1473SOL    HW2 5319   5.427   5.850   4.247
 1474SOL     OW 5320   5.661   5.472   2.875
 1474SOL    HW1 5321   5.725   5.512   2.809
 1474SOL    HW2 5322   5.670   5.373   2.875
 1475SOL     OW 5323   6.201   0.034   1.916
 1475SOL    HW1 5324   6.216   6.983   1.978
 1475SOL    HW2 5325   6.236   0.118   1.958
 1476SOL     OW 5326   2.224   1.189   1.593
 1476SOL    HW1 5327   2.245   1.147   1.505
 1476SOL    HW2 5328   2.279   1.146   1.665
 1477SOL     OW 5329   3.436   0.516   6.698
 1477SOL    HW1 5330   3.399   0.454   6.629
 1477SOL    HW2 5331   3.415   0.610   6.673
 1478SOL     OW 5332   6.089   5.491   0.453
 1478SOL    HW1 5333   6.157   5.447   0.394
 1478SOL    HW2 5334   6.013   5.427   0.468
 1479SOL     OW 5335   1.405   3.288   0.268
 1479SOL    HW1 5336   1.466   3.305   0.346
 1479SOL    HW2 5337   1.343   3.365   0.257
 1480SOL     OW 5338   3.445   0.410   5.995
 1480SOL    HW1 5339   3.417   0.314   6.005
 1480SOL    HW2 5340   3.498   0.438   6.075
 1481SOL     OW 5341   6.419   2.597   5.313
 1481SOL    HW1 5342   6.515   2.626   5.316
 1481SOL    HW2 5343   6.367   2.657   5.253
 1482SOL     OW 5344   4.828   2.512   1.500
 1482SOL    HW1 5345   4.926   2.501   1.518
 1482SOL    HW2 5346   4.810   2.605   1.468
 1483SOL     OW 5347   5.279   1.692   6.633
 1483SOL    HW1 5348   5.236   1.760   6.573
 1483SOL    HW2 5349   5.301   1.610   6.580
 1484SOL     OW 5350   5.878   4.807   3.682
 1484SOL    HW1 5351   5.808   4.863   3.638
 1484SOL    HW2 5352   5.919   4.746   3.615
 1485SOL     OW 5353   3.423   1.843   3.210
 1485SOL    HW1 5354   3.412   1.807   3.117
 1485SOL    HW2 5355   3.425   1.943   3.207
 1486SOL     OW 5356   4.831   1.738   3.204
 1486SOL    HW1 5357   4.882   1.788   3.134
 1486SOL    HW2 5358   4.800   1.651   3.166
 1487SOL     OW 5359   6.619   2.659   6.289
 1487SOL    HW1 5360   6.538   2.679   6.234
 1487SOL    HW2 5361   6.674   2.590   6.242
 1488SOL     OW 5362   5.523   1.332   3.821
 1488SOL    HW1 5363   5.518   1.241   3.862
 1488SOL    HW2 5364   5.508   1.401   3.891
 1489SOL     OW 5365   4.009   5.393   4.086
 1489SOL    HW1 5366   3.950   5.409   4.165
 1489SOL    HW2 5367   4.037   5.480   4.047
 1490SOL     OW 5368   0.993   2.819   1.800
 1490SOL    HW1 5369   0.950   2.788   1.715
 1490SOL    HW2 5370   0.944   2.900   1.834
 1491SOL     OW 5371   6.500   3.973   3.745
 1491SOL    HW1 5372   6.500   3.931   3.836
 1491SOL    HW2 5373   6.424   4.037   3.738
 1492SOL     OW 5374   5.575   0.796   2.124
 1492SOL    HW1 5375   5.506   0.856   2.084
 1492SOL    HW2 5376   5.617   0.740   2.053
 1493SOL     OW 5377   4.542   6.511   4.424
 1493SOL    HW1 5378   4.527   6.588   4.485
 1493SOL    HW2 5379   4.466   6.446   4.433
 1494SOL     OW 5380   5.685   1.928   5.991
 1494SOL    HW1 5381   5.784   1.929   6.008
 1494SOL    HW2 5382   5.652   2.022   5.980
 1495SOL     OW 5383   6.590   2.503   4.852
 1495SOL    HW1 5384   6.635   2.421   4.888
 1495SOL    HW2 5385   6.497   2.509   4.889
 1496SOL     OW 5386   0.483   1.243   1.702
 1496SOL    HW1 5387   0.521   1.328   1.667
 1496SOL    HW2 5388   0.404   1.216   1.647
 1497SOL     OW 5389   6.603   2.935   2.984
 1497SOL    HW1 5390   6.608   3.021   2.933
 1497SOL    HW2 5391   6.691   2.916   3.026
 1498SOL     OW 5392   1.890   4.908   6.169
 1498SOL    HW1 5393   1.935   4.858   6.095
 1498SOL    HW2 5394   1.859   4.844   6.238
 1499SOL     OW 5395   1.119   3.430   6.564
 1499SOL    HW1 5396   1.160   3.418   6.473
 1499SOL    HW2 5397   1.057   3.509   6.562
 1500SOL     OW 5398   6.706   6.528   0.038
 1500SOL    HW1 5399   6.798   6.493   0.021
 1500SOL    HW2 5400   6.638   6.465   0.001
 1501SOL     OW 5401   5.752   1.785   6.454
 1501SOL    HW1 5402   5.846   1.752   6.460
 1501SOL    HW2 5403   5.752   1.885   6.459
 1502SOL     OW 5404   5.448   0.796   0.733
 1502SOL    HW1 5405   5.372   0.759   0.679
 1502SOL    HW2 5406   5.418   0.810   0.828
 1503SOL     OW 5407   1.818   2.749   1.751
 1503SOL    HW1 5408   1.723   2.772   1.733
 1503SOL    HW2 5409   1.855   2.811   1.820
 1504SOL     OW 5410   0.700   0.182   5.465
 1504SOL    HW1 5411   0.764   0.126   5.517
 1504SOL    HW2 5412   0.649   0.125   5.401
 1505SOL     OW 5413   5.677   0.931   5.673
 1505SOL    HW1 5414   5.743   1.001   5.700
 1505SOL    HW2 5415   5.632   0.895   5.755
 1506SOL     OW 5416   1.738   5.687   1.118
 1506SOL    HW1 5417   1.658   5.700   1.176
 1506SOL    HW2 5418   1.785   5.603   1.146
 1507SOL     OW 5419   0.902   1.900   5.609
 1507SOL    HW1 5420   0.936   1.862   5.523
 1507SOL    HW2 5421   0.946   1.852   5.686
 1508SOL     OW 5422   6.761   0.596   2.068
 1508SOL    HW1 5423   6.703   0.522   2.035
 1508SOL    HW2 5424   6.766   0.593   2.168
 1509SOL     OW 5425   4.321   2.794   5.821
 1509SOL    HW1 5426   4.246   2.768   5.760
 1509SOL    HW2 5427   4.295   2.875   5.873
 1510SOL     OW 5428   5.068   2.712   4.984
 1510SOL    HW1 5429   4.974   2.743   4.974
 1510SOL    HW2 5430   5.109   2.700   4.894
 1511SOL     OW 5431   3.102   3.024   1.912
 1511SOL    HW1 5432   3.171   2.964   1.955
 1511SOL    HW2 5433   3.145   3.111   1.888
 1512SOL     OW 5434   1.042   5.131   1.146
 1512SOL    HW1 5435   1.063   5.073   1.067
 1512SOL    HW2 5436   1.085   5.221   1.134
 1513SOL     OW 5437   3.031   0.489   3.675
 1513SOL    HW1 5438   3.097   0.495   3.750
 1513SOL    HW2 5439   3.069   0.533   3.594
 1514SOL     OW 5440   4.231   2.169   5.894
 1514SOL    HW1 5441   4.184   2.235   5.954
 1514SOL    HW2 5442   4.191   2.079   5.906
 1515SOL     OW 5443   5.978   2.379   4.500
 1515SOL    HW1 5444   5.955   2.282   4.513
 1515SOL    HW2 5445   5.913   2.435   4.552
 1516SOL     OW 5446   6.934   0.282   0.574
 1516SOL    HW1 5447   6.842   0.291   0.536
 1516SOL    HW2 5448   6.991   0.231   0.510
 1517SOL     OW 5449   4.628   6.139   3.993
 1517SOL    HW1 5450   4.544   6.129   4.047
 1517SOL    HW2 5451   4.653   6.235   3.987
 1518SOL     OW 5452   0.930   3.403   0.126
 1518SOL    HW1 5453   0.831   3.408   0.143
 1518SOL    HW2 5454   0.979   3.408   0.214
 1519SOL     OW 5455   6.196   4.884   2.022
 1519SOL    HW1 5456   6.280   4.830   2.022
 1519SOL    HW2 5457   6.151   4.877   2.111
 1520SOL     OW 5458   0.568   3.879   2.525
 1520SOL    HW1 5459   0.661   3.907   2.500
 1520SOL    HW2 5460   0.532   3.941   2.594
 1521SOL     OW 5461   1.605   4.133   6.977
 1521SOL    HW1 5462   1.580   4.217   6.929
 1521SOL    HW2 5463   1.545   4.121   0.031
 1522SOL     OW 5464   6.133   0.019   5.323
 1522SOL    HW1 5465   6.050   0.074   5.317
 1522SOL    HW2 5466   6.137   6.981   5.246
 1523SOL     OW 5467   5.339   4.830   0.098
 1523SOL    HW1 5468   5.335   4.915   0.152
 1523SOL    HW2 5469   5.422   4.780   0.121
 1524SOL     OW 5470   1.526   2.385   2.136
 1524SOL    HW1 5471   1.492   2.291   2.124
 1524SOL    HW2 5472   1.543   2.401   2.233
 1525SOL     OW 5473   6.560   2.502   0.234
 1525SOL    HW1 5474   6.659   2.508   0.246
 1525SOL    HW2 5475   6.518   2.587   0.266
 1526SOL     OW 5476   0.096   6.596   0.223
 1526SOL    HW1 5477   0.047   6.514   0.251
 1526SOL    HW2 5478   0.106   6.597   0.124
 1527SOL     OW 5479   3.598   1.285   5.360
 1527SOL    HW1 5480   3.516   1.265   5.415
 1527SOL    HW2 5481   3.606   1.384   5.348
 1528SOL     OW 5482   4.930   6.198   2.467
 1528SOL    HW1 5483   4.918   6.124   2.534
 1528SOL    HW2 5484   4.907   6.164   2.376
 1529SOL     OW 5485   3.689   0.409   0.784
 1529SOL    HW1 5486   3.743   0.330   0.814
 1529SOL    HW2 5487   3.593   0.395   0.809
 1530SOL     OW 5488   3.316   1.388   2.005
 1530SOL    HW1 5489   3.270   1.370   2.092
 1530SOL    HW2 5490   3.369   1.472   2.011
 1531SOL     OW 5491   4.653   0.821   4.915
 1531SOL    HW1 5492   4.604   0.746   4.959
 1531SOL    HW2 5493   4.749   0.795   4.902
 1532SOL     OW 5494   2.803   3.769   6.118
 1532SOL    HW1 5495   2.780   3.865   6.132
 1532SOL    HW2 5496   2.768   3.714   6.194
 1533SOL     OW 5497   6.530   3.176   0.056
 1533SOL    HW1 5498   6.447   3.229   0.075
 1533SOL    HW2 5499   6.577   3.154   0.142
 1534SOL     OW 5500   1.704   4.665   6.348
 1534SOL    HW1 5501   1.685   4.643   6.444
 1534SOL    HW2 5502   1.796   4.636   6.324
 1535SOL     OW 5503   5.084   6.264   4.232
 1535SOL    HW1 5504   5.122   6.303   4.148
 1535SOL    HW2 5505   5.129   6.305   4.311
 1536SOL     OW 5506   4.131   4.326   5.310
 1536SOL    HW1 5507   4.208   4.263   5.322
 1536SOL    HW2 5508   4.157   4.398   5.245
 1537SOL     OW 5509   4.168   6.178   3.882
 1537SOL    HW1 5510   4.091   6.136   3.928
 1537SOL    HW2 5511   4.154   6.277   3.876
 1538SOL     OW 5512   3.983   6.433   5.686
 1538SOL    HW1 5513   3.987   6.497   5.609
 1538SOL    HW2 5514   4.073   6.430   5.730
 1539SOL     OW 5515   4.161   3.740   1.844
 1539SOL    HW1 5516   4.248   3.774   1.809
 1539SOL    HW2 5517   4.115   3.812   1.895
 1540SOL     OW 5518   1.751   6.226   6.139
 1540SOL    HW1 5519   1.764   6.228   6.040
 1540SOL    HW2 5520   1.759   6.131   6.171
 1541SOL     OW 5521   3.736   2.907   2.495
 1541SOL    HW1 5522   3.666   2.978   2.500
 1541SOL    HW2 5523   3.759   2.875   2.587
 1542SOL     OW 5524   6.467   5.721   2.257
 1542SOL    HW1 5525   6.497   5.699   2.350
 1542SOL    HW2 5526   6.535   5.686   2.191
 1543SOL     OW 5527   3.660   4.199   5.103
 1543SOL    HW1 5528   3.709   4.201   5.016
 1543SOL    HW2 5529   3.682   4.281   5.155
 1544SOL     OW 5530   3.166   3.738   2.869
 1544SOL    HW1 5531   3.183   3.740   2.771
 1544SOL    HW2 5532   3.129   3.826   2.899
 1545SOL     OW 5533   4.991   0.850   4.201
 1545SOL    HW1 5534   4.942   0.860   4.287
 1545SOL    HW2 5535   5.027   0.939   4.173
 1546SOL     OW 5536   4.399   6.748   6.091
 1546SOL    HW1 5537   4.393   6.691   6.173
 1546SOL    HW2 5538   4.491   6.741   6.051
 1547SOL     OW 5539   1.436   3.785   3.128
 1547SOL    HW1 5540   1.535   3.787   3.146
 1547SOL    HW2 5541   1.387   3.763   3.212
 1548SOL     OW 5542   4.612   4.291   5.680
 1548SOL    HW1 5543   4.603   4.223   5.607
 1548SOL    HW2 5544   4.537   4.281   5.745
 1549SOL     OW 5545   3.971   1.074   3.294
 1549SOL    HW1 5546   3.996   1.030   3.208
 1549SOL    HW2 5547   4.046   1.067   3.358
 1550SOL     OW 5548   2.492   4.731   6.136
 1550SOL    HW1 5549   2.580   4.777   6.148
 1550SOL    HW2 5550   2.424   4.774   6.195
 1551SOL     OW 5551   2.232   4.085   6.830
 1551SOL    HW1 5552   2.198   4.106   6.921
 1551SOL    HW2 5553   2.195   3.997   6.799
 1552SOL     OW 5554   0.330   6.935   0.659
 1552SOL    HW1 5555   0.249   6.958   0.712
 1552SOL    HW2 5556   0.340   7.000   0.584
 1553SOL     OW 5557   0.414   1.368   5.701
 1553SOL    HW1 5558   0.400   1.286   5.645
 1553SOL    HW2 5559   0.395   1.347   5.797
 1554SOL     OW 5560   3.913   1.692   3.564
 1554SOL    HW1 5561   3.871   1.713   3.652
 1554SOL    HW2 5562   3.856   1.729   3.490
 1555SOL     OW 5563   4.838   2.269   0.477
 1555SOL    HW1 5564   4.864   2.230   0.566
 1555SOL    HW2 5565   4.739   2.264   0.466
 1556SOL     OW 5566   2.954   1.214   0.637
 1556SOL    HW1 5567   2.891   1.158   0.691
 1556SOL    HW2 5568   2.902   1.282   0.585
 1557SOL     OW 5569   2.260   1.264   6.289
 1557SOL    HW1 5570   2.229   1.251   6.195
 1557SOL    HW2 5571   2.229   1.353   6.323
 1558SOL     OW 5572   5.232   1.300   3.989
 1558SOL    HW1 5573   5.228   1.377   4.052
 1558SOL    HW2 5574   5.324   1.261   3.990
 1559SOL     OW 5575   0.039   2.647   6.960
 1559SOL    HW1 5576   6.975   2.604   6.952
 1559SOL    HW2 5577   0.097   2.618   6.884
 1560SOL     OW 5578   2.909   2.132   6.015
 1560SOL    HW1 5579   2.951   2.211   5.971
 1560SOL    HW2 5580   2.824   2.109   5.968
 1561SOL     OW 5581   0.126   6.259   2.827
 1561SOL    HW1 5582   0.192   6.333   2.815
 1561SOL    HW2 5583   0.058   6.263   2.753
 1562SOL     OW 5584   3.954   5.933   1.664
 1562SOL    HW1 5585   3.902   5.852   1.692
 1562SOL    HW2 5586   3.900   6.015   1.683
 1563SOL     OW 5587   2.328   0.918   5.945
 1563SOL    HW1 5588   2.232   0.947   5.943
 1563SOL    HW2 5589   2.362   0.922   6.039
 1564SOL     OW 5590   1.048   2.785   2.708
 1564SOL    HW1 5591   1.039   2.720   2.783
 1564SOL    HW2 5592   1.096   2.741   2.632
 1565SOL     OW 5593   4.333   5.197   4.331
 1565SOL    HW1 5594   4.390   5.243   4.263
 1565SOL    HW2 5595   4.261   5.260   4.361
 1566SOL     OW 5596   5.464   5.206   4.025
 1566SOL    HW1 5597   5.412   5.271   3.971
 1566SOL    HW2 5598   5.504   5.136   3.965
 1567SOL     OW 5599   6.236   6.203   0.017
 1567SOL    HW1 5600   6.218   6.113   0.057
 1567SOL    HW2 5601   6.149   6.248   7.022
 1568SOL     OW 5602   2.419   5.649   1.377
 1568SOL    HW1 5603   2.422   5.634   1.476
 1568SOL    HW2 5604   2.330   5.621   1.342
 1569SOL     OW 5605   2.759   6.838   3.472
 1569SOL    HW1 5606   2.806   6.754   3.500
 1569SOL    HW2 5607   2.691   6.817   3.403
 1570SOL     OW 5608   2.403   6.576   0.801
 1570SOL    HW1 5609   2.452   6.607   0.882
 1570SOL    HW2 5610   2.330   6.513   0.828
 1571SOL     OW 5611   6.033   1.288   2.743
 1571SOL    HW1 5612   6.084   1.209   2.708
 1571SOL    HW2 5613   6.096   1.364   2.758
 1572SOL     OW 5614   1.215   6.094   0.562
 1572SOL    HW1 5615   1.287   6.141   0.612
 1572SOL    HW2 5616   1.248   6.070   0.471
 1573SOL     OW 5617   6.110   3.403   2.141
 1573SOL    HW1 5618   6.108   3.495   2.181
 1573SOL    HW2 5619   6.111   3.334   2.213
 1574SOL     OW 5620   0.107   1.231   3.331
 1574SOL    HW1 5621   0.099   1.218   3.232
 1574SOL    HW2 5622   0.028   1.282   3.365
 1575SOL     OW 5623   2.077   2.306   1.456
 1575SOL    HW1 5624   2.077   2.280   1.553
 1575SOL    HW2 5625   2.172   2.315   1.424
 1576SOL     OW 5626   1.068   0.844   2.964
 1576SOL    HW1 5627   1.152   0.828   3.017
 1576SOL    HW2 5628   0.991   0.801   3.011
 1577SOL     OW 5629   2.755   0.659   5.616
 1577SOL    HW1 5630   2.737   0.735   5.554
 1577SOL    HW2 5631   2.684   0.657   5.687
 1578SOL     OW 5632   5.491   2.560   5.877
 1578SOL    HW1 5633   5.580   2.601   5.858
 1578SOL    HW2 5634   5.420   2.631   5.875
 1579SOL     OW 5635   0.204   1.777   2.280
 1579SOL    HW1 5636   0.242   1.858   2.235
 1579SOL    HW2 5637   0.155   1.805   2.363
 1580SOL     OW 5638   3.566   4.164   4.026
 1580SOL    HW1 5639   3.547   4.187   4.121
 1580SOL    HW2 5640   3.655   4.119   4.019
 1581SOL     OW 5641   6.600   4.498   4.996
 1581SOL    HW1 5642   6.577   4.412   5.040
 1581SOL    HW2 5643   6.519   4.536   4.951
 1582SOL     OW 5644   2.164   6.660   4.050
 1582SOL    HW1 5645   2.195   6.571   4.083
 1582SOL    HW2 5646   2.210   6.683   3.964
 1583SOL     OW 5647   0.761   5.249   2.330
 1583SOL    HW1 5648   0.804   5.225   2.417
 1583SOL    HW2 5649   0.819   5.219   2.255
 1584SOL     OW 5650   0.526   6.317   6.587
 1584SOL    HW1 5651   0.622   6.343   6.601
 1584SOL    HW2 5652   0.517   6.270   6.499
 1585SOL     OW 5653   4.344   1.927   3.711
 1585SOL    HW1 5654   4.280   1.933   3.634
 1585SOL    HW2 5655   4.435   1.956   3.682
 1586SOL     OW 5656   3.379   4.696   1.684
 1586SOL    HW1 5657   3.460   4.665   1.734
 1586SOL    HW2 5658   3.300   4.693   1.745
 1587SOL     OW 5659   3.022   6.133   6.202
 1587SOL    HW1 5660   3.066   6.216   6.167
 1587SOL    HW2 5661   3.087   6.058   6.199
 1588SOL     OW 5662   3.620   1.084   2.816
 1588SOL    HW1 5663   3.544   1.047   2.869
 1588SOL    HW2 5664   3.586   1.120   2.729
 1589SOL     OW 5665   6.637   3.231   1.655
 1589SOL    HW1 5666   6.715   3.255   1.597
 1589SOL    HW2 5667   6.658   3.150   1.709
 1590SOL     OW 5668   4.396   0.292   5.027
 1590SOL    HW1 5669   4.337   0.341   4.963
 1590SOL    HW2 5670   4.419   0.351   5.104
 1591SOL     OW 5671   6.888   5.439   1.709
 1591SOL    HW1 5672   6.825   5.364   1.687
 1591SOL    HW2 5673   6.838   5.511   1.756
 1592SOL     OW 5674   1.678   3.641   6.930
 1592SOL    HW1 5675   1.692   3.680   7.021
 1592SOL    HW2 5676   1.580   3.639   6.910
 1593SOL     OW 5677   1.350   6.274   5.590
 1593SOL    HW1 5678   1.339   6.174   5.589
 1593SOL    HW2 5679   1.271   6.316   5.545
 1594SOL     OW 5680   0.663   6.318   1.837
 1594SOL    HW1 5681   0.676   6.222   1.860
 1594SOL    HW2 5682   0.608   6.325   1.753
 1595SOL     OW 5683   1.906   4.717   0.292
 1595SOL    HW1 5684   1.967   4.741   0.367
 1595SOL    HW2 5685   1.875   4.801   0.246
 1596SOL     OW 5686   0.034   2.157   3.948
 1596SOL    HW1 5687   0.015   2.246   3.908
 1596SOL    HW2 5688   0.133   2.146   3.962
 1597SOL     OW 5689   1.397   6.642   0.169
 1597SOL    HW1 5690   1.391   6.564   0.231
 1597SOL    HW2 5691   1.309   6.689   0.166
 1598SOL     OW 5692   0.209   4.419   5.831
 1598SOL    HW1 5693   0.290   4.425   5.889
 1598SOL    HW2 5694   0.164   4.507   5.828
 1599SOL     OW 5695   4.471   5.294   4.862
 1599SOL    HW1 5696   4.387   5.330   4.821
 1599SOL    HW2 5697   4.550   5.319   4.805
 1600SOL     OW 5698   3.734   1.471   3.211
 1600SOL    HW1 5699   3.663   1.408   3.241
 1600SOL    HW2 5700   3.719   1.561   3.252
 1601SOL     OW 5701   6.738   5.770   4.610
 1601SOL    HW1 5702   6.676   5.694   4.626
 1601SOL    HW2 5703   6.708   5.822   4.529
 1602SOL     OW 5704   3.928   6.159   4.024
 1602SOL    HW1 5705   3.866   6.187   4.097
 1602SOL    HW2 5706   3.884   6.088   3.969
 1603SOL     OW 5707   1.501   5.988   3.452
 1603SOL    HW1 5708   1.568   5.931   3.404
 1603SOL    HW2 5709   1.415   5.939   3.460
 1604SOL     OW 5710   5.680   4.431   1.360
 1604SOL    HW1 5711   5.676   4.456   1.263
 1604SOL    HW2 5712   5.630   4.345   1.373
 1605SOL     OW 5713   6.389   5.098   1.621
 1605SOL    HW1 5714   6.309   5.070   1.674
 1605SOL    HW2 5715   6.456   5.024   1.618
 1606SOL     OW 5716   3.996   0.846   5.714
 1606SOL    HW1 5717   3.917   0.907   5.716
 1606SOL    HW2 5718   4.011   0.814   5.620
 1607SOL     OW 5719   4.215   1.227   1.070
 1607SOL    HW1 5720   4.223   1.210   1.169
 1607SOL    HW2 5721   4.146   1.298   1.054
 1608SOL     OW 5722   1.246   1.176   3.462
 1608SOL    HW1 5723   1.237   1.217   3.553
 1608SOL    HW2 5724   1.161   1.127   3.440
 1609SOL     OW 5725   4.203   0.126   0.265
 1609SOL    HW1 5726   4.185   0.102   0.361
 1609SOL    HW2 5727   4.254   0.212   0.262
 1610SOL     OW 5728   6.259   4.585   6.433
 1610SOL    HW1 5729   6.180   4.540   6.393
 1610SOL    HW2 5730   6.287   4.537   6.516
 1611SOL     OW 5731   2.333   3.932   1.163
 1611SOL    HW1 5732   2.336   3.901   1.068
 1611SOL    HW2 5733   2.421   3.915   1.206
 1612SOL     OW 5734   2.671   7.006   6.633
 1612SOL    HW1 5735   2.604   0.050   6.660
 1612SOL    HW2 5736   2.730   6.985   6.711
 1613SOL     OW 5737   1.062   5.977   2.039
 1613SOL    HW1 5738   1.141   6.020   2.084
 1613SOL    HW2 5739   1.031   6.034   1.964
 1614SOL     OW 5740   5.391   3.034   6.788
 1614SOL    HW1 5741   5.421   2.942   6.812
 1614SOL    HW2 5742   5.348   3.032   6.698
 1615SOL     OW 5743   6.063   5.725   0.600
 1615SOL    HW1 5744   6.014   5.779   0.530
 1615SOL    HW2 5745   6.100   5.642   0.558
 1616SOL     OW 5746   3.319   1.219   5.346
 1616SOL    HW1 5747   3.328   1.248   5.251
 1616SOL    HW2 5748   3.222   1.220   5.372
 1617SOL     OW 5749   5.826   6.596   2.788
 1617SOL    HW1 5750   5.906   6.644   2.824
 1617SOL    HW2 5751   5.765   6.573   2.864
 1618SOL     OW 5752   1.550   5.295   2.057
 1618SOL    HW1 5753   1.485   5.371   2.062
 1618SOL    HW2 5754   1.513   5.216   2.105
 1619SOL     OW 5755   1.004   4.129   1.859
 1619SOL    HW1 5756   1.001   4.151   1.761
 1619SOL    HW2 5757   0.936   4.058   1.878
 1620SOL     OW 5758   2.779   4.699   1.608
 1620SOL    HW1 5759   2.748   4.783   1.652
 1620SOL    HW2 5760   2.813   4.636   1.678
 1621SOL     OW 5761   0.155   1.354   0.856
 1621SOL    HW1 5762   0.197   1.315   0.938
 1621SOL    HW2 5763   0.059   1.328   0.852
 1622SOL     OW 5764   0.555   2.990   4.816
 1622SOL    HW1 5765   0.540   3.012   4.719
 1622SOL    HW2 5766   0.562   3.075   4.868
 1623SOL     OW 5767   2.129   3.100   4.942
 1623SOL    HW1 5768   2.093   3.101   5.035
 1623SOL    HW2 5769   2.215   3.047   4.939
 1624SOL     OW 5770   3.127   1.020   5.203
 1624SOL    HW1 5771   3.115   1.114   5.170
 1624SOL    HW2 5772   3.225   0.999   5.208
 1625SOL     OW 5773   1.563   4.892   0.246
 1625SOL    HW1 5774   1.662   4.902   0.257
 1625SOL    HW2 5775   1.534   4.941   0.163
 1626SOL     OW 5776   4.308   1.847   6.975
 1626SOL    HW1 5777   4.321   1.767   0.007
 1626SOL    HW2 5778   4.270   1.922   0.004
 1627SOL     OW 5779   6.583   3.322   3.343
 1627SOL    HW1 5780   6.666   3.275   3.374
 1627SOL    HW2 5781   6.517   3.254   3.311
 1628SOL     OW 5782   5.125   4.313   6.949
 1628SOL    HW1 5783   5.209   4.291   6.900
 1628SOL    HW2 5784   5.084   4.396   6.911
 1629SOL     OW 5785   3.243   0.717   4.073
 1629SOL    HW1 5786   3.285   0.808   4.081
 1629SOL    HW2 5787   3.284   0.656   4.141
 1630SOL     OW 5788   1.529   4.811   5.543
 1630SOL    HW1 5789   1.504   4.885   5.606
 1630SOL    HW2 5790   1.485   4.726   5.573
 1631SOL     OW 5791   1.076   3.153   6.966
 1631SOL    HW1 5792   1.158   3.182   6.916
 1631SOL    HW2 5793   1.049   3.226   0.004
 1632SOL     OW 5794   6.224   2.543   0.426
 1632SOL    HW1 5795   6.280   2.461   0.423
 1632SOL    HW2 5796   6.273   2.619   0.382
 1633SOL     OW 5797   5.589   3.928   4.322
 1633SOL    HW1 5798   5.509   3.884   4.363
 1633SOL    HW2 5799   5.562   4.018   4.286
 1634SOL     OW 5800   4.014   5.765   5.009
 1634SOL    HW1 5801   4.094   5.717   4.973
 1634SOL    HW2 5802   3.941   5.698   5.027
 1635SOL     OW 5803   0.195   4.941   6.854
 1635SOL    HW1 5804   0.132   4.865   6.837
 1635SOL    HW2 5805   0.242   4.965   6.769
 1636SOL     OW 5806   2.614   4.421   1.687
 1636SOL    HW1 5807   2.552   4.494   1.715
 1636SOL    HW2 5808   2.708   4.449   1.704
 1637SOL     OW 5809   0.481   0.712   2.783
 1637SOL    HW1 5810   0.429   0.667   2.855
 1637SOL    HW2 5811   0.424   0.782   2.739
 1638SOL     OW 5812   0.013   4.328   3.367
 1638SOL    HW1 5813   0.010   4.314   3.466
 1638SOL    HW2 5814   6.946   4.342   3.333
 1639SOL     OW 5815   5.193   0.045   2.182
 1639SOL    HW1 5816   5.243   6.984   2.183
 1639SOL    HW2 5817   5.254   0.120   2.209
 1640SOL     OW 5818   6.325   0.769   0.234
 1640SOL    HW1 5819   6.344   0.691   0.174
 1640SOL    HW2 5820   6.253   0.825   0.194
 1641SOL     OW 5821   4.660   1.994   3.147
 1641SOL    HW1 5822   4.662   1.895   3.157
 1641SOL    HW2 5823   4.733   2.035   3.201
 1642SOL     OW 5824   6.249   3.544   6.335
 1642SOL    HW1 5825   6.210   3.622   6.384
 1642SOL    HW2 5826   6.184   3.510   6.268
 1643SOL     OW 5827   2.867   4.784   4.791
 1643SOL    HW1 5828   2.843   4.726   4.869
 1643SOL    HW2 5829   2.823   4.750   4.709
 1644SOL     OW 5830   6.114   3.432   0.331
 1644SOL    HW1 5831   6.081   3.526   0.321
 1644SOL    HW2 5832   6.059   3.372   0.273
 1645SOL     OW 5833   3.304   5.081   6.111
 1645SOL    HW1 5834   3.306   5.005   6.046
 1645SOL    HW2 5835   3.290   5.167   6.062
 1646SOL     OW 5836   2.930   6.326   0.014
 1646SOL    HW1 5837   2.919   6.245   0.072
 1646SOL    HW2 5838   2.879   6.402   0.052
 1647SOL     OW 5839   5.615   3.381   4.794
 1647SOL    HW1 5840   5.558   3.313   4.750
 1647SOL    HW2 5841   5.581   3.399   4.886
 1648SOL     OW 5842   5.323   5.418   0.747
 1648SOL    HW1 5843   5.306   5.515   0.732
 1648SOL    HW2 5844   5.419   5.405   0.773
 1649SOL     OW 5845   3.340   1.270   4.290
 1649SOL    HW1 5846   3.367   1.300   4.381
 1649SOL    HW2 5847   3.253   1.221   4.296
 1650SOL     OW 5848   1.833   6.277   5.877
 1650SOL    HW1 5849   1.908   6.238   5.822
 1650SOL    HW2 5850   1.748   6.232   5.853
 1651SOL     OW 5851   0.378   1.628   1.917
 1651SOL    HW1 5852   0.433   1.630   2.000
 1651SOL    HW2 5853   0.412   1.696   1.853
 1652SOL     OW 5854   0.889   3.732   2.391
 1652SOL    HW1 5855   0.870   3.699   2.298
 1652SOL    HW2 5856   0.841   3.675   2.457
 1653SOL     OW 5857   0.789   6.734   1.179
 1653SOL    HW1 5858   0.806   6.816   1.123
 1653SOL    HW2 5859   0.736   6.760   1.260
 1654SOL     OW 5860   0.845   3.898   1.927
 1654SOL    HW1 5861   0.791   3.872   2.007
 1654SOL    HW2 5862   0.801   3.863   1.844
 1655SOL     OW 5863   0.919   2.154   5.272
 1655SOL    HW1 5864   0.850   2.082   5.268
 1655SOL    HW2 5865   0.929   2.186   5.366
 1656SOL     OW 5866   2.469   4.490   2.426
 1656SOL    HW1 5867   2.560   4.510   2.390
 1656SOL    HW2 5868   2.477   4.446   2.516
 1657SOL     OW 5869   0.235   1.171   3.688
 1657SOL    HW1 5870   0.277   1.236   3.624
 1657SOL    HW2 5871   0.256   1.199   3.781
 1658SOL     OW 5872   0.120   6.100   1.201
 1658SOL    HW1 5873   0.176   6.072   1.124
 1658SOL    HW2 5874   0.085   6.193   1.185
 1659SOL     OW 5875   3.946   6.853   6.392
 1659SOL    HW1 5876   3.956   6.950   6.372
 1659SOL    HW2 5877   3.917   6.842   6.487
 1660SOL     OW 5878   1.394   5.333   3.832
 1660SOL    HW1 5879   1.367   5.276   3.755
 1660SOL    HW2 5880   1.322   5.331   3.902
 1661SOL     OW 5881   2.502   0.336   1.386
 1661SOL    HW1 5882   2.443   0.369   1.461
 1661SOL    HW2 5883   2.590   0.307   1.424
 1662SOL     OW 5884   6.330   0.936   4.566
 1662SOL    HW1 5885   6.293   0.993   4.639
 1662SOL    HW2 5886   6.415   0.977   4.532
 1663SOL     OW 5887   4.570   6.010   2.971
 1663SOL    HW1 5888   4.633   6.086   2.984
 1663SOL    HW2 5889   4.609   5.927   3.011
 1664SOL     OW 5890   1.860   0.157   4.891
 1664SOL    HW1 5891   1.887   0.253   4.901
 1664SOL    HW2 5892   1.788   0.150   4.822
 1665SOL     OW 5893   0.030   1.787   2.892
 1665SOL    HW1 5894   6.959   1.773   2.871
 1665SOL    HW2 5895   0.059   1.877   2.859
 1666SOL     OW 5896   5.452   2.154   6.806
 1666SOL    HW1 5897   5.500   2.074   6.840
 1666SOL    HW2 5898   5.379   2.179   6.870
 1667SOL     OW 5899   6.703   6.119   1.364
 1667SOL    HW1 5900   6.768   6.096   1.292
 1667SOL    HW2 5901   6.619   6.066   1.350
 1668SOL     OW 5902   5.573   6.608   4.847
 1668SOL    HW1 5903   5.488   6.593   4.896
 1668SOL    HW2 5904   5.642   6.644   4.910
 1669SOL     OW 5905   6.122   5.562   6.446
 1669SOL    HW1 5906   6.035   5.552   6.495
 1669SOL    HW2 5907   6.196   5.579   6.511
 1670SOL     OW 5908   0.229   4.025   5.600
 1670SOL    HW1 5909   0.308   4.039   5.541
 1670SOL    HW2 5910   0.221   3.928   5.623
 1671SOL     OW 5911   5.193   1.583   1.927
 1671SOL    HW1 5912   5.105   1.629   1.936
 1671SOL    HW2 5913   5.223   1.586   1.832
 1672SOL     OW 5914   1.548   3.159   1.125
 1672SOL    HW1 5915   1.512   3.070   1.096
 1672SOL    HW2 5916   1.620   3.145   1.193
 1673SOL     OW 5917   1.375   1.296   4.159
 1673SOL    HW1 5918   1.453   1.250   4.203
 1673SOL    HW2 5919   1.308   1.228   4.130
 1674SOL     OW 5920   0.772   3.235   2.208
 1674SOL    HW1 5921   0.712   3.245   2.128
 1674SOL    HW2 5922   0.732   3.170   2.272
 1675SOL     OW 5923   5.353   0.105   0.181
 1675SOL    HW1 5924   5.382   0.059   0.097
 1675SOL    HW2 5925   5.424   0.093   0.252
 1676SOL     OW 5926   2.264   2.359   2.162
 1676SOL    HW1 5927   2.321   2.418   2.219
 1676SOL    HW2 5928   2.319   2.323   2.087
 1677SOL     OW 5929   3.213   3.638   4.237
 1677SOL    HW1 5930   3.290   3.577   4.220
 1677SOL    HW2 5931   3.240   3.732   4.214
 1678SOL     OW 5932   5.198   4.144   4.248
 1678SOL    HW1 5933   5.130   4.070   4.250
 1678SOL    HW2 5934   5.252   4.142   4.332
 1679SOL     OW 5935   2.421   2.295   4.321
 1679SOL    HW1 5936   2.448   2.344   4.404
 1679SOL    HW2 5937   2.489   2.312   4.249
 1680SOL     OW 5938   7.014   2.871   4.859
 1680SOL    HW1 5939   6.993   2.777   4.885
 1680SOL    HW2 5940   6.930   2.923   4.850
 1681SOL     OW 5941   6.780   5.531   0.275
 1681SOL    HW1 5942   6.734   5.620   0.269
 1681SOL    HW2 5943   6.740   5.468   0.208
 1682SOL     OW 5944   1.590   1.157   4.332
 1682SOL    HW1 5945   1.643   1.097   4.271
 1682SOL    HW2 5946   1.651   1.227   4.370
 1683SOL     OW 5947   4.970   5.327   1.445
 1683SOL    HW1 5948   5.064   5.348   1.473
 1683SOL    HW2 5949   4.940   5.395   1.379
 1684SOL     OW 5950   0.878   5.885   2.208
 1684SOL    HW1 5951   0.791   5.918   2.170
 1684SOL    HW2 5952   0.952   5.902   2.143
 1685SOL     OW 5953   2.827   1.002   4.601
 1685SOL    HW1 5954   2.868   0.941   4.669
 1685SOL    HW2 5955   2.741   0.962   4.568
 1686SOL     OW 5956   2.870   5.970   4.562
 1686SOL    HW1 5957   2.926   6.011   4.490
 1686SOL    HW2 5958   2.803   5.908   4.521
 1687SOL     OW 5959   1.945   3.377   1.516
 1687SOL    HW1 5960   1.997   3.321   1.451
 1687SOL    HW2 5961   2.004   3.400   1.593
 1688SOL     OW 5962   2.406   2.671   4.054
 1688SOL    HW1 5963   2.327   2.730   4.072
 1688SOL    HW2 5964   2.435   2.681   3.959
 1689SOL     OW 5965   5.697   1.308   2.795
 1689SOL    HW1 5966   5.745   1.350   2.872
 1689SOL    HW2 5967   5.620   1.365   2.768
 1690SOL     OW 5968   1.624   2.739   3.750
 1690SOL    HW1 5969   1.618   2.722   3.849
 1690SOL    HW2 5970   1.717   2.723   3.719
 1691SOL     OW 5971   6.469   3.458   3.540
 1691SOL    HW1 5972   6.513   3.421   3.459
 1691SOL    HW2 5973   6.492   3.555   3.550
 1692SOL     OW 5974   5.569   6.251   1.423
 1692SOL    HW1 5975   5.569   6.338   1.372
 1692SOL    HW2 5976   5.511   6.260   1.504
 1693SOL     OW 5977   6.926   1.893   2.128
 1693SOL    HW1 5978   6.944   1.944   2.212
 1693SOL    HW2 5979   7.005   1.902   2.066
 1694SOL     OW 5980   5.629   0.436   2.071
 1694SOL    HW1 5981   5.650   0.512   2.009
 1694SOL    HW2 5982   5.592   0.472   2.156
 1695SOL     OW 5983   3.930   0.973   5.240
 1695SOL    HW1 5984   3.886   1.025   5.314
 1695SOL    HW2 5985   3.982   0.897   5.280
 1696SOL     OW 5986   4.540   4.715   0.290
 1696SOL    HW1 5987   4.497   4.781   0.228
 1696SOL    HW2 5988   4.544   4.753   0.382
 1697SOL     OW 5989   5.821   0.383   0.734
 1697SOL    HW1 5990   5.773   0.398   0.648
 1697SOL    HW2 5991   5.862   0.292   0.735
 1698SOL     OW 5992   4.298   0.396   0.265
 1698SOL    HW1 5993   4.237   0.469   0.236
 1698SOL    HW2 5994   4.393   0.423   0.250
 1699SOL     OW 5995   1.581   0.722   1.135
 1699SOL    HW1 5996   1.501   0.662   1.141
 1699SOL    HW2 5997   1.636   0.695   1.056
 1700SOL     OW 5998   5.747   2.565   4.028
 1700SOL    HW1 5999   5.834   2.528   3.995
 1700SOL    HW2 6000   5.763   2.632   4.100
 1701SOL     OW 6001   4.806   4.283   6.549
 1701SOL    HW1 6002   4.771   4.189   6.555
 1701SOL    HW2 6003   4.742   4.345   6.595
 1702SOL     OW 6004   6.774   2.436   0.596
 1702SOL    HW1 6005   6.727   2.365   0.543
 1702SOL    HW2 6006   6.851   2.395   0.645
 1703SOL     OW 6007   2.899   2.580   1.708
 1703SOL    HW1 6008   2.917   2.499   1.765
 1703SOL    HW2 6009   2.819   2.561   1.650
 1704SOL     OW 6010   1.104   2.379   1.192
 1704SOL    HW1 6011   1.196   2.417   1.188
 1704SOL    HW2 6012   1.067   2.372   1.099
 1705SOL     OW 6013   3.204   1.582   1.668
 1705SOL    HW1 6014   3.274   1.603   1.600
 1705SOL    HW2 6015   3.234   1.610   1.758
 1706SOL     OW 6016   4.878   1.077   2.277
 1706SOL    HW1 6017   4.889   1.093   2.179
 1706SOL    HW2 6018   4.893   1.163   2.326
 1707SOL     OW 6019   5.008   2.080   2.174
 1707SOL    HW1 6020   4.978   2.017   2.245
 1707SOL    HW2 6021   4.938   2.151   2.160
 1708SOL     OW 6022   4.828   5.600   1.710
 1708SOL    HW1 6023   4.878   5.525   1.752
 1708SOL    HW2 6024   4.758   5.634   1.773
 1709SOL     OW 6025   3.147   5.936   2.359
 1709SOL    HW1 6026   3.162   5.986   2.445
 1709SOL    HW2 6027   3.209   5.971   2.289
 1710SOL     OW 6028   5.205   4.916   3.927
 1710SOL    HW1 6029   5.245   5.004   3.950
 1710SOL    HW2 6030   5.114   4.908   3.969
 1711SOL     OW 6031   1.372   4.582   4.195
 1711SOL    HW1 6032   1.343   4.516   4.126
 1711SOL    HW2 6033   1.306   4.658   4.198
 1712SOL     OW 6034   6.710   2.226   5.562
 1712SOL    HW1 6035   6.679   2.298   5.624
 1712SOL    HW2 6036   6.748   2.150   5.614
 1713SOL     OW 6037   4.372   2.609   1.565
 1713SOL    HW1 6038   4.422   2.524   1.548
 1713SOL    HW2 6039   4.296   2.617   1.501
 1714SOL     OW 6040   3.281   1.567   5.559
 1714SOL    HW1 6041   3.348   1.516   5.504
 1714SOL    HW2 6042   3.218   1.503   5.601
 1715SOL     OW 6043   0.421   5.622   3.071
 1715SOL    HW1 6044   0.418   5.707   3.019
 1715SOL    HW2 6045   0.366   5.631   3.154
 1716SOL     OW 6046   4.753   6.683   3.136
 1716SOL    HW1 6047   4.801   6.766   3.106
 1716SOL    HW2 6048   4.723   6.695   3.230
 1717SOL     OW 6049   2.580   6.352   5.774
 1717SOL    HW1 6050   2.487   6.377   5.800
 1717SOL    HW2 6051   2.645   6.419   5.811
 1718SOL     OW 6052   2.406   2.056   1.627
 1718SOL    HW1 6053   2.323   2.004   1.647
 1718SOL    HW2 6054   2.487   2.003   1.653
 1719SOL     OW 6055   1.397   3.388   1.176
 1719SOL    HW1 6056   1.409   3.293   1.204
 1719SOL    HW2 6057   1.462   3.410   1.104
 1720SOL     OW 6058   6.958   3.404   0.319
 1720SOL    HW1 6059   7.001   3.383   0.232
 1720SOL    HW2 6060   6.914   3.322   0.356
 1721SOL     OW 6061   1.508   6.334   1.537
 1721SOL    HW1 6062   1.599   6.327   1.496
 1721SOL    HW2 6063   1.502   6.419   1.590
 1722SOL     OW 6064   3.660   1.358   3.686
 1722SOL    HW1 6065   3.755   1.380   3.704
 1722SOL    HW2 6066   3.601   1.412   3.745
 1723SOL     OW 6067   6.077   2.377   2.621
 1723SOL    HW1 6068   6.118   2.290   2.648
 1723SOL    HW2 6069   6.149   2.445   2.607
 1724SOL     OW 6070   6.834   2.652   1.704
 1724SOL    HW1 6071   6.834   2.722   1.776
 1724SOL    HW2 6072   6.897   2.678   1.631
 1725SOL     OW 6073   2.001   4.996   6.573
 1725SOL    HW1 6074   2.065   5.035   6.639
 1725SOL    HW2 6075   1.953   5.070   6.525
 1726SOL     OW 6076   5.875   4.747   4.851
 1726SOL    HW1 6077   5.849   4.657   4.884
 1726SOL    HW2 6078   5.919   4.798   4.924
 1727SOL     OW 6079   3.437   2.904   4.169
 1727SOL    HW1 6080   3.461   2.992   4.211
 1727SOL    HW2 6081   3.339   2.901   4.151
 1728SOL     OW 6082   5.023   4.833   5.175
 1728SOL    HW1 6083   5.020   4.855   5.077
 1728SOL    HW2 6084   4.941   4.868   5.220
 1729SOL     OW 6085   2.266   4.226   2.892
 1729SOL    HW1 6086   2.248   4.132   2.918
 1729SOL    HW2 6087   2.304   4.276   2.970
 1730SOL     OW 6088   1.327   6.722   5.964
 1730SOL    HW1 6089   1.351   6.706   5.868
 1730SOL    HW2 6090   1.251   6.664   5.990
 1731SOL     OW 6091   6.650   3.946   3.155
 1731SOL    HW1 6092   6.664   3.848   3.139
 1731SOL    HW2 6093   6.724   3.998   3.111
 1732SOL     OW 6094   2.547   5.348   5.430
 1732SOL    HW1 6095   2.512   5.325   5.340
 1732SOL    HW2 6096   2.597   5.271   5.468
 1733SOL     OW 6097   2.025   4.639   1.482
 1733SOL    HW1 6098   1.966   4.612   1.558
 1733SOL    HW2 6099   2.089   4.709   1.513
 1734SOL     OW 6100   4.534   3.124   0.905
 1734SOL    HW1 6101   4.552   3.208   0.956
 1734SOL    HW2 6102   4.438   3.098   0.916
 1735SOL     OW 6103   5.055   5.983   0.553
 1735SOL    HW1 6104   5.005   6.030   0.626
 1735SOL    HW2 6105   5.015   6.008   0.465
 1736SOL     OW 6106   3.142   3.303   0.473
 1736SOL    HW1 6107   3.231   3.317   0.431
 1736SOL    HW2 6108   3.152   3.250   0.557
 1737SOL     OW 6109   3.043   1.247   4.285
 1737SOL    HW1 6110   3.050   1.254   4.185
 1737SOL    HW2 6111   3.000   1.161   4.309
 1738SOL     OW 6112   2.209   2.499   4.157
 1738SOL    HW1 6113   2.296   2.546   4.170
 1738SOL    HW2 6114   2.164   2.487   4.246
 1739SOL     OW 6115   0.120   2.344   5.328
 1739SOL    HW1 6116   0.217   2.364   5.341
 1739SOL    HW2 6117   0.107   2.245   5.326
 1740SOL     OW 6118   6.872   1.913   5.491
 1740SOL    HW1 6119   6.955   1.860   5.473
 1740SOL    HW2 6120   6.800   1.884   5.429
 1741SOL     OW 6121   2.212   0.341   3.585
 1741SOL    HW1 6122   2.119   0.370   3.561
 1741SOL    HW2 6123   2.227   0.353   3.683
 1742SOL     OW 6124   5.852   0.552   6.626
 1742SOL    HW1 6125   5.949   0.543   6.648
 1742SOL    HW2 6126   5.842   0.601   6.539
 1743SOL     OW 6127   0.962   2.205   1.569
 1743SOL    HW1 6128   0.966   2.232   1.665
 1743SOL    HW2 6129   0.871   2.169   1.548
 1744SOL     OW 6130   6.421   1.810   2.237
 1744SOL    HW1 6131   6.467   1.815   2.148
 1744SOL    HW2 6132   6.488   1.786   2.308
 1745SOL     OW 6133   5.844   5.900   2.436
 1745SOL    HW1 6134   5.815   5.944   2.521
 1745SOL    HW2 6135   5.922   5.840   2.455
 1746SOL     OW 6136   0.991   4.094   4.521
 1746SOL    HW1 6137   0.963   4.179   4.567
 1746SOL    HW2 6138   1.089   4.079   4.536
 1747SOL     OW 6139   4.797   1.494   3.407
 1747SOL    HW1 6140   4.851   1.455   3.483
 1747SOL    HW2 6141   4.783   1.591   3.423
 1748SOL     OW 6142   1.260   0.909   5.403
 1748SOL    HW1 6143   1.284   0.834   5.464
 1748SOL    HW2 6144   1.170   0.892   5.363
 1749SOL     OW 6145   2.661   0.492   4.816
 1749SOL    HW1 6146   2.732   0.536   4.761
 1749SOL    HW2 6147   2.674   0.393   4.814
 1750SOL     OW 6148   5.369   6.292   4.291
 1750SOL    HW1 6149   5.368   6.338   4.380
 1750SOL    HW2 6150   5.353   6.359   4.219
 1751SOL     OW 6151   3.941   6.472   4.786
 1751SOL    HW1 6152   3.931   6.571   4.785
 1751SOL    HW2 6153   4.017   6.446   4.846
 1752SOL     OW 6154   6.612   2.031   1.754
 1752SOL    HW1 6155   6.711   2.046   1.746
 1752SOL    HW2 6156   6.594   1.933   1.758
 1753SOL     OW 6157   0.269   1.245   1.101
 1753SOL    HW1 6158   0.228   1.220   1.189
 1753SOL    HW2 6159   0.317   1.332   1.111
 1754SOL     OW 6160   1.255   4.588   6.782
 1754SOL    HW1 6161   1.342   4.574   6.736
 1754SOL    HW2 6162   1.201   4.503   6.780
 1755SOL     OW 6163   6.767   5.827   2.199
 1755SOL    HW1 6164   6.723   5.769   2.129
 1755SOL    HW2 6165   6.866   5.818   2.191
 1756SOL     OW 6166   4.145   6.012   5.917
 1756SOL    HW1 6167   4.065   5.984   5.863
 1756SOL    HW2 6168   4.226   5.965   5.884
 1757SOL     OW 6169   2.383   5.360   4.798
 1757SOL    HW1 6170   2.366   5.263   4.816
 1757SOL    HW2 6171   2.296   5.410   4.805
 1758SOL     OW 6172   2.331   0.151   4.085
 1758SOL    HW1 6173   2.323   0.065   4.035
 1758SOL    HW2 6174   2.428   0.174   4.098
 1759SOL     OW 6175   1.486   6.001   6.234
 1759SOL    HW1 6176   1.552   6.040   6.298
 1759SOL    HW2 6177   1.524   6.003   6.141
 1760SOL     OW 6178   5.322   1.363   3.128
 1760SOL    HW1 6179   5.418   1.383   3.147
 1760SOL    HW2 6180   5.264   1.432   3.172
 1761SOL     OW 6181   0.316   0.557   0.656
 1761SOL    HW1 6182   0.368   0.591   0.578
 1761SOL    HW2 6183   0.327   0.619   0.734
 1762SOL     OW 6184   0.621   0.977   5.094
 1762SOL    HW1 6185   0.653   1.063   5.134
 1762SOL    HW2 6186   0.628   0.904   5.162
 1763SOL     OW 6187   1.392   4.002   3.952
 1763SOL    HW1 6188   1.329   3.963   3.886
 1763SOL    HW2 6189   1.477   4.029   3.906
 1764SOL     OW 6190   2.026   3.477   2.614
 1764SOL    HW1 6191   1.937   3.510   2.581
 1764SOL    HW2 6192   2.060   3.407   2.551
 1765SOL     OW 6193   3.483   1.000   1.066
 1765SOL    HW1 6194   3.450   1.035   0.979
 1765SOL    HW2 6195   3.579   1.026   1.079
 1766SOL     OW 6196   5.011   4.159   2.499
 1766SOL    HW1 6197   5.103   4.126   2.519
 1766SOL    HW2 6198   5.012   4.213   2.415
 1767SOL     OW 6199   0.542   3.691   2.760
 1767SOL    HW1 6200   0.523   3.606   2.810
 1767SOL    HW2 6201   0.455   3.732   2.731
 1768SOL     OW 6202   4.057   2.026   6.102
 1768SOL    HW1 6203   4.008   1.966   6.165
 1768SOL    HW2 6204   4.130   2.074   6.151
 1769SOL     OW 6205   4.293   1.793   6.144
 1769SOL    HW1 6206   4.312   1.890   6.128
 1769SOL    HW2 6207   4.335   1.765   6.230
 1770SOL     OW 6208   6.981   4.471   4.577
 1770SOL    HW1 6209   6.895   4.423   4.595
 1770SOL    HW2 6210   0.017   4.411   4.525
 1771SOL     OW 6211   1.759   5.260   0.202
 1771SOL    HW1 6212   1.728   5.332   0.264
 1771SOL    HW2 6213   1.723   5.277   0.111
 1772SOL     OW 6214   3.271   0.370   3.394
 1772SOL    HW1 6215   3.339   0.336   3.329
 1772SOL    HW2 6216   3.180   0.368   3.353
 1773SOL     OW 6217   3.181   3.727   6.594
 1773SOL    HW1 6218   3.259   3.677   6.558
 1773SOL    HW2 6219   3.172   3.815   6.548
 1774SOL     OW 6220   4.492   0.186   1.642
 1774SOL    HW1 6221   4.581   0.210   1.603
 1774SOL    HW2 6222   4.498   0.185   1.742
 1775SOL     OW 6223   1.752   5.410   5.251
 1775SOL    HW1 6224   1.826   5.476   5.266
 1775SOL    HW2 6225   1.729   5.366   5.337
 1776SOL     OW 6226   4.607   1.057   6.020
 1776SOL    HW1 6227   4.574   0.967   6.048
 1776SOL    HW2 6228   4.530   1.120   6.010
 1777SOL     OW 6229   2.781   5.658   5.696
 1777SOL    HW1 6230   2.872   5.664   5.656
 1777SOL    HW2 6231   2.713   5.651   5.622
 1778SOL     OW 6232   4.362   2.161   4.365
 1778SOL    HW1 6233   4.425   2.106   4.310
 1778SOL    HW2 6234   4.387   2.154   4.462
 1779SOL     OW 6235   3.873   1.688   4.410
 1779SOL    HW1 6236   3.829   1.770   4.447
 1779SOL    HW2 6237   3.807   1.613   4.409
 1780SOL     OW 6238   1.931   4.250   5.646
 1780SOL    HW1 6239   1.923   4.327   5.710
 1780SOL    HW2 6240   2.027   4.222   5.639
 1781SOL     OW 6241   5.160   4.980   3.419
 1781SOL    HW1 6242   5.137   5.019   3.509
 1781SOL    HW2 6243   5.113   5.032   3.347
 1782SOL     OW 6244   2.884   1.743   3.272
 1782SOL    HW1 6245   2.937   1.664   3.241
 1782SOL    HW2 6246   2.799   1.750   3.220
 1783SOL     OW 6247   2.315   3.439   5.798
 1783SOL    HW1 6248   2.359   3.451   5.887
 1783SOL    HW2 6249   2.377   3.471   5.726
 1784SOL     OW 6250   2.751   1.036   2.482
 1784SOL    HW1 6251   2.697   1.036   2.566
 1784SOL    HW2 6252   2.790   1.127   2.468
 1785SOL     OW 6253   5.300   5.477   3.482
 1785SOL    HW1 6254   5.393   5.473   3.447
 1785SOL    HW2 6255   5.281   5.570   3.513
 1786SOL     OW 6256   0.907   3.696   0.620
 1786SOL    HW1 6257   0.822   3.748   0.615
 1786SOL    HW2 6258   0.891   3.608   0.666
 1787SOL     OW 6259   2.421   0.785   5.228
 1787SOL    HW1 6260   2.386   0.856   5.290
 1787SOL    HW2 6261   2.474   0.718   5.281
 1788SOL     OW 6262   3.375   3.751   6.938
 1788SOL    HW1 6263   3.365   3.749   0.012
 1788SOL    HW2 6264   3.414   3.665   6.906
 1789SOL     OW 6265   5.849   2.461   2.508
 1789SOL    HW1 6266   5.781   2.420   2.568
 1789SOL    HW2 6267   5.940   2.442   2.544
 1790SOL     OW 6268   4.151   6.739   4.551
 1790SOL    HW1 6269   4.213   6.696   4.616
 1790SOL    HW2 6270   4.058   6.740   4.589
 1791SOL     OW 6271   0.665   1.281   4.583
 1791SOL    HW1 6272   0.615   1.368   4.589
 1791SOL    HW2 6273   0.600   1.205   4.580
 1792SOL     OW 6274   0.913   1.211   4.476
 1792SOL    HW1 6275   0.862   1.127   4.462
 1792SOL    HW2 6276   0.856   1.279   4.522
 1793SOL     OW 6277   6.661   0.523   3.352
 1793SOL    HW1 6278   6.747   0.560   3.388
 1793SOL    HW2 6279   6.589   0.535   3.420
 1794SOL     OW 6280   5.125   6.556   6.346
 1794SOL    HW1 6281   5.141   6.640   6.294
 1794SOL    HW2 6282   5.149   6.570   6.442
 1795SOL     OW 6283   6.733   4.870   1.867
 1795SOL    HW1 6284   6.812   4.928   1.885
 1795SOL    HW2 6285   6.720   4.806   1.943
 1796SOL     OW 6286   2.367   1.264   4.218
 1796SOL    HW1 6287   2.353   1.361   4.199
 1796SOL    HW2 6288   2.339   1.210   4.138
 1797SOL     OW 6289   1.589   6.849   6.043
 1797SOL    HW1 6290   1.586   6.913   5.966
 1797SOL    HW2 6291   1.498   6.811   6.058
 1798SOL     OW 6292   4.875   2.940   5.528
 1798SOL    HW1 6293   4.887   3.026   5.577
 1798SOL    HW2 6294   4.937   2.936   5.450
 1799SOL     OW 6295   5.789   2.354   6.485
 1799SOL    HW1 6296   5.879   2.396   6.477
 1799SOL    HW2 6297   5.720   2.415   6.445
 1800SOL     OW 6298   5.237   4.222   3.536
 1800SOL    HW1 6299   5.258   4.290   3.607
 1800SOL    HW2 6300   5.308   4.224   3.466
 1801SOL     OW 6301   1.066   1.536   3.197
 1801SOL    HW1 6302   1.031   1.496   3.112
 1801SOL    HW2 6303   1.141   1.479   3.232
 1802SOL     OW 6304   6.030   5.676   3.111
 1802SOL    HW1 6305   5.931   5.678   3.118
 1802SOL    HW2 6306   6.064   5.768   3.092
 1803SOL     OW 6307   6.565   6.379   1.159
 1803SOL    HW1 6308   6.607   6.457   1.114
 1803SOL    HW2 6309   6.542   6.403   1.254
 1804SOL     OW 6310   3.591   3.471   5.396
 1804SOL    HW1 6311   3.512   3.418   5.366
 1804SOL    HW2 6312   3.660   3.473   5.323
 1805SOL     OW 6313   0.940   4.485   5.944
 1805SOL    HW1 6314   0.903   4.394   5.924
 1805SOL    HW2 6315   1.005   4.511   5.872
 1806SOL     OW 6316   1.719   2.307   1.923
 1806SOL    HW1 6317   1.807   2.261   1.933
 1806SOL    HW2 6318   1.701   2.363   2.004
 1807SOL     OW 6319   6.074   2.458   6.205
 1807SOL    HW1 6320   6.020   2.520   6.148
 1807SOL    HW2 6321   6.128   2.398   6.146
 1808SOL     OW 6322   5.848   4.676   4.531
 1808SOL    HW1 6323   5.921   4.743   4.544
 1808SOL    HW2 6324   5.785   4.679   4.608
 1809SOL     OW 6325   2.648   2.293   4.780
 1809SOL    HW1 6326   2.595   2.218   4.820
 1809SOL    HW2 6327   2.739   2.296   4.823
 1810SOL     OW 6328   1.558   6.845   5.324
 1810SOL    HW1 6329   1.652   6.825   5.352
 1810SOL    HW2 6330   1.498   6.771   5.354
 1811SOL     OW 6331   4.450   4.539   3.224
 1811SOL    HW1 6332   4.373   4.595   3.253
 1811SOL    HW2 6333   4.498   4.585   3.149
 1812SOL     OW 6334   5.137   0.117   5.822
 1812SOL    HW1 6335   5.121   0.177   5.744
 1812SOL    HW2 6336   5.052   0.105   5.873
 1813SOL     OW 6337   4.545   5.000   1.151
 1813SOL    HW1 6338   4.454   4.962   1.168
 1813SOL    HW2 6339   4.537   5.097   1.130
 1814SOL     OW 6340   6.533   0.508   0.852
 1814SOL    HW1 6341   6.611   0.569   0.865
 1814SOL    HW2 6342   6.461   0.556   0.803
 1815SOL     OW 6343   6.162   0.744   2.627
 1815SOL    HW1 6344   6.082   0.690   2.600
 1815SOL    HW2 6345   6.170   0.823   2.565
 1816SOL     OW 6346   2.611   4.783   0.671
 1816SOL    HW1 6347   2.542   4.722   0.711
 1816SOL    HW2 6348   2.662   4.828   0.745
 1817SOL     OW 6349   3.816   6.937   3.115
 1817SOL    HW1 6350   3.876   6.926   3.036
 1817SOL    HW2 6351   3.847   7.015   3.169
 1818SOL     OW 6352   2.566   5.861   1.292
 1818SOL    HW1 6353   2.504   5.784   1.302
 1818SOL    HW2 6354   2.547   5.909   1.206
 1819SOL     OW 6355   0.872   6.499   1.852
 1819SOL    HW1 6356   0.936   6.485   1.776
 1819SOL    HW2 6357   0.794   6.438   1.842
 1820SOL     OW 6358   3.344   0.247   2.170
 1820SOL    HW1 6359   3.356   0.184   2.094
 1820SOL    HW2 6360   3.248   0.273   2.177
 1821SOL     OW 6361   2.666   0.685   1.307
 1821SOL    HW1 6362   2.750   0.729   1.339
 1821SOL    HW2 6363   2.607   0.753   1.264
 1822SOL     OW 6364   0.897   2.734   1.567
 1822SOL    HW1 6365   0.951   2.659   1.530
 1822SOL    HW2 6366   0.807   2.700   1.595
 1823SOL     OW 6367   3.240   5.522   3.097
 1823SOL    HW1 6368   3.172   5.522   3.024
 1823SOL    HW2 6369   3.330   5.544   3.058
 1824SOL     OW 6370   3.777   3.742   0.432
 1824SOL    HW1 6371   3.808   3.685   0.509
 1824SOL    HW2 6372   3.751   3.683   0.356
 1825SOL     OW 6373   1.685   2.196   4.529
 1825SOL    HW1 6374   1.751   2.261   4.566
 1825SOL    HW2 6375   1.610   2.246   4.485
 1826SOL     OW 6376   3.404   1.705   1.550
 1826SOL    HW1 6377   3.401   1.791   1.499
 1826SOL    HW2 6378   3.479   1.648   1.515
 1827SOL     OW 6379   6.605   5.357   1.350
 1827SOL    HW1 6380   6.511   5.323   1.351
 1827SOL    HW2 6381   6.645   5.343   1.260
 1828SOL     OW 6382   1.703   2.648   0.335
 1828SOL    HW1 6383   1.697   2.586   0.257
 1828SOL    HW2 6384   1.620   2.639   0.391
 1829SOL     OW 6385   3.421   0.558   3.196
 1829SOL    HW1 6386   3.382   0.611   3.120
 1829SOL    HW2 6387   3.377   0.468   3.198
 1830SOL     OW 6388   5.847   5.700   4.552
 1830SOL    HW1 6389   5.787   5.652   4.488
 1830SOL    HW2 6390   5.942   5.693   4.521
 1831SOL     OW 6391   5.686   6.916   1.556
 1831SOL    HW1 6392   5.781   6.938   1.532
 1831SOL    HW2 6393   5.679   6.820   1.580
 1832SOL     OW 6394   4.273   2.500   1.127
 1832SOL    HW1 6395   4.313   2.456   1.047
 1832SOL    HW2 6396   4.317   2.465   1.210
 1833SOL     OW 6397   5.310   0.741   0.998
 1833SOL    HW1 6398   5.266   0.693   1.075
 1833SOL    HW2 6399   5.242   0.799   0.953
 1834SOL     OW 6400   2.087   3.928   0.938
 1834SOL    HW1 6401   2.046   3.848   0.981
 1834SOL    HW2 6402   2.182   3.908   0.915
 1835SOL     OW 6403   0.159   4.408   1.553
 1835SOL    HW1 6404   0.227   4.436   1.485
 1835SOL    HW2 6405   0.074   4.382   1.508
 1836SOL     OW 6406   5.294   2.297   1.379
 1836SOL    HW1 6407   5.240   2.213   1.375
 1836SOL    HW2 6408   5.347   2.307   1.295
 1837SOL     OW 6409   0.700   6.823   4.956
 1837SOL    HW1 6410   0.779   6.799   5.012
 1837SOL    HW2 6411   0.727   6.829   4.860
 1838SOL     OW 6412   6.760   1.529   5.742
 1838SOL    HW1 6413   6.753   1.625   5.768
 1838SOL    HW2 6414   6.850   1.493   5.769
 1839SOL     OW 6415   0.154   1.412   5.354
 1839SOL    HW1 6416   0.147   1.331   5.413
 1839SOL    HW2 6417   0.082   1.410   5.285
 1840SOL     OW 6418   3.877   0.343   1.431
 1840SOL    HW1 6419   3.838   0.367   1.520
 1840SOL    HW2 6420   3.805   0.305   1.373
 1841SOL     OW 6421   2.335   1.358   3.492
 1841SOL    HW1 6422   2.319   1.348   3.394
 1841SOL    HW2 6423   2.355   1.269   3.533
 1842SOL     OW 6424   1.388   5.667   0.365
 1842SOL    HW1 6425   1.448   5.713   0.299
 1842SOL    HW2 6426   1.357   5.580   0.327
 1843SOL     OW 6427   6.366   1.417   4.504
 1843SOL    HW1 6428   6.457   1.421   4.544
 1843SOL    HW2 6429   6.331   1.510   4.492
 1844SOL     OW 6430   3.102   6.511   5.176
 1844SOL    HW1 6431   3.056   6.516   5.087
 1844SOL    HW2 6432   3.146   6.599   5.196
 1845SOL     OW 6433   3.181   6.781   5.176
 1845SOL    HW1 6434   3.095   6.831   5.181
 1845SOL    HW2 6435   3.223   6.794   5.087
 1846SOL     OW 6436   3.228   1.381   2.257
 1846SOL    HW1 6437   3.147   1.325   2.276
 1846SOL    HW2 6438   3.292   1.374   2.333
 1847SOL     OW 6439   1.291   0.942   6.306
 1847SOL    HW1 6440   1.230   0.926   6.228
 1847SOL    HW2 6441   1.370   0.882   6.299
 1848SOL     OW 6442   2.281   6.118   3.356
 1848SOL    HW1 6443   2.259   6.147   3.449
 1848SOL    HW2 6444   2.357   6.173   3.321
 1849SOL     OW 6445   4.033   2.705   1.679
 1849SOL    HW1 6446   4.122   2.727   1.718
 1849SOL    HW2 6447   4.043   2.631   1.613
 1850SOL     OW 6448   0.019   2.553   2.768
 1850SOL    HW1 6449   6.977   2.479   2.772
 1850SOL    HW2 6450   0.084   2.536   2.694
 1851SOL     OW 6451   0.697   3.503   6.840
 1851SOL    HW1 6452   0.776   3.454   6.876
 1851SOL    HW2 6453   0.637   3.529   6.915
 1852SOL     OW 6454   6.655   4.626   2.441
 1852SOL    HW1 6455   6.712   4.698   2.482
 1852SOL    HW2 6456   6.714   4.552   2.409
 1853SOL     OW 6457   0.563   2.577   3.616
 1853SOL    HW1 6458   0.589   2.587   3.712
 1853SOL    HW2 6459   0.643   2.551   3.562
 1854SOL     OW 6460   2.386   5.520   3.030
 1854SOL    HW1 6461   2.429   5.594   2.980
 1854SOL    HW2 6462   2.302   5.553   3.074
 1855SOL     OW 6463   5.339   3.952   5.258
 1855SOL    HW1 6464   5.324   3.956   5.159
 1855SOL    HW2 6465   5.267   3.896   5.300
 1856SOL     OW 6466   5.332   4.014   5.960
 1856SOL    HW1 6467   5.234   4.003   5.973
 1856SOL    HW2 6468   5.369   4.075   6.029
 1857SOL     OW 6469   4.023   2.414   6.747
 1857SOL    HW1 6470   3.944   2.386   6.691
 1857SOL    HW2 6471   4.064   2.334   6.790
 1858SOL     OW 6472   5.536   3.280   3.181
 1858SOL    HW1 6473   5.488   3.229   3.252
 1858SOL    HW2 6474   5.569   3.367   3.218
 1859SOL     OW 6475   4.589   1.969   4.291
 1859SOL    HW1 6476   4.592   2.066   4.314
 1859SOL    HW2 6477   4.582   1.958   4.192
 1860SOL     OW 6478   0.549   0.682   4.929
 1860SOL    HW1 6479   0.518   0.709   5.020
 1860SOL    HW2 6480   0.608   0.602   4.935
 1861SOL     OW 6481   6.635   6.684   2.187
 1861SOL    HW1 6482   6.646   6.772   2.140
 1861SOL    HW2 6483   6.542   6.651   2.176
 1862SOL     OW 6484   2.870   0.398   6.217
 1862SOL    HW1 6485   2.924   0.376   6.298
 1862SOL    HW2 6486   2.907   0.349   6.138
 1863SOL     OW 6487   0.283   2.227   3.533
 1863SOL    HW1 6488   0.253   2.316   3.567
 1863SOL    HW2 6489   0.380   2.231   3.509
 1864SOL     OW 6490   1.881   6.409   4.818
 1864SOL    HW1 6491   1.839   6.340   4.877
 1864SOL    HW2 6492   1.840   6.498   4.836
 1865SOL     OW 6493   4.279   6.963   6.945
 1865SOL    HW1 6494   4.246   6.952   6.851
 1865SOL    HW2 6495   4.300   0.033   6.962
 1866SOL     OW 6496   6.173   5.042   3.790
 1866SOL    HW1 6497   6.243   5.057   3.860
 1866SOL    HW2 6498   6.087   5.017   3.835
 1867SOL     OW 6499   0.883   3.735   0.288
 1867SOL    HW1 6500   0.877   3.704   0.383
 1867SOL    HW2 6501   0.838   3.824   0.280
 1868SOL     OW 6502   4.806   3.648   6.616
 1868SOL    HW1 6503   4.834   3.650   6.520
 1868SOL    HW2 6504   4.810   3.741   6.654
 1869SOL     OW 6505   0.090   3.417   4.578
 1869SOL    HW1 6506   0.054   3.378   4.662
 1869SOL    HW2 6507   0.182   3.453   4.594
 1870SOL     OW 6508   1.468   3.009   5.025
 1870SOL    HW1 6509   1.549   2.988   5.079
 1870SOL    HW2 6510   1.492   3.011   4.928
 1871SOL     OW 6511   0.618   0.715   6.472
 1871SOL    HW1 6512   0.692   0.780   6.488
 1871SOL    HW2 6513   0.648   0.623   6.496
 1872SOL     OW 6514   4.585   1.981   0.066
 1872SOL    HW1 6515   4.494   1.988   0.024
 1872SOL    HW2 6516   4.644   1.925   0.008
 1873SOL     OW 6517   6.239   1.148   5.769
 1873SOL    HW1 6518   6.301   1.223   5.791
 1873SOL    HW2 6519   6.154   1.158   5.821
 1874SOL     OW 6520   2.175   1.023   6.816
 1874SOL    HW1 6521   2.205   1.076   6.736
 1874SOL    HW2 6522   2.220   0.934   6.816
 1875SOL     OW 6523   6.923   1.087   1.169
 1875SOL    HW1 6524   6.974   1.004   1.147
 1875SOL    HW2 6525   6.913   1.093   1.268
 1876SOL     OW 6526   3.525   6.548   5.589
 1876SOL    HW1 6527   3.441   6.502   5.559
 1876SOL    HW2 6528   3.561   6.603   5.514
 1877SOL     OW 6529   0.578   1.438   3.734
 1877SOL    HW1 6530   0.653   1.481   3.682
 1877SOL    HW2 6531   0.491   1.465   3.695
 1878SOL     OW 6532   6.942   2.779   4.371
 1878SOL    HW1 6533   6.891   2.851   4.323
 1878SOL    HW2 6534   6.992   2.723   4.304
 1879SOL     OW 6535   2.167   5.564   3.620
 1879SOL    HW1 6536   2.131   5.612   3.540
 1879SOL    HW2 6537   2.103   5.572   3.696
 1880SOL     OW 6538   0.492   1.419   4.008
 1880SOL    HW1 6539   0.483   1.322   4.032
 1880SOL    HW2 6540   0.556   1.429   3.932
 1881SOL     OW 6541   1.407   2.477   3.101
 1881SOL    HW1 6542   1.335   2.412   3.075
 1881SOL    HW2 6543   1.379   2.570   3.074
 1882SOL     OW 6544   1.188   4.173   6.554
 1882SOL    HW1 6545   1.093   4.199   6.535
 1882SOL    HW2 6546   1.199   4.156   6.651
 1883SOL     OW 6547   0.986   3.264   3.506
 1883SOL    HW1 6548   1.048   3.282   3.582
 1883SOL    HW2 6549   0.965   3.350   3.458
 1884SOL     OW 6550   6.358   2.713   0.275
 1884SOL    HW1 6551   6.397   2.788   0.329
 1884SOL    HW2 6552   6.308   2.751   0.197
 1885SOL     OW 6553   0.111   2.139   6.922
 1885SOL    HW1 6554   0.157   2.224   6.896
 1885SOL    HW2 6555   0.013   2.148   6.907
 1886SOL     OW 6556   2.289   1.266   1.148
 1886SOL    HW1 6557   2.323   1.201   1.080
 1886SOL    HW2 6558   2.366   1.305   1.198
 1887SOL     OW 6559   0.510   5.595   6.597
 1887SOL    HW1 6560   0.426   5.645   6.575
 1887SOL    HW2 6561   0.589   5.652   6.576
 1888SOL     OW 6562   2.814   2.071   6.678
 1888SOL    HW1 6563   2.911   2.067   6.655
 1888SOL    HW2 6564   2.799   2.137   6.751
 1889SOL     OW 6565   5.412   2.769   6.227
 1889SOL    HW1 6566   5.405   2.856   6.177
 1889SOL    HW2 6567   5.370   2.780   6.317
 1890SOL     OW 6568   1.626   5.769   5.508
 1890SOL    HW1 6569   1.538   5.776   5.460
 1890SOL    HW2 6570   1.655   5.860   5.537
 1891SOL     OW 6571   5.559   2.753   3.822
 1891SOL    HW1 6572   5.578   2.664   3.865
 1891SOL    HW2 6573   5.464   2.754   3.789
 1892SOL     OW 6574   3.803   0.640   0.822
 1892SOL    HW1 6575   3.773   0.545   0.818
 1892SOL    HW2 6576   3.903   0.643   0.815
 1893SOL     OW 6577   3.022   2.130   6.271
 1893SOL    HW1 6578   2.974   2.127   6.184
 1893SOL    HW2 6579   3.060   2.040   6.291
 1894SOL     OW 6580   3.495   3.658   2.959
 1894SOL    HW1 6581   3.513   3.735   2.897
 1894SOL    HW2 6582   3.582   3.624   2.995
 1895SOL     OW 6583   5.419   1.050   2.468
 1895SOL    HW1 6584   5.353   1.000   2.523
 1895SOL    HW2 6585   5.495   1.081   2.526
 1896SOL     OW 6586   0.632   0.908   2.925
 1896SOL    HW1 6587   0.555   0.864   2.879
 1896SOL    HW2 6588   0.709   0.844   2.928
 1897SOL     OW 6589   0.618   4.937   2.459
 1897SOL    HW1 6590   0.604   4.895   2.369
 1897SOL    HW2 6591   0.711   4.920   2.490
 1898SOL     OW 6592   3.423   4.886   2.385
 1898SOL    HW1 6593   3.364   4.812   2.352
 1898SOL    HW2 6594   3.386   4.924   2.470
 1899SOL     OW 6595   0.674   2.168   2.691
 1899SOL    HW1 6596   0.630   2.218   2.765
 1899SOL    HW2 6597   0.749   2.113   2.728
 1900SOL     OW 6598   1.268   0.317   5.779
 1900SOL    HW1 6599   1.208   0.303   5.857
 1900SOL    HW2 6600   1.296   0.414   5.776
 1901SOL     OW 6601   1.743   1.207   1.630
 1901SOL    HW1 6602   1.800   1.284   1.602
 1901SOL    HW2 6603   1.670   1.195   1.564
 1902SOL     OW 6604   2.249   2.308   5.059
 1902SOL    HW1 6605   2.173   2.347   5.111
 1902SOL    HW2 6606   2.246   2.208   5.065
 1903SOL     OW 6607   6.316   2.965   3.536
 1903SOL    HW1 6608   6.281   2.955   3.442
 1903SOL    HW2 6609   6.239   2.968   3.600
 1904SOL     OW 6610   6.016   6.758   4.734
 1904SOL    HW1 6611   6.007   6.799   4.643
 1904SOL    HW2 6612   6.066   6.672   4.727
 1905SOL     OW 6613   1.960   0.740   3.894
 1905SOL    HW1 6614   1.904   0.721   3.975
 1905SOL    HW2 6615   1.901   0.779   3.823
 1906SOL     OW 6616   2.701   0.074   5.234
 1906SOL    HW1 6617   2.629   0.116   5.179
 1906SOL    HW2 6618   2.747   0.144   5.288
 1907SOL     OW 6619   3.351   7.024   3.103
 1907SOL    HW1 6620   3.350   6.930   3.069
 1907SOL    HW2 6621   3.267   0.045   3.077
 1908SOL     OW 6622   4.197   0.476   4.842
 1908SOL    HW1 6623   4.201   0.396   4.782
 1908SOL    HW2 6624   4.136   0.545   4.802
 1909SOL     OW 6625   1.162   4.151   2.632
 1909SOL    HW1 6626   1.261   4.138   2.623
 1909SOL    HW2 6627   1.123   4.171   2.543
 1910SOL     OW 6628   0.178   2.974   6.478
 1910SOL    HW1 6629   0.217   2.918   6.405
 1910SOL    HW2 6630   0.079   2.959   6.482
 1911SOL     OW 6631   5.650   3.762   4.940
 1911SOL    HW1 6632   5.743   3.727   4.927
 1911SOL    HW2 6633   5.654   3.859   4.966
 1912SOL     OW 6634   2.942   0.127   1.094
 1912SOL    HW1 6635   2.939   0.153   0.998
 1912SOL    HW2 6636   2.912   0.031   1.104
 1913SOL     OW 6637   1.140   5.708   5.314
 1913SOL    HW1 6638   1.163   5.614   5.289
 1913SOL    HW2 6639   1.053   5.733   5.272
 1914SOL     OW 6640   3.598   2.874   6.466
 1914SOL    HW1 6641   3.509   2.897   6.428
 1914SOL    HW2 6642   3.586   2.812   6.544
 1915SOL     OW 6643   3.558   2.038   5.420
 1915SOL    HW1 6644   3.502   2.120   5.433
 1915SOL    HW2 6645   3.568   2.019   5.322
 1916SOL     OW 6646   3.360   5.416   1.247
 1916SOL    HW1 6647   3.399   5.431   1.338
 1916SOL    HW2 6648   3.387   5.326   1.214
 1917SOL     OW 6649   2.999   3.355   4.728
 1917SOL    HW1 6650   3.019   3.396   4.817
 1917SOL    HW2 6651   3.032   3.261   4.727
 1918SOL     OW 6652   0.961   1.468   6.409
 1918SOL    HW1 6653   0.982   1.428   6.320
 1918SOL    HW2 6654   0.866   1.497   6.412
 1919SOL     OW 6655   2.686   0.443   1.212
 1919SOL    HW1 6656   2.626   0.381   1.263
 1919SOL    HW2 6657   2.677   0.536   1.250
 1920SOL     OW 6658   1.624   4.796   2.416
 1920SOL    HW1 6659   1.640   4.877   2.472
 1920SOL    HW2 6660   1.596   4.824   2.324
 1921SOL     OW 6661   1.286   4.947   0.343
 1921SOL    HW1 6662   1.381   4.925   0.321
 1921SOL    HW2 6663   1.249   5.009   0.274
 1922SOL     OW 6664   2.632   4.320   0.695
 1922SOL    HW1 6665   2.705   4.330   0.762
 1922SOL    HW2 6666   2.670   4.297   0.605
 1923SOL     OW 6667   3.235   0.792   5.767
 1923SOL    HW1 6668   3.167   0.762   5.701
 1923SOL    HW2 6669   3.190   0.822   5.851
 1924SOL     OW 6670   4.764   5.169   1.844
 1924SOL    HW1 6671   4.774   5.171   1.745
 1924SOL    HW2 6672   4.802   5.083   1.880
 1925SOL     OW 6673   1.514   4.108   0.421
 1925SOL    HW1 6674   1.498   4.010   0.415
 1925SOL    HW2 6675   1.524   4.134   0.517
 1926SOL     OW 6676   1.788   6.444   2.799
 1926SOL    HW1 6677   1.774   6.543   2.801
 1926SOL    HW2 6678   1.802   6.410   2.891
 1927SOL     OW 6679   3.206   4.228   6.163
 1927SOL    HW1 6680   3.115   4.240   6.204
 1927SOL    HW2 6681   3.242   4.317   6.136
 1928SOL     OW 6682   6.343   4.705   5.815
 1928SOL    HW1 6683   6.345   4.738   5.720
 1928SOL    HW2 6684   6.287   4.622   5.820
 1929SOL     OW 6685   1.279   5.327   1.531
 1929SOL    HW1 6686   1.200   5.311   1.590
 1929SOL    HW2 6687   1.288   5.251   1.466
 1930SOL     OW 6688   3.725   4.045   6.699
 1930SOL    HW1 6689   3.693   4.070   6.608
 1930SOL    HW2 6690   3.669   3.970   6.735
 1931SOL     OW 6691   0.485   3.047   2.373
 1931SOL    HW1 6692   0.423   2.982   2.418
 1931SOL    HW2 6693   0.432   3.125   2.339
 1932SOL     OW 6694   5.024   3.391   3.633
 1932SOL    HW1 6695   4.971   3.386   3.718
 1932SOL    HW2 6696   4.972   3.442   3.564
 1933SOL     OW 6697   2.395   4.527   0.477
 1933SOL    HW1 6698   2.445   4.447   0.442
 1933SOL    HW2 6699   2.422   4.544   0.572
 1934SOL     OW 6700   0.687   0.444   4.985
 1934SOL    HW1 6701   0.680   0.413   5.079
 1934SOL    HW2 6702   0.752   0.387   4.935
 1935SOL     OW 6703   4.023   6.431   3.914
 1935SOL    HW1 6704   3.997   6.360   3.979
 1935SOL    HW2 6705   3.950   6.444   3.847
 1936SOL     OW 6706   6.250   3.395   3.739
 1936SOL    HW1 6707   6.258   3.430   3.645
 1936SOL    HW2 6708   6.253   3.471   3.803
 1937SOL     OW 6709   4.021   0.208   0.803
 1937SOL    HW1 6710   3.940   0.180   0.855
 1937SOL    HW2 6711   4.042   0.303   0.822
 1938SOL     OW 6712   2.211   1.420   1.411
 1938SOL    HW1 6713   2.174   1.327   1.417
 1938SOL    HW2 6714   2.308   1.419   1.438
 1939SOL     OW 6715   6.703   0.665   4.770
 1939SOL    HW1 6716   6.705   0.758   4.807
 1939SOL    HW2 6717   6.778   0.655   4.704
 1940SOL     OW 6718   5.175   4.930   0.641
 1940SOL    HW1 6719   5.121   4.872   0.580
 1940SOL    HW2 6720   5.140   4.921   0.735
 1941SOL     OW 6721   0.351   4.382   3.726
 1941SOL    HW1 6722   0.387   4.324   3.799
 1941SOL    HW2 6723   0.264   4.422   3.755
 1942SOL     OW 6724   5.599   0.562   1.114
 1942SOL    HW1 6725   5.539   0.546   1.192
 1942SOL    HW2 6726   5.576   0.650   1.072
 1943SOL     OW 6727   2.994   6.295   2.581
 1943SOL    HW1 6728   3.052   6.215   2.593
 1943SOL    HW2 6729   3.042   6.376   2.614
 1944SOL     OW 6730   6.300   2.301   0.288
 1944SOL    HW1 6731   6.260   2.223   0.239
 1944SOL    HW2 6732   6.381   2.333   0.240
 1945SOL     OW 6733   3.233   5.649   1.510
 1945SOL    HW1 6734   3.162   5.590   1.471
 1945SOL    HW2 6735   3.249   5.727   1.449
 1946SOL     OW 6736   6.197   6.882   1.498
 1946SOL    HW1 6737   6.237   6.873   1.407
 1946SOL    HW2 6738   6.217   6.800   1.552
 1947SOL     OW 6739   5.305   6.518   4.886
 1947SOL    HW1 6740   5.214   6.537   4.922
 1947SOL    HW2 6741   5.316   6.565   4.798
 1948SOL     OW 6742   5.317   5.339   3.821
 1948SOL    HW1 6743   5.273   5.268   3.765
 1948SOL    HW2 6744   5.389   5.383   3.767
 1949SOL     OW 6745   3.344   4.611   6.368
 1949SOL    HW1 6746   3.302   4.697   6.394
 1949SOL    HW2 6747   3.429   4.598   6.420
 1950SOL     OW 6748   4.035   4.401   0.037
 1950SOL    HW1 6749   3.975   4.351   6.999
 1950SOL    HW2 6750   4.005   4.496   0.043
 1951SOL     OW 6751   6.114   3.224   6.731
 1951SOL    HW1 6752   6.103   3.145   6.791
 1951SOL    HW2 6753   6.066   3.303   6.769
 1952SOL     OW 6754   5.038   2.836   0.422
 1952SOL    HW1 6755   5.053   2.810   0.326
 1952SOL    HW2 6756   5.098   2.782   0.481
 1953SOL     OW 6757   6.265   1.347   6.029
 1953SOL    HW1 6758   6.177   1.311   5.998
 1953SOL    HW2 6759   6.264   1.357   6.129
 1954SOL     OW 6760   5.404   0.721   3.668
 1954SOL    HW1 6761   5.482   0.733   3.606
 1954SOL    HW2 6762   5.336   0.661   3.626
 1955SOL     OW 6763   0.752   1.948   3.101
 1955SOL    HW1 6764   0.826   2.013   3.082
 1955SOL    HW2 6765   0.669   1.976   3.053
 1956SOL     OW 6766   5.072   6.732   2.714
 1956SOL    HW1 6767   5.036   6.639   2.724
 1956SOL    HW2 6768   5.061   6.781   2.800
 1957SOL     OW 6769   5.963   4.856   4.047
 1957SOL    HW1 6770   5.936   4.952   4.045
 1957SOL    HW2 6771   5.892   4.799   4.005
 1958SOL     OW 6772   4.865   2.210   2.591
 1958SOL    HW1 6773   4.807   2.209   2.509
 1958SOL    HW2 6774   4.821   2.263   2.663
 1959SOL     OW 6775   0.738   0.796   5.295
 1959SOL    HW1 6776   0.748   0.832   5.388
 1959SOL    HW2 6777   0.742   0.696   5.296
 1960SOL     OW 6778   6.762   4.787   2.145
 1960SOL    HW1 6779   6.776   4.719   2.217
 1960SOL    HW2 6780   6.801   4.874   2.175
 1961SOL     OW 6781   5.948   4.248   4.008
 1961SOL    HW1 6782   5.950   4.224   3.911
 1961SOL    HW2 6783   5.933   4.165   4.062
 1962SOL     OW 6784   1.421   6.238   3.936
 1962SOL    HW1 6785   1.493   6.307   3.936
 1962SOL    HW2 6786   1.392   6.220   4.031
 1963SOL     OW 6787   0.830   1.779   1.378
 1963SOL    HW1 6788   0.827   1.824   1.468
 1963SOL    HW2 6789   0.808   1.682   1.388
 1964SOL     OW 6790   4.602   4.589   0.660
 1964SOL    HW1 6791   4.514   4.604   0.704
 1964SOL    HW2 6792   4.616   4.491   0.644
 1965SOL     OW 6793   1.510   3.033   4.767
 1965SOL    HW1 6794   1.423   3.041   4.719
 1965SOL    HW2 6795   1.556   2.948   4.739
 1966SOL     OW 6796   6.594   6.460   0.814
 1966SOL    HW1 6797   6.686   6.474   0.777
 1966SOL    HW2 6798   6.568   6.364   0.803
 1967SOL     OW 6799   5.207   2.222   5.758
 1967SOL    HW1 6800   5.125   2.275   5.780
 1967SOL    HW2 6801   5.209   2.203   5.660
 1968SOL     OW 6802   2.066   6.953   6.445
 1968SOL    HW1 6803   2.024   6.963   6.355
 1968SOL    HW2 6804   2.054   0.012   6.498
 1969SOL     OW 6805   0.727   1.614   1.956
 1969SOL    HW1 6806   0.723   1.662   2.044
 1969SOL    HW2 6807   0.697   1.519   1.968
 1970SOL     OW 6808   2.637   6.439   6.052
 1970SOL    HW1 6809   2.688   6.497   5.988
 1970SOL    HW2 6810   2.662   6.343   6.037
 1971SOL     OW 6811   0.222   0.617   5.401
 1971SOL    HW1 6812   0.217   0.528   5.357
 1971SOL    HW2 6813   0.199   0.609   5.498
 1972SOL     OW 6814   5.370   2.257   2.046
 1972SOL    HW1 6815   5.327   2.170   2.068
 1972SOL    HW2 6816   5.301   2.323   2.019
 1973SOL     OW 6817   3.391   2.339   6.901
 1973SOL    HW1 6818   3.306   2.376   6.939
 1973SOL    HW2 6819   3.387   2.240   6.900
 1974SOL     OW 6820   6.111   6.858   5.133
 1974SOL    HW1 6821   6.011   6.855   5.140
 1974SOL    HW2 6822   6.138   6.871   5.037
 1975SOL     OW 6823   2.232   1.496   3.693
 1975SOL    HW1 6824   2.266   1.444   3.614
 1975SOL    HW2 6825   2.280   1.584   3.698
 1976SOL     OW 6826   0.208   6.691   0.441
 1976SOL    HW1 6827   0.153   6.666   0.361
 1976SOL    HW2 6828   0.176   6.639   0.520
 1977SOL     OW 6829   0.805   2.865   4.890
 1977SOL    HW1 6830   0.866   2.944   4.897
 1977SOL    HW2 6831   0.716   2.895   4.856
 1978SOL     OW 6832   2.128   6.624   2.958
 1978SOL    HW1 6833   2.107   6.721   2.957
 1978SOL    HW2 6834   2.134   6.590   2.864
 1979SOL     OW 6835   6.304   4.453   6.066
 1979SOL    HW1 6836   6.380   4.410   6.017
 1979SOL    HW2 6837   6.327   4.549   6.085
 1980SOL     OW 6838   3.106   7.021   4.831
 1980SOL    HW1 6839   3.136   0.055   4.906
 1980SOL    HW2 6840   3.072   0.052   4.756
 1981SOL     OW 6841   0.009   2.020   2.363
 1981SOL    HW1 6842   0.051   2.109   2.384
 1981SOL    HW2 6843   6.963   2.001   2.431
 1982SOL     OW 6844   0.184   4.383   4.818
 1982SOL    HW1 6845   0.252   4.418   4.883
 1982SOL    HW2 6846   0.092   4.403   4.851
 1983SOL     OW 6847   1.099   0.902   2.520
 1983SOL    HW1 6848   1.130   0.857   2.436
 1983SOL    HW2 6849   1.154   0.984   2.535
 1984SOL     OW 6850   5.513   1.878   5.157
 1984SOL    HW1 6851   5.456   1.819   5.215
 1984SOL    HW2 6852   5.521   1.837   5.066
 1985SOL     OW 6853   1.294   6.293   2.051
 1985SOL    HW1 6854   1.372   6.267   1.994
 1985SOL    HW2 6855   1.271   6.218   2.113
 1986SOL     OW 6856   1.935   1.858   6.892
 1986SOL    HW1 6857   1.850   1.804   6.893
 1986SOL    HW2 6858   2.013   1.797   6.885
 1987SOL     OW 6859   1.826   2.458   2.422
 1987SOL    HW1 6860   1.730   2.484   2.427
 1987SOL    HW2 6861   1.880   2.534   2.386
 1988SOL     OW 6862   6.111   4.198   1.000
 1988SOL    HW1 6863   6.144   4.277   0.949
 1988SOL    HW2 6864   6.112   4.218   1.098
 1989SOL     OW 6865   2.203   5.262   5.135
 1989SOL    HW1 6866   2.169   5.168   5.138
 1989SOL    HW2 6867   2.166   5.308   5.054
 1990SOL     OW 6868   3.602   6.006   0.326
 1990SOL    HW1 6869   3.613   6.067   0.248
 1990SOL    HW2 6870   3.571   6.059   0.405
 1991SOL     OW 6871   3.486   5.353   6.757
 1991SOL    HW1 6872   3.582   5.346   6.728
 1991SOL    HW2 6873   3.479   5.328   6.854
 1992SOL     OW 6874   0.764   0.525   0.236
 1992SOL    HW1 6875   0.736   0.527   0.332
 1992SOL    HW2 6876   0.855   0.566   0.226
 1993SOL     OW 6877   3.549   2.658   5.512
 1993SOL    HW1 6878   3.565   2.566   5.476
 1993SOL    HW2 6879   3.457   2.689   5.487
 1994SOL     OW 6880   0.606   1.566   0.724
 1994SOL    HW1 6881   0.627   1.471   0.702
 1994SOL    HW2 6882   0.668   1.599   0.794
 1995SOL     OW 6883   5.259   2.202   3.891
 1995SOL    HW1 6884   5.358   2.203   3.880
 1995SOL    HW2 6885   5.219   2.131   3.831
 1996SOL     OW 6886   1.716   3.741   0.756
 1996SOL    HW1 6887   1.805   3.777   0.729
 1996SOL    HW2 6888   1.644   3.801   0.720
 1997SOL     OW 6889   3.489   1.255   4.547
 1997SOL    HW1 6890   3.584   1.260   4.517
 1997SOL    HW2 6891   3.475   1.174   4.604
 1998SOL     OW 6892   2.100   4.144   6.579
 1998SOL    HW1 6893   2.007   4.181   6.587
 1998SOL    HW2 6894   2.142   4.142   6.670
 1999SOL     OW 6895   2.447   6.838   6.655
 1999SOL    HW1 6896   2.375   6.902   6.682
 1999SOL    HW2 6897   2.535   6.885   6.654
 2000SOL     OW 6898   4.328   2.354   5.407
 2000SOL    HW1 6899   4.406   2.414   5.423
 2000SOL    HW2 6900   4.244   2.408   5.409
 2001SOL     OW 6901   3.543   0.550   1.711
 2001SOL    HW1 6902   3.491   0.466   1.695
 2001SOL    HW2 6903   3.497   0.626   1.666
 2002SOL     OW 6904   0.159   4.735   6.654
 2002SOL    HW1 6905   0.129   4.693   6.568
 2002SOL    HW2 6906   0.252   4.705   6.675
 2003SOL     OW 6907   6.281   5.708   2.540
 2003SOL    HW1 6908   6.359   5.718   2.601
 2003SOL    HW2 6909   6.236   5.797   2.528
 2004SOL     OW 6910   5.345   1.028   5.334
 2004SOL    HW1 6911   5.431   1.042   5.285
 2004SOL    HW2 6912   5.311   1.116   5.368
 2005SOL     OW 6913   0.242   5.246   0.484
 2005SOL    HW1 6914   0.324   5.299   0.461
 2005SOL    HW2 6915   0.163   5.288   0.439
 2006SOL     OW 6916   5.151   6.680   3.957
 2006SOL    HW1 6917   5.163   6.703   3.860
 2006SOL    HW2 6918   5.058   6.647   3.972
 2007SOL     OW 6919   5.017   4.519   0.960
 2007SOL    HW1 6920   5.040   4.517   1.057
 2007SOL    HW2 6921   5.100   4.519   0.905
 2008SOL     OW 6922   2.849   5.076   3.833
 2008SOL    HW1 6923   2.938   5.115   3.811
 2008SOL    HW2 6924   2.839   5.069   3.933
 2009SOL     OW 6925   5.807   0.910   2.035
 2009SOL    HW1 6926   5.877   0.857   2.083
 2009SOL    HW2 6927   5.720   0.902   2.083
 2010SOL     OW 6928   2.012   1.967   0.951
 2010SOL    HW1 6929   2.092   1.972   0.891
 2010SOL    HW2 6930   1.949   1.898   0.916
 2011SOL     OW 6931   6.862   6.122   4.699
 2011SOL    HW1 6932   6.883   6.220   4.710
 2011SOL    HW2 6933   6.768   6.105   4.725
 2012SOL     OW 6934   1.540   4.021   2.312
 2012SOL    HW1 6935   1.512   4.105   2.358
 2012SOL    HW2 6936   1.529   3.943   2.373
 2013SOL     OW 6937   6.247   2.296   2.979
 2013SOL    HW1 6938   6.170   2.239   3.009
 2013SOL    HW2 6939   6.287   2.342   3.058
 2014SOL     OW 6940   2.641   5.406   3.642
 2014SOL    HW1 6941   2.660   5.404   3.544
 2014SOL    HW2 6942   2.545   5.381   3.658
 2015SOL     OW 6943   1.998   0.690   6.895
 2015SOL    HW1 6944   1.909   0.726   6.868
 2015SOL    HW2 6945   2.027   0.735   6.979
 2016SOL     OW 6946   1.369   6.314   5.886
 2016SOL    HW1 6947   1.328   6.233   5.927
 2016SOL    HW2 6948   1.333   6.327   5.794
 2017SOL     OW 6949   3.343   6.802   4.609
 2017SOL    HW1 6950   3.421   6.746   4.578
 2017SOL    HW2 6951   3.375   6.896   4.626
 2018SOL     OW 6952   5.473   0.719   5.899
 2018SOL    HW1 6953   5.421   0.640   5.865
 2018SOL    HW2 6954   5.410   0.795   5.914
 2019SOL     OW 6955   5.200   3.057   6.320
 2019SOL    HW1 6956   5.106   3.088   6.328
 2019SOL    HW2 6957   5.216   2.981   6.382
 2020SOL     OW 6958   1.581   6.407   5.580
 2020SOL    HW1 6959   1.668   6.364   5.556
 2020SOL    HW2 6960   1.515   6.337   5.607
 2021SOL     OW 6961   0.522   5.777   4.417
 2021SOL    HW1 6962   0.492   5.749   4.509
 2021SOL    HW2 6963   0.621   5.791   4.418
 2022SOL     OW 6964   1.622   3.467   3.397
 2022SOL    HW1 6965   1.573   3.540   3.445
 2022SOL    HW2 6966   1.698   3.436   3.455
 2023SOL     OW 6967   6.658   1.106   6.556
 2023SOL    HW1 6968   6.734   1.106   6.621
 2023SOL    HW2 6969   6.592   1.177   6.581
 2024SOL     OW 6970   0.312   6.856   3.670
 2024SOL    HW1 6971   0.292   6.953   3.669
 2024SOL    HW2 6972   0.355   6.830   3.583
 2025SOL     OW 6973   2.898   1.636   2.808
 2025SOL    HW1 6974   2.859   1.728   2.806
 2025SOL    HW2 6975   2.997   1.642   2.817
 2026SOL     OW 6976   0.097   2.797   5.828
 2026SOL    HW1 6977   0.134   2.773   5.738
 2026SOL    HW2 6978   0.078   2.895   5.830
 2027SOL     OW 6979   0.988   7.001   0.281
 2027SOL    HW1 6980   0.907   6.975   0.333
 2027SOL    HW2 6981   0.961   0.025   0.199
 2028SOL     OW 6982   2.942   6.570   4.967
 2028SOL    HW1 6983   2.958   6.640   4.898
 2028SOL    HW2 6984   2.921   6.483   4.922
 2029SOL     OW 6985   6.705   0.956   0.999
 2029SOL    HW1 6986   6.792   0.964   1.048
 2029SOL    HW2 6987   6.673   0.862   1.001
 2030SOL     OW 6988   2.676   0.974   3.129
 2030SOL    HW1 6989   2.687   1.043   3.058
 2030SOL    HW2 6990   2.669   0.883   3.087
 2031SOL     OW 6991   6.244   5.862   1.028
 2031SOL    HW1 6992   6.310   5.865   1.104
 2031SOL    HW2 6993   6.172   5.796   1.049
 2032SOL     OW 6994   4.747   0.357   2.207
 2032SOL    HW1 6995   4.827   0.340   2.265
 2032SOL    HW2 6996   4.684   0.280   2.214
 2033SOL     OW 6997   3.090   3.971   5.997
 2033SOL    HW1 6998   3.048   3.977   6.087
 2033SOL    HW2 6999   3.165   3.904   5.999
 2034SOL     OW 7000   2.524   5.615   5.543
 2034SOL    HW1 7001   2.557   5.676   5.471
 2034SOL    HW2 7002   2.529   5.520   5.511
 2035SOL     OW 7003   6.932   6.763   3.543
 2035SOL    HW1 7004   6.969   6.777   3.635
 2035SOL    HW2 7005   6.989   6.696   3.494
 2036SOL     OW 7006   1.443   4.156   2.599
 2036SOL    HW1 7007   1.447   4.057   2.606
 2036SOL    HW2 7008   1.517   4.197   2.652
 2037SOL     OW 7009   6.744   3.093   5.565
 2037SOL    HW1 7010   6.795   3.160   5.618
 2037SOL    HW2 7011   6.712   3.020   5.626
 2038SOL     OW 7012   1.642   2.946   0.084
 2038SOL    HW1 7013   1.704   2.980   0.154
 2038SOL    HW2 7014   1.569   3.013   0.069
 2039SOL     OW 7015   6.975   5.157   3.953
 2039SOL    HW1 7016   6.885   5.198   3.948
 2039SOL    HW2 7017   7.017   5.177   4.041
 2040SOL     OW 7018   3.385   3.224   5.640
 2040SOL    HW1 7019   3.379   3.250   5.736
 2040SOL    HW2 7020   3.379   3.124   5.633
 2041SOL     OW 7021   0.849   6.284   5.841
 2041SOL    HW1 7022   0.890   6.372   5.818
 2041SOL    HW2 7023   0.894   6.247   5.922
 2042SOL     OW 7024   4.985   6.162   0.024
 2042SOL    HW1 7025   5.037   6.078   0.010
 2042SOL    HW2 7026   4.916   6.171   6.977
 2043SOL     OW 7027   6.713   3.534   3.214
 2043SOL    HW1 7028   6.649   3.485   3.274
 2043SOL    HW2 7029   6.683   3.525   3.119
 2044SOL     OW 7030   6.526   6.713   1.833
 2044SOL    HW1 7031   6.495   6.668   1.917
 2044SOL    HW2 7032   6.625   6.705   1.826
 2045SOL     OW 7033   1.813   5.326   3.754
 2045SOL    HW1 7034   1.776   5.392   3.688
 2045SOL    HW2 7035   1.871   5.261   3.706
 2046SOL     OW 7036   6.684   2.073   3.578
 2046SOL    HW1 7037   6.721   1.984   3.605
 2046SOL    HW2 7038   6.615   2.103   3.643
 2047SOL     OW 7039   6.829   2.639   6.690
 2047SOL    HW1 7040   6.805   2.562   6.749
 2047SOL    HW2 7041   6.815   2.615   6.595
 2048SOL     OW 7042   1.599   6.395   6.319
 2048SOL    HW1 7043   1.553   6.440   6.243
 2048SOL    HW2 7044   1.660   6.324   6.283
 2049SOL     OW 7045   6.509   1.770   4.786
 2049SOL    HW1 7046   6.600   1.773   4.827
 2049SOL    HW2 7047   6.505   1.830   4.707
 2050SOL     OW 7048   6.531   2.164   3.785
 2050SOL    HW1 7049   6.436   2.176   3.815
 2050SOL    HW2 7050   6.591   2.219   3.842
 2051SOL     OW 7051   1.085   5.678   0.026
 2051SOL    HW1 7052   1.079   5.578   0.022
 2051SOL    HW2 7053   0.998   5.718   7.023
 2052SOL     OW 7054   1.315   3.614   1.302
 2052SOL    HW1 7055   1.386   3.680   1.277
 2052SOL    HW2 7056   1.338   3.524   1.266
 2053SOL     OW 7057   6.323   6.400   4.288
 2053SOL    HW1 7058   6.421   6.400   4.273
 2053SOL    HW2 7059   6.280   6.469   4.231
 2054SOL     OW 7060   3.481   4.097   3.112
 2054SOL    HW1 7061   3.470   4.000   3.133
 2054SOL    HW2 7062   3.570   4.113   3.070
 2055SOL     OW 7063   6.033   3.651   3.924
 2055SOL    HW1 7064   5.983   3.733   3.897
 2055SOL    HW2 7065   6.116   3.642   3.869
 2056SOL     OW 7066   4.076   5.800   2.479
 2056SOL    HW1 7067   3.984   5.808   2.442
 2056SOL    HW2 7068   4.091   5.872   2.547
 2057SOL     OW 7069   5.305   4.497   5.765
 2057SOL    HW1 7070   5.221   4.453   5.798
 2057SOL    HW2 7071   5.383   4.439   5.789
 2058SOL     OW 7072   0.422   1.261   3.379
 2058SOL    HW1 7073   0.346   1.221   3.327
 2058SOL    HW2 7074   0.457   1.341   3.331
 2059SOL     OW 7075   1.719   6.086   6.820
 2059SOL    HW1 7076   1.767   6.123   6.741
 2059SOL    HW2 7077   1.624   6.114   6.819
 2060SOL     OW 7078   0.530   4.742   1.727
 2060SOL    HW1 7079   0.592   4.722   1.651
 2060SOL    HW2 7080   0.435   4.734   1.695
 2061SOL     OW 7081   1.311   1.859   2.749
 2061SOL    HW1 7082   1.273   1.887   2.661
 2061SOL    HW2 7083   1.247   1.796   2.794
 2062SOL     OW 7084   6.300   5.690   4.569
 2062SOL    HW1 7085   6.238   5.764   4.542
 2062SOL    HW2 7086   6.381   5.692   4.512
 2063SOL     OW 7087   1.826   6.714   6.289
 2063SOL    HW1 7088   1.831   6.761   6.200
 2063SOL    HW2 7089   1.744   6.744   6.338
 2064SOL     OW 7090   0.602   2.653   5.546
 2064SOL    HW1 7091   0.699   2.679   5.547
 2064SOL    HW2 7092   0.561   2.673   5.635
 2065SOL     OW 7093   6.257   2.517   5.528
 2065SOL    HW1 7094   6.310   2.561   5.456
 2065SOL    HW2 7095   6.211   2.586   5.584
 2066SOL     OW 7096   0.602   4.588   4.449
 2066SOL    HW1 7097   0.574   4.646   4.526
 2066SOL    HW2 7098   0.590   4.492   4.474
 2067SOL     OW 7099   6.340   5.515   1.193
 2067SOL    HW1 7100   6.325   5.449   1.268
 2067SOL    HW2 7101   6.345   5.607   1.231
 2068SOL     OW 7102   2.527   0.055   4.507
 2068SOL    HW1 7103   2.550   0.009   4.593
 2068SOL    HW2 7104   2.433   0.088   4.511
 2069SOL     OW 7105   6.809   1.842   3.682
 2069SOL    HW1 7106   6.902   1.877   3.689
 2069SOL    HW2 7107   6.771   1.830   3.774
 2070SOL     OW 7108   0.677   1.079   1.432
 2070SOL    HW1 7109   0.664   1.020   1.512
 2070SOL    HW2 7110   0.719   1.165   1.460
 2071SOL     OW 7111   6.563   0.463   6.101
 2071SOL    HW1 7112   6.555   0.372   6.141
 2071SOL    HW2 7113   6.660   0.484   6.085
 2072SOL     OW 7114   4.716   5.710   4.278
 2072SOL    HW1 7115   4.642   5.766   4.242
 2072SOL    HW2 7116   4.789   5.704   4.210
 2073SOL     OW 7117   4.649   0.141   5.240
 2073SOL    HW1 7118   4.735   0.092   5.231
 2073SOL    HW2 7119   4.577   0.079   5.270
 2074SOL     OW 7120   1.925   2.642   6.503
 2074SOL    HW1 7121   1.941   2.593   6.588
 2074SOL    HW2 7122   1.877   2.728   6.523
 2075SOL     OW 7123   6.996   2.626   3.035
 2075SOL    HW1 7124   6.998   2.606   2.937
 2075SOL    HW2 7125   0.034   2.565   3.082
 2076SOL     OW 7126   5.970   0.306   6.411
 2076SOL    HW1 7127   5.954   0.328   6.507
 2076SOL    HW2 7128   5.956   0.208   6.396
 2077SOL     OW 7129   5.715   2.053   3.337
 2077SOL    HW1 7130   5.811   2.036   3.362
 2077SOL    HW2 7131   5.655   2.013   3.406
 2078SOL     OW 7132   1.284   5.729   5.685
 2078SOL    HW1 7133   1.197   5.681   5.676
 2078SOL    HW2 7134   1.341   5.682   5.752
 2079SOL     OW 7135   5.706   1.870   3.129
 2079SOL    HW1 7136   5.712   1.918   3.217
 2079SOL    HW2 7137   5.665   1.780   3.143
 2080SOL     OW 7138   1.634   0.209   5.113
 2080SOL    HW1 7139   1.716   0.264   5.124
 2080SOL    HW2 7140   1.604   0.211   5.018
 2081SOL     OW 7141   1.089   5.780   4.849
 2081SOL    HW1 7142   1.078   5.872   4.811
 2081SOL    HW2 7143   1.060   5.712   4.782
 2082SOL     OW 7144   0.702   6.813   3.308
 2082SOL    HW1 7145   0.675   6.731   3.258
 2082SOL    HW2 7146   0.756   6.872   3.248
 2083SOL     OW 7147   0.125   4.721   5.889
 2083SOL    HW1 7148   0.116   4.816   5.918
 2083SOL    HW2 7149   0.199   4.714   5.822
 2084SOL     OW 7150   0.456   4.614   3.623
 2084SOL    HW1 7151   0.523   4.660   3.682
 2084SOL    HW2 7152   0.420   4.534   3.670
 2085SOL     OW 7153   4.659   0.992   0.234
 2085SOL    HW1 7154   4.601   0.911   0.227
 2085SOL    HW2 7155   4.730   0.988   0.164
 2086SOL     OW 7156   3.609   6.549   6.087
 2086SOL    HW1 7157   3.658   6.617   6.140
 2086SOL    HW2 7158   3.663   6.523   6.008
 2087SOL     OW 7159   4.836   0.683   1.220
 2087SOL    HW1 7160   4.820   0.782   1.222
 2087SOL    HW2 7161   4.934   0.665   1.214
 2088SOL     OW 7162   1.385   5.617   7.007
 2088SOL    HW1 7163   1.345   5.610   6.916
 2088SOL    HW2 7164   1.311   5.617   0.050
 2089SOL     OW 7165   5.162   3.084   5.880
 2089SOL    HW1 7166   5.182   3.027   5.801
 2089SOL    HW2 7167   5.150   3.178   5.851
 2090SOL     OW 7168   4.479   3.750   5.894
 2090SOL    HW1 7169   4.510   3.701   5.813
 2090SOL    HW2 7170   4.396   3.802   5.871
 2091SOL     OW 7171   0.409   4.991   0.907
 2091SOL    HW1 7172   0.386   5.054   0.832
 2091SOL    HW2 7173   0.371   5.027   0.993
 2092SOL     OW 7174   5.496   4.050   0.248
 2092SOL    HW1 7175   5.456   4.141   0.256
 2092SOL    HW2 7176   5.432   3.981   0.281
 2093SOL     OW 7177   2.529   2.018   1.146
 2093SOL    HW1 7178   2.526   2.060   1.237
 2093SOL    HW2 7179   2.624   2.003   1.119
 2094SOL     OW 7180   5.772   1.613   2.675
 2094SOL    HW1 7181   5.777   1.522   2.635
 2094SOL    HW2 7182   5.726   1.675   2.612
 2095SOL     OW 7183   6.374   0.093   5.424
 2095SOL    HW1 7184   6.428   0.147   5.360
 2095SOL    HW2 7185   6.288   0.066   5.381
 2096SOL     OW 7186   4.871   3.976   2.882
 2096SOL    HW1 7187   4.848   4.027   2.799
 2096SOL    HW2 7188   4.869   3.878   2.862
 2097SOL     OW 7189   2.644   3.630   6.336
 2097SOL    HW1 7190   2.590   3.548   6.317
 2097SOL    HW2 7191   2.690   3.620   6.425
 2098SOL     OW 7192   4.198   6.300   2.012
 2098SOL    HW1 7193   4.201   6.351   1.926
 2098SOL    HW2 7194   4.127   6.230   2.007
 2099SOL     OW 7195   3.573   2.032   6.302
 2099SOL    HW1 7196   3.636   2.094   6.255
 2099SOL    HW2 7197   3.575   2.053   6.400
 2100SOL     OW 7198   4.968   2.292   6.849
 2100SOL    HW1 7199   4.966   2.286   6.749
 2100SOL    HW2 7200   5.062   2.282   6.881
 2101SOL     OW 7201   0.504   6.630   1.361
 2101SOL    HW1 7202   0.418   6.659   1.318
 2101SOL    HW2 7203   0.555   6.573   1.297
 2102SOL     OW 7204   5.220   4.558   2.504
 2102SOL    HW1 7205   5.284   4.492   2.466
 2102SOL    HW2 7206   5.146   4.509   2.551
 2103SOL     OW 7207   3.466   3.916   6.713
 2103SOL    HW1 7208   3.415   3.902   6.798
 2103SOL    HW2 7209   3.418   3.870   6.637
 2104SOL     OW 7210   1.659   4.582   1.960
 2104SOL    HW1 7211   1.662   4.515   1.886
 2104SOL    HW2 7212   1.608   4.545   2.037
 2105SOL     OW 7213   5.349   4.894   6.168
 2105SOL    HW1 7214   5.302   4.818   6.123
 2105SOL    HW2 7215   5.445   4.894   6.140
 2106SOL     OW 7216   5.384   3.536   0.840
 2106SOL    HW1 7217   5.301   3.569   0.886
 2106SOL    HW2 7218   5.452   3.509   0.908
 2107SOL     OW 7219   6.765   2.317   4.966
 2107SOL    HW1 7220   6.848   2.273   4.931
 2107SOL    HW2 7221   6.731   2.267   5.045
 2108SOL     OW 7222   6.015   5.223   5.364
 2108SOL    HW1 7223   6.012   5.314   5.324
 2108SOL    HW2 7224   5.922   5.188   5.375
 2109SOL     OW 7225   4.185   5.760   2.226
 2109SOL    HW1 7226   4.146   5.675   2.191
 2109SOL    HW2 7227   4.153   5.776   2.319
 2110SOL     OW 7228   2.557   0.855   0.239
 2110SOL    HW1 7229   2.610   0.806   0.308
 2110SOL    HW2 7230   2.557   0.802   0.154
 2111SOL     OW 7231   2.187   3.399   0.303
 2111SOL    HW1 7232   2.192   3.306   0.269
 2111SOL    HW2 7233   2.100   3.413   0.351
 2112SOL     OW 7234   5.181   2.599   0.824
 2112SOL    HW1 7235   5.195   2.662   0.901
 2112SOL    HW2 7236   5.174   2.506   0.858
 2113SOL     OW 7237   2.904   1.510   4.078
 2113SOL    HW1 7238   2.931   1.519   4.174
 2113SOL    HW2 7239   2.965   1.444   4.034
 2114SOL     OW 7240   2.374   1.911   6.598
 2114SOL    HW1 7241   2.296   1.911   6.535
 2114SOL    HW2 7242   2.459   1.922   6.547
 2115SOL     OW 7243   0.655   4.320   3.053
 2115SOL    HW1 7244   0.737   4.263   3.047
 2115SOL    HW2 7245   0.581   4.278   3.000
 2116SOL     OW 7246   0.526   4.052   2.944
 2116SOL    HW1 7247   0.570   4.047   3.034
 2116SOL    HW2 7248   0.449   4.116   2.947
 2117SOL     OW 7249   6.684   4.454   1.863
 2117SOL    HW1 7250   6.783   4.463   1.868
 2117SOL    HW2 7251   6.660   4.372   1.811
 2118SOL     OW 7252   6.343   2.835   3.017
 2118SOL    HW1 7253   6.347   2.768   3.092
 2118SOL    HW2 7254   6.431   2.880   3.008
 2119SOL     OW 7255   1.506   7.017   1.320
 2119SOL    HW1 7256   1.446   0.047   1.262
 2119SOL    HW2 7257   1.461   6.932   1.344
 2120SOL     OW 7258   0.473   4.209   3.545
 2120SOL    HW1 7259   0.471   4.242   3.451
 2120SOL    HW2 7260   0.399   4.252   3.597
 2121SOL     OW 7261   1.116   2.879   5.960
 2121SOL    HW1 7262   1.189   2.857   5.895
 2121SOL    HW2 7263   1.121   2.817   6.038
 2122SOL     OW 7264   5.799   5.102   6.181
 2122SOL    HW1 7265   5.849   5.133   6.100
 2122SOL    HW2 7266   5.773   5.181   6.237
 2123SOL     OW 7267   6.705   5.090   2.263
 2123SOL    HW1 7268   6.756   5.079   2.349
 2123SOL    HW2 7269   6.635   5.020   2.257
 2124SOL     OW 7270   3.161   1.825   1.103
 2124SOL    HW1 7271   3.126   1.906   1.151
 2124SOL    HW2 7272   3.206   1.764   1.168
 2125SOL     OW 7273   1.969   6.723   2.185
 2125SOL    HW1 7274   2.026   6.698   2.263
 2125SOL    HW2 7275   1.872   6.718   2.211
 2126SOL     OW 7276   3.740   2.336   6.693
 2126SOL    HW1 7277   3.682   2.390   6.631
 2126SOL    HW2 7278   3.734   2.374   6.785
 2127SOL     OW 7279   1.137   2.030   5.752
 2127SOL    HW1 7280   1.086   2.018   5.837
 2127SOL    HW2 7281   1.075   2.056   5.678
 2128SOL     OW 7282   6.258   2.681   3.270
 2128SOL    HW1 7283   6.181   2.745   3.273
 2128SOL    HW2 7284   6.299   2.674   3.360
 2129SOL     OW 7285   4.989   3.510   5.189
 2129SOL    HW1 7286   4.930   3.448   5.240
 2129SOL    HW2 7287   4.933   3.585   5.151
 2130SOL     OW 7288   3.228   0.074   2.680
 2130SOL    HW1 7289   3.207   0.151   2.620
 2130SOL    HW2 7290   3.144   0.035   2.716
 2131SOL     OW 7291   4.686   1.685   0.510
 2131SOL    HW1 7292   4.720   1.599   0.547
 2131SOL    HW2 7293   4.759   1.730   0.459
 2132SOL     OW 7294   3.454   1.064   0.781
 2132SOL    HW1 7295   3.371   1.120   0.775
 2132SOL    HW2 7296   3.526   1.104   0.725
 2133SOL     OW 7297   3.442   2.813   1.173
 2133SOL    HW1 7298   3.514   2.860   1.224
 2133SOL    HW2 7299   3.377   2.880   1.138
 2134SOL     OW 7300   1.226   0.782   5.061
 2134SOL    HW1 7301   1.130   0.777   5.089
 2134SOL    HW2 7302   1.240   0.726   4.980
 2135SOL     OW 7303   1.446   2.329   4.447
 2135SOL    HW1 7304   1.399   2.349   4.361
 2135SOL    HW2 7305   1.378   2.305   4.517
 2136SOL     OW 7306   0.751   3.887   4.473
 2136SOL    HW1 7307   0.765   3.801   4.522
 2136SOL    HW2 7308   0.801   3.960   4.519
 2137SOL     OW 7309   0.267   5.887   4.055
 2137SOL    HW1 7310   0.332   5.850   4.122
 2137SOL    HW2 7311   0.224   5.969   4.093
 2138SOL     OW 7312   0.461   1.084   1.966
 2138SOL    HW1 7313   0.479   1.146   1.890
 2138SOL    HW2 7314   0.506   1.119   2.049
 2139SOL     OW 7315   3.395   0.909   2.919
 2139SOL    HW1 7316   3.389   0.811   2.935
 2139SOL    HW2 7317   3.342   0.932   2.837
 2140SOL     OW 7318   3.676   6.086   3.577
 2140SOL    HW1 7319   3.648   6.181   3.568
 2140SOL    HW2 7320   3.762   6.081   3.628
 2141SOL     OW 7321   6.351   4.808   1.492
 2141SOL    HW1 7322   6.304   4.825   1.578
 2141SOL    HW2 7323   6.397   4.719   1.496
 2142SOL     OW 7324   0.984   1.874   2.836
 2142SOL    HW1 7325   0.972   1.938   2.912
 2142SOL    HW2 7326   0.908   1.884   2.772
 2143SOL     OW 7327   2.990   4.453   1.369
 2143SOL    HW1 7328   3.049   4.523   1.329
 2143SOL    HW2 7329   2.895   4.470   1.342
 2144SOL     OW 7330   1.427   5.537   3.512
 2144SOL    HW1 7331   1.344   5.488   3.486
 2144SOL    HW2 7332   1.405   5.604   3.583
 2145SOL     OW 7333   4.030   6.150   4.327
 2145SOL    HW1 7334   4.027   6.110   4.418
 2145SOL    HW2 7335   3.938   6.175   4.298
 2146SOL     OW 7336   2.546   3.858   1.330
 2146SOL    HW1 7337   2.503   3.775   1.364
 2146SOL    HW2 7338   2.645   3.847   1.331
 2147SOL     OW 7339   0.455   1.172   6.452
 2147SOL    HW1 7340   0.388   1.123   6.508
 2147SOL    HW2 7341   0.530   1.203   6.510
 2148SOL     OW 7342   5.207   2.448   4.547
 2148SOL    HW1 7343   5.110   2.464   4.528
 2148SOL    HW2 7344   5.255   2.432   4.461
 2149SOL     OW 7345   3.866   1.370   1.650
 2149SOL    HW1 7346   3.812   1.380   1.566
 2149SOL    HW2 7347   3.810   1.397   1.729
 2150SOL     OW 7348   2.639   1.987   2.279
 2150SOL    HW1 7349   2.704   1.949   2.213
 2150SOL    HW2 7350   2.643   1.935   2.364
 2151SOL     OW 7351   1.722   0.985   4.179
 2151SOL    HW1 7352   1.751   1.032   4.095
 2151SOL    HW2 7353   1.730   0.886   4.166
 2152SOL     OW 7354   3.716   6.629   1.508
 2152SOL    HW1 7355   3.640   6.611   1.570
 2152SOL    HW2 7356   3.779   6.695   1.548
 2153SOL     OW 7357   3.866   0.797   3.273
 2153SOL    HW1 7358   3.789   0.818   3.213
 2153SOL    HW2 7359   3.883   0.876   3.333
 2154SOL     OW 7360   4.995   0.512   4.732
 2154SOL    HW1 7361   5.092   0.524   4.713
 2154SOL    HW2 7362   4.953   0.455   4.661
 2155SOL     OW 7363   1.870   5.959   0.211
 2155SOL    HW1 7364   1.778   5.948   0.248
 2155SOL    HW2 7365   1.875   6.045   0.160
 2156SOL     OW 7366   2.366   0.825   3.224
 2156SOL    HW1 7367   2.299   0.812   3.150
 2156SOL    HW2 7368   2.418   0.909   3.208
 2157SOL     OW 7369   5.898   0.853   3.484
 2157SOL    HW1 7370   5.903   0.928   3.550
 2157SOL    HW2 7371   5.991   0.822   3.462
 2158SOL     OW 7372   3.593   6.345   1.124
 2158SOL    HW1 7373   3.571   6.440   1.146
 2158SOL    HW2 7374   3.672   6.316   1.178
 2159SOL     OW 7375   2.302   6.176   5.315
 2159SOL    HW1 7376   2.325   6.254   5.374
 2159SOL    HW2 7377   2.371   6.168   5.243
 2160SOL     OW 7378   4.911   3.371   0.918
 2160SOL    HW1 7379   4.881   3.334   0.830
 2160SOL    HW2 7380   4.937   3.295   0.978
 2161SOL     OW 7381   5.241   3.958   3.174
 2161SOL    HW1 7382   5.242   4.043   3.122
 2161SOL    HW2 7383   5.189   3.889   3.124
 2162SOL     OW 7384   2.631   1.013   0.497
 2162SOL    HW1 7385   2.652   0.970   0.585
 2162SOL    HW2 7386   2.632   0.944   0.425
 2163SOL     OW 7387   6.842   4.142   6.238
 2163SOL    HW1 7388   6.832   4.091   6.323
 2163SOL    HW2 7389   6.876   4.234   6.259
 2164SOL     OW 7390   1.992   3.138   0.250
 2164SOL    HW1 7391   1.934   3.206   0.206
 2164SOL    HW2 7392   1.943   3.051   0.257
 2165SOL     OW 7393   0.761   1.877   2.655
 2165SOL    HW1 7394   0.823   1.842   2.585
 2165SOL    HW2 7395   0.716   1.801   2.701
 2166SOL     OW 7396   1.712   2.609   5.337
 2166SOL    HW1 7397   1.684   2.703   5.355
 2166SOL    HW2 7398   1.754   2.571   5.420
 2167SOL     OW 7399   1.522   1.087   3.457
 2167SOL    HW1 7400   1.576   1.074   3.374
 2167SOL    HW2 7401   1.436   1.133   3.434
 2168SOL     OW 7402   1.037   1.546   3.596
 2168SOL    HW1 7403   1.129   1.549   3.635
 2168SOL    HW2 7404   0.979   1.613   3.643
 2169SOL     OW 7405   5.585   2.376   5.353
 2169SOL    HW1 7406   5.581   2.385   5.453
 2169SOL    HW2 7407   5.672   2.334   5.327
 2170SOL     OW 7408   6.434   5.380   5.332
 2170SOL    HW1 7409   6.422   5.364   5.429
 2170SOL    HW2 7410   6.403   5.300   5.280
 2171SOL     OW 7411   6.715   3.677   1.636
 2171SOL    HW1 7412   6.696   3.775   1.645
 2171SOL    HW2 7413   6.708   3.650   1.540
 2172SOL     OW 7414   2.299   2.332   0.134
 2172SOL    HW1 7415   2.381   2.372   0.095
 2172SOL    HW2 7416   2.322   2.281   0.217
 2173SOL     OW 7417   4.433   0.496   5.197
 2173SOL    HW1 7418   4.434   0.543   5.109
 2173SOL    HW2 7419   4.527   0.487   5.231
 2174SOL     OW 7420   5.421   5.249   5.677
 2174SOL    HW1 7421   5.502   5.196   5.650
 2174SOL    HW2 7422   5.369   5.198   5.746
 2175SOL     OW 7423   2.636   2.041   4.185
 2175SOL    HW1 7424   2.543   2.002   4.189
 2175SOL    HW2 7425   2.644   2.113   4.254
 2176SOL     OW 7426   0.574   3.196   6.952
 2176SOL    HW1 7427   0.635   3.274   6.935
 2176SOL    HW2 7428   0.626   3.111   6.939
 2177SOL     OW 7429   6.640   1.175   3.813
 2177SOL    HW1 7430   6.618   1.272   3.824
 2177SOL    HW2 7431   6.738   1.165   3.794
 2178SOL     OW 7432   0.950   3.764   0.005
 2178SOL    HW1 7433   0.915   3.733   0.093
 2178SOL    HW2 7434   1.031   3.710   7.005
 2179SOL     OW 7435   1.571   5.510   4.802
 2179SOL    HW1 7436   1.580   5.481   4.707
 2179SOL    HW2 7437   1.613   5.441   4.862
 2180SOL     OW 7438   2.463   3.247   1.727
 2180SOL    HW1 7439   2.557   3.231   1.757
 2180SOL    HW2 7440   2.423   3.321   1.781
 2181SOL     OW 7441   5.108   4.627   5.346
 2181SOL    HW1 7442   5.022   4.613   5.395
 2181SOL    HW2 7443   5.103   4.711   5.292
 2182SOL     OW 7444   0.042   3.370   5.227
 2182SOL    HW1 7445   0.139   3.368   5.254
 2182SOL    HW2 7446   0.010   3.277   5.213
 2183SOL     OW 7447   3.336   3.861   5.929
 2183SOL    HW1 7448   3.353   3.957   5.910
 2183SOL    HW2 7449   3.343   3.808   5.845
 2184SOL     OW 7450   4.271   1.556   5.736
 2184SOL    HW1 7451   4.235   1.595   5.821
 2184SOL    HW2 7452   4.369   1.575   5.730
 2185SOL     OW 7453   1.401   1.854   1.040
 2185SOL    HW1 7454   1.388   1.787   1.113
 2185SOL    HW2 7455   1.406   1.946   1.079
 2186SOL     OW 7456   6.631   5.260   1.855
 2186SOL    HW1 7457   6.664   5.231   1.766
 2186SOL    HW2 7458   6.705   5.251   1.922
 2187SOL     OW 7459   6.900   1.291   2.177
 2187SOL    HW1 7460   6.807   1.328   2.172
 2187SOL    HW2 7461   6.959   1.359   2.222
 2188SOL     OW 7462   5.407   6.044   4.260
 2188SOL    HW1 7463   5.375   6.027   4.167
 2188SOL    HW2 7464   5.392   6.140   4.283
 2189SOL     OW 7465   1.955   6.435   6.936
 2189SOL    HW1 7466   1.957   6.504   7.009
 2189SOL    HW2 7467   2.048   6.401   6.920
 2190SOL     OW 7468   0.358   2.611   2.182
 2190SOL    HW1 7469   0.271   2.652   2.156
 2190SOL    HW2 7470   0.341   2.523   2.226
 2191SOL     OW 7471   2.950   1.863   6.038
 2191SOL    HW1 7472   2.934   1.959   6.014
 2191SOL    HW2 7473   2.954   1.809   5.954
 2192SOL     OW 7474   3.828   0.146   3.343
 2192SOL    HW1 7475   3.829   0.226   3.283
 2192SOL    HW2 7476   3.920   0.107   3.349
 2193SOL     OW 7477   6.683   5.711   5.989
 2193SOL    HW1 7478   6.666   5.639   5.921
 2193SOL    HW2 7479   6.682   5.671   6.080
 2194SOL     OW 7480   2.115   4.900   6.313
 2194SOL    HW1 7481   2.089   4.946   6.397
 2194SOL    HW2 7482   2.063   4.938   6.236
 2195SOL     OW 7483   6.853   0.008   3.868
 2195SOL    HW1 7484   6.901   6.960   3.820
 2195SOL    HW2 7485   6.756   7.011   3.873
 2196SOL     OW 7486   3.470   0.276   5.185
 2196SOL    HW1 7487   3.537   0.350   5.186
 2196SOL    HW2 7488   3.479   0.223   5.100
 2197SOL     OW 7489   3.540   3.214   1.418
 2197SOL    HW1 7490   3.482   3.274   1.362
 2197SOL    HW2 7491   3.500   3.204   1.509
 2198SOL     OW 7492   6.838   1.524   0.094
 2198SOL    HW1 7493   6.837   1.502   0.191
 2198SOL    HW2 7494   6.924   1.570   0.071
 2199SOL     OW 7495   4.615   0.932   3.004
 2199SOL    HW1 7496   4.568   1.019   2.986
 2199SOL    HW2 7497   4.705   0.951   3.043
 2200SOL     OW 7498   3.641   0.393   4.729
 2200SOL    HW1 7499   3.557   0.420   4.682
 2200SOL    HW2 7500   3.679   0.473   4.776
 2201SOL     OW 7501   6.249   2.535   2.778
 2201SOL    HW1 7502   6.224   2.459   2.839
 2201SOL    HW2 7503   6.216   2.621   2.816
 2202SOL     OW 7504   3.127   4.887   2.966
 2202SOL    HW1 7505   3.071   4.812   2.931
 2202SOL    HW2 7506   3.125   4.963   2.901
 2203SOL     OW 7507   2.468   2.813   1.090
 2203SOL    HW1 7508   2.400   2.739   1.093
 2203SOL    HW2 7509   2.431   2.894   1.135
 2204SOL     OW 7510   3.687   1.334   6.640
 2204SOL    HW1 7511   3.742   1.285   6.572
 2204SOL    HW2 7512   3.616   1.387   6.593
 2205SOL     OW 7513   1.924   6.981   6.208
 2205SOL    HW1 7514   1.975   0.038   6.181
 2205SOL    HW2 7515   1.927   6.914   6.134
 2206SOL     OW 7516   2.221   4.223   5.508
 2206SOL    HW1 7517   2.179   4.133   5.512
 2206SOL    HW2 7518   2.320   4.215   5.524
 2207SOL     OW 7519   2.103   3.558   6.772
 2207SOL    HW1 7520   2.018   3.508   6.755
 2207SOL    HW2 7521   2.089   3.655   6.749
 2208SOL     OW 7522   1.478   5.885   2.119
 2208SOL    HW1 7523   1.484   5.976   2.160
 2208SOL    HW2 7524   1.560   5.832   2.142
 2209SOL     OW 7525   0.904   5.713   5.810
 2209SOL    HW1 7526   0.911   5.618   5.780
 2209SOL    HW2 7527   0.833   5.759   5.757
 2210SOL     OW 7528   0.014   4.621   4.082
 2210SOL    HW1 7529   6.943   4.601   4.066
 2210SOL    HW2 7530   0.043   4.581   4.169
 2211SOL     OW 7531   5.260   0.943   0.206
 2211SOL    HW1 7532   5.173   0.960   0.254
 2211SOL    HW2 7533   5.324   0.900   0.269
 2212SOL     OW 7534   2.196   6.346   6.861
 2212SOL    HW1 7535   2.243   6.375   6.778
 2212SOL    HW2 7536   2.201   6.247   6.870
 2213SOL     OW 7537   3.807   2.714   5.419
 2213SOL    HW1 7538   3.854   2.630   5.447
 2213SOL    HW2 7539   3.718   2.720   5.466
 2214SOL     OW 7540   4.664   3.120   5.553
 2214SOL    HW1 7541   4.644   3.070   5.637
 2214SOL    HW2 7542   4.601   3.197   5.544
 2215SOL     OW 7543   6.365   1.843   6.749
 2215SOL    HW1 7544   6.421   1.775   6.701
 2215SOL    HW2 7545   6.362   1.820   6.847
 2216SOL     OW 7546   1.991   0.452   5.891
 2216SOL    HW1 7547   2.027   0.523   5.830
 2216SOL    HW2 7548   1.970   0.370   5.838
 2217SOL     OW 7549   3.764   0.477   1.099
 2217SOL    HW1 7550   3.724   0.568   1.100
 2217SOL    HW2 7551   3.692   0.409   1.085
 2218SOL     OW 7552   0.655   6.629   0.794
 2218SOL    HW1 7553   0.638   6.727   0.779
 2218SOL    HW2 7554   0.568   6.580   0.792
 2219SOL     OW 7555   0.142   2.731   2.108
 2219SOL    HW1 7556   0.061   2.763   2.156
 2219SOL    HW2 7557   0.155   2.785   2.025
 2220SOL     OW 7558   0.484   0.786   4.686
 2220SOL    HW1 7559   0.494   0.717   4.758
 2220SOL    HW2 7560   0.544   0.864   4.707
 2221SOL     OW 7561   6.762   0.717   5.498
 2221SOL    HW1 7562   6.765   0.721   5.398
 2221SOL    HW2 7563   6.704   0.642   5.528
 2222SOL     OW 7564   4.138   0.453   0.474
 2222SOL    HW1 7565   4.215   0.427   0.415
 2222SOL    HW2 7566   4.070   0.502   0.420
 2223SOL     OW 7567   6.093   6.960   4.011
 2223SOL    HW1 7568   6.094   6.894   3.935
 2223SOL    HW2 7569   6.185   6.972   4.047
 2224SOL     OW 7570   1.669   4.362   1.762
 2224SOL    HW1 7571   1.642   4.281   1.814
 2224SOL    HW2 7572   1.650   4.348   1.665
 2225SOL     OW 7573   6.370   5.704   3.059
 2225SOL    HW1 7574   6.302   5.645   3.103
 2225SOL    HW2 7575   6.342   5.721   2.965
 2226SOL     OW 7576   4.049   5.068   0.480
 2226SOL    HW1 7577   4.011   5.016   0.556
 2226SOL    HW2 7578   4.075   5.159   0.512
 2227SOL     OW 7579   5.065   3.478   0.637
 2227SOL    HW1 7580   5.009   3.500   0.718
 2227SOL    HW2 7581   5.160   3.463   0.665
 2228SOL     OW 7582   2.803   5.117   1.195
 2228SOL    HW1 7583   2.709   5.092   1.176
 2228SOL    HW2 7584   2.839   5.172   1.119
 2229SOL     OW 7585   4.359   1.710   4.375
 2229SOL    HW1 7586   4.292   1.765   4.425
 2229SOL    HW2 7587   4.324   1.689   4.284
 2230SOL     OW 7588   6.429   5.406   5.642
 2230SOL    HW1 7589   6.343   5.446   5.610
 2230SOL    HW2 7590   6.431   5.409   5.742
 2231SOL     OW 7591   0.690   0.841   1.268
 2231SOL    HW1 7592   0.676   0.914   1.335
 2231SOL    HW2 7593   0.691   0.879   1.176
 2232SOL     OW 7594   1.914   2.254   4.181
 2232SOL    HW1 7595   1.961   2.306   4.252
 2232SOL    HW2 7596   1.977   2.233   4.107
 2233SOL     OW 7597   2.350   4.251   1.359
 2233SOL    HW1 7598   2.374   4.348   1.364
 2233SOL    HW2 7599   2.388   4.212   1.275
 2234SOL     OW 7600   4.607   2.104   2.107
 2234SOL    HW1 7601   4.510   2.078   2.108
 2234SOL    HW2 7602   4.631   2.144   2.195
 2235SOL     OW 7603   1.836   0.643   1.353
 2235SOL    HW1 7604   1.936   0.642   1.348
 2235SOL    HW2 7605   1.798   0.624   1.262
 2236SOL     OW 7606   0.893   4.223   6.509
 2236SOL    HW1 7607   0.820   4.285   6.482
 2236SOL    HW2 7608   0.855   4.147   6.561
 2237SOL     OW 7609   5.422   4.349   4.366
 2237SOL    HW1 7610   5.490   4.303   4.309
 2237SOL    HW2 7611   5.372   4.281   4.419
 2238SOL     OW 7612   5.563   5.613   1.899
 2238SOL    HW1 7613   5.474   5.657   1.882
 2238SOL    HW2 7614   5.551   5.514   1.901
 2239SOL     OW 7615   3.764   5.443   3.380
 2239SOL    HW1 7616   3.681   5.397   3.412
 2239SOL    HW2 7617   3.775   5.530   3.428
 2240SOL     OW 7618   5.463   5.859   3.823
 2240SOL    HW1 7619   5.460   5.889   3.728
 2240SOL    HW2 7620   5.549   5.811   3.841
 2241SOL     OW 7621   0.172   0.097   2.156
 2241SOL    HW1 7622   0.262   0.129   2.184
 2241SOL    HW2 7623   0.107   0.110   2.231
 2242SOL     OW 7624   4.914   2.390   3.053
 2242SOL    HW1 7625   4.935   2.293   3.063
 2242SOL    HW2 7626   4.909   2.432   3.143
 2243SOL     OW 7627   2.722   6.277   5.139
 2243SOL    HW1 7628   2.746   6.295   5.234
 2243SOL    HW2 7629   2.644   6.215   5.135
 2244SOL     OW 7630   2.814   0.421   2.784
 2244SOL    HW1 7631   2.780   0.493   2.723
 2244SOL    HW2 7632   2.745   0.349   2.792
 2245SOL     OW 7633   0.407   1.605   2.287
 2245SOL    HW1 7634   0.465   1.613   2.369
 2245SOL    HW2 7635   0.345   1.683   2.283
 2246SOL     OW 7636   1.428   1.148   5.381
 2246SOL    HW1 7637   1.494   1.111   5.315
 2246SOL    HW2 7638   1.345   1.093   5.380
 2247SOL     OW 7639   2.590   2.913   5.572
 2247SOL    HW1 7640   2.498   2.886   5.601
 2247SOL    HW2 7641   2.597   3.013   5.576
 2248SOL     OW 7642   3.985   3.775   6.438
 2248SOL    HW1 7643   4.059   3.710   6.456
 2248SOL    HW2 7644   3.983   3.843   6.511
 2249SOL     OW 7645   6.306   6.242   2.397
 2249SOL    HW1 7646   6.334   6.148   2.415
 2249SOL    HW2 7647   6.377   6.305   2.428
 2250SOL     OW 7648   4.587   3.914   0.770
 2250SOL    HW1 7649   4.627   3.908   0.678
 2250SOL    HW2 7650   4.548   4.005   0.784
 2251SOL     OW 7651   5.197   1.580   0.240
 2251SOL    HW1 7652   5.271   1.513   0.238
 2251SOL    HW2 7653   5.126   1.553   0.175
 2252SOL     OW 7654   6.332   1.896   3.080
 2252SOL    HW1 7655   6.249   1.912   3.027
 2252SOL    HW2 7656   6.314   1.830   3.153
 2253SOL     OW 7657   0.803   3.740   6.803
 2253SOL    HW1 7658   0.855   3.752   6.888
 2253SOL    HW2 7659   0.757   3.651   6.805
 2254SOL     OW 7660   2.449   3.514   5.559
 2254SOL    HW1 7661   2.393   3.591   5.526
 2254SOL    HW2 7662   2.454   3.444   5.489
 2255SOL     OW 7663   4.754   2.591   0.295
 2255SOL    HW1 7664   4.764   2.584   0.196
 2255SOL    HW2 7665   4.842   2.573   0.339
 2256SOL     OW 7666   3.903   6.603   1.297
 2256SOL    HW1 7667   3.973   6.674   1.307
 2256SOL    HW2 7668   3.834   6.614   1.368
 2257SOL     OW 7669   6.979   2.288   3.722
 2257SOL    HW1 7670   7.016   2.210   3.672
 2257SOL    HW2 7671   6.883   2.300   3.697
 2258SOL     OW 7672   1.307   4.991   5.453
 2258SOL    HW1 7673   1.355   4.904   5.464
 2258SOL    HW2 7674   1.356   5.062   5.503
 2259SOL     OW 7675   5.091   4.303   6.522
 2259SOL    HW1 7676   4.992   4.308   6.539
 2259SOL    HW2 7677   5.123   4.392   6.489
 2260SOL     OW 7678   6.009   4.470   3.034
 2260SOL    HW1 7679   5.960   4.488   3.119
 2260SOL    HW2 7680   6.048   4.378   3.037
 2261SOL     OW 7681   6.223   6.849   0.951
 2261SOL    HW1 7682   6.143   6.790   0.964
 2261SOL    HW2 7683   6.294   6.798   0.904
 2262SOL     OW 7684   5.150   2.305   2.364
 2262SOL    HW1 7685   5.102   2.298   2.276
 2262SOL    HW2 7686   5.085   2.287   2.438
 2263SOL     OW 7687   2.760   6.166   6.039
 2263SOL    HW1 7688   2.782   6.145   5.943
 2263SOL    HW2 7689   2.844   6.169   6.092
 2264SOL     OW 7690   3.255   3.011   1.090
 2264SOL    HW1 7691   3.226   3.026   1.185
 2264SOL    HW2 7692   3.297   3.095   1.055
 2265SOL     OW 7693   0.486   0.155   3.391
 2265SOL    HW1 7694   0.555   0.163   3.319
 2265SOL    HW2 7695   0.531   0.154   3.480
 2266SOL     OW 7696   6.137   1.779   1.423
 2266SOL    HW1 7697   6.043   1.759   1.396
 2266SOL    HW2 7698   6.165   1.866   1.382
 2267SOL     OW 7699   4.800   2.588   4.994
 2267SOL    HW1 7700   4.717   2.607   5.046
 2267SOL    HW2 7701   4.816   2.490   4.993
 2268SOL     OW 7702   6.123   4.202   6.286
 2268SOL    HW1 7703   6.223   4.211   6.288
 2268SOL    HW2 7704   6.088   4.213   6.379
 2269SOL     OW 7705   5.666   5.875   4.739
 2269SOL    HW1 7706   5.675   5.966   4.697
 2269SOL    HW2 7707   5.726   5.811   4.692
 2270SOL     OW 7708   2.887   2.434   6.453
 2270SOL    HW1 7709   2.966   2.376   6.471
 2270SOL    HW2 7710   2.905   2.490   6.372
 2271SOL     OW 7711   6.140   3.986   0.522
 2271SOL    HW1 7712   6.236   3.968   0.501
 2271SOL    HW2 7713   6.107   4.058   0.460
 2272SOL     OW 7714   5.539   1.490   5.260
 2272SOL    HW1 7715   5.572   1.429   5.332
 2272SOL    HW2 7716   5.511   1.577   5.301
 2273SOL     OW 7717   1.503   0.781   2.075
 2273SOL    HW1 7718   1.501   0.712   2.148
 2273SOL    HW2 7719   1.570   0.852   2.098
 2274SOL     OW 7720   1.824   2.284   6.011
 2274SOL    HW1 7721   1.893   2.355   6.003
 2274SOL    HW2 7722   1.778   2.291   6.100
 2275SOL     OW 7723   5.853   0.629   4.808
 2275SOL    HW1 7724   5.947   0.658   4.829
 2275SOL    HW2 7725   5.843   0.532   4.829
 2276SOL     OW 7726   3.155   4.935   1.057
 2276SOL    HW1 7727   3.102   4.982   0.986
 2276SOL    HW2 7728   3.193   4.850   1.020
 2277SOL     OW 7729   3.577   3.527   4.762
 2277SOL    HW1 7730   3.649   3.581   4.718
 2277SOL    HW2 7731   3.571   3.552   4.859
 2278SOL     OW 7732   6.145   5.895   3.919
 2278SOL    HW1 7733   6.095   5.914   4.003
 2278SOL    HW2 7734   6.188   5.805   3.926
 2279SOL     OW 7735   4.607   5.493   4.429
 2279SOL    HW1 7736   4.510   5.512   4.412
 2279SOL    HW2 7737   4.661   5.572   4.401
 2280SOL     OW 7738   6.981   6.626   4.806
 2280SOL    HW1 7739   6.951   6.681   4.728
 2280SOL    HW2 7740   0.019   6.679   4.861
 2281SOL     OW 7741   3.540   0.918   1.809
 2281SOL    HW1 7742   3.535   0.853   1.885
 2281SOL    HW2 7743   3.493   1.003   1.835
 2282SOL     OW 7744   5.472   7.025   4.952
 2282SOL    HW1 7745   5.459   6.972   4.869
 2282SOL    HW2 7746   5.569   0.025   4.961
 2283SOL     OW 7747   6.407   4.519   1.694
 2283SOL    HW1 7748   6.495   4.542   1.736
 2283SOL    HW2 7749   6.340   4.590   1.718
 2284SOL     OW 7750   2.579   1.626   0.426
 2284SOL    HW1 7751   2.501   1.564   0.434
 2284SOL    HW2 7752   2.609   1.655   0.517
 2285SOL     OW 7753   1.453   2.638   0.466
 2285SOL    HW1 7754   1.428   2.541   0.460
 2285SOL    HW2 7755   1.427   2.674   0.555
 2286SOL     OW 7756   0.336   6.882   4.419
 2286SOL    HW1 7757   0.416   6.824   4.403
 2286SOL    HW2 7758   0.350   6.971   4.376
 2287SOL     OW 7759   2.018   2.485   2.018
 2287SOL    HW1 7760   2.059   2.515   1.931
 2287SOL    HW2 7761   2.091   2.456   2.080
 2288SOL     OW 7762   6.846   4.649   4.370
 2288SOL    HW1 7763   6.922   4.584   4.371
 2288SOL    HW2 7764   6.863   4.721   4.438
 2289SOL     OW 7765   6.204   4.435   2.613
 2289SOL    HW1 7766   6.200   4.365   2.685
 2289SOL    HW2 7767   6.112   4.471   2.597
 2290SOL     OW 7768   1.680   3.701   1.985
 2290SOL    HW1 7769   1.754   3.654   2.033
 2290SOL    HW2 7770   1.719   3.766   1.919
 2291SOL     OW 7771   2.050   2.084   0.395
 2291SOL    HW1 7772   2.063   2.063   0.298
 2291SOL    HW2 7773   1.962   2.048   0.426
 2292SOL     OW 7774   5.992   2.316   3.523
 2292SOL    HW1 7775   5.907   2.337   3.570
 2292SOL    HW2 7776   6.061   2.386   3.546
 2293SOL     OW 7777   6.275   6.874   1.242
 2293SOL    HW1 7778   6.366   6.914   1.243
 2293SOL    HW2 7779   6.237   6.879   1.149
 2294SOL     OW 7780   3.244   1.491   6.481
 2294SOL    HW1 7781   3.195   1.404   6.472
 2294SOL    HW2 7782   3.334   1.474   6.521
 2295SOL     OW 7783   0.501   1.706   2.696
 2295SOL    HW1 7784   0.479   1.696   2.793
 2295SOL    HW2 7785   0.419   1.731   2.645
 2296SOL     OW 7786   3.670   5.617   2.584
 2296SOL    HW1 7787   3.669   5.520   2.559
 2296SOL    HW2 7788   3.650   5.626   2.682
 2297SOL     OW 7789   4.907   4.697   5.757
 2297SOL    HW1 7790   4.992   4.743   5.735
 2297SOL    HW2 7791   4.832   4.764   5.759
 2298SOL     OW 7792   4.069   3.645   2.422
 2298SOL    HW1 7793   3.978   3.681   2.442
 2298SOL    HW2 7794   4.132   3.721   2.404
 2299SOL     OW 7795   4.718   4.510   5.305
 2299SOL    HW1 7796   4.628   4.551   5.320
 2299SOL    HW2 7797   4.780   4.534   5.380
 2300SOL     OW 7798   2.717   5.855   3.353
 2300SOL    HW1 7799   2.647   5.786   3.334
 2300SOL    HW2 7800   2.701   5.935   3.295
 2301SOL     OW 7801   3.916   3.015   3.408
 2301SOL    HW1 7802   3.960   3.104   3.400
 2301SOL    HW2 7803   3.907   2.991   3.505
 2302SOL     OW 7804   4.078   0.623   1.088
 2302SOL    HW1 7805   4.073   0.684   1.009
 2302SOL    HW2 7806   4.072   0.528   1.057
 2303SOL     OW 7807   2.935   3.092   0.763
 2303SOL    HW1 7808   2.970   3.016   0.709
 2303SOL    HW2 7809   2.835   3.094   0.757
 2304SOL     OW 7810   5.603   6.645   4.595
 2304SOL    HW1 7811   5.579   6.621   4.688
 2304SOL    HW2 7812   5.520   6.662   4.542
 2305SOL     OW 7813   2.226   0.108   3.062
 2305SOL    HW1 7814   2.192   0.113   3.156
 2305SOL    HW2 7815   2.164   0.052   3.008
 2306SOL     OW 7816   2.233   5.449   2.037
 2306SOL    HW1 7817   2.327   5.429   2.010
 2306SOL    HW2 7818   2.175   5.455   1.955
 2307SOL     OW 7819   0.576   2.986   4.523
 2307SOL    HW1 7820   0.587   2.888   4.503
 2307SOL    HW2 7821   0.533   3.031   4.445
 2308SOL     OW 7822   2.905   4.868   1.226
 2308SOL    HW1 7823   2.872   4.959   1.199
 2308SOL    HW2 7824   2.987   4.846   1.174
 2309SOL     OW 7825   2.062   0.717   5.357
 2309SOL    HW1 7826   1.996   0.790   5.371
 2309SOL    HW2 7827   2.154   0.754   5.360
 2310SOL     OW 7828   5.560   5.609   1.210
 2310SOL    HW1 7829   5.516   5.591   1.299
 2310SOL    HW2 7830   5.511   5.682   1.163
 2311SOL     OW 7831   2.299   6.581   1.094
 2311SOL    HW1 7832   2.398   6.588   1.109
 2311SOL    HW2 7833   2.274   6.484   1.085
 2312SOL     OW 7834   5.006   5.686   3.103
 2312SOL    HW1 7835   4.911   5.660   3.123
 2312SOL    HW2 7836   5.009   5.781   3.073
 2313SOL     OW 7837   4.436   5.851   2.309
 2313SOL    HW1 7838   4.343   5.825   2.282
 2313SOL    HW2 7839   4.480   5.902   2.235
 2314SOL     OW 7840   5.267   5.726   3.249
 2314SOL    HW1 7841   5.246   5.815   3.288
 2314SOL    HW2 7842   5.189   5.694   3.195
 2315SOL     OW 7843   5.345   3.021   6.087
 2315SOL    HW1 7844   5.303   3.060   6.005
 2315SOL    HW2 7845   5.296   3.053   6.168
 2316SOL     OW 7846   3.787   1.727   3.986
 2316SOL    HW1 7847   3.878   1.689   4.006
 2316SOL    HW2 7848   3.717   1.670   4.030
 2317SOL     OW 7849   0.833   5.723   3.180
 2317SOL    HW1 7850   0.779   5.806   3.171
 2317SOL    HW2 7851   0.800   5.654   3.115
 2318SOL     OW 7852   0.642   2.899   3.716
 2318SOL    HW1 7853   0.544   2.916   3.701
 2318SOL    HW2 7854   0.693   2.983   3.699
 2319SOL     OW 7855   2.009   5.165   3.661
 2319SOL    HW1 7856   2.042   5.148   3.568
 2319SOL    HW2 7857   2.083   5.152   3.727
 2320SOL     OW 7858   1.054   2.294   3.853
 2320SOL    HW1 7859   1.087   2.342   3.772
 2320SOL    HW2 7860   0.955   2.278   3.844
 2321SOL     OW 7861   3.662   0.659   5.714
 2321SOL    HW1 7862   3.567   0.669   5.741
 2321SOL    HW2 7863   3.692   0.565   5.730
 2322SOL     OW 7864   2.609   1.492   4.900
 2322SOL    HW1 7865   2.673   1.514   4.974
 2322SOL    HW2 7866   2.631   1.546   4.819
 2323SOL     OW 7867   2.881   4.847   1.917
 2323SOL    HW1 7868   2.862   4.758   1.958
 2323SOL    HW2 7869   2.972   4.846   1.875
 2324SOL     OW 7870   6.988   6.078   2.326
 2324SOL    HW1 7871   6.985   5.983   2.296
 2324SOL    HW2 7872   0.030   6.128   2.272
 2325SOL     OW 7873   0.561   4.841   1.165
 2325SOL    HW1 7874   0.545   4.819   1.069
 2325SOL    HW2 7875   0.627   4.915   1.172
 2326SOL     OW 7876   3.206   4.873   5.426
 2326SOL    HW1 7877   3.246   4.937   5.491
 2326SOL    HW2 7878   3.247   4.783   5.438
 2327SOL     OW 7879   5.863   3.442   4.724
 2327SOL    HW1 7880   5.855   3.524   4.780
 2327SOL    HW2 7881   5.774   3.397   4.718
 2328SOL     OW 7882   3.832   1.900   3.344
 2328SOL    HW1 7883   3.799   1.989   3.374
 2328SOL    HW2 7884   3.885   1.911   3.260
 2329SOL     OW 7885   1.758   4.985   4.954
 2329SOL    HW1 7886   1.714   5.072   4.978
 2329SOL    HW2 7887   1.692   4.925   4.909
 2330SOL     OW 7888   6.938   4.307   2.464
 2330SOL    HW1 7889   6.891   4.267   2.542
 2330SOL    HW2 7890   6.987   4.235   2.414
 2331SOL     OW 7891   6.445   4.084   0.235
 2331SOL    HW1 7892   6.459   4.180   0.209
 2331SOL    HW2 7893   6.533   4.039   0.247
 2332SOL     OW 7894   4.017   1.938   5.327
 2332SOL    HW1 7895   3.989   1.919   5.421
 2332SOL    HW2 7896   4.000   2.035   5.306
 2333SOL     OW 7897   6.887   5.249   2.977
 2333SOL    HW1 7898   6.788   5.251   2.989
 2333SOL    HW2 7899   6.912   5.170   2.921
 2334SOL     OW 7900   2.381   0.166   0.196
 2334SOL    HW1 7901   2.318   0.116   0.256
 2334SOL    HW2 7902   2.474   0.132   0.210
 2335SOL     OW 7903   5.575   1.062   3.106
 2335SOL    HW1 7904   5.526   0.991   3.155
 2335SOL    HW2 7905   5.537   1.073   3.014
 2336SOL     OW 7906   4.188   2.135   5.597
 2336SOL    HW1 7907   4.215   2.155   5.692
 2336SOL    HW2 7908   4.234   2.198   5.535
 2337SOL     OW 7909   4.403   1.344   3.658
 2337SOL    HW1 7910   4.440   1.415   3.718
 2337SOL    HW2 7911   4.474   1.276   3.639
 2338SOL     OW 7912   1.229   0.676   6.801
 2338SOL    HW1 7913   1.203   0.635   6.889
 2338SOL    HW2 7914   1.328   0.690   6.799
 2339SOL     OW 7915   3.744   3.297   4.824
 2339SOL    HW1 7916   3.655   3.330   4.854
 2339SOL    HW2 7917   3.753   3.200   4.847
 2340SOL     OW 7918   5.287   6.268   6.212
 2340SOL    HW1 7919   5.283   6.203   6.288
 2340SOL    HW2 7920   5.194   6.288   6.180
 2341SOL     OW 7921   4.930   3.610   1.053
 2341SOL    HW1 7922   4.902   3.521   1.015
 2341SOL    HW2 7923   4.856   3.676   1.041
 2342SOL     OW 7924   0.700   6.061   5.920
 2342SOL    HW1 7925   0.607   6.077   5.955
 2342SOL    HW2 7926   0.743   6.149   5.898
 2343SOL     OW 7927   1.937   6.131   1.437
 2343SOL    HW1 7928   1.865   6.071   1.404
 2343SOL    HW2 7929   1.896   6.206   1.489
 2344SOL     OW 7930   1.586   1.413   1.191
 2344SOL    HW1 7931   1.656   1.360   1.143
 2344SOL    HW2 7932   1.626   1.458   1.270
 2345SOL     OW 7933   2.175   5.641   5.152
 2345SOL    HW1 7934   2.173   5.548   5.115
 2345SOL    HW2 7935   2.259   5.655   5.204
 2346SOL     OW 7936   5.040   3.372   4.744
 2346SOL    HW1 7937   5.028   3.328   4.833
 2346SOL    HW2 7938   5.005   3.312   4.672
 2347SOL     OW 7939   1.970   3.988   1.514
 2347SOL    HW1 7940   2.069   4.004   1.509
 2347SOL    HW2 7941   1.926   4.034   1.436
 2348SOL     OW 7942   3.400   6.059   3.073
 2348SOL    HW1 7943   3.383   5.984   3.136
 2348SOL    HW2 7944   3.340   6.136   3.095
 2349SOL     OW 7945   0.687   5.981   6.809
 2349SOL    HW1 7946   0.618   5.914   6.780
 2349SOL    HW2 7947   0.653   6.030   6.890
 2350SOL     OW 7948   4.918   0.001   6.213
 2350SOL    HW1 7949   4.994   0.064   6.228
 2350SOL    HW2 7950   4.912   6.962   6.290
 2351SOL     OW 7951   3.503   4.971   2.813
 2351SOL    HW1 7952   3.423   4.968   2.753
 2351SOL    HW2 7953   3.472   4.967   2.909
 2352SOL     OW 7954   0.191   4.601   2.359
 2352SOL    HW1 7955   0.156   4.681   2.312
 2352SOL    HW2 7956   0.251   4.629   2.434
 2353SOL     OW 7957   2.969   4.868   4.434
 2353SOL    HW1 7958   3.041   4.855   4.502
 2353SOL    HW2 7959   2.881   4.876   4.482
 2354SOL     OW 7960   3.349   2.445   6.271
 2354SOL    HW1 7961   3.275   2.512   6.267
 2354SOL    HW2 7962   3.319   2.366   6.325
 2355SOL     OW 7963   0.664   5.042   6.954
 2355SOL    HW1 7964   0.659   5.123   7.013
 2355SOL    HW2 7965   0.575   4.997   6.952
 2356SOL     OW 7966   2.356   3.899   0.888
 2356SOL    HW1 7967   2.408   3.974   0.848
 2356SOL    HW2 7968   2.397   3.812   0.863
 2357SOL     OW 7969   3.764   5.249   3.923
 2357SOL    HW1 7970   3.862   5.248   3.903
 2357SOL    HW2 7971   3.712   5.217   3.844
 2358SOL     OW 7972   2.849   5.594   4.715
 2358SOL    HW1 7973   2.806   5.574   4.627
 2358SOL    HW2 7974   2.923   5.660   4.701
 2359SOL     OW 7975   1.342   1.372   5.496
 2359SOL    HW1 7976   1.419   1.435   5.496
 2359SOL    HW2 7977   1.371   1.284   5.459
 2360SOL     OW 7978   4.685   6.177   5.213
 2360SOL    HW1 7979   4.598   6.138   5.242
 2360SOL    HW2 7980   4.751   6.104   5.195
 2361SOL     OW 7981   2.570   0.535   4.289
 2361SOL    HW1 7982   2.478   0.522   4.326
 2361SOL    HW2 7983   2.612   0.615   4.332
 2362SOL     OW 7984   4.399   7.021   5.346
 2362SOL    HW1 7985   4.353   6.946   5.394
 2362SOL    HW2 7986   4.331   0.045   5.291
 2363SOL     OW 7987   4.829   2.370   5.468
 2363SOL    HW1 7988   4.786   2.438   5.528
 2363SOL    HW2 7989   4.918   2.403   5.438
 2364SOL     OW 7990   6.180   1.852   2.508
 2364SOL    HW1 7991   6.093   1.888   2.542
 2364SOL    HW2 7992   6.165   1.761   2.469
 2365SOL     OW 7993   5.841   3.921   5.208
 2365SOL    HW1 7994   5.779   3.853   5.245
 2365SOL    HW2 7995   5.914   3.939   5.274
 2366SOL     OW 7996   1.036   3.914   5.726
 2366SOL    HW1 7997   0.985   3.974   5.666
 2366SOL    HW2 7998   1.105   3.865   5.673
 2367SOL     OW 7999   1.868   3.928   6.782
 2367SOL    HW1 8000   1.844   4.013   6.735
 2367SOL    HW2 8001   1.817   3.852   6.741
 2368SOL     OW 8002   5.221   1.464   4.835
 2368SOL    HW1 8003   5.197   1.556   4.807
 2368SOL    HW2 8004   5.280   1.468   4.916
 2369SOL     OW 8005   2.468   2.702   3.810
 2369SOL    HW1 8006   2.507   2.621   3.765
 2369SOL    HW2 8007   2.436   2.766   3.740
 2370SOL     OW 8008   4.401   4.318   6.938
 2370SOL    HW1 8009   4.437   4.410   6.953
 2370SOL    HW2 8010   4.308   4.325   6.900
 2371SOL     OW 8011   1.848   5.956   2.022
 2371SOL    HW1 8012   1.940   5.941   1.987
 2371SOL    HW2 8013   1.787   5.885   1.987
 2372SOL     OW 8014   0.581   1.892   0.329
 2372SOL    HW1 8015   0.655   1.958   0.342
 2372SOL    HW2 8016   0.585   1.823   0.400
 2373SOL     OW 8017   6.423   1.310   6.516
 2373SOL    HW1 8018   6.385   1.308   6.423
 2373SOL    HW2 8019   6.351   1.287   6.582
 2374SOL     OW 8020   6.375   5.707   3.687
 2374SOL    HW1 8021   6.298   5.737   3.630
 2374SOL    HW2 8022   6.439   5.783   3.698
 2375SOL     OW 8023   1.123   6.503   4.703
 2375SOL    HW1 8024   1.116   6.454   4.789
 2375SOL    HW2 8025   1.216   6.541   4.694
 2376SOL     OW 8026   6.071   2.729   3.506
 2376SOL    HW1 8027   6.001   2.801   3.506
 2376SOL    HW2 8028   6.135   2.745   3.581
 2377SOL     OW 8029   3.265   3.346   4.403
 2377SOL    HW1 8030   3.258   3.307   4.311
 2377SOL    HW2 8031   3.253   3.445   4.398
 2378SOL     OW 8032   5.125   2.187   6.487
 2378SOL    HW1 8033   5.029   2.205   6.467
 2378SOL    HW2 8034   5.166   2.266   6.531
 2379SOL     OW 8035   6.787   2.588   7.024
 2379SOL    HW1 8036   6.790   2.529   0.079
 2379SOL    HW2 8037   6.700   2.575   6.975
 2380SOL     OW 8038   6.966   0.812   5.657
 2380SOL    HW1 8039   6.884   0.816   5.600
 2380SOL    HW2 8040   6.948   0.857   5.745
 2381SOL     OW 8041   1.915   4.143   4.480
 2381SOL    HW1 8042   1.929   4.186   4.569
 2381SOL    HW2 8043   1.994   4.086   4.458
 2382SOL     OW 8044   2.311   5.833   2.665
 2382SOL    HW1 8045   2.217   5.807   2.686
 2382SOL    HW2 8046   2.329   5.925   2.699
 2383SOL     OW 8047   5.773   6.463   6.705
 2383SOL    HW1 8048   5.710   6.437   6.778
 2383SOL    HW2 8049   5.867   6.440   6.732
 2384SOL     OW 8050   1.469   1.520   1.835
 2384SOL    HW1 8051   1.490   1.618   1.833
 2384SOL    HW2 8052   1.530   1.474   1.899
 2385SOL     OW 8053   6.728   0.099   1.121
 2385SOL    HW1 8054   6.808   0.081   1.178
 2385SOL    HW2 8055   6.721   0.197   1.104
 2386SOL     OW 8056   3.711   4.955   4.552
 2386SOL    HW1 8057   3.616   4.944   4.524
 2386SOL    HW2 8058   3.724   4.912   4.642
 2387SOL     OW 8059   6.626   2.805   5.021
 2387SOL    HW1 8060   6.711   2.799   4.968
 2387SOL    HW2 8061   6.647   2.800   5.119
 2388SOL     OW 8062   1.362   1.825   5.723
 2388SOL    HW1 8063   1.406   1.855   5.639
 2388SOL    HW2 8064   1.282   1.883   5.742
 2389SOL     OW 8065   4.764   4.319   3.912
 2389SOL    HW1 8066   4.682   4.375   3.902
 2389SOL    HW2 8067   4.812   4.346   3.995
 2390SOL     OW 8068   3.965   3.899   4.663
 2390SOL    HW1 8069   3.988   3.907   4.760
 2390SOL    HW2 8070   4.004   3.814   4.626
 2391SOL     OW 8071   3.184   4.770   5.689
 2391SOL    HW1 8072   3.122   4.834   5.644
 2391SOL    HW2 8073   3.240   4.724   5.620
 2392SOL     OW 8074   2.978   5.185   6.405
 2392SOL    HW1 8075   2.949   5.172   6.500
 2392SOL    HW2 8076   3.053   5.122   6.385
 2393SOL     OW 8077   3.851   5.376   1.103
 2393SOL    HW1 8078   3.819   5.442   1.170
 2393SOL    HW2 8079   3.775   5.347   1.045
 2394SOL     OW 8080   1.339   4.029   4.528
 2394SOL    HW1 8081   1.347   3.934   4.556
 2394SOL    HW2 8082   1.378   4.088   4.599
 2395SOL     OW 8083   0.119   2.455   6.466
 2395SOL    HW1 8084   0.157   2.366   6.441
 2395SOL    HW2 8085   0.157   2.525   6.405
 2396SOL     OW 8086   5.925   6.409   0.863
 2396SOL    HW1 8087   5.862   6.442   0.793
 2396SOL    HW2 8088   5.902   6.449   0.951
 2397SOL     OW 8089   6.289   5.165   0.132
 2397SOL    HW1 8090   6.326   5.140   0.221
 2397SOL    HW2 8091   6.232   5.091   0.097
 2398SOL     OW 8092   2.158   4.832   4.894
 2398SOL    HW1 8093   2.124   4.738   4.899
 2398SOL    HW2 8094   2.254   4.835   4.922
 2399SOL     OW 8095   4.700   1.795   2.583
 2399SOL    HW1 8096   4.628   1.738   2.624
 2399SOL    HW2 8097   4.663   1.884   2.558
 2400SOL     OW 8098   3.545   3.739   0.827
 2400SOL    HW1 8099   3.620   3.679   0.801
 2400SOL    HW2 8100   3.572   3.834   0.811
 2401SOL     OW 8101   3.305   0.768   5.258
 2401SOL    HW1 8102   3.324   0.858   5.219
 2401SOL    HW2 8103   3.335   0.767   5.353
 2402SOL     OW 8104   0.146   2.284   4.454
 2402SOL    HW1 8105   0.088   2.279   4.536
 2402SOL    HW2 8106   0.097   2.244   4.377
 2403SOL     OW 8107   3.264   2.945   0.671
 2403SOL    HW1 8108   3.228   3.038   0.662
 2403SOL    HW2 8109   3.336   2.931   0.603
 2404SOL     OW 8110   5.377   1.568   2.176
 2404SOL    HW1 8111   5.362   1.471   2.195
 2404SOL    HW2 8112   5.312   1.600   2.107
 2405SOL     OW 8113   3.779   3.447   5.197
 2405SOL    HW1 8114   3.830   3.486   5.120
 2405SOL    HW2 8115   3.764   3.349   5.180
 2406SOL     OW 8116   2.175   0.888   2.996
 2406SOL    HW1 8117   2.146   0.921   2.907
 2406SOL    HW2 8118   2.130   0.941   3.068
 2407SOL     OW 8119   4.709   2.158   2.934
 2407SOL    HW1 8120   4.800   2.196   2.948
 2407SOL    HW2 8121   4.691   2.088   3.004
 2408SOL     OW 8122   3.552   5.330   2.500
 2408SOL    HW1 8123   3.455   5.307   2.511
 2408SOL    HW2 8124   3.608   5.251   2.523
 2409SOL     OW 8125   2.434   2.512   1.910
 2409SOL    HW1 8126   2.348   2.564   1.914
 2409SOL    HW2 8127   2.418   2.424   1.866
 2410SOL     OW 8128   6.465   3.197   5.624
 2410SOL    HW1 8129   6.524   3.192   5.705
 2410SOL    HW2 8130   6.469   3.110   5.575
 2411SOL     OW 8131   3.532   4.723   5.306
 2411SOL    HW1 8132   3.486   4.700   5.392
 2411SOL    HW2 8133   3.628   4.696   5.312
 2412SOL     OW 8134   2.622   3.607   0.323
 2412SOL    HW1 8135   2.545   3.607   0.386
 2412SOL    HW2 8136   2.656   3.514   0.311
 2413SOL     OW 8137   6.741   3.312   6.644
 2413SOL    HW1 8138   6.732   3.268   6.733
 2413SOL    HW2 8139   6.651   3.333   6.607
 2414SOL     OW 8140   5.565   3.505   2.917
 2414SOL    HW1 8141   5.609   3.505   3.007
 2414SOL    HW2 8142   5.561   3.411   2.883
 2415SOL     OW 8143   2.020   0.264   1.222
 2415SOL    HW1 8144   2.031   0.166   1.240
 2415SOL    HW2 8145   1.922   0.285   1.214
 2416SOL     OW 8146   2.248   1.111   5.077
 2416SOL    HW1 8147   2.255   1.198   5.030
 2416SOL    HW2 8148   2.182   1.118   5.152
 2417SOL     OW 8149   5.189   2.278   7.015
 2417SOL    HW1 8150   5.200   2.205   0.056
 2417SOL    HW2 8151   5.148   2.358   0.034
 2418SOL     OW 8152   3.317   3.727   4.886
 2418SOL    HW1 8153   3.382   3.757   4.816
 2418SOL    HW2 8154   3.367   3.685   4.962
 2419SOL     OW 8155   0.463   6.662   4.786
 2419SOL    HW1 8156   0.531   6.672   4.858
 2419SOL    HW2 8157   0.496   6.597   4.718
 2420SOL     OW 8158   4.167   6.937   2.468
 2420SOL    HW1 8159   4.145   6.881   2.388
 2420SOL    HW2 8160   4.186   6.878   2.546
 2421SOL     OW 8161   3.055   0.956   4.413
 2421SOL    HW1 8162   3.012   0.975   4.501
 2421SOL    HW2 8163   3.151   0.929   4.428
 2422SOL     OW 8164   5.065   0.552   0.864
 2422SOL    HW1 8165   5.101   0.646   0.870
 2422SOL    HW2 8166   5.122   0.499   0.802
 2423SOL     OW 8167   1.424   6.190   2.491
 2423SOL    HW1 8168   1.478   6.272   2.512
 2423SOL    HW2 8169   1.350   6.181   2.558
 2424SOL     OW 8170   5.160   5.833   6.328
 2424SOL    HW1 8171   5.227   5.777   6.279
 2424SOL    HW2 8172   5.141   5.793   6.417
 2425SOL     OW 8173   6.438   6.829   4.794
 2425SOL    HW1 8174   6.445   6.928   4.806
 2425SOL    HW2 8175   6.347   6.798   4.821
 2426SOL     OW 8176   1.294   5.089   4.589
 2426SOL    HW1 8177   1.291   5.031   4.670
 2426SOL    HW2 8178   1.254   5.178   4.609
 2427SOL     OW 8179   5.864   5.905   6.632
 2427SOL    HW1 8180   5.831   5.810   6.627
 2427SOL    HW2 8181   5.843   5.952   6.546
 2428SOL     OW 8182   1.012   0.314   4.294
 2428SOL    HW1 8183   0.926   0.348   4.256
 2428SOL    HW2 8184   0.994   0.237   4.355
 2429SOL     OW 8185   6.218   5.131   3.247
 2429SOL    HW1 8186   6.273   5.087   3.176
 2429SOL    HW2 8187   6.126   5.091   3.248
 2430SOL     OW 8188   5.684   2.787   0.819
 2430SOL    HW1 8189   5.738   2.839   0.753
 2430SOL    HW2 8190   5.741   2.762   0.897
 2431SOL     OW 8191   4.154   0.579   1.801
 2431SOL    HW1 8192   4.158   0.619   1.709
 2431SOL    HW2 8193   4.207   0.635   1.864
 2432SOL     OW 8194   4.678   6.410   2.855
 2432SOL    HW1 8195   4.634   6.407   2.945
 2432SOL    HW2 8196   4.609   6.434   2.786
 2433SOL     OW 8197   2.136   0.059   6.947
 2433SOL    HW1 8198   2.215   0.094   6.998
 2433SOL    HW2 8199   2.109   6.996   6.984
 2434SOL     OW 8200   4.480   1.328   3.233
 2434SOL    HW1 8201   4.461   1.425   3.221
 2434SOL    HW2 8202   4.567   1.306   3.187
 2435SOL     OW 8203   4.702   5.096   0.221
 2435SOL    HW1 8204   4.734   5.046   0.302
 2435SOL    HW2 8205   4.609   5.068   0.200
 2436SOL     OW 8206   2.108   6.762   1.011
 2436SOL    HW1 8207   2.191   6.707   1.007
 2436SOL    HW2 8208   2.124   6.842   1.069
 2437SOL     OW 8209   5.004   5.623   1.015
 2437SOL    HW1 8210   5.092   5.621   1.062
 2437SOL    HW2 8211   4.969   5.717   1.014
 2438SOL     OW 8212   4.142   0.724   4.744
 2438SOL    HW1 8213   4.203   0.724   4.664
 2438SOL    HW2 8214   4.057   0.771   4.721
 2439SOL     OW 8215   1.045   4.367   0.245
 2439SOL    HW1 8216   0.996   4.357   0.159
 2439SOL    HW2 8217   1.050   4.463   0.270
 2440SOL     OW 8218   3.519   6.729   5.186
 2440SOL    HW1 8219   3.500   6.803   5.122
 2440SOL    HW2 8220   3.500   6.761   5.279
 2441SOL     OW 8221   6.155   1.077   0.652
 2441SOL    HW1 8222   6.133   1.152   0.715
 2441SOL    HW2 8223   6.221   1.108   0.585
 2442SOL     OW 8224   5.725   5.417   3.233
 2442SOL    HW1 8225   5.813   5.446   3.196
 2442SOL    HW2 8226   5.652   5.474   3.193
 2443SOL     OW 8227   3.033   0.616   6.588
 2443SOL    HW1 8228   3.056   0.580   6.678
 2443SOL    HW2 8229   3.003   0.711   6.596
 2444SOL     OW 8230   3.897   4.219   6.894
 2444SOL    HW1 8231   3.869   4.159   6.969
 2444SOL    HW2 8232   3.844   4.196   6.812
 2445SOL     OW 8233   6.882   0.891   2.085
 2445SOL    HW1 8234   6.918   0.817   2.028
 2445SOL    HW2 8235   6.793   0.919   2.050
 2446SOL     OW 8236   0.271   2.815   4.007
 2446SOL    HW1 8237   0.370   2.821   4.017
 2446SOL    HW2 8238   0.227   2.890   4.057
 2447SOL     OW 8239   2.526   1.109   0.812
 2447SOL    HW1 8240   2.511   1.024   0.762
 2447SOL    HW2 8241   2.620   1.111   0.846
 2448SOL     OW 8242   6.507   1.264   4.160
 2448SOL    HW1 8243   6.430   1.318   4.126
 2448SOL    HW2 8244   6.480   1.168   4.167
 2449SOL     OW 8245   0.115   4.045   2.996
 2449SOL    HW1 8246   0.139   4.060   2.901
 2449SOL    HW2 8247   0.190   4.074   3.055
 2450SOL     OW 8248   3.136   5.511   5.829
 2450SOL    HW1 8249   3.036   5.510   5.837
 2450SOL    HW2 8250   3.165   5.597   5.787
 2451SOL     OW 8251   1.497   0.412   3.765
 2451SOL    HW1 8252   1.558   0.361   3.704
 2451SOL    HW2 8253   1.404   0.412   3.727
 2452SOL     OW 8254   2.922   2.025   3.144
 2452SOL    HW1 8255   2.939   1.933   3.179
 2452SOL    HW2 8256   2.965   2.092   3.203
 2453SOL     OW 8257   6.787   3.567   0.861
 2453SOL    HW1 8258   6.718   3.502   0.894
 2453SOL    HW2 8259   6.827   3.533   0.777
 2454SOL     OW 8260   3.767   0.638   6.659
 2454SOL    HW1 8261   3.699   0.705   6.688
 2454SOL    HW2 8262   3.836   0.684   6.602
 2455SOL     OW 8263   4.032   0.139   0.520
 2455SOL    HW1 8264   4.015   0.236   0.501
 2455SOL    HW2 8265   4.049   0.127   0.618
 2456SOL     OW 8266   5.982   2.077   0.203
 2456SOL    HW1 8267   5.902   2.024   0.231
 2456SOL    HW2 8268   5.966   2.174   0.221
 2457SOL     OW 8269   6.588   0.425   6.543
 2457SOL    HW1 8270   6.535   0.488   6.487
 2457SOL    HW2 8271   6.685   0.435   6.521
 2458SOL     OW 8272   2.165   6.148   3.594
 2458SOL    HW1 8273   2.194   6.060   3.631
 2458SOL    HW2 8274   2.070   6.142   3.564
 2459SOL     OW 8275   2.496   6.064   5.912
 2459SOL    HW1 8276   2.530   6.157   5.899
 2459SOL    HW2 8277   2.573   6.003   5.930
 2460SOL     OW 8278   1.858   1.492   1.670
 2460SOL    HW1 8279   1.891   1.519   1.579
 2460SOL    HW2 8280   1.917   1.421   1.707
 2461SOL     OW 8281   4.645   1.315   2.969
 2461SOL    HW1 8282   4.571   1.249   2.955
 2461SOL    HW2 8283   4.727   1.268   3.001
 2462SOL     OW 8284   1.592   5.526   0.136
 2462SOL    HW1 8285   1.534   5.525   0.054
 2462SOL    HW2 8286   1.686   5.548   0.110
 2463SOL     OW 8287   6.135   1.964   5.762
 2463SOL    HW1 8288   6.166   1.971   5.667
 2463SOL    HW2 8289   6.209   1.928   5.819
 2464SOL     OW 8290   2.128   3.809   2.573
 2464SOL    HW1 8291   2.179   3.826   2.489
 2464SOL    HW2 8292   2.131   3.712   2.595
 2465SOL     OW 8293   0.942   0.290   0.906
 2465SOL    HW1 8294   1.004   0.352   0.858
 2465SOL    HW2 8295   0.988   0.203   0.921
 2466SOL     OW 8296   2.200   1.569   2.671
 2466SOL    HW1 8297   2.236   1.481   2.703
 2466SOL    HW2 8298   2.150   1.556   2.586
 2467SOL     OW 8299   4.880   1.430   5.372
 2467SOL    HW1 8300   4.870   1.395   5.465
 2467SOL    HW2 8301   4.875   1.530   5.373
 2468SOL     OW 8302   4.678   6.352   1.780
 2468SOL    HW1 8303   4.645   6.368   1.873
 2468SOL    HW2 8304   4.618   6.285   1.735
 2469SOL     OW 8305   3.939   4.092   5.722
 2469SOL    HW1 8306   3.985   4.055   5.641
 2469SOL    HW2 8307   3.930   4.021   5.792
 2470SOL     OW 8308   4.015   4.298   6.508
 2470SOL    HW1 8309   4.083   4.305   6.582
 2470SOL    HW2 8310   4.011   4.203   6.477
 2471SOL     OW 8311   2.565   6.171   0.785
 2471SOL    HW1 8312   2.642   6.156   0.847
 2471SOL    HW2 8313   2.573   6.111   0.706
 2472SOL     OW 8314   4.931   2.455   4.498
 2472SOL    HW1 8315   4.891   2.433   4.587
 2472SOL    HW2 8316   4.862   2.496   4.439
 2473SOL     OW 8317   2.138   3.811   5.024
 2473SOL    HW1 8318   2.061   3.861   5.063
 2473SOL    HW2 8319   2.207   3.876   4.991
 2474SOL     OW 8320   0.343   6.024   1.040
 2474SOL    HW1 8321   0.365   5.935   1.082
 2474SOL    HW2 8322   0.300   6.009   0.951
 2475SOL     OW 8323   4.645   0.965   2.417
 2475SOL    HW1 8324   4.731   1.011   2.395
 2475SOL    HW2 8325   4.573   1.033   2.431
 2476SOL     OW 8326   6.799   1.571   3.031
 2476SOL    HW1 8327   6.703   1.559   3.053
 2476SOL    HW2 8328   6.811   1.654   2.977
 2477SOL     OW 8329   4.429   1.321   2.141
 2477SOL    HW1 8330   4.445   1.224   2.160
 2477SOL    HW2 8331   4.482   1.348   2.061
 2478SOL     OW 8332   6.110   1.215   1.973
 2478SOL    HW1 8333   6.189   1.273   1.991
 2478SOL    HW2 8334   6.026   1.263   2.000
 2479SOL     OW 8335   1.395   4.217   1.516
 2479SOL    HW1 8336   1.409   4.124   1.548
 2479SOL    HW2 8337   1.483   4.262   1.503
 2480SOL     OW 8338   5.218   4.590   0.810
 2480SOL    HW1 8339   5.290   4.573   0.742
 2480SOL    HW2 8340   5.227   4.684   0.844
 2481SOL     OW 8341   2.207   0.748   0.177
 2481SOL    HW1 8342   2.279   0.699   0.128
 2481SOL    HW2 8343   2.231   0.845   0.182
 2482SOL     OW 8344   4.906   3.704   5.461
 2482SOL    HW1 8345   4.886   3.774   5.530
 2482SOL    HW2 8346   4.828   3.642   5.454
 2483SOL     OW 8347   1.604   1.917   6.956
 2483SOL    HW1 8348   1.533   1.920   6.885
 2483SOL    HW2 8349   1.645   2.008   6.966
 2484SOL     OW 8350   3.406   0.588   0.163
 2484SOL    HW1 8351   3.446   0.559   0.076
 2484SOL    HW2 8352   3.346   0.667   0.148
 2485SOL     OW 8353   5.885   4.128   1.218
 2485SOL    HW1 8354   5.853   4.047   1.168
 2485SOL    HW2 8355   5.929   4.100   1.303
 2486SOL     OW 8356   1.977   4.957   4.321
 2486SOL    HW1 8357   1.936   4.950   4.230
 2486SOL    HW2 8358   2.053   5.022   4.318
 2487SOL     OW 8359   3.804   5.846   0.217
 2487SOL    HW1 8360   3.731   5.901   0.257
 2487SOL    HW2 8361   3.785   5.831   0.120
 2488SOL     OW 8362   2.170   4.236   2.478
 2488SOL    HW1 8363   2.270   4.237   2.483
 2488SOL    HW2 8364   2.132   4.245   2.571
 2489SOL     OW 8365   1.159   5.670   2.567
 2489SOL    HW1 8366   1.159   5.576   2.534
 2489SOL    HW2 8367   1.191   5.731   2.495
 2490SOL     OW 8368   6.650   4.954   1.643
 2490SOL    HW1 8369   6.676   4.884   1.576
 2490SOL    HW2 8370   6.682   4.926   1.734
 2491SOL     OW 8371   2.895   5.305   1.022
 2491SOL    HW1 8372   2.946   5.372   1.075
 2491SOL    HW2 8373   2.835   5.352   0.957
 2492SOL     OW 8374   4.069   2.168   0.889
 2492SOL    HW1 8375   4.147   2.107   0.873
 2492SOL    HW2 8376   4.086   2.256   0.847
 2493SOL     OW 8377   6.258   0.841   2.331
 2493SOL    HW1 8378   6.314   0.758   2.329
 2493SOL    HW2 8379   6.257   0.883   2.240
 2494SOL     OW 8380   5.814   3.601   2.179
 2494SOL    HW1 8381   5.847   3.639   2.092
 2494SOL    HW2 8382   5.892   3.586   2.240
 2495SOL     OW 8383   5.498   0.136   4.209
 2495SOL    HW1 8384   5.579   0.136   4.267
 2495SOL    HW2 8385   5.437   0.210   4.238
 2496SOL     OW 8386   0.454   4.007   5.404
 2496SOL    HW1 8387   0.401   3.925   5.381
 2496SOL    HW2 8388   0.424   4.083   5.346
 2497SOL     OW 8389   0.347   0.265   1.149
 2497SOL    HW1 8390   0.407   0.293   1.074
 2497SOL    HW2 8391   0.383   0.301   1.235
 2498SOL     OW 8392   3.299   1.428   4.690
 2498SOL    HW1 8393   3.225   1.404   4.628
 2498SOL    HW2 8394   3.387   1.399   4.651
 2499SOL     OW 8395   5.828   2.154   4.501
 2499SOL    HW1 8396   5.862   2.074   4.453
 2499SOL    HW2 8397   5.728   2.151   4.505
 2500SOL     OW 8398   4.342   2.927   0.139
 2500SOL    HW1 8399   4.290   2.845   0.115
 2500SOL    HW2 8400   4.434   2.900   0.168
 2501SOL     OW 8401   5.636   5.317   6.927
 2501SOL    HW1 8402   5.585   5.398   6.955
 2501SOL    HW2 8403   5.614   5.241   6.987
 2502SOL     OW 8404   1.876   5.380   2.978
 2502SOL    HW1 8405   1.889   5.357   2.881
 2502SOL    HW2 8406   1.933   5.320   3.034
 2503SOL     OW 8407   3.282   5.494   4.650
 2503SOL    HW1 8408   3.299   5.400   4.679
 2503SOL    HW2 8409   3.184   5.508   4.640
 2504SOL     OW 8410   3.245   5.116   4.540
 2504SOL    HW1 8411   3.175   5.144   4.475
 2504SOL    HW2 8412   3.205   5.109   4.632
 2505SOL     OW 8413   1.065   5.910   3.787
 2505SOL    HW1 8414   1.027   5.833   3.735
 2505SOL    HW2 8415   1.140   5.951   3.735
 2506SOL     OW 8416   6.073   3.324   6.041
 2506SOL    HW1 8417   6.026   3.362   6.120
 2506SOL    HW2 8418   6.010   3.317   5.964
 2507SOL     OW 8419   0.909   4.665   0.831
 2507SOL    HW1 8420   0.957   4.649   0.744
 2507SOL    HW2 8421   0.814   4.689   0.813
 2508SOL     OW 8422   2.477   1.258   1.860
 2508SOL    HW1 8423   2.542   1.267   1.935
 2508SOL    HW2 8424   2.448   1.348   1.829
 2509SOL     OW 8425   6.540   2.669   2.334
 2509SOL    HW1 8426   6.478   2.683   2.411
 2509SOL    HW2 8427   6.553   2.571   2.319
 2510SOL     OW 8428   3.161   4.201   1.407
 2510SOL    HW1 8429   3.132   4.141   1.333
 2510SOL    HW2 8430   3.251   4.240   1.386
 2511SOL     OW 8431   2.910   1.424   3.640
 2511SOL    HW1 8432   2.953   1.335   3.621
 2511SOL    HW2 8433   2.854   1.451   3.562
 2512SOL     OW 8434   4.684   4.697   4.957
 2512SOL    HW1 8435   4.696   4.624   5.025
 2512SOL    HW2 8436   4.736   4.674   4.875
 2513SOL     OW 8437   1.324   3.799   4.732
 2513SOL    HW1 8438   1.280   3.713   4.762
 2513SOL    HW2 8439   1.421   3.796   4.754
 2514SOL     OW 8440   6.540   3.194   3.904
 2514SOL    HW1 8441   6.495   3.200   3.815
 2514SOL    HW2 8442   6.527   3.280   3.954
 2515SOL     OW 8443   1.311   6.490   0.597
 2515SOL    HW1 8444   1.315   6.485   0.697
 2515SOL    HW2 8445   1.224   6.530   0.569
 2516SOL     OW 8446   6.135   0.732   3.186
 2516SOL    HW1 8447   6.062   0.787   3.145
 2516SOL    HW2 8448   6.199   0.792   3.234
 2517SOL     OW 8449   0.369   5.047   5.934
 2517SOL    HW1 8450   0.369   5.017   5.838
 2517SOL    HW2 8451   0.463   5.053   5.967
 2518SOL     OW 8452   1.119   4.005   7.007
 2518SOL    HW1 8453   1.168   4.047   0.057
 2518SOL    HW2 8454   1.073   3.922   0.013
 2519SOL     OW 8455   5.241   6.397   4.041
 2519SOL    HW1 8456   5.321   6.374   3.986
 2519SOL    HW2 8457   5.203   6.484   4.008
 2520SOL     OW 8458   1.903   2.484   6.759
 2520SOL    HW1 8459   1.902   2.475   6.859
 2520SOL    HW2 8460   1.815   2.454   6.722
 2521SOL     OW 8461   1.059   6.991   5.385
 2521SOL    HW1 8462   1.101   0.041   5.334
 2521SOL    HW2 8463   1.003   6.936   5.323
 2522SOL     OW 8464   0.217   3.400   5.934
 2522SOL    HW1 8465   0.130   3.352   5.923
 2522SOL    HW2 8466   0.200   3.496   5.953
 2523SOL     OW 8467   0.354   3.004   2.113
 2523SOL    HW1 8468   0.378   2.995   2.210
 2523SOL    HW2 8469   0.373   2.917   2.067
 2524SOL     OW 8470   0.660   5.884   5.723
 2524SOL    HW1 8471   0.575   5.858   5.677
 2524SOL    HW2 8472   0.638   5.928   5.811
 2525SOL     OW 8473   0.928   2.366   4.345
 2525SOL    HW1 8474   0.859   2.423   4.390
 2525SOL    HW2 8475   1.015   2.414   4.342
 2526SOL     OW 8476   1.723   4.496   5.368
 2526SOL    HW1 8477   1.638   4.496   5.314
 2526SOL    HW2 8478   1.704   4.536   5.458
 2527SOL     OW 8479   5.397   6.112   4.951
 2527SOL    HW1 8480   5.395   6.131   4.853
 2527SOL    HW2 8481   5.391   6.197   5.002
 2528SOL     OW 8482   5.681   4.804   1.530
 2528SOL    HW1 8483   5.711   4.713   1.556
 2528SOL    HW2 8484   5.589   4.820   1.566
 2529SOL     OW 8485   0.035   6.589   6.717
 2529SOL    HW1 8486   6.994   6.655   6.752
 2529SOL    HW2 8487   7.018   6.499   6.709
 2530SOL     OW 8488   1.985   6.948   4.861
 2530SOL    HW1 8489   1.915   6.914   4.798
 2530SOL    HW2 8490   1.972   0.020   4.875
 2531SOL     OW 8491   4.732   6.041   4.311
 2531SOL    HW1 8492   4.784   6.032   4.226
 2531SOL    HW2 8493   4.794   6.029   4.389
 2532SOL     OW 8494   0.510   6.064   0.686
 2532SOL    HW1 8495   0.421   6.073   0.731
 2532SOL    HW2 8496   0.519   6.135   0.616
 2533SOL     OW 8497   2.995   6.993   2.832
 2533SOL    HW1 8498   2.978   6.911   2.778
 2533SOL    HW2 8499   3.033   6.967   2.921
 2534SOL     OW 8500   3.324   1.146   3.059
 2534SOL    HW1 8501   3.347   1.060   3.015
 2534SOL    HW2 8502   3.234   1.139   3.102
 2535SOL     OW 8503   3.203   2.941   6.007
 2535SOL    HW1 8504   3.228   2.860   5.955
 2535SOL    HW2 8505   3.265   3.016   5.984
 2536SOL     OW 8506   6.601   1.866   3.934
 2536SOL    HW1 8507   6.643   1.954   3.908
 2536SOL    HW2 8508   6.663   1.816   3.994
 2537SOL     OW 8509   4.517   6.499   6.642
 2537SOL    HW1 8510   4.569   6.429   6.594
 2537SOL    HW2 8511   4.553   6.509   6.735
 2538SOL     OW 8512   1.385   4.549   4.468
 2538SOL    HW1 8513   1.424   4.637   4.494
 2538SOL    HW2 8514   1.402   4.532   4.371
 2539SOL     OW 8515   5.582   0.942   6.353
 2539SOL    HW1 8516   5.495   0.988   6.367
 2539SOL    HW2 8517   5.566   0.845   6.336
 2540SOL     OW 8518   3.851   1.042   2.479
 2540SOL    HW1 8519   3.821   1.132   2.446
 2540SOL    HW2 8520   3.949   1.032   2.464
 2541SOL     OW 8521   2.020   6.556   5.520
 2541SOL    HW1 8522   1.956   6.609   5.464
 2541SOL    HW2 8523   1.977   6.533   5.607
 2542SOL     OW 8524   4.563   1.598   6.140
 2542SOL    HW1 8525   4.580   1.691   6.107
 2542SOL    HW2 8526   4.556   1.536   6.062
 2543SOL     OW 8527   2.172   2.186   2.784
 2543SOL    HW1 8528   2.117   2.263   2.814
 2543SOL    HW2 8529   2.111   2.113   2.751
 2544SOL     OW 8530   7.008   5.524   1.466
 2544SOL    HW1 8531   6.976   5.494   1.556
 2544SOL    HW2 8532   0.052   5.459   1.433
 2545SOL     OW 8533   2.211   0.688   1.474
 2545SOL    HW1 8534   2.238   0.741   1.394
 2545SOL    HW2 8535   2.133   0.733   1.518
 2546SOL     OW 8536   0.424   2.134   1.539
 2546SOL    HW1 8537   0.415   2.144   1.638
 2546SOL    HW2 8538   0.333   2.134   1.497
 2547SOL     OW 8539   5.935   3.771   6.949
 2547SOL    HW1 8540   5.845   3.807   6.972
 2547SOL    HW2 8541   5.998   3.846   6.931
 2548SOL     OW 8542   2.868   6.806   5.886
 2548SOL    HW1 8543   2.967   6.800   5.872
 2548SOL    HW2 8544   2.849   6.831   5.981
 2549SOL     OW 8545   1.707   0.888   1.436
 2549SOL    HW1 8546   1.763   0.964   1.404
 2549SOL    HW2 8547   1.755   0.802   1.422
 2550SOL     OW 8548   6.814   0.567   6.673
 2550SOL    HW1 8549   6.717   0.587   6.687
 2550SOL    HW2 8550   6.830   0.545   6.577
 2551SOL     OW 8551   3.130   5.595   0.329
 2551SOL    HW1 8552   3.138   5.528   0.256
 2551SOL    HW2 8553   3.071   5.670   0.300
 2552SOL     OW 8554   1.516   5.715   6.252
 2552SOL    HW1 8555   1.609   5.679   6.248
 2552SOL    HW2 8556   1.519   5.815   6.241
 2553SOL     OW 8557   3.952   3.351   0.018
 2553SOL    HW1 8558   3.970   3.265   6.994
 2553SOL    HW2 8559   4.038   3.401   0.030
 2554SOL     OW 8560   1.846   6.412   6.692
 2554SOL    HW1 8561   1.904   6.466   6.631
 2554SOL    HW2 8562   1.886   6.412   6.784
 2555SOL     OW 8563   6.383   6.313   6.644
 2555SOL    HW1 8564   6.396   6.356   6.555
 2555SOL    HW2 8565   6.290   6.276   6.650
 2556SOL     OW 8566   4.370   5.182   0.018
 2556SOL    HW1 8567   4.411   5.104   6.995
 2556SOL    HW2 8568   4.426   5.264   0.002
 2557SOL     OW 8569   2.529   2.334   6.309
 2557SOL    HW1 8570   2.571   2.314   6.398
 2557SOL    HW2 8571   2.454   2.399   6.321
 2558SOL     OW 8572   3.905   3.360   6.054
 2558SOL    HW1 8573   3.867   3.338   6.144
 2558SOL    HW2 8574   3.979   3.296   6.032
 2559SOL     OW 8575   6.366   3.334   4.845
 2559SOL    HW1 8576   6.271   3.333   4.813
 2559SOL    HW2 8577   6.405   3.242   4.837
 2560SOL     OW 8578   5.848   3.244   4.110
 2560SOL    HW1 8579   5.944   3.226   4.089
 2560SOL    HW2 8580   5.822   3.334   4.075
 2561SOL     OW 8581   3.144   0.230   3.940
 2561SOL    HW1 8582   3.083   0.188   3.873
 2561SOL    HW2 8583   3.166   0.324   3.911
 2562SOL     OW 8584   1.716   6.023   2.240
 2562SOL    HW1 8585   1.732   5.954   2.310
 2562SOL    HW2 8586   1.767   5.999   2.157
 2563SOL     OW 8587   4.402   2.050   6.778
 2563SOL    HW1 8588   4.458   2.131   6.762
 2563SOL    HW2 8589   4.438   1.998   6.855
 2564SOL     OW 8590   1.166   6.929   6.287
 2564SOL    HW1 8591   1.244   6.980   6.324
 2564SOL    HW2 8592   1.138   6.970   6.200
 2565SOL     OW 8593   0.220   1.210   0.522
 2565SOL    HW1 8594   0.207   1.128   0.577
 2565SOL    HW2 8595   0.242   1.287   0.582
 2566SOL     OW 8596   1.766   7.013   1.239
 2566SOL    HW1 8597   1.685   6.997   1.296
 2566SOL    HW2 8598   1.844   6.965   1.279
 2567SOL     OW 8599   1.231   1.422   1.740
 2567SOL    HW1 8600   1.246   1.323   1.734
 2567SOL    HW2 8601   1.309   1.466   1.783
 2568SOL     OW 8602   3.802   6.944   6.746
 2568SOL    HW1 8603   3.794   6.893   6.832
 2568SOL    HW2 8604   3.745   6.901   6.676
 2569SOL     OW 8605   3.254   0.758   1.979
 2569SOL    HW1 8606   3.293   0.818   2.050
 2569SOL    HW2 8607   3.155   0.758   1.986
 2570SOL     OW 8608   6.422   0.754   6.971
 2570SOL    HW1 8609   6.450   0.700   0.026
 2570SOL    HW2 8610   6.497   0.813   6.943
 2571SOL     OW 8611   1.853   3.814   5.591
 2571SOL    HW1 8612   1.912   3.794   5.514
 2571SOL    HW2 8613   1.824   3.729   5.635
 2572SOL     OW 8614   2.220   5.994   0.709
 2572SOL    HW1 8615   2.142   5.971   0.649
 2572SOL    HW2 8616   2.256   6.083   0.682
 2573SOL     OW 8617   6.233   1.780   1.917
 2573SOL    HW1 8618   6.170   1.796   1.993
 2573SOL    HW2 8619   6.185   1.793   1.830
 2574SOL     OW 8620   6.306   3.288   0.144
 2574SOL    HW1 8621   6.331   3.272   0.240
 2574SOL    HW2 8622   6.281   3.384   0.132
 2575SOL     OW 8623   4.377   5.533   0.157
 2575SOL    HW1 8624   4.298   5.484   0.193
 2575SOL    HW2 8625   4.409   5.488   0.073
 2576SOL     OW 8626   4.144   7.008   4.600
 2576SOL    HW1 8627   4.155   6.909   4.591
 2576SOL    HW2 8628   4.081   0.015   4.530
 2577SOL     OW 8629   3.847   6.367   2.073
 2577SOL    HW1 8630   3.747   6.363   2.071
 2577SOL    HW2 8631   3.878   6.376   2.168
 2578SOL     OW 8632   4.717   2.222   4.330
 2578SOL    HW1 8633   4.674   2.260   4.412
 2578SOL    HW2 8634   4.758   2.295   4.277
 2579SOL     OW 8635   1.303   6.819   2.869
 2579SOL    HW1 8636   1.395   6.780   2.868
 2579SOL    HW2 8637   1.270   6.831   2.776
 2580SOL     OW 8638   2.704   2.685   6.755
 2580SOL    HW1 8639   2.792   2.702   6.711
 2580SOL    HW2 8640   2.631   2.698   6.688
 2581SOL     OW 8641   7.002   4.196   1.003
 2581SOL    HW1 8642   0.029   4.280   0.988
 2581SOL    HW2 8643   7.021   4.132   0.928
 2582SOL     OW 8644   0.744   4.149   2.218
 2582SOL    HW1 8645   0.680   4.224   2.229
 2582SOL    HW2 8646   0.704   4.080   2.157
 2583SOL     OW 8647   0.609   1.481   1.550
 2583SOL    HW1 8648   0.643   1.489   1.456
 2583SOL    HW2 8649   0.672   1.528   1.612
 2584SOL     OW 8650   4.098   5.429   0.304
 2584SOL    HW1 8651   4.109   5.383   0.392
 2584SOL    HW2 8652   4.036   5.507   0.315
 2585SOL     OW 8653   4.094   2.701   1.193
 2585SOL    HW1 8654   4.113   2.761   1.114
 2585SOL    HW2 8655   4.142   2.615   1.181
 2586SOL     OW 8656   3.204   1.779   3.723
 2586SOL    HW1 8657   3.121   1.763   3.776
 2586SOL    HW2 8658   3.272   1.825   3.780
 2587SOL     OW 8659   0.652   0.216   3.630
 2587SOL    HW1 8660   0.609   0.300   3.662
 2587SOL    HW2 8661   0.696   0.233   3.542
 2588SOL     OW 8662   4.831   0.279   6.756
 2588SOL    HW1 8663   4.796   0.251   6.667
 2588SOL    HW2 8664   4.789   0.366   6.783
 2589SOL     OW 8665   6.854   6.086   6.806
 2589SOL    HW1 8666   6.847   6.084   6.905
 2589SOL    HW2 8667   6.827   6.176   6.772
 2590SOL     OW 8668   3.328   6.318   1.698
 2590SOL    HW1 8669   3.341   6.267   1.784
 2590SOL    HW2 8670   3.390   6.282   1.629
 2591SOL     OW 8671   0.010   5.804   2.282
 2591SOL    HW1 8672   0.028   5.773   2.375
 2591SOL    HW2 8673   0.094   5.798   2.228
 2592SOL     OW 8674   3.544   6.600   1.247
 2592SOL    HW1 8675   3.457   6.600   1.295
 2592SOL    HW2 8676   3.605   6.668   1.287
 2593SOL     OW 8677   2.936   5.648   0.990
 2593SOL    HW1 8678   2.954   5.646   0.892
 2593SOL    HW2 8679   2.986   5.574   1.035
 2594SOL     OW 8680   0.546   5.562   6.003
 2594SOL    HW1 8681   0.568   5.589   6.097
 2594SOL    HW2 8682   0.592   5.475   5.982
 2595SOL     OW 8683   6.460   1.964   4.258
 2595SOL    HW1 8684   6.512   1.882   4.236
 2595SOL    HW2 8685   6.518   2.045   4.246
 2596SOL     OW 8686   4.004   1.894   1.955
 2596SOL    HW1 8687   4.019   1.982   2.000
 2596SOL    HW2 8688   4.092   1.854   1.930
 2597SOL     OW 8689   1.362   4.062   5.761
 2597SOL    HW1 8690   1.354   4.075   5.662
 2597SOL    HW2 8691   1.387   3.967   5.780
 2598SOL     OW 8692   6.233   1.229   4.327
 2598SOL    HW1 8693   6.296   1.290   4.376
 2598SOL    HW2 8694   6.163   1.284   4.281
 2599SOL     OW 8695   2.367   6.886   0.788
 2599SOL    HW1 8696   2.400   6.793   0.771
 2599SOL    HW2 8697   2.274   6.883   0.824
 2600SOL     OW 8698   5.150   3.335   4.135
 2600SOL    HW1 8699   5.183   3.429   4.132
 2600SOL    HW2 8700   5.222   3.273   4.104
 2601SOL     OW 8701   1.721   2.061   0.704
 2601SOL    HW1 8702   1.779   2.036   0.626
 2601SOL    HW2 8703   1.638   2.006   0.702
 2602SOL     OW 8704   6.628   4.232   4.021
 2602SOL    HW1 8705   6.695   4.218   4.094
 2602SOL    HW2 8706   6.538   4.202   4.053
 2603SOL     OW 8707   2.385   1.524   1.760
 2603SOL    HW1 8708   2.288   1.511   1.777
 2603SOL    HW2 8709   2.413   1.614   1.795
 2604SOL     OW 8710   4.952   1.478   2.888
 2604SOL    HW1 8711   4.878   1.537   2.857
 2604SOL    HW2 8712   5.040   1.522   2.871
 2605SOL     OW 8713   1.974   4.241   2.717
 2605SOL    HW1 8714   1.949   4.305   2.790
 2605SOL    HW2 8715   1.924   4.264   2.634
 2606SOL     OW 8716   6.588   4.275   1.556
 2606SOL    HW1 8717   6.587   4.372   1.533
 2606SOL    HW2 8718   6.526   4.226   1.494
 2607SOL     OW 8719   0.438   0.696   0.024
 2607SOL    HW1 8720   0.400   0.739   0.106
 2607SOL    HW2 8721   0.538   0.701   0.027
 2608SOL     OW 8722   4.990   4.924   1.609
 2608SOL    HW1 8723   4.929   5.001   1.589
 2608SOL    HW2 8724   4.937   4.849   1.649
 2609SOL     OW 8725   6.772   1.788   1.601
 2609SOL    HW1 8726   6.872   1.793   1.600
 2609SOL    HW2 8727   6.734   1.870   1.560
 2610SOL     OW 8728   0.232   5.004   4.607
 2610SOL    HW1 8729   0.317   5.053   4.627
 2610SOL    HW2 8730   0.224   4.926   4.670
 2611SOL     OW 8731   4.292   6.262   1.033
 2611SOL    HW1 8732   4.266   6.347   0.986
 2611SOL    HW2 8733   4.241   6.253   1.118
 2612SOL     OW 8734   6.944   6.917   6.010
 2612SOL    HW1 8735   6.935   7.001   6.063
 2612SOL    HW2 8736   0.010   6.879   6.023
 2613SOL     OW 8737   2.703   6.638   6.652
 2613SOL    HW1 8738   2.620   6.682   6.687
 2613SOL    HW2 8739   2.678   6.569   6.584
 2614SOL     OW 8740   0.082   0.948   6.130
 2614SOL    HW1 8741   0.068   0.949   6.229
 2614SOL    HW2 8742   0.109   0.856   6.101
 2615SOL     OW 8743   0.155   2.235   3.298
 2615SOL    HW1 8744   0.056   2.238   3.287
 2615SOL    HW2 8745   0.177   2.222   3.395
 2616SOL     OW 8746   3.462   3.084   5.386
 2616SOL    HW1 8747   3.418   3.148   5.449
 2616SOL    HW2 8748   3.521   3.022   5.437
 2617SOL     OW 8749   3.301   6.406   0.572
 2617SOL    HW1 8750   3.324   6.310   0.558
 2617SOL    HW2 8751   3.367   6.464   0.524
 2618SOL     OW 8752   6.940   0.665   4.359
 2618SOL    HW1 8753   6.862   0.726   4.342
 2618SOL    HW2 8754   6.912   0.571   4.342
 2619SOL     OW 8755   4.128   1.895   3.524
 2619SOL    HW1 8756   4.058   1.829   3.547
 2619SOL    HW2 8757   4.090   1.964   3.462
 2620SOL     OW 8758   0.054   0.147   3.237
 2620SOL    HW1 8759   0.100   0.081   3.178
 2620SOL    HW2 8760   0.114   0.225   3.253
 2621SOL     OW 8761   1.441   5.696   2.862
 2621SOL    HW1 8762   1.501   5.639   2.917
 2621SOL    HW2 8763   1.479   5.707   2.770
 2622SOL     OW 8764   2.085   3.077   5.448
 2622SOL    HW1 8765   2.177   3.048   5.422
 2622SOL    HW2 8766   2.084   3.176   5.462
 2623SOL     OW 8767   1.774   1.313   5.448
 2623SOL    HW1 8768   1.776   1.236   5.511
 2623SOL    HW2 8769   1.842   1.300   5.377
 2624SOL     OW 8770   6.667   2.028   5.970
 2624SOL    HW1 8771   6.702   2.058   5.881
 2624SOL    HW2 8772   6.581   2.075   5.990
 2625SOL     OW 8773   2.178   2.653   5.269
 2625SOL    HW1 8774   2.141   2.707   5.194
 2625SOL    HW2 8775   2.278   2.657   5.266
 2626SOL     OW 8776   0.495   0.371   5.574
 2626SOL    HW1 8777   0.572   0.309   5.558
 2626SOL    HW2 8778   0.434   0.332   5.643
 2627SOL     OW 8779   1.618   0.823   5.464
 2627SOL    HW1 8780   1.598   0.896   5.398
 2627SOL    HW2 8781   1.535   0.770   5.481
 2628SOL     OW 8782   1.792   4.632   5.720
 2628SOL    HW1 8783   1.782   4.728   5.749
 2628SOL    HW2 8784   1.877   4.622   5.668
 2629SOL     OW 8785   3.035   3.083   1.524
 2629SOL    HW1 8786   3.127   3.113   1.548
 2629SOL    HW2 8787   2.985   3.061   1.607
 2630SOL     OW 8788   3.005   1.777   2.490
 2630SOL    HW1 8789   3.077   1.714   2.519
 2630SOL    HW2 8790   3.043   1.846   2.429
 2631SOL     OW 8791   5.196   0.809   5.505
 2631SOL    HW1 8792   5.233   0.830   5.414
 2631SOL    HW2 8793   5.264   0.834   5.575
 2632SOL     OW 8794   4.301   3.069   6.567
 2632SOL    HW1 8795   4.271   2.992   6.623
 2632SOL    HW2 8796   4.389   3.102   6.601
 2633SOL     OW 8797   0.312   1.357   4.542
 2633SOL    HW1 8798   0.364   1.428   4.589
 2633SOL    HW2 8799   0.361   1.270   4.547
 2634SOL     OW 8800   0.781   4.744   3.415
 2634SOL    HW1 8801   0.812   4.824   3.465
 2634SOL    HW2 8802   0.849   4.671   3.424
 2635SOL     OW 8803   6.653   5.978   5.193
 2635SOL    HW1 8804   6.573   5.927   5.223
 2635SOL    HW2 8805   6.626   6.048   5.127
 2636SOL     OW 8806   4.688   0.804   5.399
 2636SOL    HW1 8807   4.709   0.862   5.320
 2636SOL    HW2 8808   4.600   0.832   5.438
 2637SOL     OW 8809   4.817   2.029   3.849
 2637SOL    HW1 8810   4.907   1.989   3.833
 2637SOL    HW2 8811   4.784   2.001   3.939
 2638SOL     OW 8812   6.568   6.981   3.908
 2638SOL    HW1 8813   6.506   7.009   3.834
 2638SOL    HW2 8814   6.612   6.895   3.882
 2639SOL     OW 8815   0.231   5.976   0.796
 2639SOL    HW1 8816   0.159   6.042   0.775
 2639SOL    HW2 8817   0.215   5.892   0.745
 2640SOL     OW 8818   0.677   6.020   5.131
 2640SOL    HW1 8819   0.745   5.952   5.159
 2640SOL    HW2 8820   0.678   6.095   5.198
 2641SOL     OW 8821   4.940   3.169   2.676
 2641SOL    HW1 8822   4.932   3.188   2.578
 2641SOL    HW2 8823   5.034   3.144   2.698
 2642SOL     OW 8824   4.495   6.443   3.839
 2642SOL    HW1 8825   4.570   6.425   3.902
 2642SOL    HW2 8826   4.416   6.478   3.889
 2643SOL     OW 8827   0.469   3.939   3.400
 2643SOL    HW1 8828   0.407   3.862   3.415
 2643SOL    HW2 8829   0.420   4.025   3.416
 2644SOL     OW 8830   5.724   6.386   5.571
 2644SOL    HW1 8831   5.814   6.430   5.577
 2644SOL    HW2 8832   5.722   6.328   5.489
 2645SOL     OW 8833   4.498   5.889   4.396
 2645SOL    HW1 8834   4.560   5.960   4.365
 2645SOL    HW2 8835   4.403   5.917   4.377
 2646SOL     OW 8836   6.224   0.977   6.941
 2646SOL    HW1 8837   6.248   0.903   6.877
 2646SOL    HW2 8838   6.128   1.002   6.927
 2647SOL     OW 8839   6.507   7.023   2.314
 2647SOL    HW1 8840   6.531   0.093   2.301
 2647SOL    HW2 8841   6.547   6.968   2.241
 2648SOL     OW 8842   0.568   0.184   4.146
 2648SOL    HW1 8843   0.603   0.102   4.191
 2648SOL    HW2 8844   0.606   0.191   4.054
 2649SOL     OW 8845   5.381   2.696   6.687
 2649SOL    HW1 8846   5.374   2.599   6.707
 2649SOL    HW2 8847   5.476   2.726   6.700
 2650SOL     OW 8848   1.266   4.343   4.588
 2650SOL    HW1 8849   1.292   4.438   4.568
 2650SOL    HW2 8850   1.317   4.281   4.529
 2651SOL     OW 8851   0.871   1.121   0.578
 2651SOL    HW1 8852   0.855   1.031   0.617
 2651SOL    HW2 8853   0.966   1.149   0.597
 2652SOL     OW 8854   4.125   3.316   4.466
 2652SOL    HW1 8855   4.048   3.345   4.523
 2652SOL    HW2 8856   4.195   3.274   4.523
 2653SOL     OW 8857   5.046   6.866   5.001
 2653SOL    HW1 8858   4.948   6.874   5.020
 2653SOL    HW2 8859   5.093   6.949   5.030
 2654SOL     OW 8860   4.309   6.187   2.232
 2654SOL    HW1 8861   4.259   6.242   2.165
 2654SOL    HW2 8862   4.365   6.119   2.184
 2655SOL     OW 8863   4.272   6.025   4.274
 2655SOL    HW1 8864   4.316   6.105   4.235
 2655SOL    HW2 8865   4.180   6.049   4.306
 2656SOL     OW 8866   3.827   4.937   4.884
 2656SOL    HW1 8867   3.842   4.884   4.968
 2656SOL    HW2 8868   3.859   5.031   4.898
 2657SOL     OW 8869   0.620   3.783   6.012
 2657SOL    HW1 8870   0.629   3.843   6.091
 2657SOL    HW2 8871   0.710   3.749   5.986
 2658SOL     OW 8872   4.891   4.259   0.917
 2658SOL    HW1 8873   4.911   4.219   0.828
 2658SOL    HW2 8874   4.928   4.352   0.922
 2659SOL     OW 8875   5.260   2.958   4.178
 2659SOL    HW1 8876   5.248   2.861   4.158
 2659SOL    HW2 8877   5.350   2.973   4.220
 2660SOL     OW 8878   1.896   0.166   1.773
 2660SOL    HW1 8879   1.814   0.153   1.717
 2660SOL    HW2 8880   1.903   0.261   1.802
 2661SOL     OW 8881   2.572   6.962   1.045
 2661SOL    HW1 8882   2.643   7.003   0.988
 2661SOL    HW2 8883   2.492   7.022   1.047
 2662SOL     OW 8884   5.385   6.437   4.548
 2662SOL    HW1 8885   5.293   6.415   4.581
 2662SOL    HW2 8886   5.388   6.532   4.518
 2663SOL     OW 8887   3.218   4.042   6.748
 2663SOL    HW1 8888   3.312   4.035   6.714
 2663SOL    HW2 8889   3.198   4.138   6.768
 2664SOL     OW 8890   4.363   3.731   5.456
 2664SOL    HW1 8891   4.453   3.765   5.429
 2664SOL    HW2 8892   4.293   3.797   5.430
 2665SOL     OW 8893   2.456   2.715   5.208
 2665SOL    HW1 8894   2.546   2.677   5.230
 2665SOL    HW2 8895   2.464   2.814   5.196
 2666SOL     OW 8896   5.703   4.819   1.263
 2666SOL    HW1 8897   5.691   4.848   1.357
 2666SOL    HW2 8898   5.768   4.743   1.259
 2667SOL     OW 8899   0.469   6.223   4.029
 2667SOL    HW1 8900   0.536   6.288   4.066
 2667SOL    HW2 8901   0.496   6.130   4.056
 2668SOL     OW 8902   0.595   3.358   4.704
 2668SOL    HW1 8903   0.582   3.456   4.719
 2668SOL    HW2 8904   0.630   3.343   4.612
 2669SOL     OW 8905   2.748   4.559   5.319
 2669SOL    HW1 8906   2.826   4.579   5.261
 2669SOL    HW2 8907   2.764   4.595   5.411
 2670SOL     OW 8908   5.961   3.450   6.272
 2670SOL    HW1 8909   5.876   3.493   6.299
 2670SOL    HW2 8910   5.990   3.384   6.343
 2671SOL     OW 8911   4.238   5.466   6.064
 2671SOL    HW1 8912   4.194   5.548   6.029
 2671SOL    HW2 8913   4.336   5.482   6.076
 2672SOL     OW 8914   1.570   5.023   0.780
 2672SOL    HW1 8915   1.652   4.966   0.773
 2672SOL    HW2 8916   1.503   4.994   0.712
 2673SOL     OW 8917   5.805   1.032   2.714
 2673SOL    HW1 8918   5.843   1.033   2.622
 2673SOL    HW2 8919   5.793   1.126   2.746
 2674SOL     OW 8920   1.112   4.330   3.801
 2674SOL    HW1 8921   1.093   4.425   3.776
 2674SOL    HW2 8922   1.080   4.270   3.728
 2675SOL     OW 8923   6.427   5.297   3.624
 2675SOL    HW1 8924   6.433   5.366   3.552
 2675SOL    HW2 8925   6.433   5.206   3.584
 2676SOL     OW 8926   3.702   2.730   1.137
 2676SOL    HW1 8927   3.779   2.762   1.192
 2676SOL    HW2 8928   3.617   2.747   1.186
 2677SOL     OW 8929   2.915   3.462   0.509
 2677SOL    HW1 8930   3.004   3.421   0.489
 2677SOL    HW2 8931   2.855   3.450   0.430
 2678SOL     OW 8932   0.296   2.926   1.486
 2678SOL    HW1 8933   0.260   2.944   1.394
 2678SOL    HW2 8934   0.232   2.962   1.554
 2679SOL     OW 8935   2.953   4.244   0.643
 2679SOL    HW1 8936   2.906   4.292   0.717
 2679SOL    HW2 8937   3.013   4.308   0.595
 2680SOL     OW 8938   1.297   1.868   0.320
 2680SOL    HW1 8939   1.271   1.865   0.223
 2680SOL    HW2 8940   1.228   1.819   0.374
 2681SOL     OW 8941   1.230   3.005   4.200
 2681SOL    HW1 8942   1.257   2.967   4.111
 2681SOL    HW2 8943   1.230   2.932   4.269
 2682SOL     OW 8944   4.792   4.135   2.668
 2682SOL    HW1 8945   4.875   4.162   2.618
 2682SOL    HW2 8946   4.727   4.211   2.667
 2683SOL     OW 8947   2.371   4.979   1.422
 2683SOL    HW1 8948   2.422   4.904   1.378
 2683SOL    HW2 8949   2.291   4.941   1.469
 2684SOL     OW 8950   4.068   5.481   1.943
 2684SOL    HW1 8951   4.084   5.386   1.966
 2684SOL    HW2 8952   4.109   5.501   1.853
 2685SOL     OW 8953   5.859   6.666   6.536
 2685SOL    HW1 8954   5.802   6.609   6.596
 2685SOL    HW2 8955   5.941   6.615   6.510
 2686SOL     OW 8956   1.652   2.198   5.831
 2686SOL    HW1 8957   1.717   2.223   5.903
 2686SOL    HW2 8958   1.586   2.272   5.818
 2687SOL     OW 8959   5.167   4.687   1.781
 2687SOL    HW1 8960   5.228   4.607   1.785
 2687SOL    HW2 8961   5.153   4.713   1.686
 2688SOL     OW 8962   3.714   3.833   6.986
 2688SOL    HW1 8963   3.764   3.792   6.909
 2688SOL    HW2 8964   3.620   3.852   6.957
 2689SOL     OW 8965   1.403   4.008   3.628
 2689SOL    HW1 8966   1.331   3.963   3.680
 2689SOL    HW2 8967   1.363   4.064   3.556
 2690SOL     OW 8968   3.769   3.269   4.082
 2690SOL    HW1 8969   3.750   3.189   4.025
 2690SOL    HW2 8970   3.796   3.239   4.174
 2691SOL     OW 8971   1.787   5.744   2.338
 2691SOL    HW1 8972   1.819   5.668   2.393
 2691SOL    HW2 8973   1.736   5.709   2.259
 2692SOL     OW 8974   3.254   5.266   2.512
 2692SOL    HW1 8975   3.244   5.300   2.606
 2692SOL    HW2 8976   3.196   5.319   2.451
 2693SOL     OW 8977   2.176   5.400   3.407
 2693SOL    HW1 8978   2.078   5.403   3.389
 2693SOL    HW2 8979   2.194   5.426   3.501
 2694SOL     OW 8980   3.479   5.786   2.957
 2694SOL    HW1 8981   3.395   5.812   3.004
 2694SOL    HW2 8982   3.499   5.853   2.885
 2695SOL     OW 8983   5.892   0.336   2.670
 2695SOL    HW1 8984   5.950   0.357   2.748
 2695SOL    HW2 8985   5.945   0.285   2.602
 2696SOL     OW 8986   3.929   3.110   5.209
 2696SOL    HW1 8987   3.915   3.013   5.188
 2696SOL    HW2 8988   3.851   3.144   5.261
 2697SOL     OW 8989   3.198   1.565   2.535
 2697SOL    HW1 8990   3.256   1.553   2.455
 2697SOL    HW2 8991   3.254   1.557   2.618
 2698SOL     OW 8992   2.032   6.274   0.217
 2698SOL    HW1 8993   2.001   6.367   0.195
 2698SOL    HW2 8994   2.031   6.219   0.134
 2699SOL     OW 8995   2.500   6.670   0.339
 2699SOL    HW1 8996   2.563   6.711   0.273
 2699SOL    HW2 8997   2.448   6.742   0.386
 2700SOL     OW 8998   2.434   3.800   6.976
 2700SOL    HW1 8999   2.406   3.705   6.994
 2700SOL    HW2 9000   2.533   3.803   6.962
 2701SOL     OW 9001   5.582   1.730   5.798
 2701SOL    HW1 9002   5.622   1.768   5.714
 2701SOL    HW2 9003   5.641   1.753   5.876
 2702SOL     OW 9004   0.181   2.491   3.523
 2702SOL    HW1 9005   0.190   2.583   3.485
 2702SOL    HW2 9006   0.131   2.495   3.609
 2703SOL     OW 9007   1.091   0.066   1.475
 2703SOL    HW1 9008   1.101   7.022   1.404
 2703SOL    HW2 9009   1.033   0.140   1.441
 2704SOL     OW 9010   6.869   5.663   1.278
 2704SOL    HW1 9011   6.770   5.649   1.268
 2704SOL    HW2 9012   6.905   5.598   1.346
 2705SOL     OW 9013   0.240   5.510   4.620
 2705SOL    HW1 9014   0.313   5.572   4.590
 2705SOL    HW2 9015   0.215   5.530   4.715
 2706SOL     OW 9016   6.750   5.683   1.791
 2706SOL    HW1 9017   6.666   5.649   1.832
 2706SOL    HW2 9018   6.738   5.778   1.762
 2707SOL     OW 9019   3.708   6.991   4.158
 2707SOL    HW1 9020   3.779   0.032   4.134
 2707SOL    HW2 9021   3.648   6.977   4.080
 2708SOL     OW 9022   0.519   2.484   0.019
 2708SOL    HW1 9023   0.505   2.469   0.117
 2708SOL    HW2 9024   0.600   2.434   7.015
 2709SOL     OW 9025   5.552   0.447   6.806
 2709SOL    HW1 9026   5.567   0.522   6.870
 2709SOL    HW2 9027   5.610   0.369   6.832
 2710SOL     OW 9028   0.578   4.071   3.812
 2710SOL    HW1 9029   0.574   4.080   3.713
 2710SOL    HW2 9030   0.494   4.108   3.852
 2711SOL     OW 9031   2.640   0.288   3.187
 2711SOL    HW1 9032   2.637   0.290   3.287
 2711SOL    HW2 9033   2.677   0.374   3.153
 2712SOL     OW 9034   2.918   4.355   1.104
 2712SOL    HW1 9035   2.847   4.303   1.151
 2712SOL    HW2 9036   2.893   4.452   1.102
 2713SOL     OW 9037   2.526   2.504   4.650
 2713SOL    HW1 9038   2.473   2.573   4.699
 2713SOL    HW2 9039   2.563   2.438   4.716
 2714SOL     OW 9040   3.627   2.384   0.397
 2714SOL    HW1 9041   3.536   2.421   0.376
 2714SOL    HW2 9042   3.651   2.314   0.330
 2715SOL     OW 9043   5.064   1.886   0.682
 2715SOL    HW1 9044   5.099   1.796   0.655
 2715SOL    HW2 9045   5.085   1.953   0.611
 2716SOL     OW 9046   5.218   3.960   2.100
 2716SOL    HW1 9047   5.309   3.927   2.128
 2716SOL    HW2 9048   5.154   3.949   2.176
 2717SOL     OW 9049   0.769   6.565   2.553
 2717SOL    HW1 9050   0.710   6.526   2.623
 2717SOL    HW2 9051   0.788   6.661   2.574
 2718SOL     OW 9052   1.789   2.049   4.922
 2718SOL    HW1 9053   1.706   2.017   4.968
 2718SOL    HW2 9054   1.801   2.147   4.940
 2719SOL     OW 9055   7.019   5.585   1.034
 2719SOL    HW1 9056   6.976   5.642   1.104
 2719SOL    HW2 9057   6.990   5.490   1.046
 2720SOL     OW 9058   2.358   5.979   2.028
 2720SOL    HW1 9059   2.343   5.932   2.114
 2720SOL    HW2 9060   2.296   6.058   2.022
 2721SOL     OW 9061   2.989   6.849   3.104
 2721SOL    HW1 9062   2.994   6.937   3.152
 2721SOL    HW2 9063   3.072   6.797   3.123
 2722SOL     OW 9064   6.682   5.497   0.872
 2722SOL    HW1 9065   6.638   5.585   0.889
 2722SOL    HW2 9066   6.775   5.511   0.838
 2723SOL     OW 9067   0.793   0.281   6.604
 2723SOL    HW1 9068   0.879   0.247   6.567
 2723SOL    HW2 9069   0.719   0.218   6.579
 2724SOL     OW 9070   1.605   6.580   6.821
 2724SOL    HW1 9071   1.655   6.553   6.903
 2724SOL    HW2 9072   1.653   6.656   6.777
 2725SOL     OW 9073   5.274   4.921   4.592
 2725SOL    HW1 9074   5.273   4.953   4.687
 2725SOL    HW2 9075   5.333   4.841   4.584
 2726SOL     OW 9076   0.155   2.356   0.937
 2726SOL    HW1 9077   0.081   2.336   1.002
 2726SOL    HW2 9078   0.240   2.317   0.970
 2727SOL     OW 9079   0.488   5.419   3.261
 2727SOL    HW1 9080   0.491   5.451   3.166
 2727SOL    HW2 9081   0.394   5.419   3.294
 2728SOL     OW 9082   4.859   6.773   5.383
 2728SOL    HW1 9083   4.826   6.741   5.471
 2728SOL    HW2 9084   4.796   6.745   5.311
 2729SOL     OW 9085   6.883   5.850   0.888
 2729SOL    HW1 9086   6.943   5.771   0.897
 2729SOL    HW2 9087   6.814   5.848   0.961
 2730SOL     OW 9088   1.632   5.643   1.504
 2730SOL    HW1 9089   1.564   5.593   1.558
 2730SOL    HW2 9090   1.585   5.696   1.433
 2731SOL     OW 9091   3.709   4.105   2.976
 2731SOL    HW1 9092   3.777   4.052   2.925
 2731SOL    HW2 9093   3.754   4.156   3.049
 2732SOL     OW 9094   5.560   2.279   1.839
 2732SOL    HW1 9095   5.506   2.255   1.920
 2732SOL    HW2 9096   5.500   2.281   1.759
 2733SOL     OW 9097   6.682   1.495   4.817
 2733SOL    HW1 9098   6.725   1.406   4.804
 2733SOL    HW2 9099   6.592   1.483   4.860
 2734SOL     OW 9100   2.726   6.234   1.469
 2734SOL    HW1 9101   2.700   6.141   1.496
 2734SOL    HW2 9102   2.791   6.271   1.535
 2735SOL     OW 9103   1.056   3.246   2.162
 2735SOL    HW1 9104   0.956   3.243   2.172
 2735SOL    HW2 9105   1.096   3.283   2.246
 2736SOL     OW 9106   5.468   6.808   5.324
 2736SOL    HW1 9107   5.538   6.737   5.318
 2736SOL    HW2 9108   5.422   6.801   5.413
 2737SOL     OW 9109   3.232   3.529   6.239
 2737SOL    HW1 9110   3.178   3.594   6.186
 2737SOL    HW2 9111   3.329   3.552   6.230
 2738SOL     OW 9112   5.067   6.284   1.835
 2738SOL    HW1 9113   5.042   6.378   1.857
 2738SOL    HW2 9114   5.145   6.256   1.892
 2739SOL     OW 9115   0.325   5.036   1.508
 2739SOL    HW1 9116   0.321   4.956   1.568
 2739SOL    HW2 9117   0.411   5.085   1.523
 2740SOL     OW 9118   0.128   3.981   2.480
 2740SOL    HW1 9119   0.195   3.926   2.430
 2740SOL    HW2 9120   0.088   4.049   2.419
 2741SOL     OW 9121   6.090   0.740   4.871
 2741SOL    HW1 9122   6.175   0.759   4.824
 2741SOL    HW2 9123   6.110   0.704   4.962
 2742SOL     OW 9124   1.786   5.522   6.861
 2742SOL    HW1 9125   1.859   5.476   6.811
 2742SOL    HW2 9126   1.823   5.601   6.909
 2743SOL     OW 9127   6.390   4.692   2.374
 2743SOL    HW1 9128   6.418   4.742   2.292
 2743SOL    HW2 9129   6.471   4.653   2.418
 2744SOL     OW 9130   5.236   2.052   6.272
 2744SOL    HW1 9131   5.192   2.114   6.337
 2744SOL    HW2 9132   5.224   2.087   6.179
 2745SOL     OW 9133   6.813   0.243   6.287
 2745SOL    HW1 9134   6.746   0.227   6.214
 2745SOL    HW2 9135   6.781   0.199   6.371
 2746SOL     OW 9136   2.644   1.594   4.034
 2746SOL    HW1 9137   2.722   1.534   4.055
 2746SOL    HW2 9138   2.678   1.679   3.994
 2747SOL     OW 9139   6.199   3.737   6.592
 2747SOL    HW1 9140   6.297   3.756   6.598
 2747SOL    HW2 9141   6.166   3.705   6.681
 2748SOL     OW 9142   5.005   1.497   1.277
 2748SOL    HW1 9143   4.926   1.496   1.216
 2748SOL    HW2 9144   5.009   1.584   1.324
 2749SOL     OW 9145   0.031   4.859   2.275
 2749SOL    HW1 9146   0.042   4.950   2.234
 2749SOL    HW2 9147   0.024   4.791   2.203
 2750SOL     OW 9148   0.707   5.286   1.077
 2750SOL    HW1 9149   0.620   5.331   1.054
 2750SOL    HW2 9150   0.782   5.351   1.066
 2751SOL     OW 9151   1.259   5.085   1.375
 2751SOL    HW1 9152   1.230   5.088   1.279
 2751SOL    HW2 9153   1.213   5.009   1.421
 2752SOL     OW 9154   4.134   5.699   5.945
 2752SOL    HW1 9155   4.092   5.713   6.034
 2752SOL    HW2 9156   4.204   5.768   5.930
 2753SOL     OW 9157   0.513   6.181   5.539
 2753SOL    HW1 9158   0.452   6.146   5.467
 2753SOL    HW2 9159   0.548   6.271   5.512
 2754SOL     OW 9160   0.539   0.535   2.156
 2754SOL    HW1 9161   0.568   0.476   2.232
 2754SOL    HW2 9162   0.615   0.592   2.128
 2755SOL     OW 9163   2.309   6.870   2.845
 2755SOL    HW1 9164   2.359   6.804   2.902
 2755SOL    HW2 9165   2.219   6.885   2.884
 2756SOL     OW 9166   5.924   4.775   6.871
 2756SOL    HW1 9167   5.861   4.702   6.895
 2756SOL    HW2 9168   5.880   4.863   6.886
 2757SOL     OW 9169   2.770   0.150   6.960
 2757SOL    HW1 9170   2.677   0.122   6.981
 2757SOL    HW2 9171   2.811   0.195   0.015
 2758SOL     OW 9172   3.913   6.506   4.300
 2758SOL    HW1 9173   3.881   6.481   4.391
 2758SOL    HW2 9174   3.835   6.508   4.237
 2759SOL     OW 9175   5.683   6.234   5.326
 2759SOL    HW1 9176   5.677   6.240   5.226
 2759SOL    HW2 9177   5.746   6.160   5.351
 2760SOL     OW 9178   0.942   5.612   2.292
 2760SOL    HW1 9179   0.887   5.600   2.375
 2760SOL    HW2 9180   0.928   5.704   2.256
 2761SOL     OW 9181   2.066   5.030   5.070
 2761SOL    HW1 9182   2.072   4.944   5.020
 2761SOL    HW2 9183   1.980   5.034   5.120
 2762SOL     OW 9184   2.072   0.496   5.156
 2762SOL    HW1 9185   2.089   0.563   5.227
 2762SOL    HW2 9186   2.133   0.513   5.078
 2763SOL     OW 9187   4.690   2.245   3.915
 2763SOL    HW1 9188   4.742   2.166   3.884
 2763SOL    HW2 9189   4.637   2.283   3.838
 2764SOL     OW 9190   6.628   0.966   1.533
 2764SOL    HW1 9191   6.539   1.012   1.537
 2764SOL    HW2 9192   6.683   0.994   1.612
 2765SOL     OW 9193   6.828   6.999   0.362
 2765SOL    HW1 9194   6.863   6.912   0.398
 2765SOL    HW2 9195   6.742   7.021   0.407
 2766SOL     OW 9196   5.248   2.706   0.557
 2766SOL    HW1 9197   5.220   2.657   0.640
 2766SOL    HW2 9198   5.337   2.747   0.572
 2767SOL     OW 9199   6.485   5.118   6.849
 2767SOL    HW1 9200   6.568   5.135   6.795
 2767SOL    HW2 9201   6.506   5.125   6.946
 2768SOL     OW 9202   4.349   0.780   1.030
 2768SOL    HW1 9203   4.449   0.779   1.038
 2768SOL    HW2 9204   4.312   0.694   1.067
 2769SOL     OW 9205   1.736   4.755   5.145
 2769SOL    HW1 9206   1.826   4.715   5.162
 2769SOL    HW2 9207   1.742   4.822   5.072
 2770SOL     OW 9208   4.010   5.723   6.173
 2770SOL    HW1 9209   4.009   5.676   6.261
 2770SOL    HW2 9210   3.929   5.781   6.164
 2771SOL     OW 9211   6.227   0.889   3.502
 2771SOL    HW1 9212   6.210   0.988   3.506
 2771SOL    HW2 9213   6.289   0.864   3.576
 2772SOL     OW 9214   3.951   2.078   0.458
 2772SOL    HW1 9215   3.921   1.987   0.427
 2772SOL    HW2 9216   3.928   2.089   0.555
 2773SOL     OW 9217   6.468   1.913   4.522
 2773SOL    HW1 9218   6.488   1.990   4.582
 2773SOL    HW2 9219   6.469   1.943   4.427
 2774SOL     OW 9220   5.182   2.681   3.050
 2774SOL    HW1 9221   5.268   2.715   3.088
 2774SOL    HW2 9222   5.194   2.587   3.018
 2775SOL     OW 9223   6.970   4.690   5.551
 2775SOL    HW1 9224   0.018   4.734   5.602
 2775SOL    HW2 9225   6.987   4.592   5.544
 2776SOL     OW 9226   4.612   4.771   5.765
 2776SOL    HW1 9227   4.581   4.697   5.706
 2776SOL    HW2 9228   4.589   4.749   5.860
 2777SOL     OW 9229   2.907   1.851   1.425
 2777SOL    HW1 9230   2.869   1.791   1.355
 2777SOL    HW2 9231   2.835   1.912   1.458
 2778SOL     OW 9232   1.763   7.001   5.496
 2778SOL    HW1 9233   1.786   6.986   5.400
 2778SOL    HW2 9234   1.754   0.074   5.512
 2779SOL     OW 9235   5.263   6.611   2.032
 2779SOL    HW1 9236   5.290   6.694   1.983
 2779SOL    HW2 9237   5.264   6.533   1.970
 2780SOL     OW 9238   0.375   6.778   0.206
 2780SOL    HW1 9239   0.296   6.734   0.248
 2780SOL    HW2 9240   0.345   6.833   0.128
 2781SOL     OW 9241   5.813   6.923   1.862
 2781SOL    HW1 9242   5.873   6.861   1.912
 2781SOL    HW2 9243   5.754   6.870   1.800
 2782SOL     OW 9244   4.914   1.876   5.850
 2782SOL    HW1 9245   4.967   1.896   5.932
 2782SOL    HW2 9246   4.965   1.812   5.792
 2783SOL     OW 9247   5.418   3.905   2.867
 2783SOL    HW1 9248   5.476   3.847   2.810
 2783SOL    HW2 9249   5.328   3.915   2.824
 2784SOL     OW 9250   3.032   1.644   2.071
 2784SOL    HW1 9251   3.075   1.656   1.981
 2784SOL    HW2 9252   3.075   1.568   2.119
 2785SOL     OW 9253   5.498   2.528   0.995
 2785SOL    HW1 9254   5.505   2.554   0.899
 2785SOL    HW2 9255   5.520   2.606   1.053
 2786SOL     OW 9256   5.208   0.303   2.539
 2786SOL    HW1 9257   5.129   0.360   2.519
 2786SOL    HW2 9258   5.179   0.224   2.594
 2787SOL     OW 9259   5.409   0.683   6.253
 2787SOL    HW1 9260   5.326   0.697   6.199
 2787SOL    HW2 9261   5.385   0.639   6.339
 2788SOL     OW 9262   1.915   5.667   5.880
 2788SOL    HW1 9263   1.836   5.720   5.849
 2788SOL    HW2 9264   1.989   5.675   5.813
 2789SOL     OW 9265   1.661   2.372   3.792
 2789SOL    HW1 9266   1.627   2.283   3.819
 2789SOL    HW2 9267   1.589   2.422   3.743
 2790SOL     OW 9268   3.667   5.932   2.010
 2790SOL    HW1 9269   3.600   5.929   2.084
 2790SOL    HW2 9270   3.755   5.962   2.047
 2791SOL     OW 9271   0.465   2.712   3.041
 2791SOL    HW1 9272   0.478   2.706   3.140
 2791SOL    HW2 9273   0.413   2.633   3.009
 2792SOL     OW 9274   1.671   6.758   4.251
 2792SOL    HW1 9275   1.740   6.717   4.191
 2792SOL    HW2 9276   1.680   6.857   4.249
 2793SOL     OW 9277   5.663   4.183   1.739
 2793SOL    HW1 9278   5.690   4.101   1.688
 2793SOL    HW2 9279   5.718   4.191   1.821
 2794SOL     OW 9280   0.215   2.209   6.448
 2794SOL    HW1 9281   0.294   2.165   6.405
 2794SOL    HW2 9282   0.152   2.139   6.481
 2795SOL     OW 9283   0.826   3.128   0.807
 2795SOL    HW1 9284   0.908   3.184   0.822
 2795SOL    HW2 9285   0.832   3.045   0.863
 2796SOL     OW 9286   0.341   6.424   3.428
 2796SOL    HW1 9287   0.361   6.364   3.505
 2796SOL    HW2 9288   0.402   6.504   3.430
 2797SOL     OW 9289   4.857   5.560   4.601
 2797SOL    HW1 9290   4.796   5.495   4.557
 2797SOL    HW2 9291   4.896   5.520   4.684
 2798SOL     OW 9292   0.395   5.328   2.103
 2798SOL    HW1 9293   0.394   5.241   2.153
 2798SOL    HW2 9294   0.357   5.314   2.011
 2799SOL     OW 9295   6.083   5.657   5.888
 2799SOL    HW1 9296   6.068   5.609   5.974
 2799SOL    HW2 9297   6.174   5.697   5.887
 2800SOL     OW 9298   4.790   6.360   6.586
 2800SOL    HW1 9299   4.886   6.376   6.609
 2800SOL    HW2 9300   4.778   6.363   6.487
 2801SOL     OW 9301   6.983   5.652   6.039
 2801SOL    HW1 9302   6.996   5.724   5.971
 2801SOL    HW2 9303   6.886   5.627   6.044
 2802SOL     OW 9304   5.689   6.602   5.402
 2802SOL    HW1 9305   5.772   6.652   5.426
 2802SOL    HW2 9306   5.671   6.532   5.471
 2803SOL     OW 9307   4.244   6.104   6.175
 2803SOL    HW1 9308   4.152   6.124   6.207
 2803SOL    HW2 9309   4.242   6.087   6.076
 2804SOL     OW 9310   0.054   4.451   5.425
 2804SOL    HW1 9311   0.029   4.380   5.491
 2804SOL    HW2 9312   0.050   4.414   5.332
 2805SOL     OW 9313   6.026   3.616   2.362
 2805SOL    HW1 9314   6.003   3.712   2.341
 2805SOL    HW2 9315   6.104   3.613   2.423
 2806SOL     OW 9316   0.201   4.161   5.837
 2806SOL    HW1 9317   0.219   4.112   5.752
 2806SOL    HW2 9318   0.204   4.259   5.821
 2807SOL     OW 9319   3.721   6.584   4.106
 2807SOL    HW1 9320   3.735   6.656   4.039
 2807SOL    HW2 9321   3.674   6.507   4.064
 2808SOL     OW 9322   6.501   4.753   2.103
 2808SOL    HW1 9323   6.463   4.839   2.137
 2808SOL    HW2 9324   6.598   4.749   2.125
 2809SOL     OW 9325   5.737   2.745   1.109
 2809SOL    HW1 9326   5.756   2.819   1.173
 2809SOL    HW2 9327   5.794   2.666   1.132
 2810SOL     OW 9328   3.036   5.532   2.925
 2810SOL    HW1 9329   3.007   5.484   2.842
 2810SOL    HW2 9330   2.957   5.545   2.985
 2811SOL     OW 9331   1.360   2.083   4.158
 2811SOL    HW1 9332   1.367   2.068   4.059
 2811SOL    HW2 9333   1.425   2.024   4.205
 2812SOL     OW 9334   5.168   2.803   6.849
 2812SOL    HW1 9335   5.247   2.789   6.789
 2812SOL    HW2 9336   5.200   2.818   6.943
 2813SOL     OW 9337   0.998   0.626   6.690
 2813SOL    HW1 9338   0.998   0.614   6.591
 2813SOL    HW2 9339   1.091   0.648   6.721
 2814SOL     OW 9340   4.010   3.738   5.696
 2814SOL    HW1 9341   4.025   3.818   5.639
 2814SOL    HW2 9342   3.912   3.720   5.704
 2815SOL     OW 9343   6.632   6.231   6.427
 2815SOL    HW1 9344   6.543   6.274   6.416
 2815SOL    HW2 9345   6.703   6.293   6.394
 2816SOL     OW 9346   6.168   5.530   3.510
 2816SOL    HW1 9347   6.147   5.488   3.598
 2816SOL    HW2 9348   6.238   5.477   3.463
 2817SOL     OW 9349   3.030   0.062   1.584
 2817SOL    HW1 9350   3.007   0.065   1.681
 2817SOL    HW2 9351   2.983   7.011   1.540
 2818SOL     OW 9352   0.455   0.243   2.308
 2818SOL    HW1 9353   0.508   0.169   2.350
 2818SOL    HW2 9354   0.465   0.326   2.363
 2819SOL     OW 9355   1.891   0.193   2.256
 2819SOL    HW1 9356   1.917   0.105   2.296
 2819SOL    HW2 9357   1.792   0.205   2.263
 2820SOL     OW 9358   0.762   2.508   3.419
 2820SOL    HW1 9359   0.783   2.411   3.431
 2820SOL    HW2 9360   0.839   2.554   3.375
 2821SOL     OW 9361   3.836   3.953   5.942
 2821SOL    HW1 9362   3.774   4.031   5.948
 2821SOL    HW2 9363   3.882   3.940   6.030
 2822SOL     OW 9364   3.845   2.464   0.539
 2822SOL    HW1 9365   3.778   2.404   0.496
 2822SOL    HW2 9366   3.812   2.490   0.630
 2823SOL     OW 9367   5.091   0.842   0.897
 2823SOL    HW1 9368   5.001   0.850   0.942
 2823SOL    HW2 9369   5.105   0.920   0.837
 2824SOL     OW 9370   2.202   1.390   3.950
 2824SOL    HW1 9371   2.188   1.412   3.854
 2824SOL    HW2 9372   2.221   1.292   3.959
 2825SOL     OW 9373   5.031   6.461   6.670
 2825SOL    HW1 9374   4.970   6.511   6.733
 2825SOL    HW2 9375   5.106   6.520   6.643
 2826SOL     OW 9376   4.672   1.196   6.921
 2826SOL    HW1 9377   4.644   1.247   6.839
 2826SOL    HW2 9378   4.690   1.101   6.897
 2827SOL     OW 9379   0.970   1.612   6.629
 2827SOL    HW1 9380   1.001   1.543   6.564
 2827SOL    HW2 9381   0.941   1.567   6.714
 2828SOL     OW 9382   2.894   1.668   0.381
 2828SOL    HW1 9383   2.888   1.722   0.297
 2828SOL    HW2 9384   2.802   1.636   0.406
 2829SOL     OW 9385   3.006   3.604   4.467
 2829SOL    HW1 9386   3.015   3.515   4.423
 2829SOL    HW2 9387   3.097   3.646   4.476
 2830SOL     OW 9388   2.912   3.768   5.746
 2830SOL    HW1 9389   2.854   3.723   5.678
 2830SOL    HW2 9390   2.991   3.710   5.766
 2831SOL     OW 9391   1.038   4.276   3.380
 2831SOL    HW1 9392   0.939   4.261   3.387
 2831SOL    HW2 9393   1.062   4.299   3.286
 2832SOL     OW 9394   0.899   3.272   1.750
 2832SOL    HW1 9395   0.994   3.258   1.720
 2832SOL    HW2 9396   0.861   3.185   1.780
 2833SOL     OW 9397   2.805   1.525   2.214
 2833SOL    HW1 9398   2.868   1.588   2.170
 2833SOL    HW2 9399   2.745   1.575   2.277
 2834SOL     OW 9400   4.579   6.303   5.912
 2834SOL    HW1 9401   4.599   6.216   5.867
 2834SOL    HW2 9402   4.493   6.340   5.878
 2835SOL     OW 9403   0.528   5.897   1.343
 2835SOL    HW1 9404   0.440   5.873   1.302
 2835SOL    HW2 9405   0.515   5.968   1.412
 2836SOL     OW 9406   0.272   6.427   2.216
 2836SOL    HW1 9407   0.213   6.497   2.176
 2836SOL    HW2 9408   0.363   6.433   2.176
 2837SOL     OW 9409   4.553   4.479   2.337
 2837SOL    HW1 9410   4.552   4.409   2.266
 2837SOL    HW2 9411   4.553   4.570   2.294
 2838SOL     OW 9412   3.812   4.112   0.548
 2838SOL    HW1 9413   3.725   4.152   0.521
 2838SOL    HW2 9414   3.796   4.033   0.608
 2839SOL     OW 9415   6.451   1.867   2.597
 2839SOL    HW1 9416   6.490   1.944   2.547
 2839SOL    HW2 9417   6.352   1.862   2.579
 2840SOL     OW 9418   1.375   0.001   2.222
 2840SOL    HW1 9419   1.284   0.014   2.261
 2840SOL    HW2 9420   1.392   0.071   2.153
 2841SOL     OW 9421   0.295   1.380   6.195
 2841SOL    HW1 9422   0.253   1.307   6.140
 2841SOL    HW2 9423   0.225   1.446   6.221
 2842SOL     OW 9424   0.097   4.462   3.794
 2842SOL    HW1 9425   0.062   4.553   3.771
 2842SOL    HW2 9426   0.038   4.420   3.863
 2843SOL     OW 9427   1.869   1.973   3.201
 2843SOL    HW1 9428   1.871   1.886   3.252
 2843SOL    HW2 9429   1.939   2.034   3.237
 2844SOL     OW 9430   6.119   5.254   6.826
 2844SOL    HW1 9431   6.207   5.265   6.781
 2844SOL    HW2 9432   6.071   5.176   6.787
 2845SOL     OW 9433   5.468   3.425   2.389
 2845SOL    HW1 9434   5.488   3.345   2.332
 2845SOL    HW2 9435   5.446   3.395   2.482
 2846SOL     OW 9436   4.201   0.850   0.120
 2846SOL    HW1 9437   4.185   0.752   0.108
 2846SOL    HW2 9438   4.154   0.881   0.202
 2847SOL     OW 9439   5.501   4.022   3.222
 2847SOL    HW1 9440   5.407   3.992   3.205
 2847SOL    HW2 9441   5.565   3.955   3.187
 2848SOL     OW 9442   2.097   2.819   5.525
 2848SOL    HW1 9443   2.057   2.907   5.498
 2848SOL    HW2 9444   2.100   2.758   5.445
 2849SOL     OW 9445   4.717   6.925   0.780
 2849SOL    HW1 9446   4.810   6.962   0.778
 2849SOL    HW2 9447   4.699   6.876   0.694
 2850SOL     OW 9448   1.759   6.692   2.616
 2850SOL    HW1 9449   1.703   6.704   2.535
 2850SOL    HW2 9450   1.849   6.657   2.590
 2851SOL     OW 9451   5.864   2.355   5.813
 2851SOL    HW1 9452   5.899   2.331   5.903
 2851SOL    HW2 9453   5.825   2.273   5.770
 2852SOL     OW 9454   6.689   4.300   6.594
 2852SOL    HW1 9455   6.691   4.372   6.526
 2852SOL    HW2 9456   6.594   4.269   6.606
 2853SOL     OW 9457   2.052   1.715   6.357
 2853SOL    HW1 9458   2.008   1.742   6.272
 2853SOL    HW2 9459   2.052   1.792   6.421
 2854SOL     OW 9460   4.810   0.812   5.645
 2854SOL    HW1 9461   4.785   0.816   5.549
 2854SOL    HW2 9462   4.857   0.896   5.671
 2855SOL     OW 9463   2.034   2.095   5.879
 2855SOL    HW1 9464   1.967   2.164   5.905
 2855SOL    HW2 9465   2.125   2.121   5.913
 2856SOL     OW 9466   0.251   3.600   5.456
 2856SOL    HW1 9467   0.237   3.667   5.384
 2856SOL    HW2 9468   0.275   3.512   5.416
 2857SOL     OW 9469   2.094   2.961   1.878
 2857SOL    HW1 9470   2.124   3.028   1.946
 2857SOL    HW2 9471   2.003   2.928   1.901
 2858SOL     OW 9472   4.805   4.465   1.990
 2858SOL    HW1 9473   4.835   4.430   1.901
 2858SOL    HW2 9474   4.754   4.393   2.038
 2859SOL     OW 9475   5.413   0.350   0.260
 2859SOL    HW1 9476   5.491   0.288   0.272
 2859SOL    HW2 9477   5.346   0.306   0.200
 2860SOL     OW 9478   2.148   1.983   1.734
 2860SOL    HW1 9479   2.063   1.952   1.777
 2860SOL    HW2 9480   2.141   2.080   1.712
 2861SOL     OW 9481   3.564   5.276   5.922
 2861SOL    HW1 9482   3.465   5.287   5.922
 2861SOL    HW2 9483   3.588   5.186   5.960
 2862SOL     OW 9484   4.511   2.061   2.530
 2862SOL    HW1 9485   4.430   2.036   2.477
 2862SOL    HW2 9486   4.574   2.112   2.471
 2863SOL     OW 9487   4.810   1.903   6.611
 2863SOL    HW1 9488   4.866   1.919   6.692
 2863SOL    HW2 9489   4.776   1.809   6.612
 2864SOL     OW 9490   4.557   1.690   1.908
 2864SOL    HW1 9491   4.581   1.634   1.828
 2864SOL    HW2 9492   4.580   1.641   1.992
 2865SOL     OW 9493   4.038   6.618   5.454
 2865SOL    HW1 9494   3.980   6.582   5.381
 2865SOL    HW2 9495   4.131   6.584   5.443
 2866SOL     OW 9496   6.058   5.584   6.146
 2866SOL    HW1 9497   5.992   5.658   6.131
 2866SOL    HW2 9498   6.088   5.585   6.242
 2867SOL     OW 9499   6.043   6.682   3.286
 2867SOL    HW1 9500   5.981   6.615   3.245
 2867SOL    HW2 9501   5.990   6.759   3.322
 2868SOL     OW 9502   2.072   1.131   5.278
 2868SOL    HW1 9503   2.032   1.218   5.251
 2868SOL    HW2 9504   2.001   1.071   5.314
 2869SOL     OW 9505   6.808   0.770   3.365
 2869SOL    HW1 9506   6.856   0.857   3.367
 2869SOL    HW2 9507   6.813   0.727   3.455
 2870SOL     OW 9508   0.308   1.559   5.534
 2870SOL    HW1 9509   0.255   1.511   5.464
 2870SOL    HW2 9510   0.371   1.495   5.578
 2871SOL     OW 9511   7.013   1.641   6.803
 2871SOL    HW1 9512   0.018   1.638   6.899
 2871SOL    HW2 9513   6.918   1.671   6.799
 2872SOL     OW 9514   2.797   2.061   1.988
 2872SOL    HW1 9515   2.820   2.157   2.008
 2872SOL    HW2 9516   2.827   2.003   2.063
 2873SOL     OW 9517   0.077   5.836   2.838
 2873SOL    HW1 9518   0.114   5.913   2.891
 2873SOL    HW2 9519   7.004   5.849   2.825
 2874SOL     OW 9520   4.841   6.905   2.965
 2874SOL    HW1 9521   4.925   6.957   2.984
 2874SOL    HW2 9522   4.821   6.911   2.867
 2875SOL     OW 9523   5.383   0.214   1.627
 2875SOL    HW1 9524   5.438   0.153   1.682
 2875SOL    HW2 9525   5.442   0.265   1.564
 2876SOL     OW 9526   1.937   6.961   2.351
 2876SOL    HW1 9527   1.956   6.863   2.353
 2876SOL    HW2 9528   2.010   7.010   2.400
 2877SOL     OW 9529   2.220   1.599   5.624
 2877SOL    HW1 9530   2.282   1.675   5.604
 2877SOL    HW2 9531   2.137   1.609   5.568
 2878SOL     OW 9532   3.859   4.224   5.359
 2878SOL    HW1 9533   3.840   4.129   5.332
 2878SOL    HW2 9534   3.946   4.253   5.320
 2879SOL     OW 9535   5.272   4.744   6.888
 2879SOL    HW1 9536   5.336   4.796   6.832
 2879SOL    HW2 9537   5.284   4.769   6.984
 2880SOL     OW 9538   0.227   1.446   2.944
 2880SOL    HW1 9539   0.150   1.384   2.923
 2880SOL    HW2 9540   0.194   1.520   3.002
 2881SOL     OW 9541   4.332   6.020   6.396
 2881SOL    HW1 9542   4.306   6.047   6.303
 2881SOL    HW2 9543   4.353   6.101   6.450
 2882SOL     OW 9544   0.070   5.400   2.154
 2882SOL    HW1 9545   0.140   5.471   2.149
 2882SOL    HW2 9546   7.007   5.438   2.127
 2883SOL     OW 9547   6.088   0.580   3.561
 2883SOL    HW1 9548   6.109   0.614   3.653
 2883SOL    HW2 9549   6.098   0.480   3.560
 2884SOL     OW 9550   1.068   6.966   3.373
 2884SOL    HW1 9551   1.134   6.894   3.397
 2884SOL    HW2 9552   1.109   0.003   3.307
 2885SOL     OW 9553   1.899   3.855   3.688
 2885SOL    HW1 9554   1.866   3.858   3.594
 2885SOL    HW2 9555   1.856   3.928   3.741
 2886SOL     OW 9556   0.816   3.284   6.039
 2886SOL    HW1 9557   0.888   3.238   6.091
 2886SOL    HW2 9558   0.803   3.377   6.073
 2887SOL     OW 9559   0.361   0.792   5.755
 2887SOL    HW1 9560   0.353   0.869   5.818
 2887SOL    HW2 9561   0.378   0.826   5.662
 2888SOL     OW 9562   6.954   4.399   6.456
 2888SOL    HW1 9563   6.978   4.314   6.408
 2888SOL    HW2 9564   6.871   4.437   6.414
 2889SOL     OW 9565   2.461   6.441   2.216
 2889SOL    HW1 9566   2.502   6.404   2.300
 2889SOL    HW2 9567   2.503   6.528   2.193
 2890SOL     OW 9568   1.254   6.101   0.291
 2890SOL    HW1 9569   1.213   6.018   0.255
 2890SOL    HW2 9570   1.256   6.171   0.220
 2891SOL     OW 9571   0.801   4.519   3.105
 2891SOL    HW1 9572   0.750   4.552   3.184
 2891SOL    HW2 9573   0.749   4.447   3.059
 2892SOL     OW 9574   6.350   3.315   0.416
 2892SOL    HW1 9575   6.257   3.347   0.396
 2892SOL    HW2 9576   6.373   3.336   0.511
 2893SOL     OW 9577   0.169   5.335   3.925
 2893SOL    HW1 9578   0.105   5.259   3.941
 2893SOL    HW2 9579   0.168   5.360   3.828
 2894SOL     OW 9580   0.599   3.507   1.825
 2894SOL    HW1 9581   0.531   3.575   1.800
 2894SOL    HW2 9582   0.624   3.452   1.745
 2895SOL     OW 9583   5.083   1.906   5.502
 2895SOL    HW1 9584   5.101   1.932   5.407
 2895SOL    HW2 9585   4.998   1.949   5.532
 2896SOL     OW 9586   4.775   6.434   5.264
 2896SOL    HW1 9587   4.874   6.425   5.271
 2896SOL    HW2 9588   4.735   6.347   5.234
 2897SOL     OW 9589   3.738   5.002   2.940
 2897SOL    HW1 9590   3.666   4.986   2.873
 2897SOL    HW2 9591   3.709   5.074   3.003
 2898SOL     OW 9592   4.434   4.553   4.282
 2898SOL    HW1 9593   4.335   4.540   4.288
 2898SOL    HW2 9594   4.461   4.556   4.186
 2899SOL     OW 9595   0.777   2.109   0.334
 2899SOL    HW1 9596   0.872   2.133   0.357
 2899SOL    HW2 9597   0.761   2.126   0.237
 2900SOL     OW 9598   2.280   3.976   5.844
 2900SOL    HW1 9599   2.287   3.977   5.744
 2900SOL    HW2 9600   2.184   3.966   5.871
 2901SOL     OW 9601   2.373   4.591   3.228
 2901SOL    HW1 9602   2.344   4.657   3.297
 2901SOL    HW2 9603   2.473   4.584   3.229
 2902SOL     OW 9604   5.760   5.159   3.077
 2902SOL    HW1 9605   5.716   5.242   3.109
 2902SOL    HW2 9606   5.692   5.085   3.072
 2903SOL     OW 9607   3.697   0.256   0.542
 2903SOL    HW1 9608   3.726   0.278   0.449
 2903SOL    HW2 9609   3.683   0.341   0.593
 2904SOL     OW 9610   2.630   4.983   4.265
 2904SOL    HW1 9611   2.703   4.924   4.300
 2904SOL    HW2 9612   2.552   4.927   4.237
 2905SOL     OW 9613   1.005   2.673   5.011
 2905SOL    HW1 9614   1.075   2.739   5.037
 2905SOL    HW2 9615   0.921   2.722   4.987
 2906SOL     OW 9616   4.783   5.026   2.247
 2906SOL    HW1 9617   4.708   5.089   2.268
 2906SOL    HW2 9618   4.771   4.941   2.299
 2907SOL     OW 9619   1.076   1.027   3.312
 2907SOL    HW1 9620   1.034   1.105   3.266
 2907SOL    HW2 9621   1.007   0.957   3.330
 2908SOL     OW 9622   5.225   6.667   3.668
 2908SOL    HW1 9623   5.255   6.637   3.577
 2908SOL    HW2 9624   5.164   6.746   3.658
 2909SOL     OW 9625   1.614   5.478   4.158
 2909SOL    HW1 9626   1.683   5.550   4.162
 2909SOL    HW2 9627   1.628   5.422   4.076
 2910SOL     OW 9628   4.874   0.828   4.681
 2910SOL    HW1 9629   4.869   0.757   4.750
 2910SOL    HW2 9630   4.783   0.843   4.641
 2911SOL     OW 9631   1.056   5.520   3.775
 2911SOL    HW1 9632   1.046   5.477   3.685
 2911SOL    HW2 9633   0.966   5.540   3.813
 2912SOL     OW 9634   5.304   0.301   6.861
 2912SOL    HW1 9635   5.373   0.359   6.817
 2912SOL    HW2 9636   5.338   0.207   6.867
 2913SOL     OW 9637   3.157   4.814   1.811
 2913SOL    HW1 9638   3.191   4.879   1.743
 2913SOL    HW2 9639   3.178   4.847   1.903
 2914SOL     OW 9640   6.318   6.344   6.032
 2914SOL    HW1 9641   6.344   6.396   5.950
 2914SOL    HW2 9642   6.395   6.344   6.097
 2915SOL     OW 9643   3.478   2.143   3.981
 2915SOL    HW1 9644   3.413   2.073   4.011
 2915SOL    HW2 9645   3.446   2.233   4.012
 2916SOL     OW 9646   0.771   5.710   0.525
 2916SOL    HW1 9647   0.828   5.751   0.595
 2916SOL    HW2 9648   0.675   5.711   0.554
 2917SOL     OW 9649   2.422   0.539   3.349
 2917SOL    HW1 9650   2.437   0.634   3.321
 2917SOL    HW2 9651   2.456   0.526   3.441
 2918SOL     OW 9652   5.774   4.517   4.949
 2918SOL    HW1 9653   5.794   4.536   5.045
 2918SOL    HW2 9654   5.815   4.429   4.923
 2919SOL     OW 9655   5.366   0.737   2.290
 2919SOL    HW1 9656   5.433   0.765   2.222
 2919SOL    HW2 9657   5.338   0.816   2.344
 2920SOL     OW 9658   3.141   1.086   1.772
 2920SOL    HW1 9659   3.154   0.998   1.725
 2920SOL    HW2 9660   3.102   1.152   1.709
 2921SOL     OW 9661   0.779   6.826   4.699
 2921SOL    HW1 9662   0.787   6.736   4.656
 2921SOL    HW2 9663   0.806   6.896   4.633
 2922SOL     OW 9664   4.787   0.403   1.274
 2922SOL    HW1 9665   4.849   0.378   1.199
 2922SOL    HW2 9666   4.839   0.448   1.346
 2923SOL     OW 9667   6.405   5.114   2.533
 2923SOL    HW1 9668   6.505   5.116   2.545
 2923SOL    HW2 9669   6.367   5.036   2.583
 2924SOL     OW 9670   5.930   2.134   5.531
 2924SOL    HW1 9671   5.861   2.070   5.564
 2924SOL    HW2 9672   5.983   2.168   5.609
 2925SOL     OW 9673   4.617   1.439   2.456
 2925SOL    HW1 9674   4.535   1.454   2.400
 2925SOL    HW2 9675   4.590   1.413   2.548
 2926SOL     OW 9676   6.549   1.648   4.543
 2926SOL    HW1 9677   6.608   1.627   4.621
 2926SOL    HW2 9678   6.548   1.746   4.527
 2927SOL     OW 9679   1.628   4.060   1.289
 2927SOL    HW1 9680   1.616   4.050   1.388
 2927SOL    HW2 9681   1.710   4.115   1.271
 2928SOL     OW 9682   0.347   0.518   6.626
 2928SOL    HW1 9683   0.251   0.490   6.623
 2928SOL    HW2 9684   0.387   0.490   6.713
 2929SOL     OW 9685   1.187   2.174   6.844
 2929SOL    HW1 9686   1.148   2.132   6.926
 2929SOL    HW2 9687   1.127   2.156   6.766
 2930SOL     OW 9688   5.529   0.208   5.384
 2930SOL    HW1 9689   5.596   0.278   5.357
 2930SOL    HW2 9690   5.508   0.150   5.305
 2931SOL     OW 9691   5.776   4.531   6.946
 2931SOL    HW1 9692   5.787   4.463   7.018
 2931SOL    HW2 9693   5.727   4.491   6.869
 2932SOL     OW 9694   0.895   5.390   1.779
 2932SOL    HW1 9695   0.834   5.445   1.721
 2932SOL    HW2 9696   0.916   5.442   1.862
 2933SOL     OW 9697   0.816   5.341   3.067
 2933SOL    HW1 9698   0.767   5.358   3.152
 2933SOL    HW2 9699   0.807   5.419   3.006
 2934SOL     OW 9700   4.783   1.862   0.247
 2934SOL    HW1 9701   4.754   1.768   0.231
 2934SOL    HW2 9702   4.742   1.921   0.177
 2935SOL     OW 9703   6.951   2.853   6.553
 2935SOL    HW1 9704   6.963   2.942   6.597
 2935SOL    HW2 9705   6.934   2.784   6.623
 2936SOL     OW 9706   4.162   6.846   0.733
 2936SOL    HW1 9707   4.164   6.923   0.796
 2936SOL    HW2 9708   4.241   6.850   0.671
 2937SOL     OW 9709   5.419   4.614   1.232
 2937SOL    HW1 9710   5.512   4.590   1.258
 2937SOL    HW2 9711   5.376   4.536   1.186
 2938SOL     OW 9712   4.612   5.379   6.568
 2938SOL    HW1 9713   4.546   5.312   6.603
 2938SOL    HW2 9714   4.654   5.427   6.645
 2939SOL     OW 9715   2.040   0.198   2.806
 2939SOL    HW1 9716   2.037   0.280   2.865
 2939SOL    HW2 9717   2.133   0.186   2.770
 2940SOL     OW 9718   5.722   4.815   5.507
 2940SOL    HW1 9719   5.788   4.747   5.537
 2940SOL    HW2 9720   5.711   4.810   5.408
 2941SOL     OW 9721   1.789   2.045   4.339
 2941SOL    HW1 9722   1.840   2.114   4.288
 2941SOL    HW2 9723   1.738   2.089   4.412
 2942SOL     OW 9724   2.913   2.519   0.498
 2942SOL    HW1 9725   3.006   2.549   0.475
 2942SOL    HW2 9726   2.847   2.584   0.460
 2943SOL     OW 9727   5.295   4.550   3.473
 2943SOL    HW1 9728   5.200   4.539   3.444
 2943SOL    HW2 9729   5.305   4.518   3.567
 2944SOL     OW 9730   2.896   6.236   4.052
 2944SOL    HW1 9731   2.817   6.182   4.082
 2944SOL    HW2 9732   2.956   6.253   4.130
 2945SOL     OW 9733   3.181   3.834   3.323
 2945SOL    HW1 9734   3.206   3.929   3.342
 2945SOL    HW2 9735   3.108   3.806   3.385
 2946SOL     OW 9736   1.497   5.005   5.721
 2946SOL    HW1 9737   1.559   5.083   5.715
 2946SOL    HW2 9738   1.473   4.987   5.816
 2947SOL     OW 9739   0.560   3.971   1.005
 2947SOL    HW1 9740   0.565   3.871   1.013
 2947SOL    HW2 9741   0.647   4.011   1.032
 2948SOL     OW 9742   0.876   3.547   5.057
 2948SOL    HW1 9743   0.799   3.483   5.052
 2948SOL    HW2 9744   0.915   3.546   5.149
 2949SOL     OW 9745   2.523   5.535   0.427
 2949SOL    HW1 9746   2.500   5.596   0.351
 2949SOL    HW2 9747   2.620   5.541   0.447
 2950SOL     OW 9748   5.390   5.005   4.218
 2950SOL    HW1 9749   5.415   5.081   4.158
 2950SOL    HW2 9750   5.469   4.977   4.272
 2951SOL     OW 9751   5.314   1.331   1.596
 2951SOL    HW1 9752   5.295   1.296   1.504
 2951SOL    HW2 9753   5.266   1.417   1.610
 2952SOL     OW 9754   0.102   4.699   4.655
 2952SOL    HW1 9755   0.199   4.680   4.644
 2952SOL    HW2 9756   0.050   4.615   4.638
 2953SOL     OW 9757   5.100   3.720   2.637
 2953SOL    HW1 9758   5.046   3.657   2.693
 2953SOL    HW2 9759   5.039   3.776   2.581
 2954SOL     OW 9760   1.239   4.969   1.735
 2954SOL    HW1 9761   1.149   5.011   1.751
 2954SOL    HW2 9762   1.289   4.965   1.822
 2955SOL     OW 9763   0.668   3.834   2.127
 2955SOL    HW1 9764   0.572   3.816   2.147
 2955SOL    HW2 9765   0.720   3.749   2.133
 2956SOL     OW 9766   5.489   5.809   2.499
 2956SOL    HW1 9767   5.394   5.829   2.476
 2956SOL    HW2 9768   5.528   5.885   2.551
 2957SOL     OW 9769   5.848   4.129   1.975
 2957SOL    HW1 9770   5.902   4.046   1.960
 2957SOL    HW2 9771   5.759   4.105   2.013
 2958SOL     OW 9772   2.672   4.596   3.264
 2958SOL    HW1 9773   2.704   4.669   3.324
 2958SOL    HW2 9774   2.705   4.507   3.297
 2959SOL     OW 9775   5.134   3.327   0.394
 2959SOL    HW1 9776   5.174   3.358   0.308
 2959SOL    HW2 9777   5.137   3.402   0.461
 2960SOL     OW 9778   2.988   1.017   0.392
 2960SOL    HW1 9779   2.974   0.962   0.474
 2960SOL    HW2 9780   2.983   1.114   0.415
 2961SOL     OW 9781   5.297   3.558   2.983
 2961SOL    HW1 9782   5.396   3.555   2.967
 2961SOL    HW2 9783   5.265   3.465   3.004
 2962SOL     OW 9784   4.531   6.328   3.114
 2962SOL    HW1 9785   4.517   6.330   3.213
 2962SOL    HW2 9786   4.501   6.415   3.075
 2963SOL     OW 9787   1.753   1.093   5.996
 2963SOL    HW1 9788   1.709   1.150   6.065
 2963SOL    HW2 9789   1.684   1.034   5.954
 2964SOL     OW 9790   0.537   0.447   3.705
 2964SOL    HW1 9791   0.596   0.528   3.701
 2964SOL    HW2 9792   0.485   0.448   3.790
 2965SOL     OW 9793   0.329   0.856   4.432
 2965SOL    HW1 9794   0.252   0.856   4.368
 2965SOL    HW2 9795   0.298   0.826   4.522
 2966SOL     OW 9796   4.854   5.835   3.337
 2966SOL    HW1 9797   4.811   5.799   3.255
 2966SOL    HW2 9798   4.808   5.799   3.418
 2967SOL     OW 9799   6.938   0.915   4.868
 2967SOL    HW1 9800   6.849   0.953   4.894
 2967SOL    HW2 9801   7.007   0.939   4.936
 2968SOL     OW 9802   1.222   2.536   6.844
 2968SOL    HW1 9803   1.222   2.634   6.825
 2968SOL    HW2 9804   1.311   2.498   6.820
 2969SOL     OW 9805   5.283   1.922   4.141
 2969SOL    HW1 9806   5.255   1.829   4.117
 2969SOL    HW2 9807   5.218   1.987   4.102
 2970SOL     OW 9808   1.938   4.010   5.787
 2970SOL    HW1 9809   1.918   3.938   5.720
 2970SOL    HW2 9810   1.909   4.099   5.751
 2971SOL     OW 9811   5.223   4.307   0.349
 2971SOL    HW1 9812   5.156   4.348   0.411
 2971SOL    HW2 9813   5.307   4.361   0.349
 2972SOL     OW 9814   6.566   4.663   6.376
 2972SOL    HW1 9815   6.586   4.744   6.432
 2972SOL    HW2 9816   6.470   4.637   6.388
 2973SOL     OW 9817   5.395   6.362   2.305
 2973SOL    HW1 9818   5.326   6.375   2.376
 2973SOL    HW2 9819   5.441   6.449   2.288
 2974SOL     OW 9820   1.006   4.574   3.387
 2974SOL    HW1 9821   1.100   4.589   3.416
 2974SOL    HW2 9822   0.983   4.477   3.397
 2975SOL     OW 9823   5.474   3.286   4.199
 2975SOL    HW1 9824   5.410   3.247   4.264
 2975SOL    HW2 9825   5.464   3.241   4.110
 2976SOL     OW 9826   4.022   1.679   2.655
 2976SOL    HW1 9827   4.096   1.732   2.613
 2976SOL    HW2 9828   4.029   1.684   2.754
 2977SOL     OW 9829   2.152   6.662   2.400
 2977SOL    HW1 9830   2.127   6.566   2.405
 2977SOL    HW2 9831   2.207   6.687   2.479
 2978SOL     OW 9832   5.047   4.487   0.169
 2978SOL    HW1 9833   5.044   4.412   0.234
 2978SOL    HW2 9834   5.094   4.457   0.086
 2979SOL     OW 9835   3.354   0.603   4.279
 2979SOL    HW1 9836   3.419   0.534   4.310
 2979SOL    HW2 9837   3.398   0.693   4.280
 2980SOL     OW 9838   1.355   5.867   4.596
 2980SOL    HW1 9839   1.264   5.885   4.634
 2980SOL    HW2 9840   1.423   5.874   4.669
 2981SOL     OW 9841   2.720   1.121   5.624
 2981SOL    HW1 9842   2.768   1.171   5.552
 2981SOL    HW2 9843   2.624   1.150   5.626
 2982SOL     OW 9844   3.307   5.018   2.608
 2982SOL    HW1 9845   3.214   4.981   2.613
 2982SOL    HW2 9846   3.303   5.117   2.596
 2983SOL     OW 9847   0.810   1.416   2.644
 2983SOL    HW1 9848   0.726   1.438   2.595
 2983SOL    HW2 9849   0.792   1.413   2.742
 2984SOL     OW 9850   5.361   4.824   0.886
 2984SOL    HW1 9851   5.450   4.780   0.897
 2984SOL    HW2 9852   5.334   4.822   0.790
 2985SOL     OW 9853   1.715   3.003   5.167
 2985SOL    HW1 9854   1.675   3.089   5.135
 2985SOL    HW2 9855   1.815   3.013   5.171
 2986SOL     OW 9856   3.699   3.828   3.232
 2986SOL    HW1 9857   3.613   3.847   3.184
 2986SOL    HW2 9858   3.680   3.810   3.329
 2987SOL     OW 9859   0.570   1.612   4.214
 2987SOL    HW1 9860   0.527   1.538   4.162
 2987SOL    HW2 9861   0.630   1.573   4.284
 2988SOL     OW 9862   1.680   5.571   3.023
 2988SOL    HW1 9863   1.758   5.511   3.006
 2988SOL    HW2 9864   1.711   5.666   3.024
 2989SOL     OW 9865   5.527   6.035   5.946
 2989SOL    HW1 9866   5.559   5.942   5.932
 2989SOL    HW2 9867   5.594   6.100   5.910
 2990SOL     OW 9868   3.757   2.109   4.895
 2990SOL    HW1 9869   3.730   2.016   4.869
 2990SOL    HW2 9870   3.681   2.153   4.944
 2991SOL     OW 9871   6.717   3.930   5.201
 2991SOL    HW1 9872   6.710   3.990   5.281
 2991SOL    HW2 9873   6.662   3.848   5.215
 2992SOL     OW 9874   2.598   6.206   4.581
 2992SOL    HW1 9875   2.579   6.300   4.553
 2992SOL    HW2 9876   2.636   6.155   4.504
 2993SOL     OW 9877   0.251   5.167   1.084
 2993SOL    HW1 9878   0.239   5.083   1.138
 2993SOL    HW2 9879   0.173   5.179   1.023
 2994SOL     OW 9880   3.962   6.315   0.071
 2994SOL    HW1 9881   4.062   6.323   0.078
 2994SOL    HW2 9882   3.939   6.235   0.015
 2995SOL     OW 9883   2.702   1.346   5.956
 2995SOL    HW1 9884   2.613   1.313   5.924
 2995SOL    HW2 9885   2.698   1.445   5.967
 2996SOL     OW 9886   1.468   1.504   4.015
 2996SOL    HW1 9887   1.429   1.432   4.072
 2996SOL    HW2 9888   1.430   1.592   4.043
 2997SOL     OW 9889   5.849   0.132   3.116
 2997SOL    HW1 9890   5.906   0.101   3.040
 2997SOL    HW2 9891   5.800   0.216   3.089
 2998SOL     OW 9892   4.291   6.951   3.967
 2998SOL    HW1 9893   4.322   0.019   3.948
 2998SOL    HW2 9894   4.336   6.888   3.903
 2999SOL     OW 9895   2.126   5.451   4.874
 2999SOL    HW1 9896   2.069   5.532   4.861
 2999SOL    HW2 9897   2.077   5.370   4.841
 3000SOL     OW 9898   3.471   3.784   6.176
 3000SOL    HW1 9899   3.445   3.873   6.215
 3000SOL    HW2 9900   3.456   3.785   6.078
 3001SOL     OW 9901   0.115   0.676   6.095
 3001SOL    HW1 9902   0.091   0.606   6.163
 3001SOL    HW2 9903   0.131   0.631   6.007
 3002SOL     OW 9904   3.361   1.392   0.254
 3002SOL    HW1 9905   3.285   1.377   0.191
 3002SOL    HW2 9906   3.333   1.456   0.326
 3003SOL     OW 9907   1.703   6.756   0.639
 3003SOL    HW1 9908   1.657   6.669   0.655
 3003SOL    HW2 9909   1.738   6.759   0.545
 3004SOL     OW 9910   0.767   4.317   3.433
 3004SOL    HW1 9911   0.677   4.337   3.395
 3004SOL    HW2 9912   0.785   4.377   3.510
 3005SOL     OW 9913   2.128   1.671   0.828
 3005SOL    HW1 9914   2.160   1.765   0.817
 3005SOL    HW2 9915   2.053   1.654   0.764
 3006SOL     OW 9916   5.649   1.504   4.744
 3006SOL    HW1 9917   5.577   1.470   4.683
 3006SOL    HW2 9918   5.672   1.597   4.718
 3007SOL     OW 9919   5.356   4.110   0.622
 3007SOL    HW1 9920   5.356   4.037   0.690
 3007SOL    HW2 9921   5.286   4.092   0.554
 3008SOL     OW 9922   3.907   2.331   5.943
 3008SOL    HW1 9923   3.874   2.388   5.868
 3008SOL    HW2 9924   3.859   2.243   5.942
 3009SOL     OW 9925   6.509   1.907   2.867
 3009SOL    HW1 9926   6.480   1.883   2.774
 3009SOL    HW2 9927   6.450   1.861   2.933
 3010SOL     OW 9928   3.878   5.858   3.378
 3010SOL    HW1 9929   3.946   5.829   3.311
 3010SOL    HW2 9930   3.799   5.896   3.330
 3011SOL     OW 9931   6.009   1.288   2.355
 3011SOL    HW1 9932   5.949   1.298   2.275
 3011SOL    HW2 9933   6.057   1.200   2.349
 3012SOL     OW 9934   1.907   3.281   5.979
 3012SOL    HW1 9935   1.932   3.187   6.000
 3012SOL    HW2 9936   1.818   3.302   6.020
 3013SOL     OW 9937   5.200   5.156   3.641
 3013SOL    HW1 9938   5.141   5.231   3.611
 3013SOL    HW2 9939   5.270   5.138   3.572
 3014SOL     OW 9940   4.505   2.535   4.597
 3014SOL    HW1 9941   4.427   2.500   4.650
 3014SOL    HW2 9942   4.567   2.584   4.658
 3015SOL     OW 9943   3.128   2.087   0.198
 3015SOL    HW1 9944   3.095   2.048   0.285
 3015SOL    HW2 9945   3.138   2.186   0.209
 3016SOL     OW 9946   2.099   6.434   3.689
 3016SOL    HW1 9947   2.129   6.340   3.675
 3016SOL    HW2 9948   2.178   6.496   3.679
 3017SOL     OW 9949   6.349   4.823   2.597
 3017SOL    HW1 9950   6.369   4.755   2.667
 3017SOL    HW2 9951   6.348   4.779   2.507
 3018SOL     OW 9952   3.051   6.600   5.854
 3018SOL    HW1 9953   3.134   6.641   5.816
 3018SOL    HW2 9954   3.047   6.619   5.952
 3019SOL     OW 9955   0.912   6.733   0.700
 3019SOL    HW1 9956   0.846   6.688   0.760
 3019SOL    HW2 9957   0.892   6.830   0.695
 3020SOL     OW 9958   3.638   2.816   1.520
 3020SOL    HW1 9959   3.683   2.848   1.604
 3020SOL    HW2 9960   3.633   2.716   1.521
 3021SOL     OW 9961   2.796   0.468   5.933
 3021SOL    HW1 9962   2.758   0.387   5.977
 3021SOL    HW2 9963   2.893   0.454   5.916
 3022SOL     OW 9964   4.149   5.382   4.382
 3022SOL    HW1 9965   4.078   5.377   4.453
 3022SOL    HW2 9966   4.108   5.368   4.292
 3023SOL     OW 9967   4.193   6.502   2.752
 3023SOL    HW1 9968   4.171   6.589   2.795
 3023SOL    HW2 9969   4.140   6.492   2.668
 3024SOL     OW 9970   5.002   0.179   4.581
 3024SOL    HW1 9971   4.947   0.236   4.519
 3024SOL    HW2 9972   5.065   0.122   4.527
 3025SOL     OW 9973   3.319   0.095   0.568
 3025SOL    HW1 9974   3.364   0.118   0.481
 3025SOL    HW2 9975   3.377   0.121   0.644
 3026SOL     OW 9976   1.465   0.660   6.654
 3026SOL    HW1 9977   1.496   0.755   6.649
 3026SOL    HW2 9978   1.453   0.624   6.561
 3027SOL     OW 9979   4.013   0.931   3.054
 3027SOL    HW1 9980   4.047   0.877   2.977
 3027SOL    HW2 9981   3.915   0.947   3.043
 3028SOL     OW 9982   1.251   3.433   5.835
 3028SOL    HW1 9983   1.155   3.407   5.844
 3028SOL    HW2 9984   1.277   3.433   5.739
 3029SOL     OW 9985   0.259   2.755   5.140
 3029SOL    HW1 9986   0.331   2.722   5.201
 3029SOL    HW2 9987   0.298   2.777   5.051
 3030SOL     OW 9988   0.371   3.069   0.293
 3030SOL    HW1 9989   0.338   3.098   0.203
 3030SOL    HW2 9990   0.430   3.140   0.331
 3031SOL     OW 9991   0.274   4.277   1.292
 3031SOL    HW1 9992   0.238   4.185   1.311
 3031SOL    HW2 9993   0.358   4.291   1.344
 3032SOL     OW 9994   2.703   6.347   1.223
 3032SOL    HW1 9995   2.785   6.311   1.179
 3032SOL    HW2 9996   2.690   6.304   1.312
 3033SOL     OW 9997   5.987   2.166   1.143
 3033SOL    HW1 9998   6.009   2.143   1.237
 3033SOL    HW2 9999   6.059   2.225   1.105
 3034SOL     OW10000   1.875   5.968   2.684
 3034SOL    HW110001   1.914   6.048   2.729
 3034SOL    HW210002   1.779   5.985   2.662
 3035SOL     OW10003   0.362   3.049   6.663
 3035SOL    HW110004   0.284   3.038   6.601
 3035SOL    HW210005   0.354   3.137   6.711
 3036SOL     OW10006   2.223   1.975   6.297
 3036SOL    HW110007   2.193   2.035   6.370
 3036SOL    HW210008   2.159   1.979   6.221
 3037SOL     OW10009   5.880   5.720   5.725
 3037SOL    HW110010   5.881   5.815   5.694
 3037SOL    HW210011   5.961   5.702   5.780
 3038SOL     OW10012   5.061   6.201   5.746
 3038SOL    HW110013   5.159   6.184   5.759
 3038SOL    HW210014   5.030   6.151   5.665
 3039SOL     OW10015   6.857   3.195   0.485
 3039SOL    HW110016   6.768   3.150   0.482
 3039SOL    HW210017   6.929   3.128   0.473
 3040SOL     OW10018   3.740   3.667   6.125
 3040SOL    HW110019   3.743   3.599   6.052
 3040SOL    HW210020   3.645   3.686   6.149
 3041SOL     OW10021   2.105   2.982   4.517
 3041SOL    HW110022   2.098   3.009   4.421
 3041SOL    HW210023   2.014   2.982   4.558
 3042SOL     OW10024   4.961   5.535   2.032
 3042SOL    HW110025   4.914   5.615   1.995
 3042SOL    HW210026   4.968   5.465   1.962
 3043SOL     OW10027   2.156   3.861   1.800
 3043SOL    HW110028   2.113   3.946   1.770
 3043SOL    HW210029   2.238   3.844   1.745
 3044SOL     OW10030   3.607   4.775   5.842
 3044SOL    HW110031   3.611   4.688   5.891
 3044SOL    HW210032   3.698   4.817   5.839
 3045SOL     OW10033   4.446   0.248   3.107
 3045SOL    HW110034   4.443   0.202   3.018
 3045SOL    HW210035   4.449   0.347   3.094
 3046SOL     OW10036   2.018   1.018   5.957
 3046SOL    HW110037   1.921   1.039   5.969
 3046SOL    HW210038   2.029   0.954   5.880
 3047SOL     OW10039   5.798   0.436   1.651
 3047SOL    HW110040   5.851   0.461   1.732
 3047SOL    HW210041   5.811   0.339   1.632
 3048SOL     OW10042   3.937   2.224   1.800
 3048SOL    HW110043   3.844   2.259   1.808
 3048SOL    HW210044   3.981   2.225   1.890
 3049SOL     OW10045   1.512   0.006   2.654
 3049SOL    HW110046   1.585   7.006   2.591
 3049SOL    HW210047   1.531   0.097   2.692
 3050SOL     OW10048   3.390   1.148   1.900
 3050SOL    HW110049   3.312   1.126   1.842
 3050SOL    HW210050   3.367   1.226   1.959
 3051SOL     OW10051   1.752   5.143   6.050
 3051SOL    HW110052   1.813   5.085   6.105
 3051SOL    HW210053   1.687   5.188   6.111
 3052SOL     OW10054   4.858   5.877   2.042
 3052SOL    HW110055   4.949   5.876   2.083
 3052SOL    HW210056   4.844   5.964   1.994
 3053SOL     OW10057   7.018   2.339   0.701
 3053SOL    HW110058   0.049   2.305   0.626
 3053SOL    HW210059   0.045   2.337   0.786
 3054SOL     OW10060   6.464   2.490   0.932
 3054SOL    HW110061   6.543   2.502   0.871
 3054SOL    HW210062   6.380   2.498   0.879
 3055SOL     OW10063   4.910   0.679   5.266
 3055SOL    HW110064   4.814   0.672   5.293
 3055SOL    HW210065   4.968   0.674   5.346
 3056SOL     OW10066   6.732   6.998   5.371
 3056SOL    HW110067   6.832   6.993   5.363
 3056SOL    HW210068   6.707   7.008   5.467
 3057SOL     OW10069   4.433   6.098   2.742
 3057SOL    HW110070   4.495   6.096   2.821
 3057SOL    HW210071   4.430   6.008   2.699
 3058SOL     OW10072   6.747   4.863   1.170
 3058SOL    HW110073   6.768   4.782   1.115
 3058SOL    HW210074   6.824   4.885   1.229
 3059SOL     OW10075   2.720   2.270   4.440
 3059SOL    HW110076   2.663   2.199   4.480
 3059SOL    HW210077   2.702   2.358   4.485
 3060SOL     OW10078   1.358   5.430   0.239
 3060SOL    HW110079   1.455   5.449   0.249
 3060SOL    HW210080   1.345   5.335   0.211
 3061SOL     OW10081   0.056   6.769   5.405
 3061SOL    HW110082   0.010   6.857   5.420
 3061SOL    HW210083   0.145   6.785   5.364
 3062SOL     OW10084   2.307   0.256   0.582
 3062SOL    HW110085   2.324   0.182   0.517
 3062SOL    HW210086   2.214   0.290   0.571
 3063SOL     OW10087   2.338   4.600   1.693
 3063SOL    HW110088   2.404   4.642   1.755
 3063SOL    HW210089   2.264   4.558   1.746
 3064SOL     OW10090   4.824   3.802   1.819
 3064SOL    HW110091   4.740   3.781   1.767
 3064SOL    HW210092   4.900   3.811   1.755
 3065SOL     OW10093   1.786   1.360   0.148
 3065SOL    HW110094   1.829   1.273   0.125
 3065SOL    HW210095   1.829   1.434   0.097
 3066SOL     OW10096   4.617   4.884   0.850
 3066SOL    HW110097   4.702   4.836   0.826
 3066SOL    HW210098   4.635   4.948   0.925
 3067SOL     OW10099   3.776   1.425   5.895
 3067SOL    HW110100   3.753   1.464   5.806
 3067SOL    HW210101   3.728   1.338   5.907
 3068SOL     OW10102   6.708   0.414   0.420
 3068SOL    HW110103   6.748   0.415   0.329
 3068SOL    HW210104   6.626   0.357   0.420
 3069SOL     OW10105   6.630   5.953   1.724
 3069SOL    HW110106   6.681   6.027   1.679
 3069SOL    HW210107   6.608   5.980   1.818
 3070SOL     OW10108   2.747   1.321   6.710
 3070SOL    HW110109   2.723   1.248   6.645
 3070SOL    HW210110   2.806   1.388   6.664
 3071SOL     OW10111   6.543   6.207   3.423
 3071SOL    HW110112   6.578   6.269   3.494
 3071SOL    HW210113   6.564   6.112   3.449
 3072SOL     OW10114   2.724   6.167   6.540
 3072SOL    HW110115   2.762   6.095   6.483
 3072SOL    HW210116   2.753   6.153   6.635
 3073SOL     OW10117   5.895   2.888   4.814
 3073SOL    HW110118   5.843   2.804   4.830
 3073SOL    HW210119   5.873   2.956   4.884
 3074SOL     OW10120   6.190   3.768   0.768
 3074SOL    HW110121   6.125   3.818   0.710
 3074SOL    HW210122   6.245   3.833   0.821
 3075SOL     OW10123   2.548   5.337   1.673
 3075SOL    HW110124   2.517   5.320   1.580
 3075SOL    HW210125   2.487   5.291   1.738
 3076SOL     OW10126   6.452   0.351   4.057
 3076SOL    HW110127   6.437   0.358   3.958
 3076SOL    HW210128   6.503   0.431   4.089
 3077SOL     OW10129   5.621   4.974   1.053
 3077SOL    HW110130   5.640   5.071   1.062
 3077SOL    HW210131   5.658   4.925   1.132
 3078SOL     OW10132   0.328   2.507   2.937
 3078SOL    HW110133   0.283   2.504   2.848
 3078SOL    HW210134   0.259   2.500   3.009
 3079SOL     OW10135   2.525   2.565   2.816
 3079SOL    HW110136   2.425   2.574   2.814
 3079SOL    HW210137   2.563   2.597   2.730
 3080SOL     OW10138   4.987   5.224   2.320
 3080SOL    HW110139   4.931   5.306   2.309
 3080SOL    HW210140   4.938   5.145   2.283
 3081SOL     OW10141   0.445   2.719   5.335
 3081SOL    HW110142   0.511   2.748   5.266
 3081SOL    HW210143   0.491   2.707   5.423
 3082SOL     OW10144   2.885   5.913   3.544
 3082SOL    HW110145   2.835   5.843   3.493
 3082SOL    HW210146   2.896   5.885   3.639
 3083SOL     OW10147   2.879   6.434   3.890
 3083SOL    HW110148   2.863   6.350   3.943
 3083SOL    HW210149   2.954   6.485   3.931
 3084SOL     OW10150   6.359   3.373   4.377
 3084SOL    HW110151   6.259   3.372   4.373
 3084SOL    HW210152   6.391   3.462   4.409
 3085SOL     OW10153   5.865   4.268   0.568
 3085SOL    HW110154   5.832   4.302   0.656
 3085SOL    HW210155   5.798   4.204   0.529
 3086SOL     OW10156   4.580   1.878   1.192
 3086SOL    HW110157   4.504   1.883   1.257
 3086SOL    HW210158   4.551   1.828   1.111
 3087SOL     OW10159   1.702   5.877   4.139
 3087SOL    HW110160   1.607   5.845   4.149
 3087SOL    HW210161   1.704   5.955   4.077
 3088SOL     OW10162   2.444   4.737   4.634
 3088SOL    HW110163   2.433   4.784   4.722
 3088SOL    HW210164   2.358   4.742   4.583
 3089SOL     OW10165   1.943   3.030   5.687
 3089SOL    HW110166   2.002   3.047   5.608
 3089SOL    HW210167   1.902   2.939   5.679
 3090SOL     OW10168   2.441   2.280   1.764
 3090SOL    HW110169   2.422   2.194   1.717
 3090SOL    HW210170   2.540   2.289   1.779
 3091SOL     OW10171   1.970   6.873   1.324
 3091SOL    HW110172   2.052   6.894   1.272
 3091SOL    HW210173   1.982   6.785   1.370
 3092SOL     OW10174   5.042   1.336   0.584
 3092SOL    HW110175   5.115   1.391   0.626
 3092SOL    HW210176   5.080   1.283   0.508
 3093SOL     OW10177   5.240   6.618   6.608
 3093SOL    HW110178   5.284   6.694   6.656
 3093SOL    HW210179   5.307   6.545   6.593
 3094SOL     OW10180   2.137   6.874   4.209
 3094SOL    HW110181   2.178   6.881   4.299
 3094SOL    HW210182   2.151   6.781   4.173
 3095SOL     OW10183   2.421   4.967   5.160
 3095SOL    HW110184   2.355   4.945   5.233
 3095SOL    HW210185   2.487   4.893   5.152
 3096SOL     OW10186   0.671   5.514   5.620
 3096SOL    HW110187   0.708   5.596   5.575
 3096SOL    HW210188   0.747   5.454   5.647
 3097SOL     OW10189   5.512   2.075   0.186
 3097SOL    HW110190   5.412   2.084   0.190
 3097SOL    HW210191   5.544   2.025   0.266
 3098SOL     OW10192   2.226   2.716   1.958
 3098SOL    HW110193   2.178   2.797   1.925
 3098SOL    HW210194   2.258   2.733   2.052
 3099SOL     OW10195   1.019   0.074   3.609
 3099SOL    HW110196   0.987   7.018   3.658
 3099SOL    HW210197   1.059   0.046   3.521
 3100SOL     OW10198   0.078   5.902   3.334
 3100SOL    HW110199   0.126   5.983   3.301
 3100SOL    HW210200   0.125   5.865   3.414
 3101SOL     OW10201   5.867   6.277   0.268
 3101SOL    HW110202   5.885   6.371   0.237
 3101SOL    HW210203   5.878   6.272   0.367
 3102SOL     OW10204   6.616   5.440   2.721
 3102SOL    HW110205   6.598   5.454   2.818
 3102SOL    HW210206   6.653   5.524   2.681
 3103SOL     OW10207   4.647   0.704   2.280
 3103SOL    HW110208   4.670   0.800   2.296
 3103SOL    HW210209   4.702   0.668   2.206
 3104SOL     OW10210   5.254   1.291   5.349
 3104SOL    HW110211   5.158   1.266   5.332
 3104SOL    HW210212   5.291   1.339   5.270
 3105SOL     OW10213   5.301   4.381   1.057
 3105SOL    HW110214   5.224   4.387   1.119
 3105SOL    HW210215   5.276   4.419   0.968
 3106SOL     OW10216   4.774   0.859   3.578
 3106SOL    HW110217   4.727   0.877   3.491
 3106SOL    HW210218   4.813   0.767   3.576
 3107SOL     OW10219   4.548   1.785   5.147
 3107SOL    HW110220   4.615   1.858   5.131
 3107SOL    HW210221   4.496   1.770   5.063
 3108SOL     OW10222   1.992   6.268   4.094
 3108SOL    HW110223   1.982   6.208   4.174
 3108SOL    HW210224   1.999   6.212   4.011
 3109SOL     OW10225   5.352   6.226   3.764
 3109SOL    HW110226   5.397   6.311   3.737
 3109SOL    HW210227   5.379   6.153   3.700
 3110SOL     OW10228   0.766   2.826   2.594
 3110SOL    HW110229   0.675   2.856   2.622
 3110SOL    HW210230   0.819   2.798   2.674
 3111SOL     OW10231   0.240   5.154   3.329
 3111SOL    HW110232   0.202   5.105   3.408
 3111SOL    HW210233   0.318   5.103   3.292
 3112SOL     OW10234   4.266   3.187   6.867
 3112SOL    HW110235   4.308   3.178   6.957
 3112SOL    HW210236   4.249   3.096   6.829
 3113SOL     OW10237   2.719   5.034   3.474
 3113SOL    HW110238   2.788   5.100   3.504
 3113SOL    HW210239   2.764   4.953   3.438
 3114SOL     OW10240   4.174   2.173   0.337
 3114SOL    HW110241   4.093   2.132   0.379
 3114SOL    HW210242   4.160   2.271   0.326
 3115SOL     OW10243   4.089   4.321   5.996
 3115SOL    HW110244   4.122   4.237   6.040
 3115SOL    HW210245   4.164   4.386   5.988
 3116SOL     OW10246   0.060   2.939   6.934
 3116SOL    HW110247   0.049   2.851   6.979
 3116SOL    HW210248   6.996   2.978   6.913
 3117SOL     OW10249   4.407   3.462   5.341
 3117SOL    HW110250   4.507   3.457   5.336
 3117SOL    HW210251   4.379   3.555   5.362
 3118SOL     OW10252   0.977   5.229   2.117
 3118SOL    HW110253   0.940   5.316   2.083
 3118SOL    HW210254   1.076   5.230   2.110
 3119SOL     OW10255   2.580   3.341   6.279
 3119SOL    HW110256   2.598   3.351   6.377
 3119SOL    HW210257   2.566   3.244   6.257
 3120SOL     OW10258   3.643   0.480   5.211
 3120SOL    HW110259   3.710   0.546   5.179
 3120SOL    HW210260   3.609   0.508   5.302
 3121SOL     OW10261   0.627   0.911   3.623
 3121SOL    HW110262   0.619   0.990   3.683
 3121SOL    HW210263   0.572   0.926   3.541
 3122SOL     OW10264   4.566   5.866   6.444
 3122SOL    HW110265   4.497   5.922   6.399
 3122SOL    HW210266   4.534   5.772   6.452
 3123SOL     OW10267   1.800   1.410   3.153
 3123SOL    HW110268   1.767   1.501   3.179
 3123SOL    HW210269   1.768   1.388   3.061
 3124SOL     OW10270   5.417   0.243   4.511
 3124SOL    HW110271   5.509   0.204   4.508
 3124SOL    HW210272   5.370   0.212   4.593
 3125SOL     OW10273   0.650   2.732   4.640
 3125SOL    HW110274   0.723   2.749   4.706
 3125SOL    HW210275   0.568   2.701   4.689
 3126SOL     OW10276   5.519   4.146   5.572
 3126SOL    HW110277   5.592   4.141   5.504
 3126SOL    HW210278   5.559   4.153   5.664
 3127SOL     OW10279   0.814   3.242   5.359
 3127SOL    HW110280   0.785   3.193   5.277
 3127SOL    HW210281   0.912   3.225   5.375
 3128SOL     OW10282   2.670   0.223   6.318
 3128SOL    HW110283   2.686   0.252   6.412
 3128SOL    HW210284   2.737   0.266   6.258
 3129SOL     OW10285   6.459   3.746   0.012
 3129SOL    HW110286   6.437   3.833   6.995
 3129SOL    HW210287   6.558   3.740   0.029
 3130SOL     OW10288   1.647   4.337   1.482
 3130SOL    HW110289   1.612   4.417   1.432
 3130SOL    HW210290   1.729   4.303   1.436
 3131SOL     OW10291   0.563   3.265   1.997
 3131SOL    HW110292   0.542   3.348   1.945
 3131SOL    HW210293   0.485   3.203   1.994
 3132SOL     OW10294   3.956   6.154   6.214
 3132SOL    HW110295   3.873   6.110   6.248
 3132SOL    HW210296   3.932   6.227   6.150
 3133SOL     OW10297   3.061   1.217   3.532
 3133SOL    HW110298   3.072   1.122   3.501
 3133SOL    HW210299   3.124   1.276   3.481
 3134SOL     OW10300   4.668   4.269   1.716
 3134SOL    HW110301   4.601   4.303   1.781
 3134SOL    HW210302   4.692   4.175   1.738
 3135SOL     OW10303   4.817   1.464   4.916
 3135SOL    HW110304   4.804   1.395   4.845
 3135SOL    HW210305   4.904   1.448   4.963
 3136SOL     OW10306   5.486   0.680   1.725
 3136SOL    HW110307   5.478   0.690   1.626
 3136SOL    HW210308   5.397   0.656   1.763
 3137SOL     OW10309   6.749   0.636   2.339
 3137SOL    HW110310   6.809   0.688   2.401
 3137SOL    HW210311   6.713   0.556   2.387
 3138SOL     OW10312   5.967   4.629   3.509
 3138SOL    HW110313   6.024   4.674   3.441
 3138SOL    HW210314   5.937   4.539   3.475
 3139SOL     OW10315   4.606   6.260   0.892
 3139SOL    HW110316   4.530   6.228   0.950
 3139SOL    HW210317   4.578   6.344   0.846
 3140SOL     OW10318   6.558   0.168   0.143
 3140SOL    HW110319   6.480   0.230   0.134
 3140SOL    HW210320   6.633   0.216   0.189
 3141SOL     OW10321   0.680   0.070   6.814
 3141SOL    HW110322   0.592   0.071   6.862
 3141SOL    HW210323   0.663   0.075   6.715
 3142SOL     OW10324   3.662   7.015   2.147
 3142SOL    HW110325   3.724   0.066   2.167
 3142SOL    HW210326   3.702   6.930   2.181
 3143SOL     OW10327   6.641   2.436   6.827
 3143SOL    HW110328   6.637   2.421   6.728
 3143SOL    HW210329   6.548   2.438   6.864
 3144SOL     OW10330   3.742   4.018   1.584
 3144SOL    HW110331   3.789   3.969   1.511
 3144SOL    HW210332   3.801   4.023   1.664
 3145SOL     OW10333   2.096   6.116   1.183
 3145SOL    HW110334   2.023   6.151   1.242
 3145SOL    HW210335   2.162   6.065   1.238
 3146SOL     OW10336   1.579   0.579   3.971
 3146SOL    HW110337   1.553   0.524   3.892
 3146SOL    HW210338   1.570   0.524   4.055
 3147SOL     OW10339   3.530   5.798   1.564
 3147SOL    HW110340   3.556   5.893   1.544
 3147SOL    HW210341   3.455   5.770   1.503
 3148SOL     OW10342   5.985   5.985   4.131
 3148SOL    HW110343   6.013   6.044   4.207
 3148SOL    HW210344   5.900   6.020   4.091
 3149SOL     OW10345   2.849   1.217   5.214
 3149SOL    HW110346   2.913   1.243   5.287
 3149SOL    HW210347   2.763   1.186   5.254
 3150SOL     OW10348   5.953   5.126   4.030
 3150SOL    HW110349   6.014   5.171   4.096
 3150SOL    HW210350   5.915   5.194   3.968
 3151SOL     OW10351   6.642   1.330   5.416
 3151SOL    HW110352   6.636   1.348   5.515
 3151SOL    HW210353   6.582   1.253   5.393
 3152SOL     OW10354   1.076   5.676   0.888
 3152SOL    HW110355   1.046   5.605   0.823
 3152SOL    HW210356   1.104   5.757   0.838
 3153SOL     OW10357   6.070   4.725   0.750
 3153SOL    HW110358   6.031   4.671   0.824
 3153SOL    HW210359   6.024   4.814   0.745
 3154SOL     OW10360   6.629   1.832   6.492
 3154SOL    HW110361   6.697   1.866   6.557
 3154SOL    HW210362   6.674   1.807   6.406
 3155SOL     OW10363   6.695   4.441   0.573
 3155SOL    HW110364   6.692   4.342   0.585
 3155SOL    HW210365   6.635   4.484   0.641
 3156SOL     OW10366   3.453   3.009   3.348
 3156SOL    HW110367   3.485   2.933   3.291
 3156SOL    HW210368   3.417   2.973   3.434
 3157SOL     OW10369   2.859   1.987   5.041
 3157SOL    HW110370   2.874   2.079   5.006
 3157SOL    HW210371   2.945   1.937   5.041
 3158SOL     OW10372   3.754   1.113   3.576
 3158SOL    HW110373   3.795   1.159   3.497
 3158SOL    HW210374   3.675   1.164   3.607
 3159SOL     OW10375   6.346   2.171   6.954
 3159SOL    HW110376   6.303   2.261   6.947
 3159SOL    HW210377   6.410   2.170   0.004
 3160SOL     OW10378   0.350   6.236   5.289
 3160SOL    HW110379   0.304   6.275   5.369
 3160SOL    HW210380   0.283   6.224   5.216
 3161SOL     OW10381   1.852   2.450   3.493
 3161SOL    HW110382   1.832   2.519   3.563
 3161SOL    HW210383   1.786   2.457   3.419
 3162SOL     OW10384   0.988   6.649   2.060
 3162SOL    HW110385   0.962   6.578   1.994
 3162SOL    HW210386   1.066   6.616   2.114
 3163SOL     OW10387   4.696   2.887   6.251
 3163SOL    HW110388   4.616   2.894   6.191
 3163SOL    HW210389   4.778   2.873   6.196
 3164SOL     OW10390   4.080   4.962   1.090
 3164SOL    HW110391   3.994   4.922   1.122
 3164SOL    HW210392   4.060   5.035   1.024
 3165SOL     OW10393   0.327   6.418   1.107
 3165SOL    HW110394   0.405   6.465   1.148
 3165SOL    HW210395   0.361   6.343   1.050
 3166SOL     OW10396   4.224   1.706   4.133
 3166SOL    HW110397   4.259   1.758   4.056
 3166SOL    HW210398   4.155   1.760   4.182
 3167SOL     OW10399   6.528   4.567   0.806
 3167SOL    HW110400   6.622   4.583   0.836
 3167SOL    HW210401   6.486   4.655   0.784
 3168SOL     OW10402   4.496   2.724   6.388
 3168SOL    HW110403   4.578   2.763   6.345
 3168SOL    HW210404   4.500   2.738   6.486
 3169SOL     OW10405   2.164   3.629   4.105
 3169SOL    HW110406   2.218   3.615   4.188
 3169SOL    HW210407   2.174   3.549   4.045
 3170SOL     OW10408   4.409   6.712   1.463
 3170SOL    HW110409   4.329   6.663   1.429
 3170SOL    HW210410   4.489   6.687   1.408
 3171SOL     OW10411   0.345   0.701   1.835
 3171SOL    HW110412   0.444   0.692   1.820
 3171SOL    HW210413   0.298   0.699   1.747
 3172SOL     OW10414   6.409   5.617   0.478
 3172SOL    HW110415   6.345   5.653   0.410
 3172SOL    HW210416   6.500   5.653   0.459
 3173SOL     OW10417   2.769   1.962   0.586
 3173SOL    HW110418   2.695   1.908   0.626
 3173SOL    HW210419   2.731   2.024   0.517
 3174SOL     OW10420   2.623   2.493   0.326
 3174SOL    HW110421   2.548   2.470   0.389
 3174SOL    HW210422   2.591   2.559   0.258
 3175SOL     OW10423   6.788   0.799   1.341
 3175SOL    HW110424   6.748   0.870   1.398
 3175SOL    HW210425   6.715   0.745   1.299
 3176SOL     OW10426   1.756   3.811   5.221
 3176SOL    HW110427   1.783   3.883   5.157
 3176SOL    HW210428   1.833   3.750   5.236
 3177SOL     OW10429   4.925   3.793   4.281
 3177SOL    HW110430   4.903   3.765   4.374
 3177SOL    HW210431   4.898   3.889   4.267
 3178SOL     OW10432   6.455   2.152   0.972
 3178SOL    HW110433   6.356   2.139   0.965
 3178SOL    HW210434   6.475   2.247   0.998
 3179SOL     OW10435   1.036   2.997   2.464
 3179SOL    HW110436   1.037   2.941   2.381
 3179SOL    HW210437   1.006   2.941   2.542
 3180SOL     OW10438   4.247   1.240   0.214
 3180SOL    HW110439   4.253   1.210   0.119
 3180SOL    HW210440   4.331   1.214   0.262
 3181SOL     OW10441   6.942   1.475   3.266
 3181SOL    HW110442   6.996   1.538   3.210
 3181SOL    HW210443   6.848   1.475   3.234
 3182SOL     OW10444   3.343   0.427   5.740
 3182SOL    HW110445   3.397   0.409   5.823
 3182SOL    HW210446   3.319   0.524   5.737
 3183SOL     OW10447   4.100   4.157   1.708
 3183SOL    HW110448   4.049   4.082   1.751
 3183SOL    HW210449   4.193   4.160   1.745
 3184SOL     OW10450   0.728   2.614   2.946
 3184SOL    HW110451   0.635   2.647   2.965
 3184SOL    HW210452   0.726   2.555   2.866
 3185SOL     OW10453   5.966   5.830   7.025
 3185SOL    HW110454   5.931   5.750   0.048
 3185SOL    HW210455   6.042   5.801   6.966
 3186SOL     OW10456   3.807   1.271   1.958
 3186SOL    HW110457   3.766   1.199   2.014
 3186SOL    HW210458   3.735   1.316   1.904
 3187SOL     OW10459   4.843   4.260   6.976
 3187SOL    HW110460   4.943   4.263   6.971
 3187SOL    HW210461   4.816   4.230   0.042
 3188SOL     OW10462   2.296   0.558   4.378
 3188SOL    HW110463   2.247   0.488   4.326
 3188SOL    HW210464   2.320   0.522   4.468
 3189SOL     OW10465   1.516   1.156   1.492
 3189SOL    HW110466   1.485   1.072   1.448
 3189SOL    HW210467   1.446   1.227   1.481
 3190SOL     OW10468   6.854   6.502   0.773
 3190SOL    HW110469   6.890   6.583   0.728
 3190SOL    HW210470   6.930   6.450   0.812
 3191SOL     OW10471   5.330   6.687   0.856
 3191SOL    HW110472   5.344   6.743   0.774
 3191SOL    HW210473   5.412   6.633   0.874
 3192SOL     OW10474   0.083   2.500   1.763
 3192SOL    HW110475   7.019   2.480   1.805
 3192SOL    HW210476   0.073   2.576   1.699
 3193SOL     OW10477   3.200   1.631   6.738
 3193SOL    HW110478   3.242   1.602   6.652
 3193SOL    HW210479   3.245   1.585   6.814
 3194SOL     OW10480   1.720   2.374   6.279
 3194SOL    HW110481   1.630   2.396   6.318
 3194SOL    HW210482   1.783   2.450   6.296
 3195SOL     OW10483   2.622   2.345   3.528
 3195SOL    HW110484   2.632   2.405   3.449
 3195SOL    HW210485   2.692   2.274   3.526
 3196SOL     OW10486   0.684   1.523   6.381
 3196SOL    HW110487   0.635   1.519   6.294
 3196SOL    HW210488   0.627   1.487   6.454
 3197SOL     OW10489   2.513   6.551   3.279
 3197SOL    HW110490   2.478   6.458   3.289
 3197SOL    HW210491   2.608   6.548   3.249
 3198SOL     OW10492   5.587   2.648   5.241
 3198SOL    HW110493   5.562   2.554   5.264
 3198SOL    HW210494   5.674   2.671   5.285
 3199SOL     OW10495   4.765   2.840   2.590
 3199SOL    HW110496   4.784   2.931   2.554
 3199SOL    HW210497   4.714   2.787   2.522
 3200SOL     OW10498   6.174   2.930   2.120
 3200SOL    HW110499   6.159   2.922   2.218
 3200SOL    HW210500   6.269   2.908   2.098
 3201SOL     OW10501   5.483   4.764   4.555
 3201SOL    HW110502   5.551   4.703   4.596
 3201SOL    HW210503   5.530   4.835   4.503
 3202SOL     OW10504   6.861   4.654   1.578
 3202SOL    HW110505   6.891   4.560   1.560
 3202SOL    HW210506   6.821   4.659   1.670
 3203SOL     OW10507   6.397   2.469   6.927
 3203SOL    HW110508   6.399   2.569   6.929
 3203SOL    HW210509   6.350   2.435   7.008
 3204SOL     OW10510   4.982   6.552   1.885
 3204SOL    HW110511   5.023   6.556   1.976
 3204SOL    HW210512   4.891   6.593   1.887
 3205SOL     OW10513   6.722   3.337   6.281
 3205SOL    HW110514   6.787   3.413   6.285
 3205SOL    HW210515   6.743   3.271   6.353
 3206SOL     OW10516   0.936   6.551   5.813
 3206SOL    HW110517   0.997   6.598   5.748
 3206SOL    HW210518   0.975   6.556   5.905
 3207SOL     OW10519   0.710   0.680   5.570
 3207SOL    HW110520   0.744   0.601   5.519
 3207SOL    HW210521   0.641   0.650   5.635
 3208SOL     OW10522   5.378   6.754   5.587
 3208SOL    HW110523   5.406   6.659   5.602
 3208SOL    HW210524   5.279   6.758   5.575
 3209SOL     OW10525   3.841   5.856   2.755
 3209SOL    HW110526   3.906   5.911   2.703
 3209SOL    HW210527   3.861   5.866   2.853
 3210SOL     OW10528   1.051   4.333   1.190
 3210SOL    HW110529   0.973   4.347   1.251
 3210SOL    HW210530   1.119   4.276   1.237
 3211SOL     OW10531   1.359   4.123   1.156
 3211SOL    HW110532   1.274   4.123   1.209
 3211SOL    HW210533   1.436   4.108   1.218
 3212SOL     OW10534   2.895   0.727   1.011
 3212SOL    HW110535   2.901   0.800   1.079
 3212SOL    HW210536   2.964   0.657   1.030
 3213SOL     OW10537   0.596   5.747   2.034
 3213SOL    HW110538   0.564   5.696   2.115
 3213SOL    HW210539   0.598   5.686   1.955
 3214SOL     OW10540   4.888   5.557   0.497
 3214SOL    HW110541   4.892   5.648   0.539
 3214SOL    HW210542   4.806   5.510   0.529
 3215SOL     OW10543   6.867   3.296   1.049
 3215SOL    HW110544   6.809   3.296   1.131
 3215SOL    HW210545   6.813   3.327   0.970
 3216SOL     OW10546   6.044   4.950   0.984
 3216SOL    HW110547   5.980   5.014   1.026
 3216SOL    HW210548   6.076   4.885   1.052
 3217SOL     OW10549   0.160   6.007   2.510
 3217SOL    HW110550   0.092   6.056   2.456
 3217SOL    HW210551   0.143   5.909   2.503
 3218SOL     OW10552   4.164   1.063   3.499
 3218SOL    HW110553   4.181   1.118   3.581
 3218SOL    HW210554   4.142   0.969   3.526
 3219SOL     OW10555   0.091   1.537   3.473
 3219SOL    HW110556   0.024   1.499   3.409
 3219SOL    HW210557   0.135   1.616   3.433
 3220SOL     OW10558   6.132   6.172   5.983
 3220SOL    HW110559   6.165   6.088   5.939
 3220SOL    HW210560   6.210   6.231   6.003
 3221SOL     OW10561   3.497   0.533   1.379
 3221SOL    HW110562   3.507   0.434   1.371
 3221SOL    HW210563   3.585   0.574   1.403
 3222SOL     OW10564   4.246   1.819   2.618
 3222SOL    HW110565   4.273   1.893   2.680
 3222SOL    HW210566   4.248   1.853   2.523
 3223SOL     OW10567   1.766   5.146   6.532
 3223SOL    HW110568   1.684   5.133   6.588
 3223SOL    HW210569   1.758   5.232   6.481
 3224SOL     OW10570   4.595   3.841   0.121
 3224SOL    HW110571   4.564   3.784   0.045
 3224SOL    HW210572   4.695   3.842   0.124
 3225SOL     OW10573   4.892   3.709   6.366
 3225SOL    HW110574   4.990   3.722   6.384
 3225SOL    HW210575   4.862   3.776   6.298
 3226SOL     OW10576   2.318   1.656   4.319
 3226SOL    HW110577   2.352   1.602   4.242
 3226SOL    HW210578   2.252   1.603   4.371
 3227SOL     OW10579   4.061   2.534   0.033
 3227SOL    HW110580   4.019   2.466   6.998
 3227SOL    HW210581   3.994   2.567   0.099
 3228SOL     OW10582   6.468   4.259   2.669
 3228SOL    HW110583   6.465   4.359   2.666
 3228SOL    HW210584   6.416   4.222   2.592
 3229SOL     OW10585   3.836   0.606   5.518
 3229SOL    HW110586   3.886   0.523   5.543
 3229SOL    HW210587   3.773   0.630   5.592
 3230SOL     OW10588   1.811   3.098   4.352
 3230SOL    HW110589   1.842   3.193   4.344
 3230SOL    HW210590   1.713   3.093   4.337
 3231SOL     OW10591   2.473   0.737   1.820
 3231SOL    HW110592   2.561   0.760   1.862
 3231SOL    HW210593   2.488   0.703   1.727
 3232SOL     OW10594   4.625   5.374   5.377
 3232SOL    HW110595   4.556   5.374   5.449
 3232SOL    HW210596   4.581   5.357   5.288
 3233SOL     OW10597   0.842   3.048   1.905
 3233SOL    HW110598   0.751   3.008   1.901
 3233SOL    HW210599   0.871   3.057   2.000
 3234SOL     OW10600   0.216   1.915   7.015
 3234SOL    HW110601   0.146   1.982   6.990
 3234SOL    HW210602   0.276   1.898   6.937
 3235SOL     OW10603   5.495   0.848   1.414
 3235SOL    HW110604   5.514   0.895   1.501
 3235SOL    HW210605   5.482   0.916   1.342
 3236SOL     OW10606   0.923   3.760   1.047
 3236SOL    HW110607   0.969   3.680   1.087
 3236SOL    HW210608   0.827   3.760   1.073
 3237SOL     OW10609   4.824   1.399   4.098
 3237SOL    HW110610   4.822   1.379   4.196
 3237SOL    HW210611   4.843   1.316   4.047
 3238SOL     OW10612   7.025   4.944   0.798
 3238SOL    HW110613   0.045   4.943   0.709
 3238SOL    HW210614   0.008   5.035   0.839
 3239SOL     OW10615   6.487   1.530   1.783
 3239SOL    HW110616   6.428   1.602   1.745
 3239SOL    HW210617   6.582   1.560   1.778
 3240SOL     OW10618   1.031   0.127   6.001
 3240SOL    HW110619   1.098   0.065   5.960
 3240SOL    HW210620   0.965   0.156   5.931
 3241SOL     OW10621   4.355   1.901   5.527
 3241SOL    HW110622   4.288   1.972   5.547
 3241SOL    HW210623   4.319   1.842   5.454
 3242SOL     OW10624   3.419   4.433   0.197
 3242SOL    HW110625   3.351   4.364   0.175
 3242SOL    HW210626   3.485   4.440   0.122
 3243SOL     OW10627   5.148   4.707   0.257
 3243SOL    HW110628   5.180   4.767   0.184
 3243SOL    HW210629   5.108   4.624   0.217
 3244SOL     OW10630   5.156   5.952   6.947
 3244SOL    HW110631   5.253   5.971   6.936
 3244SOL    HW210632   5.108   5.970   6.861
 3245SOL     OW10633   4.924   3.039   5.131
 3245SOL    HW110634   4.909   2.969   5.061
 3245SOL    HW210635   4.835   3.068   5.167
 3246SOL     OW10636   5.505   0.490   2.311
 3246SOL    HW110637   5.535   0.462   2.402
 3246SOL    HW210638   5.434   0.560   2.319
 3247SOL     OW10639   5.624   4.481   2.609
 3247SOL    HW110640   5.548   4.522   2.559
 3247SOL    HW210641   5.590   4.435   2.690
 3248SOL     OW10642   6.475   3.413   0.657
 3248SOL    HW110643   6.484   3.512   0.643
 3248SOL    HW210644   6.537   3.384   0.730
 3249SOL     OW10645   3.839   2.980   4.347
 3249SOL    HW110646   3.917   3.032   4.313
 3249SOL    HW210647   3.842   2.978   4.447
 3250SOL     OW10648   6.239   6.441   2.227
 3250SOL    HW110649   6.179   6.503   2.278
 3250SOL    HW210650   6.253   6.357   2.281
 3251SOL     OW10651   3.263   0.963   2.682
 3251SOL    HW110652   3.217   1.021   2.615
 3251SOL    HW210653   3.218   0.874   2.686
 3252SOL     OW10654   2.552   2.165   2.658
 3252SOL    HW110655   2.549   2.202   2.751
 3252SOL    HW210656   2.459   2.158   2.622
 3253SOL     OW10657   5.555   3.112   1.980
 3253SOL    HW110658   5.472   3.123   1.926
 3253SOL    HW210659   5.547   3.164   2.065
 3254SOL     OW10660   5.016   5.278   5.164
 3254SOL    HW110661   4.974   5.366   5.184
 3254SOL    HW210662   4.964   5.205   5.210
 3255SOL     OW10663   5.303   5.478   0.450
 3255SOL    HW110664   5.326   5.549   0.517
 3255SOL    HW210665   5.206   5.482   0.429
 3256SOL     OW10666   4.128   0.588   0.148
 3256SOL    HW110667   4.032   0.590   0.176
 3256SOL    HW210668   4.133   0.563   0.051
 3257SOL     OW10669   1.743   1.525   1.384
 3257SOL    HW110670   1.687   1.548   1.463
 3257SOL    HW210671   1.758   1.607   1.328
 3258SOL     OW10672   4.190   4.702   1.800
 3258SOL    HW110673   4.257   4.644   1.846
 3258SOL    HW210674   4.135   4.647   1.737
 3259SOL     OW10675   4.434   5.134   3.726
 3259SOL    HW110676   4.455   5.110   3.631
 3259SOL    HW210677   4.513   5.111   3.784
 3260SOL     OW10678   1.730   1.797   0.898
 3260SOL    HW110679   1.656   1.730   0.897
 3260SOL    HW210680   1.693   1.888   0.918
 3261SOL     OW10681   5.003   6.839   0.681
 3261SOL    HW110682   5.072   6.822   0.611
 3261SOL    HW210683   4.946   6.757   0.692
 3262SOL     OW10684   3.198   2.022   2.383
 3262SOL    HW110685   3.141   2.104   2.388
 3262SOL    HW210686   3.273   2.029   2.448
 3263SOL     OW10687   2.683   1.173   3.609
 3263SOL    HW110688   2.584   1.166   3.622
 3263SOL    HW210689   2.704   1.259   3.562
 3264SOL     OW10690   1.506   4.521   0.804
 3264SOL    HW110691   1.499   4.596   0.738
 3264SOL    HW210692   1.434   4.454   0.788
 3265SOL     OW10693   4.715   1.242   6.233
 3265SOL    HW110694   4.643   1.188   6.189
 3265SOL    HW210695   4.798   1.240   6.176
 3266SOL     OW10696   0.600   3.498   0.632
 3266SOL    HW110697   0.692   3.487   0.668
 3266SOL    HW210698   0.538   3.433   0.676
 3267SOL     OW10699   3.373   1.176   0.420
 3267SOL    HW110700   3.313   1.208   0.493
 3267SOL    HW210701   3.405   1.254   0.366
 3268SOL     OW10702   1.057   4.222   0.478
 3268SOL    HW110703   1.138   4.269   0.513
 3268SOL    HW210704   1.052   4.232   0.379
 3269SOL     OW10705   4.178   5.056   2.652
 3269SOL    HW110706   4.164   4.964   2.686
 3269SOL    HW210707   4.180   5.121   2.728
 3270SOL     OW10708   0.710   4.091   4.744
 3270SOL    HW110709   0.767   4.012   4.765
 3270SOL    HW210710   0.748   4.173   4.788
 3271SOL     OW10711   5.825   3.536   2.562
 3271SOL    HW110712   5.769   3.614   2.532
 3271SOL    HW210713   5.914   3.541   2.518
 3272SOL     OW10714   3.361   4.048   6.300
 3272SOL    HW110715   3.317   4.093   6.222
 3272SOL    HW210716   3.293   3.994   6.350
 3273SOL     OW10717   0.758   6.094   1.514
 3273SOL    HW110718   0.757   6.194   1.519
 3273SOL    HW210719   0.669   6.059   1.542
 3274SOL     OW10720   4.682   1.480   1.376
 3274SOL    HW110721   4.711   1.455   1.284
 3274SOL    HW210722   4.585   1.504   1.375
 3275SOL     OW10723   0.012   1.252   6.472
 3275SOL    HW110724   6.978   1.245   6.551
 3275SOL    HW210725   0.104   1.278   6.501
 3276SOL     OW10726   2.963   5.825   0.316
 3276SOL    HW110727   3.040   5.884   0.292
 3276SOL    HW210728   2.966   5.805   0.414
 3277SOL     OW10729   4.799   6.648   0.622
 3277SOL    HW110730   4.733   6.603   0.681
 3277SOL    HW210731   4.753   6.717   0.566
 3278SOL     OW10732   0.402   1.008   6.210
 3278SOL    HW110733   0.415   1.068   6.289
 3278SOL    HW210734   0.307   0.977   6.208
 3279SOL     OW10735   5.957   1.397   0.562
 3279SOL    HW110736   6.005   1.484   0.572
 3279SOL    HW210737   5.915   1.391   0.472
 3280SOL     OW10738   3.632   5.270   4.654
 3280SOL    HW110739   3.593   5.261   4.563
 3280SOL    HW210740   3.583   5.210   4.718
 3281SOL     OW10741   2.113   5.464   1.789
 3281SOL    HW110742   2.041   5.533   1.792
 3281SOL    HW210743   2.163   5.471   1.702
 3282SOL     OW10744   0.729   4.790   5.503
 3282SOL    HW110745   0.728   4.762   5.599
 3282SOL    HW210746   0.645   4.760   5.459
 3283SOL     OW10747   4.254   1.231   0.700
 3283SOL    HW110748   4.274   1.158   0.765
 3283SOL    HW210749   4.158   1.259   0.710
 3284SOL     OW10750   6.365   5.270   6.665
 3284SOL    HW110751   6.404   5.205   6.731
 3284SOL    HW210752   6.396   5.246   6.573
 3285SOL     OW10753   4.747   2.683   3.921
 3285SOL    HW110754   4.770   2.614   3.852
 3285SOL    HW210755   4.827   2.703   3.976
 3286SOL     OW10756   3.835   3.282   2.243
 3286SOL    HW110757   3.783   3.343   2.304
 3286SOL    HW210758   3.793   3.282   2.153
 3287SOL     OW10759   1.182   6.574   6.956
 3287SOL    HW110760   1.172   6.668   6.989
 3287SOL    HW210761   1.244   6.572   6.878
 3288SOL     OW10762   0.591   5.622   6.261
 3288SOL    HW110763   0.676   5.662   6.226
 3288SOL    HW210764   0.570   5.661   6.351
 3289SOL     OW10765   2.749   6.349   5.391
 3289SOL    HW110766   2.672   6.413   5.397
 3289SOL    HW210767   2.749   6.290   5.472
 3290SOL     OW10768   0.479   6.944   1.819
 3290SOL    HW110769   0.467   6.976   1.914
 3290SOL    HW210770   0.577   6.938   1.799
 3291SOL     OW10771   1.378   6.074   1.052
 3291SOL    HW110772   1.281   6.048   1.062
 3291SOL    HW210773   1.420   6.077   1.143
 3292SOL     OW10774   0.574   0.467   1.180
 3292SOL    HW110775   0.634   0.506   1.250
 3292SOL    HW210776   0.587   0.516   1.094
 3293SOL     OW10777   0.669   3.668   3.342
 3293SOL    HW110778   0.625   3.708   3.262
 3293SOL    HW210779   0.733   3.733   3.381
 3294SOL     OW10780   6.743   1.783   5.852
 3294SOL    HW110781   6.647   1.766   5.874
 3294SOL    HW210782   6.758   1.881   5.838
 3295SOL     OW10783   1.189   3.257   1.718
 3295SOL    HW110784   1.232   3.182   1.768
 3295SOL    HW210785   1.175   3.335   1.779
 3296SOL     OW10786   1.701   6.365   2.071
 3296SOL    HW110787   1.795   6.334   2.079
 3296SOL    HW210788   1.648   6.331   2.149
 3297SOL     OW10789   3.193   0.566   4.555
 3297SOL    HW110790   3.127   0.580   4.628
 3297SOL    HW210791   3.249   0.648   4.544
 3298SOL     OW10792   5.943   1.971   4.354
 3298SOL    HW110793   5.921   1.918   4.272
 3298SOL    HW210794   6.033   1.944   4.388
 3299SOL     OW10795   3.021   5.911   3.835
 3299SOL    HW110796   2.966   5.893   3.916
 3299SOL    HW210797   3.074   5.830   3.811
 3300SOL     OW10798   0.315   1.158   5.543
 3300SOL    HW110799   0.321   1.115   5.453
 3300SOL    HW210800   0.231   1.128   5.588
 3301SOL     OW10801   2.128   3.073   3.416
 3301SOL    HW110802   2.054   3.010   3.438
 3301SOL    HW210803   2.098   3.137   3.345
 3302SOL     OW10804   0.640   5.229   5.688
 3302SOL    HW110805   0.547   5.264   5.671
 3302SOL    HW210806   0.667   5.252   5.782
 3303SOL     OW10807   3.434   3.102   2.150
 3303SOL    HW110808   3.457   3.016   2.103
 3303SOL    HW210809   3.487   3.108   2.235
 3304SOL     OW10810   1.398   5.468   4.353
 3304SOL    HW110811   1.462   5.490   4.279
 3304SOL    HW210812   1.339   5.546   4.370
 3305SOL     OW10813   2.031   1.360   3.314
 3305SOL    HW110814   1.955   1.370   3.249
 3305SOL    HW210815   2.020   1.275   3.365
 3306SOL     OW10816   2.039   5.715   4.761
 3306SOL    HW110817   1.963   5.690   4.822
 3306SOL    HW210818   2.098   5.782   4.806
 3307SOL     OW10819   6.690   5.785   0.178
 3307SOL    HW110820   6.734   5.760   0.092
 3307SOL    HW210821   6.648   5.875   0.168
 3308SOL     OW10822   4.015   6.015   0.148
 3308SOL    HW110823   4.058   5.925   0.142
 3308SOL    HW210824   3.923   6.005   0.185
 3309SOL     OW10825   0.055   5.476   2.452
 3309SOL    HW110826   0.038   5.412   2.527
 3309SOL    HW210827   0.073   5.424   2.368
 3310SOL     OW10828   0.350   4.196   5.247
 3310SOL    HW110829   0.257   4.201   5.283
 3310SOL    HW210830   0.348   4.213   5.149
 3311SOL     OW10831   2.415   3.629   1.457
 3311SOL    HW110832   2.347   3.629   1.385
 3311SOL    HW210833   2.427   3.535   1.491
 3312SOL     OW10834   4.380   4.200   5.830
 3312SOL    HW110835   4.340   4.113   5.859
 3312SOL    HW210836   4.329   4.235   5.751
 3313SOL     OW10837   0.693   5.240   3.354
 3313SOL    HW110838   0.670   5.222   3.449
 3313SOL    HW210839   0.621   5.296   3.312
 3314SOL     OW10840   2.362   1.744   3.725
 3314SOL    HW110841   2.454   1.746   3.687
 3314SOL    HW210842   2.358   1.800   3.808
 3315SOL     OW10843   6.085   3.040   4.593
 3315SOL    HW110844   5.985   3.042   4.598
 3315SOL    HW210845   6.114   2.954   4.552
 3316SOL     OW10846   4.535   2.015   6.264
 3316SOL    HW110847   4.546   1.962   6.348
 3316SOL    HW210848   4.596   1.979   6.194
 3317SOL     OW10849   4.767   3.443   1.652
 3317SOL    HW110850   4.819   3.414   1.571
 3317SOL    HW210851   4.826   3.499   1.711
 3318SOL     OW10852   3.349   0.439   0.396
 3318SOL    HW110853   3.385   0.502   0.327
 3318SOL    HW210854   3.378   0.346   0.373
 3319SOL     OW10855   6.176   0.340   4.138
 3319SOL    HW110856   6.267   0.349   4.098
 3319SOL    HW210857   6.166   0.248   4.177
 3320SOL     OW10858   5.538   1.089   5.147
 3320SOL    HW110859   5.622   1.136   5.121
 3320SOL    HW210860   5.547   0.991   5.126
 3321SOL     OW10861   3.845   2.050   0.776
 3321SOL    HW110862   3.914   2.098   0.830
 3321SOL    HW210863   3.762   2.105   0.772
 3322SOL     OW10864   5.586   3.546   1.154
 3322SOL    HW110865   5.627   3.619   1.099
 3322SOL    HW210866   5.562   3.469   1.095
 3323SOL     OW10867   3.156   3.079   6.742
 3323SOL    HW110868   3.127   3.029   6.824
 3323SOL    HW210869   3.096   3.054   6.665
 3324SOL     OW10870   1.629   3.929   6.398
 3324SOL    HW110871   1.603   4.021   6.430
 3324SOL    HW210872   1.594   3.916   6.306
 3325SOL     OW10873   1.983   3.325   6.506
 3325SOL    HW110874   1.992   3.308   6.408
 3325SOL    HW210875   2.059   3.281   6.555
 3326SOL     OW10876   5.333   1.955   2.529
 3326SOL    HW110877   5.352   1.975   2.433
 3326SOL    HW210878   5.272   1.876   2.535
 3327SOL     OW10879   2.907   5.616   1.839
 3327SOL    HW110880   2.839   5.638   1.769
 3327SOL    HW210881   2.913   5.517   1.850
 3328SOL     OW10882   4.319   1.860   1.354
 3328SOL    HW110883   4.267   1.912   1.287
 3328SOL    HW210884   4.258   1.834   1.430
 3329SOL     OW10885   5.147   0.349   4.992
 3329SOL    HW110886   5.066   0.370   4.938
 3329SOL    HW210887   5.177   0.431   5.040
 3330SOL     OW10888   6.217   5.750   1.608
 3330SOL    HW110889   6.317   5.743   1.603
 3330SOL    HW210890   6.183   5.801   1.530
 3331SOL     OW10891   1.221   3.884   1.459
 3331SOL    HW110892   1.305   3.904   1.509
 3331SOL    HW210893   1.235   3.803   1.401
 3332SOL     OW10894   6.918   4.436   0.322
 3332SOL    HW110895   6.862   4.397   0.249
 3332SOL    HW210896   6.938   4.367   0.390
 3333SOL     OW10897   2.873   4.319   6.589
 3333SOL    HW110898   2.945   4.376   6.627
 3333SOL    HW210899   2.842   4.253   6.657
 3334SOL     OW10900   2.217   3.982   1.416
 3334SOL    HW110901   2.226   4.077   1.445
 3334SOL    HW210902   2.256   3.971   1.324
 3335SOL     OW10903   4.826   0.099   5.809
 3335SOL    HW110904   4.848   0.069   5.717
 3335SOL    HW210905   4.789   0.192   5.806
 3336SOL     OW10906   2.126   6.283   4.504
 3336SOL    HW110907   2.105   6.231   4.587
 3336SOL    HW210908   2.179   6.226   4.441
 3337SOL     OW10909   2.813   3.984   1.441
 3337SOL    HW110910   2.806   4.076   1.403
 3337SOL    HW210911   2.787   3.986   1.538
 3338SOL     OW10912   6.078   2.675   2.108
 3338SOL    HW110913   6.102   2.772   2.103
 3338SOL    HW210914   5.979   2.664   2.105
 3339SOL     OW10915   1.059   6.658   6.278
 3339SOL    HW110916   1.038   6.620   6.368
 3339SOL    HW210917   1.097   6.750   6.288
 3340SOL     OW10918   3.527   2.134   3.186
 3340SOL    HW110919   3.624   2.116   3.174
 3340SOL    HW210920   3.508   2.150   3.283
 3341SOL     OW10921   0.932   4.127   4.263
 3341SOL    HW110922   0.963   4.042   4.221
 3341SOL    HW210923   0.937   4.120   4.362
 3342SOL     OW10924   1.224   6.579   3.799
 3342SOL    HW110925   1.194   6.483   3.804
 3342SOL    HW210926   1.269   6.595   3.712
 3343SOL     OW10927   5.232   3.631   6.807
 3343SOL    HW110928   5.206   3.657   6.714
 3343SOL    HW210929   5.157   3.652   6.870
 3344SOL     OW10930   5.410   3.655   3.577
 3344SOL    HW110931   5.509   3.643   3.589
 3344SOL    HW210932   5.382   3.741   3.618
 3345SOL     OW10933   1.368   3.146   6.223
 3345SOL    HW110934   1.393   3.157   6.127
 3345SOL    HW210935   1.328   3.231   6.257
 3346SOL     OW10936   0.695   0.737   0.038
 3346SOL    HW110937   0.733   0.662   0.092
 3346SOL    HW210938   0.765   0.771   7.000
 3347SOL     OW10939   1.213   2.866   5.110
 3347SOL    HW110940   1.229   2.788   5.170
 3347SOL    HW210941   1.300   2.900   5.076
 3348SOL     OW10942   4.144   3.569   4.303
 3348SOL    HW110943   4.099   3.550   4.215
 3348SOL    HW210944   4.150   3.485   4.356
 3349SOL     OW10945   2.092   5.292   3.136
 3349SOL    HW110946   2.183   5.269   3.170
 3349SOL    HW210947   2.083   5.392   3.127
 3350SOL     OW10948   6.856   2.158   6.123
 3350SOL    HW110949   6.840   2.234   6.187
 3350SOL    HW210950   6.776   2.098   6.123
 3351SOL     OW10951   5.100   0.877   2.967
 3351SOL    HW110952   5.011   0.870   2.920
 3351SOL    HW210953   5.172   0.851   2.903
 3352SOL     OW10954   6.630   3.330   0.875
 3352SOL    HW110955   6.543   3.319   0.923
 3352SOL    HW210956   6.665   3.240   0.848
 3353SOL     OW10957   3.007   5.507   1.423
 3353SOL    HW110958   3.042   5.420   1.457
 3353SOL    HW210959   2.928   5.534   1.478
 3354SOL     OW10960   4.503   2.612   5.872
 3354SOL    HW110961   4.499   2.555   5.791
 3354SOL    HW210962   4.434   2.685   5.865
 3355SOL     OW10963   1.777   1.956   6.167
 3355SOL    HW110964   1.696   1.901   6.145
 3355SOL    HW210965   1.769   1.990   6.261
 3356SOL     OW10966   0.740   5.349   5.915
 3356SOL    HW110967   0.802   5.396   5.853
 3356SOL    HW210968   0.791   5.317   5.995
 3357SOL     OW10969   2.015   3.661   1.871
 3357SOL    HW110970   2.093   3.718   1.894
 3357SOL    HW210971   2.046   3.579   1.823
 3358SOL     OW10972   4.402   1.587   1.356
 3358SOL    HW110973   4.319   1.537   1.332
 3358SOL    HW210974   4.386   1.685   1.342
 3359SOL     OW10975   1.027   6.238   2.953
 3359SOL    HW110976   1.096   6.239   3.026
 3359SOL    HW210977   1.041   6.316   2.893
 3360SOL     OW10978   1.439   1.110   0.078
 3360SOL    HW110979   1.526   1.072   0.048
 3360SOL    HW210980   1.453   1.167   0.159
 3361SOL     OW10981   0.050   5.354   4.440
 3361SOL    HW110982   6.997   5.416   4.452
 3361SOL    HW210983   0.121   5.378   4.506
 3362SOL     OW10984   3.350   1.507   2.778
 3362SOL    HW110985   3.346   1.408   2.793
 3362SOL    HW210986   3.406   1.549   2.849
 3363SOL     OW10987   0.072   1.396   2.355
 3363SOL    HW110988   0.076   1.434   2.447
 3363SOL    HW210989   0.163   1.363   2.329
 3364SOL     OW10990   1.830   4.759   3.553
 3364SOL    HW110991   1.792   4.835   3.501
 3364SOL    HW210992   1.886   4.702   3.492
 3365SOL     OW10993   0.601   2.266   4.685
 3365SOL    HW110994   0.533   2.214   4.634
 3365SOL    HW210995   0.651   2.326   4.622
 3366SOL     OW10996   5.681   5.352   4.167
 3366SOL    HW110997   5.634   5.265   4.157
 3366SOL    HW210998   5.643   5.402   4.245
 3367SOL     OW10999   3.769   3.278   2.624
 3367SOL    HW111000   3.796   3.226   2.544
 3367SOL    HW211001   3.835   3.262   2.698
 3368SOL     OW11002   0.404   5.839   6.810
 3368SOL    HW111003   0.367   5.843   6.717
 3368SOL    HW211004   0.340   5.791   6.870
 3369SOL     OW11005   3.766   1.654   0.636
 3369SOL    HW111006   3.712   1.576   0.670
 3369SOL    HW211007   3.704   1.721   0.596
 3370SOL     OW11008   6.950   6.222   0.962
 3370SOL    HW111009   6.850   6.224   0.953
 3370SOL    HW211010   6.975   6.252   1.054
 3371SOL     OW11011   2.128   2.937   1.596
 3371SOL    HW111012   2.108   2.974   1.687
 3371SOL    HW211013   2.049   2.884   1.564
 3372SOL     OW11014   6.732   2.095   0.094
 3372SOL    HW111015   6.658   2.135   0.148
 3372SOL    HW211016   6.728   1.995   0.100
 3373SOL     OW11017   0.985   1.391   3.838
 3373SOL    HW111018   0.950   1.452   3.766
 3373SOL    HW211019   1.028   1.446   3.909
 3374SOL     OW11020   1.378   6.583   4.655
 3374SOL    HW111021   1.426   6.608   4.570
 3374SOL    HW211022   1.435   6.519   4.707
 3375SOL     OW11023   0.175   4.812   0.158
 3375SOL    HW111024   0.106   4.751   0.118
 3375SOL    HW211025   0.154   4.906   0.133
 3376SOL     OW11026   4.012   3.176   4.244
 3376SOL    HW111027   4.053   3.218   4.325
 3376SOL    HW211028   4.059   3.209   4.162
 3377SOL     OW11029   6.292   5.927   6.115
 3377SOL    HW111030   6.212   5.961   6.165
 3377SOL    HW211031   6.365   5.995   6.118
 3378SOL     OW11032   1.112   0.447   0.788
 3378SOL    HW111033   1.165   0.507   0.849
 3378SOL    HW211034   1.174   0.393   0.732
 3379SOL     OW11035   1.236   1.591   5.614
 3379SOL    HW111036   1.274   1.518   5.558
 3379SOL    HW211037   1.310   1.645   5.654
 3380SOL     OW11038   6.079   6.197   4.284
 3380SOL    HW111039   6.015   6.223   4.355
 3380SOL    HW211040   6.151   6.265   4.276
 3381SOL     OW11041   0.803   2.975   1.451
 3381SOL    HW111042   0.858   2.904   1.494
 3381SOL    HW211043   0.779   2.947   1.359
 3382SOL     OW11044   0.526   2.755   6.956
 3382SOL    HW111045   0.506   2.659   6.977
 3382SOL    HW211046   0.440   2.802   6.936
 3383SOL     OW11047   3.920   5.724   1.409
 3383SOL    HW111048   3.954   5.798   1.351
 3383SOL    HW211049   3.904   5.758   1.502
 3384SOL     OW11050   2.670   3.345   0.308
 3384SOL    HW111051   2.691   3.271   0.244
 3384SOL    HW211052   2.661   3.307   0.401
 3385SOL     OW11053   7.009   3.259   4.773
 3385SOL    HW111054   6.916   3.241   4.741
 3385SOL    HW211055   0.020   3.178   4.819
 3386SOL     OW11056   5.400   4.521   0.384
 3386SOL    HW111057   5.448   4.542   0.469
 3386SOL    HW211058   5.332   4.591   0.366
 3387SOL     OW11059   3.292   0.866   3.302
 3387SOL    HW111060   3.346   0.784   3.323
 3387SOL    HW211061   3.232   0.846   3.225
 3388SOL     OW11062   5.427   3.366   2.649
 3388SOL    HW111063   5.505   3.340   2.706
 3388SOL    HW211064   5.396   3.457   2.675
 3389SOL     OW11065   5.786   6.075   6.156
 3389SOL    HW111066   5.796   6.172   6.132
 3389SOL    HW211067   5.692   6.057   6.183
 3390SOL     OW11068   5.961   6.922   6.180
 3390SOL    HW111069   5.904   6.964   6.110
 3390SOL    HW211070   5.925   6.832   6.203
 3391SOL     OW11071   4.581   2.289   4.575
 3391SOL    HW111072   4.608   2.268   4.669
 3391SOL    HW211073   4.530   2.375   4.573
 3392SOL     OW11074   2.669   0.079   3.452
 3392SOL    HW111075   2.702   0.135   3.528
 3392SOL    HW211076   2.711   7.014   3.456
 3393SOL     OW11077   6.415   6.043   1.380
 3393SOL    HW111078   6.416   6.120   1.444
 3393SOL    HW211079   6.345   6.059   1.310
 3394SOL     OW11080   5.286   3.417   1.171
 3394SOL    HW111081   5.290   3.464   1.259
 3394SOL    HW211082   5.255   3.323   1.184
 3395SOL     OW11083   5.654   2.988   3.752
 3395SOL    HW111084   5.714   2.955   3.679
 3395SOL    HW211085   5.621   2.911   3.806
 3396SOL     OW11086   5.173   1.426   3.729
 3396SOL    HW111087   5.075   1.409   3.718
 3396SOL    HW211088   5.211   1.364   3.798
 3397SOL     OW11089   3.364   6.120   6.094
 3397SOL    HW111090   3.393   6.081   6.181
 3397SOL    HW211091   3.433   6.101   6.024
 3398SOL     OW11092   0.846   0.239   5.191
 3398SOL    HW111093   0.877   0.169   5.127
 3398SOL    HW211094   0.792   0.197   5.264
 3399SOL     OW11095   5.582   4.959   3.606
 3399SOL    HW111096   5.633   4.945   3.521
 3399SOL    HW211097   5.489   4.925   3.596
 3400SOL     OW11098   5.176   3.230   6.609
 3400SOL    HW111099   5.150   3.312   6.558
 3400SOL    HW211100   5.247   3.254   6.676
 3401SOL     OW11101   0.061   3.317   6.769
 3401SOL    HW111102   0.017   3.406   6.784
 3401SOL    HW211103   0.158   3.324   6.790
 3402SOL     OW11104   4.319   5.310   6.764
 3402SOL    HW111105   4.384   5.323   6.839
 3402SOL    HW211106   4.279   5.398   6.739
 3403SOL     OW11107   3.782   5.741   6.421
 3403SOL    HW111108   3.775   5.786   6.332
 3403SOL    HW211109   3.691   5.718   6.455
 3404SOL     OW11110   5.384   2.350   0.788
 3404SOL    HW111111   5.425   2.269   0.830
 3404SOL    HW211112   5.457   2.413   0.760
 3405SOL     OW11113   6.562   3.920   6.028
 3405SOL    HW111114   6.618   3.848   6.069
 3405SOL    HW211115   6.515   3.884   5.948
 3406SOL     OW11116   0.869   3.512   1.913
 3406SOL    HW111117   0.775   3.528   1.881
 3406SOL    HW211118   0.906   3.432   1.867
 3407SOL     OW11119   1.302   4.382   6.416
 3407SOL    HW111120   1.351   4.352   6.334
 3407SOL    HW211121   1.260   4.303   6.461
 3408SOL     OW11122   5.271   3.504   4.656
 3408SOL    HW111123   5.242   3.525   4.563
 3408SOL    HW211124   5.195   3.459   4.705
 3409SOL     OW11125   3.463   6.124   7.015
 3409SOL    HW111126   3.499   6.031   7.020
 3409SOL    HW211127   3.507   6.172   6.938
 3410SOL     OW11128   6.559   6.904   1.524
 3410SOL    HW111129   6.550   6.899   1.425
 3410SOL    HW211130   6.546   6.998   1.555
 3411SOL     OW11131   0.372   3.165   1.243
 3411SOL    HW111132   0.290   3.125   1.203
 3411SOL    HW211133   0.374   3.263   1.223
 3412SOL     OW11134   4.834   2.950   1.201
 3412SOL    HW111135   4.843   3.032   1.259
 3412SOL    HW211136   4.856   2.869   1.255
 3413SOL     OW11137   6.192   2.010   0.957
 3413SOL    HW111138   6.179   2.085   0.892
 3413SOL    HW211139   6.114   2.007   1.019
 3414SOL     OW11140   3.527   1.773   5.982
 3414SOL    HW111141   3.583   1.713   6.040
 3414SOL    HW211142   3.485   1.719   5.909
 3415SOL     OW11143   1.892   3.279   4.033
 3415SOL    HW111144   1.859   3.315   4.120
 3415SOL    HW211145   1.965   3.338   3.998
 3416SOL     OW11146   5.687   6.601   0.751
 3416SOL    HW111147   5.754   6.666   0.787
 3416SOL    HW211148   5.659   6.628   0.659
 3417SOL     OW11149   0.228   5.762   3.550
 3417SOL    HW111150   0.323   5.787   3.570
 3417SOL    HW211151   0.174   5.767   3.634
 3418SOL     OW11152   3.005   5.763   3.308
 3418SOL    HW111153   3.071   5.763   3.384
 3418SOL    HW211154   2.927   5.820   3.333
 3419SOL     OW11155   2.998   5.738   6.019
 3419SOL    HW111156   2.996   5.640   6.038
 3419SOL    HW211157   2.904   5.772   6.009
 3420SOL     OW11158   5.881   3.101   3.422
 3420SOL    HW111159   5.962   3.114   3.364
 3420SOL    HW211160   5.847   3.008   3.411
 3421SOL     OW11161   4.883   1.633   4.435
 3421SOL    HW111162   4.814   1.691   4.392
 3421SOL    HW211163   4.849   1.539   4.442
 3422SOL     OW11164   2.710   0.434   0.365
 3422SOL    HW111165   2.612   0.415   0.360
 3422SOL    HW211166   2.727   0.528   0.334
 3423SOL     OW11167   6.926   4.472   6.733
 3423SOL    HW111168   6.838   4.440   6.769
 3423SOL    HW211169   6.922   4.477   6.634
 3424SOL     OW11170   2.074   6.341   0.794
 3424SOL    HW111171   2.088   6.303   0.885
 3424SOL    HW211172   2.160   6.337   0.743
 3425SOL     OW11173   4.996   4.953   2.588
 3425SOL    HW111174   4.945   5.016   2.530
 3425SOL    HW211175   5.050   4.891   2.531
 3426SOL     OW11176   4.237   2.522   0.547
 3426SOL    HW111177   4.208   2.506   0.453
 3426SOL    HW211178   4.331   2.554   0.548
 3427SOL     OW11179   0.744   1.637   0.945
 3427SOL    HW111180   0.811   1.567   0.971
 3427SOL    HW211181   0.779   1.728   0.967
 3428SOL     OW11182   2.435   5.070   0.228
 3428SOL    HW111183   2.463   5.015   0.148
 3428SOL    HW211184   2.475   5.030   0.310
 3429SOL     OW11185   0.224   1.798   0.797
 3429SOL    HW111186   0.163   1.743   0.853
 3429SOL    HW211187   0.302   1.828   0.852
 3430SOL     OW11188   1.495   6.509   6.087
 3430SOL    HW111189   1.428   6.572   6.047
 3430SOL    HW211190   1.511   6.433   6.024
 3431SOL     OW11191   1.301   0.011   1.616
 3431SOL    HW111192   1.222   0.041   1.563
 3431SOL    HW211193   1.348   6.962   1.568
 3432SOL     OW11194   1.803   3.374   5.552
 3432SOL    HW111195   1.720   3.328   5.523
 3432SOL    HW211196   1.870   3.372   5.477
 3433SOL     OW11197   1.556   6.868   5.055
 3433SOL    HW111198   1.591   6.962   5.051
 3433SOL    HW211199   1.559   6.836   5.150
 3434SOL     OW11200   4.297   0.922   2.238
 3434SOL    HW111201   4.272   0.862   2.162
 3434SOL    HW211202   4.252   0.889   2.321
 3435SOL     OW11203   1.725   0.942   1.101
 3435SOL    HW111204   1.746   1.009   1.172
 3435SOL    HW211205   1.665   0.871   1.138
 3436SOL     OW11206   3.959   6.286   0.348
 3436SOL    HW111207   3.981   6.239   0.263
 3436SOL    HW211208   3.871   6.333   0.339
 3437SOL     OW11209   2.642   0.210   5.653
 3437SOL    HW111210   2.727   0.262   5.668
 3437SOL    HW211211   2.624   0.152   5.733
 3438SOL     OW11212   1.116   2.896   0.697
 3438SOL    HW111213   1.034   2.894   0.753
 3438SOL    HW211214   1.139   2.990   0.674
 3439SOL     OW11215   2.750   6.084   4.809
 3439SOL    HW111216   2.811   6.026   4.755
 3439SOL    HW211217   2.674   6.116   4.753
 3440SOL     OW11218   2.913   3.210   2.031
 3440SOL    HW111219   2.967   3.126   2.022
 3440SOL    HW211220   2.928   3.250   2.121
 3441SOL     OW11221   6.465   5.446   5.955
 3441SOL    HW111222   6.462   5.444   6.055
 3441SOL    HW211223   6.451   5.539   5.923
 3442SOL     OW11224   2.138   4.311   1.575
 3442SOL    HW111225   2.068   4.380   1.560
 3442SOL    HW211226   2.185   4.292   1.489
 3443SOL     OW11227   3.587   6.372   2.114
 3443SOL    HW111228   3.495   6.412   2.116
 3443SOL    HW211229   3.618   6.356   2.208
 3444SOL     OW11230   5.011   5.195   6.901
 3444SOL    HW111231   5.030   5.100   6.924
 3444SOL    HW211232   5.050   5.254   6.972
 3445SOL     OW11233   5.881   5.234   2.845
 3445SOL    HW111234   5.841   5.208   2.933
 3445SOL    HW211235   5.978   5.257   2.859
 3446SOL     OW11236   6.056   0.978   1.582
 3446SOL    HW111237   5.977   0.985   1.520
 3446SOL    HW211238   6.026   0.995   1.676
 3447SOL     OW11239   4.722   5.637   0.993
 3447SOL    HW111240   4.794   5.666   1.056
 3447SOL    HW211241   4.643   5.604   1.045
 3448SOL     OW11242   4.009   0.748   6.530
 3448SOL    HW111243   4.014   0.839   6.571
 3448SOL    HW211244   4.024   0.755   6.432
 3449SOL     OW11245   5.943   5.341   4.580
 3449SOL    HW111246   5.990   5.253   4.570
 3449SOL    HW211247   6.002   5.414   4.543
 3450SOL     OW11248   0.499   2.151   7.000
 3450SOL    HW111249   0.454   2.096   6.929
 3450SOL    HW211250   0.475   2.115   0.065
 3451SOL     OW11251   2.598   6.381   0.126
 3451SOL    HW111252   2.593   6.328   0.041
 3451SOL    HW211253   2.507   6.389   0.166
 3452SOL     OW11254   5.528   1.054   6.840
 3452SOL    HW111255   5.504   1.066   6.936
 3452SOL    HW211256   5.579   0.969   6.829
 3453SOL     OW11257   6.350   5.871   6.408
 3453SOL    HW111258   6.301   5.918   6.481
 3453SOL    HW211259   6.284   5.824   6.349
 3454SOL     OW11260   1.186   3.135   4.894
 3454SOL    HW111261   1.163   3.094   4.806
 3454SOL    HW211262   1.285   3.146   4.900
 3455SOL     OW11263   2.562   2.025   4.514
 3455SOL    HW111264   2.558   2.019   4.614
 3455SOL    HW211265   2.501   1.957   4.474
 3456SOL     OW11266   5.527   5.340   1.602
 3456SOL    HW111267   5.553   5.244   1.587
 3456SOL    HW211268   5.576   5.398   1.538
 3457SOL     OW11269   2.836   5.649   3.087
 3457SOL    HW111270   2.784   5.723   3.045
 3457SOL    HW211271   2.876   5.681   3.173
 3458SOL     OW11272   4.797   0.885   1.818
 3458SOL    HW111273   4.735   0.952   1.778
 3458SOL    HW211274   4.852   0.843   1.746
 3459SOL     OW11275   5.059   2.912   2.921
 3459SOL    HW111276   5.107   2.842   2.974
 3459SOL    HW211277   5.121   2.987   2.901
 3460SOL     OW11278   2.337   1.999   6.846
 3460SOL    HW111279   2.320   1.943   6.765
 3460SOL    HW211280   2.435   2.009   6.860
 3461SOL     OW11281   4.900   4.329   6.269
 3461SOL    HW111282   4.865   4.323   6.363
 3461SOL    HW211283   4.948   4.244   6.246
 3462SOL     OW11284   0.345   3.599   4.618
 3462SOL    HW111285   0.420   3.611   4.684
 3462SOL    HW211286   0.345   3.676   4.554
 3463SOL     OW11287   1.120   4.513   2.167
 3463SOL    HW111288   1.205   4.527   2.115
 3463SOL    HW211289   1.087   4.420   2.151
 3464SOL     OW11290   6.925   4.734   5.265
 3464SOL    HW111291   6.854   4.673   5.229
 3464SOL    HW211292   6.975   4.687   5.338
 3465SOL     OW11293   1.466   2.002   2.446
 3465SOL    HW111294   1.543   2.044   2.494
 3465SOL    HW211295   1.452   1.909   2.481
 3466SOL     OW11296   6.452   5.251   6.401
 3466SOL    HW111297   6.425   5.302   6.319
 3466SOL    HW211298   6.548   5.267   6.421
 3467SOL     OW11299   1.920   3.043   6.783
 3467SOL    HW111300   1.984   3.109   6.742
 3467SOL    HW211301   1.854   3.092   6.839
 3468SOL     OW11302   4.502   6.587   3.008
 3468SOL    HW111303   4.413   6.615   3.046
 3468SOL    HW211304   4.575   6.621   3.067
 3469SOL     OW11305   5.033   0.049   3.121
 3469SOL    HW111306   5.123   0.068   3.160
 3469SOL    HW211307   4.962   0.086   3.181
 3470SOL     OW11308   5.982   3.741   1.181
 3470SOL    HW111309   5.936   3.687   1.110
 3470SOL    HW211310   6.068   3.776   1.146
 3471SOL     OW11311   4.021   5.167   3.935
 3471SOL    HW111312   4.105   5.114   3.925
 3471SOL    HW211313   4.040   5.251   3.986
 3472SOL     OW11314   2.555   0.792   2.643
 3472SOL    HW111315   2.554   0.881   2.597
 3472SOL    HW211316   2.502   0.726   2.589
 3473SOL     OW11317   0.406   2.295   0.989
 3473SOL    HW111318   0.479   2.298   0.922
 3473SOL    HW211319   0.412   2.375   1.049
 3474SOL     OW11320   2.133   4.757   1.824
 3474SOL    HW111321   2.204   4.796   1.883
 3474SOL    HW211322   2.131   4.657   1.834
 3475SOL     OW11323   1.338   5.391   4.995
 3475SOL    HW111324   1.380   5.424   4.910
 3475SOL    HW211325   1.278   5.314   4.975
 3476SOL     OW11326   3.374   2.072   2.960
 3476SOL    HW111327   3.286   2.116   2.942
 3476SOL    HW211328   3.424   2.126   3.029
 3477SOL     OW11329   3.395   4.885   0.844
 3477SOL    HW111330   3.336   4.944   0.789
 3477SOL    HW211331   3.434   4.814   0.786
 3478SOL     OW11332   2.315   5.928   4.526
 3478SOL    HW111333   2.349   5.856   4.587
 3478SOL    HW211334   2.318   6.016   4.573
 3479SOL     OW11335   1.525   0.710   2.761
 3479SOL    HW111336   1.430   0.682   2.775
 3479SOL    HW211337   1.569   0.725   2.850
 3480SOL     OW11338   0.228   0.020   5.188
 3480SOL    HW111339   0.261   6.958   5.224
 3480SOL    HW211340   0.191   0.007   5.097
 3481SOL     OW11341   4.873   0.141   0.285
 3481SOL    HW111342   4.905   0.082   0.211
 3481SOL    HW211343   4.894   0.100   0.373
 3482SOL     OW11344   5.768   1.657   1.411
 3482SOL    HW111345   5.759   1.714   1.493
 3482SOL    HW211346   5.695   1.679   1.347
 3483SOL     OW11347   4.691   1.164   1.428
 3483SOL    HW111348   4.770   1.161   1.368
 3483SOL    HW211349   4.617   1.214   1.383
 3484SOL     OW11350   2.789   3.516   1.302
 3484SOL    HW111351   2.783   3.424   1.342
 3484SOL    HW211352   2.747   3.516   1.212
 3485SOL     OW11353   1.566   0.251   4.005
 3485SOL    HW111354   1.628   0.172   4.007
 3485SOL    HW211355   1.534   0.266   3.912
 3486SOL     OW11356   3.004   1.411   2.641
 3486SOL    HW111357   2.953   1.451   2.718
 3486SOL    HW211358   3.057   1.482   2.595
 3487SOL     OW11359   5.680   2.753   5.693
 3487SOL    HW111360   5.644   2.784   5.605
 3487SOL    HW211361   5.748   2.682   5.678
 3488SOL     OW11362   6.229   2.238   4.536
 3488SOL    HW111363   6.175   2.310   4.492
 3488SOL    HW211364   6.236   2.257   4.634
 3489SOL     OW11365   3.047   0.119   0.628
 3489SOL    HW111366   3.140   0.144   0.601
 3489SOL    HW211367   3.009   0.190   0.688
 3490SOL     OW11368   4.082   4.860   6.867
 3490SOL    HW111369   3.989   4.851   6.902
 3490SOL    HW211370   4.147   4.826   6.936
 3491SOL     OW11371   6.013   2.507   5.395
 3491SOL    HW111372   6.098   2.495   5.446
 3491SOL    HW211373   6.001   2.431   5.331
 3492SOL     OW11374   1.076   5.733   1.172
 3492SOL    HW111375   1.073   5.709   1.075
 3492SOL    HW211376   1.124   5.661   1.222
 3493SOL     OW11377   6.143   4.927   6.520
 3493SOL    HW111378   6.240   4.948   6.508
 3493SOL    HW211379   6.118   4.852   6.460
 3494SOL     OW11380   3.912   0.535   1.925
 3494SOL    HW111381   4.009   0.550   1.906
 3494SOL    HW211382   3.857   0.596   1.869
 3495SOL     OW11383   4.323   5.380   2.105
 3495SOL    HW111384   4.397   5.322   2.070
 3495SOL    HW211385   4.242   5.324   2.120
 3496SOL     OW11386   0.049   4.007   0.825
 3496SOL    HW111387   0.139   3.999   0.868
 3496SOL    HW211388   0.010   3.915   0.813
 3497SOL     OW11389   3.653   6.894   3.706
 3497SOL    HW111390   3.721   6.964   3.683
 3497SOL    HW211391   3.606   6.865   3.622
 3498SOL     OW11392   1.649   2.768   0.814
 3498SOL    HW111393   1.713   2.751   0.739
 3498SOL    HW211394   1.673   2.710   0.892
 3499SOL     OW11395   4.654   2.665   4.777
 3499SOL    HW111396   4.667   2.752   4.729
 3499SOL    HW211397   4.733   2.647   4.835
 3500SOL     OW11398   1.257   3.938   5.068
 3500SOL    HW111399   1.227   3.939   4.972
 3500SOL    HW211400   1.357   3.942   5.072
 3501SOL     OW11401   1.924   5.112   3.958
 3501SOL    HW111402   1.899   5.195   3.909
 3501SOL    HW211403   1.842   5.068   3.993
 3502SOL     OW11404   6.553   2.433   2.228
 3502SOL    HW111405   6.563   2.476   2.138
 3502SOL    HW211406   6.478   2.368   2.227
 3503SOL     OW11407   6.288   6.099   5.073
 3503SOL    HW111408   6.209   6.040   5.089
 3503SOL    HW211409   6.371   6.043   5.064
 3504SOL     OW11410   2.311   1.600   1.006
 3504SOL    HW111411   2.230   1.610   0.949
 3504SOL    HW211412   2.292   1.635   1.098
 3505SOL     OW11413   5.325   4.971   4.850
 3505SOL    HW111414   5.332   5.071   4.848
 3505SOL    HW211415   5.406   4.933   4.896
 3506SOL     OW11416   5.056   6.449   5.617
 3506SOL    HW111417   5.151   6.449   5.586
 3506SOL    HW211418   5.042   6.374   5.682
 3507SOL     OW11419   2.402   0.625   0.016
 3507SOL    HW111420   2.499   0.641   0.037
 3507SOL    HW211421   2.387   0.527   0.002
 3508SOL     OW11422   2.799   2.680   6.200
 3508SOL    HW111423   2.820   2.700   6.104
 3508SOL    HW211424   2.757   2.590   6.207
 3509SOL     OW11425   5.787   0.099   6.358
 3509SOL    HW111426   5.782   7.024   6.356
 3509SOL    HW211427   5.763   0.135   6.268
 3510SOL     OW11428   1.849   2.247   1.302
 3510SOL    HW111429   1.855   2.274   1.206
 3510SOL    HW211430   1.939   2.252   1.344
 3511SOL     OW11431   2.234   4.703   0.208
 3511SOL    HW111432   2.165   4.711   0.280
 3511SOL    HW211433   2.325   4.702   0.248
 3512SOL     OW11434   6.776   4.075   0.808
 3512SOL    HW111435   6.842   4.003   0.785
 3512SOL    HW211436   6.741   4.060   0.900
 3513SOL     OW11437   6.102   4.049   0.130
 3513SOL    HW111438   6.117   4.139   0.170
 3513SOL    HW211439   6.158   3.981   0.178
 3514SOL     OW11440   0.066   1.063   2.119
 3514SOL    HW111441   7.022   0.993   2.137
 3514SOL    HW211442   0.021   1.150   2.099
 3515SOL     OW11443   4.901   6.335   3.173
 3515SOL    HW111444   4.915   6.424   3.217
 3515SOL    HW211445   4.837   6.281   3.228
 3516SOL     OW11446   4.294   6.900   1.217
 3516SOL    HW111447   4.271   6.997   1.207
 3516SOL    HW211448   4.391   6.887   1.194
 3517SOL     OW11449   1.054   2.294   0.641
 3517SOL    HW111450   1.037   2.213   0.697
 3517SOL    HW211451   1.099   2.364   0.697
 3518SOL     OW11452   5.774   4.094   4.781
 3518SOL    HW111453   5.749   4.055   4.869
 3518SOL    HW211454   5.824   4.026   4.727
 3519SOL     OW11455   1.883   0.896   6.599
 3519SOL    HW111456   1.950   0.953   6.552
 3519SOL    HW211457   1.869   0.812   6.546
 3520SOL     OW11458   3.040   4.535   6.615
 3520SOL    HW111459   2.981   4.606   6.653
 3520SOL    HW211460   3.078   4.566   6.528
 3521SOL     OW11461   5.571   3.333   0.967
 3521SOL    HW111462   5.657   3.313   0.920
 3521SOL    HW211463   5.521   3.248   0.982
 3522SOL     OW11464   5.199   5.155   2.136
 3522SOL    HW111465   5.243   5.072   2.170
 3522SOL    HW211466   5.146   5.197   2.211
 3523SOL     OW11467   2.604   4.829   5.656
 3523SOL    HW111468   2.545   4.808   5.734
 3523SOL    HW211469   2.633   4.744   5.612
 3524SOL     OW11470   2.802   1.163   0.900
 3524SOL    HW111471   2.897   1.133   0.909
 3524SOL    HW211472   2.798   1.263   0.912
 3525SOL     OW11473   0.278   4.334   2.259
 3525SOL    HW111474   0.243   4.423   2.288
 3525SOL    HW211475   0.342   4.300   2.328
 3526SOL     OW11476   2.556   5.965   3.625
 3526SOL    HW111477   2.621   6.034   3.593
 3526SOL    HW211478   2.538   5.900   3.551
 3527SOL     OW11479   6.271   3.892   6.093
 3527SOL    HW111480   6.172   3.909   6.101
 3527SOL    HW211481   6.314   3.970   6.048
 3528SOL     OW11482   1.120   5.126   3.793
 3528SOL    HW111483   1.164   5.066   3.859
 3528SOL    HW211484   1.177   5.135   3.711
 3529SOL     OW11485   5.095   0.237   5.590
 3529SOL    HW111486   5.159   0.246   5.513
 3529SOL    HW211487   5.003   0.217   5.554
 3530SOL     OW11488   2.402   4.325   3.093
 3530SOL    HW111489   2.355   4.371   3.169
 3530SOL    HW211490   2.458   4.251   3.128
 3531SOL     OW11491   5.103   4.519   1.222
 3531SOL    HW111492   5.106   4.455   1.299
 3531SOL    HW211493   5.111   4.612   1.257
 3532SOL     OW11494   2.241   0.060   0.393
 3532SOL    HW111495   2.142   0.055   0.409
 3532SOL    HW211496   2.285   7.007   0.438
 3533SOL     OW11497   0.977   2.234   2.662
 3533SOL    HW111498   1.056   2.296   2.665
 3533SOL    HW211499   1.008   2.142   2.640
 3534SOL     OW11500   6.638   1.126   5.066
 3534SOL    HW111501   6.591   1.144   4.980
 3534SOL    HW211502   6.572   1.128   5.142
 3535SOL     OW11503   6.645   5.789   0.461
 3535SOL    HW111504   6.729   5.805   0.514
 3535SOL    HW211505   6.634   5.863   0.395
 3536SOL     OW11506   2.364   2.504   3.567
 3536SOL    HW111507   2.339   2.600   3.575
 3536SOL    HW211508   2.443   2.485   3.626
 3537SOL     OW11509   2.720   4.822   0.258
 3537SOL    HW111510   2.750   4.834   0.163
 3537SOL    HW211511   2.639   4.764   0.260
 3538SOL     OW11512   2.937   0.329   4.475
 3538SOL    HW111513   2.975   0.403   4.419
 3538SOL    HW211514   2.839   0.321   4.457
 3539SOL     OW11515   6.042   3.316   6.496
 3539SOL    HW111516   6.070   3.292   6.589
 3539SOL    HW211517   5.981   3.246   6.460
 3540SOL     OW11518   1.919   1.348   5.218
 3540SOL    HW111519   1.997   1.409   5.228
 3540SOL    HW211520   1.899   1.336   5.121
 3541SOL     OW11521   3.129   2.509   6.641
 3541SOL    HW111522   3.102   2.507   6.737
 3541SOL    HW211523   3.121   2.417   6.602
 3542SOL     OW11524   0.122   3.250   1.501
 3542SOL    HW111525   0.138   3.177   1.435
 3542SOL    HW211526   0.188   3.323   1.487
 3543SOL     OW11527   1.150   3.299   5.135
 3543SOL    HW111528   1.124   3.392   5.110
 3543SOL    HW211529   1.146   3.241   5.054
 3544SOL     OW11530   1.932   4.619   6.223
 3544SOL    HW111531   1.906   4.557   6.150
 3544SOL    HW211532   2.024   4.653   6.207
 3545SOL     OW11533   3.742   5.374   6.319
 3545SOL    HW111534   3.679   5.336   6.386
 3545SOL    HW211535   3.690   5.421   6.247
 3546SOL     OW11536   6.955   4.788   3.340
 3546SOL    HW111537   6.915   4.809   3.429
 3546SOL    HW211538   6.900   4.831   3.268
 3547SOL     OW11539   6.399   4.093   4.116
 3547SOL    HW111540   6.304   4.086   4.085
 3547SOL    HW211541   6.448   4.009   4.091
 3548SOL     OW11542   5.516   0.316   6.035
 3548SOL    HW111543   5.556   0.347   6.121
 3548SOL    HW211544   5.573   0.245   5.994
 3549SOL     OW11545   1.298   4.732   6.138
 3549SOL    HW111546   1.365   4.770   6.202
 3549SOL    HW211547   1.232   4.677   6.188
 3550SOL     OW11548   6.175   2.320   4.807
 3550SOL    HW111549   6.202   2.230   4.843
 3550SOL    HW211550   6.236   2.390   4.845
 3551SOL     OW11551   3.851   1.417   4.135
 3551SOL    HW111552   3.919   1.466   4.081
 3551SOL    HW211553   3.793   1.362   4.074
 3552SOL     OW11554   6.385   6.607   2.077
 3552SOL    HW111555   6.314   6.664   2.036
 3552SOL    HW211556   6.342   6.530   2.124
 3553SOL     OW11557   3.589   5.870   0.001
 3553SOL    HW111558   3.508   5.819   6.998
 3553SOL    HW211559   3.670   5.827   6.985
 3554SOL     OW11560   4.066   2.771   0.627
 3554SOL    HW111561   3.970   2.786   0.604
 3554SOL    HW211562   4.089   2.675   0.611
 3555SOL     OW11563   0.464   3.313   4.040
 3555SOL    HW111564   0.563   3.307   4.031
 3555SOL    HW211565   0.440   3.397   4.089
 3556SOL     OW11566   3.983   0.843   4.196
 3556SOL    HW111567   3.971   0.744   4.190
 3556SOL    HW211568   4.074   0.864   4.233
 3557SOL     OW11569   1.375   0.102   4.251
 3557SOL    HW111570   1.319   0.058   4.321
 3557SOL    HW211571   1.320   0.121   4.171
 3558SOL     OW11572   1.790   5.186   2.013
 3558SOL    HW111573   1.868   5.217   2.067
 3558SOL    HW211574   1.707   5.235   2.042
 3559SOL     OW11575   1.030   6.017   5.198
 3559SOL    HW111576   1.115   6.009   5.146
 3559SOL    HW211577   0.983   5.929   5.199
 3560SOL     OW11578   2.060   5.192   2.431
 3560SOL    HW111579   1.984   5.197   2.495
 3560SOL    HW211580   2.062   5.101   2.389
 3561SOL     OW11581   5.086   4.367   5.463
 3561SOL    HW111582   5.108   4.273   5.438
 3561SOL    HW211583   5.151   4.399   5.533
 3562SOL     OW11584   2.710   1.354   3.244
 3562SOL    HW111585   2.706   1.415   3.165
 3562SOL    HW211586   2.797   1.303   3.244
 3563SOL     OW11587   6.551   2.051   6.737
 3563SOL    HW111588   6.556   2.086   6.831
 3563SOL    HW211589   6.476   1.985   6.731
 3564SOL     OW11590   0.584   4.489   2.633
 3564SOL    HW111591   0.618   4.411   2.685
 3564SOL    HW211592   0.612   4.574   2.678
 3565SOL     OW11593   3.286   6.195   4.169
 3565SOL    HW111594   3.187   6.196   4.185
 3565SOL    HW211595   3.320   6.288   4.158
 3566SOL     OW11596   6.281   2.545   6.426
 3566SOL    HW111597   6.184   2.558   6.450
 3566SOL    HW211598   6.306   2.609   6.353
 3567SOL     OW11599   0.775   2.462   6.963
 3567SOL    HW111600   0.807   2.555   6.978
 3567SOL    HW211601   0.829   2.419   6.890
 3568SOL     OW11602   5.465   4.327   4.786
 3568SOL    HW111603   5.473   4.246   4.729
 3568SOL    HW211604   5.495   4.305   4.879
 3569SOL     OW11605   3.056   2.879   6.234
 3569SOL    HW111606   2.992   2.804   6.216
 3569SOL    HW211607   3.144   2.859   6.190
 3570SOL     OW11608   5.622   0.382   6.290
 3570SOL    HW111609   5.596   0.475   6.264
 3570SOL    HW211610   5.645   0.380   6.387
 3571SOL     OW11611   0.497   5.359   6.303
 3571SOL    HW111612   0.558   5.438   6.296
 3571SOL    HW211613   0.467   5.333   6.211
 3572SOL     OW11614   5.771   4.133   3.139
 3572SOL    HW111615   5.773   4.062   3.068
 3572SOL    HW211616   5.683   4.129   3.186
 3573SOL     OW11617   0.756   4.530   4.013
 3573SOL    HW111618   0.849   4.566   4.013
 3573SOL    HW211619   0.759   4.430   4.010
 3574SOL     OW11620   0.594   4.394   0.967
 3574SOL    HW111621   0.527   4.320   0.974
 3574SOL    HW211622   0.547   4.480   0.948
 3575SOL     OW11623   5.383   4.572   3.024
 3575SOL    HW111624   5.309   4.527   3.074
 3575SOL    HW211625   5.420   4.646   3.078
 3576SOL     OW11626   1.028   1.688   5.761
 3576SOL    HW111627   0.997   1.616   5.823
 3576SOL    HW211628   1.108   1.657   5.709
 3577SOL     OW11629   1.290   2.723   6.161
 3577SOL    HW111630   1.360   2.795   6.150
 3577SOL    HW211631   1.261   2.721   6.257
 3578SOL     OW11632   2.779   2.373   0.763
 3578SOL    HW111633   2.730   2.302   0.813
 3578SOL    HW211634   2.818   2.334   0.679
 3579SOL     OW11635   5.953   3.468   5.083
 3579SOL    HW111636   5.861   3.495   5.109
 3579SOL    HW211637   5.963   3.369   5.094
 3580SOL     OW11638   5.811   2.935   1.578
 3580SOL    HW111639   5.777   2.955   1.669
 3580SOL    HW211640   5.760   2.859   1.538
 3581SOL     OW11641   0.818   6.051   3.638
 3581SOL    HW111642   0.826   5.951   3.630
 3581SOL    HW211643   0.849   6.079   3.729
 3582SOL     OW11644   0.950   2.269   5.525
 3582SOL    HW111645   0.881   2.337   5.500
 3582SOL    HW211646   0.994   2.297   5.611
 3583SOL     OW11647   1.422   3.603   6.501
 3583SOL    HW111648   1.515   3.633   6.522
 3583SOL    HW211649   1.359   3.680   6.514
 3584SOL     OW11650   5.975   5.278   6.511
 3584SOL    HW111651   6.042   5.247   6.444
 3584SOL    HW211652   5.972   5.215   6.588
 3585SOL     OW11653   4.471   6.856   5.143
 3585SOL    HW111654   4.448   6.926   5.210
 3585SOL    HW211655   4.405   6.858   5.068
 3586SOL     OW11656   0.495   2.305   5.097
 3586SOL    HW111657   0.515   2.391   5.051
 3586SOL    HW211658   0.533   2.229   5.043
 3587SOL     OW11659   3.153   5.357   6.711
 3587SOL    HW111660   3.245   5.385   6.685
 3587SOL    HW211661   3.158   5.290   6.785
 3588SOL     OW11662   0.894   2.712   5.506
 3588SOL    HW111663   0.905   2.808   5.530
 3588SOL    HW211664   0.969   2.659   5.544
 3589SOL     OW11665   3.935   1.840   4.825
 3589SOL    HW111666   3.917   1.925   4.777
 3589SOL    HW211667   4.004   1.788   4.775
 3590SOL     OW11668   1.580   2.744   6.781
 3590SOL    HW111669   1.634   2.744   6.865
 3590SOL    HW211670   1.574   2.837   6.745
 3591SOL     OW11671   5.069   3.475   6.536
 3591SOL    HW111672   5.112   3.565   6.529
 3591SOL    HW211673   4.994   3.478   6.602
 3592SOL     OW11674   6.503   4.186   1.812
 3592SOL    HW111675   6.525   4.221   1.721
 3592SOL    HW211676   6.588   4.166   1.861
 3593SOL     OW11677   1.753   5.911   4.964
 3593SOL    HW111678   1.836   5.875   5.007
 3593SOL    HW211679   1.683   5.927   5.034
 3594SOL     OW11680   4.651   0.489   3.346
 3594SOL    HW111681   4.672   0.563   3.281
 3594SOL    HW211682   4.561   0.453   3.326
 3595SOL     OW11683   2.240   5.712   0.007
 3595SOL    HW111684   2.300   5.783   6.997
 3595SOL    HW211685   2.196   5.664   6.956
 3596SOL     OW11686   6.921   2.167   3.246
 3596SOL    HW111687   6.843   2.152   3.307
 3596SOL    HW211688   6.896   2.141   3.153
 3597SOL     OW11689   1.960   1.439   4.070
 3597SOL    HW111690   1.913   1.501   4.008
 3597SOL    HW211691   2.051   1.418   4.035
 3598SOL     OW11692   1.017   5.490   6.304
 3598SOL    HW111693   1.023   5.460   6.400
 3598SOL    HW211694   1.100   5.540   6.280
 3599SOL     OW11695   0.555   1.811   5.727
 3599SOL    HW111696   0.522   1.903   5.708
 3599SOL    HW211697   0.544   1.754   5.645
 3600SOL     OW11698   0.735   4.004   0.297
 3600SOL    HW111699   0.676   3.969   0.370
 3600SOL    HW211700   0.754   4.101   0.312
 3601SOL     OW11701   5.428   4.509   6.250
 3601SOL    HW111702   5.422   4.576   6.324
 3601SOL    HW211703   5.407   4.552   6.163
 3602SOL     OW11704   1.376   2.616   1.362
 3602SOL    HW111705   1.291   2.665   1.346
 3602SOL    HW211706   1.438   2.673   1.417
 3603SOL     OW11707   3.580   0.088   3.484
 3603SOL    HW111708   3.523   0.166   3.510
 3603SOL    HW211709   3.664   0.121   3.441
 3604SOL     OW11710   0.106   4.758   2.842
 3604SOL    HW111711   0.104   4.813   2.926
 3604SOL    HW211712   0.201   4.745   2.813
 3605SOL     OW11713   6.036   4.019   5.373
 3605SOL    HW111714   6.096   4.049   5.298
 3605SOL    HW211715   6.027   4.094   5.439
 3606SOL     OW11716   6.565   6.803   5.687
 3606SOL    HW111717   6.556   6.776   5.591
 3606SOL    HW211718   6.634   6.746   5.732
 3607SOL     OW11719   5.469   5.950   1.379
 3607SOL    HW111720   5.374   5.976   1.363
 3607SOL    HW211721   5.528   6.028   1.360
 3608SOL     OW11722   5.542   1.459   3.444
 3608SOL    HW111723   5.478   1.402   3.495
 3608SOL    HW211724   5.504   1.552   3.435
 3609SOL     OW11725   1.007   7.007   4.326
 3609SOL    HW111726   1.063   6.960   4.257
 3609SOL    HW211727   1.042   6.985   4.417
 3610SOL     OW11728   1.605   0.024   5.867
 3610SOL    HW111729   1.699   0.009   5.836
 3610SOL    HW211730   1.603   0.102   5.929
 3611SOL     OW11731   4.843   5.906   5.662
 3611SOL    HW111732   4.910   5.948   5.601
 3611SOL    HW211733   4.858   5.807   5.666
 3612SOL     OW11734   6.405   0.344   0.004
 3612SOL    HW111735   6.441   0.272   6.971
 3612SOL    HW211736   6.315   0.372   6.997
 3613SOL     OW11737   4.555   5.243   1.977
 3613SOL    HW111738   4.556   5.273   2.072
 3613SOL    HW211739   4.649   5.229   1.945
 3614SOL     OW11740   4.028   3.353   1.728
 3614SOL    HW111741   4.050   3.392   1.818
 3614SOL    HW211742   4.015   3.427   1.662
 3615SOL     OW11743   4.720   5.343   0.310
 3615SOL    HW111744   4.810   5.370   0.277
 3615SOL    HW211745   4.692   5.257   0.267
 3616SOL     OW11746   1.181   2.797   6.780
 3616SOL    HW111747   1.085   2.788   6.751
 3616SOL    HW211748   1.189   2.874   6.843
 3617SOL     OW11749   3.852   2.081   6.786
 3617SOL    HW111750   3.947   2.092   6.755
 3617SOL    HW211751   3.793   2.146   6.739
 3618SOL     OW11752   2.716   2.112   5.808
 3618SOL    HW111753   2.708   2.211   5.805
 3618SOL    HW211754   2.718   2.076   5.715
 3619SOL     OW11755   5.792   2.578   4.535
 3619SOL    HW111756   5.786   2.662   4.480
 3619SOL    HW211757   5.700   2.550   4.562
 3620SOL     OW11758   5.857   6.325   6.087
 3620SOL    HW111759   5.904   6.321   5.999
 3620SOL    HW211760   5.886   6.407   6.137
 3621SOL     OW11761   3.193   3.031   5.270
 3621SOL    HW111762   3.276   3.077   5.303
 3621SOL    HW211763   3.122   3.037   5.339
 3622SOL     OW11764   1.841   1.241   4.928
 3622SOL    HW111765   1.855   1.309   4.856
 3622SOL    HW211766   1.859   1.149   4.891
 3623SOL     OW11767   5.963   5.698   4.215
 3623SOL    HW111768   5.952   5.789   4.176
 3623SOL    HW211769   5.957   5.629   4.142
 3624SOL     OW11770   1.868   6.374   1.535
 3624SOL    HW111771   1.839   6.392   1.629
 3624SOL    HW211772   1.793   6.396   1.472
 3625SOL     OW11773   6.136   3.040   0.073
 3625SOL    HW111774   6.159   3.135   0.097
 3625SOL    HW211775   6.177   3.018   7.010
 3626SOL     OW11776   0.884   3.244   6.299
 3626SOL    HW111777   0.907   3.199   6.385
 3626SOL    HW211778   0.803   3.301   6.311
 3627SOL     OW11779   3.709   2.868   3.332
 3627SOL    HW111780   3.664   2.847   3.418
 3627SOL    HW211781   3.792   2.922   3.350
 3628SOL     OW11782   1.394   1.373   1.392
 3628SOL    HW111783   1.412   1.452   1.451
 3628SOL    HW211784   1.459   1.374   1.316
 3629SOL     OW11785   6.977   1.792   5.117
 3629SOL    HW111786   6.947   1.864   5.180
 3629SOL    HW211787   0.048   1.771   5.133
 3630SOL     OW11788   5.241   2.697   4.135
 3630SOL    HW111789   5.253   2.695   4.036
 3630SOL    HW211790   5.159   2.645   4.160
 3631SOL     OW11791   1.872   6.724   3.724
 3631SOL    HW111792   1.919   6.776   3.796
 3631SOL    HW211793   1.905   6.629   3.725
 3632SOL     OW11794   4.900   5.847   1.149
 3632SOL    HW111795   4.846   5.837   1.233
 3632SOL    HW211796   4.867   5.925   1.097
 3633SOL     OW11797   3.974   1.922   5.597
 3633SOL    HW111798   3.990   1.836   5.648
 3633SOL    HW211799   4.053   1.982   5.608
 3634SOL     OW11800   0.955   4.942   4.756
 3634SOL    HW111801   0.956   4.905   4.663
 3634SOL    HW211802   0.909   5.031   4.755
 3635SOL     OW11803   3.330   0.182   6.068
 3635SOL    HW111804   3.232   0.200   6.062
 3635SOL    HW211805   3.349   0.088   6.042
 3636SOL     OW11806   6.992   5.554   0.466
 3636SOL    HW111807   6.933   5.592   0.395
 3636SOL    HW211808   0.062   5.553   0.435
 3637SOL     OW11809   6.653   1.447   2.155
 3637SOL    HW111810   6.659   1.406   2.064
 3637SOL    HW211811   6.562   1.432   2.193
 3638SOL     OW11812   0.164   3.991   3.852
 3638SOL    HW111813   0.216   3.928   3.794
 3638SOL    HW211814   0.067   3.982   3.830
 3639SOL     OW11815   3.564   4.044   0.412
 3639SOL    HW111816   3.651   3.995   0.413
 3639SOL    HW211817   3.516   4.027   0.326
 3640SOL     OW11818   3.768   0.925   0.817
 3640SOL    HW111819   3.797   0.829   0.823
 3640SOL    HW211820   3.807   0.967   0.736
 3641SOL     OW11821   5.299   3.296   3.024
 3641SOL    HW111822   5.236   3.262   3.094
 3641SOL    HW211823   5.393   3.286   3.057
 3642SOL     OW11824   5.270   0.995   6.771
 3642SOL    HW111825   5.219   1.079   6.754
 3642SOL    HW211826   5.367   1.016   6.782
 3643SOL     OW11827   2.776   5.774   5.064
 3643SOL    HW111828   2.791   5.871   5.041
 3643SOL    HW211829   2.812   5.755   5.155
 3644SOL     OW11830   6.785   1.074   1.736
 3644SOL    HW111831   6.798   0.977   1.758
 3644SOL    HW211832   6.815   1.130   1.813
 3645SOL     OW11833   0.373   2.921   3.369
 3645SOL    HW111834   0.333   3.002   3.326
 3645SOL    HW211835   0.429   2.949   3.447
 3646SOL     OW11836   0.778   4.009   6.688
 3646SOL    HW111837   0.765   3.912   6.705
 3646SOL    HW211838   0.839   4.048   6.758
 3647SOL     OW11839   2.754   4.876   6.113
 3647SOL    HW111840   2.822   4.819   6.067
 3647SOL    HW211841   2.739   4.960   6.061
 3648SOL     OW11842   3.833   4.856   1.833
 3648SOL    HW111843   3.809   4.839   1.738
 3648SOL    HW211844   3.752   4.848   1.891
 3649SOL     OW11845   4.930   2.371   1.795
 3649SOL    HW111846   4.964   2.340   1.706
 3649SOL    HW211847   4.840   2.331   1.812
 3650SOL     OW11848   0.230   5.564   0.920
 3650SOL    HW111849   0.135   5.571   0.952
 3650SOL    HW211850   0.282   5.644   0.953
 3651SOL     OW11851   0.505   6.299   4.923
 3651SOL    HW111852   0.434   6.357   4.883
 3651SOL    HW211853   0.516   6.322   5.020
 3652SOL     OW11854   5.683   6.484   3.453
 3652SOL    HW111855   5.767   6.460   3.501
 3652SOL    HW211856   5.611   6.420   3.479
 3653SOL     OW11857   0.461   0.541   4.031
 3653SOL    HW111858   0.423   0.576   4.117
 3653SOL    HW211859   0.416   0.454   4.008
 3654SOL     OW11860   2.765   4.118   0.924
 3654SOL    HW111861   2.859   4.100   0.952
 3654SOL    HW211862   2.738   4.054   0.852
 3655SOL     OW11863   1.350   6.136   4.187
 3655SOL    HW111864   1.254   6.108   4.192
 3655SOL    HW211865   1.385   6.151   4.280
 3656SOL     OW11866   0.713   4.408   1.642
 3656SOL    HW111867   0.791   4.369   1.594
 3656SOL    HW211868   0.700   4.503   1.614
 3657SOL     OW11869   4.986   5.363   5.577
 3657SOL    HW111870   4.951   5.433   5.638
 3657SOL    HW211871   5.021   5.406   5.493
 3658SOL     OW11872   1.747   4.890   5.402
 3658SOL    HW111873   1.748   4.844   5.313
 3658SOL    HW211874   1.679   4.847   5.461
 3659SOL     OW11875   1.559   3.481   5.263
 3659SOL    HW111876   1.561   3.450   5.358
 3659SOL    HW211877   1.482   3.544   5.251
 3660SOL     OW11878   5.956   6.519   4.103
 3660SOL    HW111879   5.960   6.601   4.160
 3660SOL    HW211880   5.896   6.451   4.146
 3661SOL     OW11881   5.656   1.298   5.421
 3661SOL    HW111882   5.746   1.264   5.392
 3661SOL    HW211883   5.595   1.220   5.436
 3662SOL     OW11884   3.769   6.768   3.918
 3662SOL    HW111885   3.737   6.812   3.834
 3662SOL    HW211886   3.840   6.823   3.960
 3663SOL     OW11887   2.114   1.531   0.446
 3663SOL    HW111888   2.206   1.499   0.424
 3663SOL    HW211889   2.055   1.454   0.467
 3664SOL     OW11890   5.012   2.951   1.637
 3664SOL    HW111891   5.056   2.870   1.598
 3664SOL    HW211892   4.919   2.928   1.666
 3665SOL     OW11893   1.677   6.145   5.518
 3665SOL    HW111894   1.631   6.166   5.604
 3665SOL    HW211895   1.755   6.084   5.536
 3666SOL     OW11896   1.036   3.995   3.129
 3666SOL    HW111897   1.115   3.960   3.080
 3666SOL    HW211898   1.062   4.014   3.224
 3667SOL     OW11899   0.818   0.926   2.544
 3667SOL    HW111900   0.768   0.839   2.547
 3667SOL    HW211901   0.914   0.910   2.570
 3668SOL     OW11902   1.416   0.907   1.440
 3668SOL    HW111903   1.508   0.900   1.478
 3668SOL    HW211904   1.422   0.926   1.342
 3669SOL     OW11905   4.650   0.929   3.355
 3669SOL    HW111906   4.561   0.972   3.370
 3669SOL    HW211907   4.698   0.979   3.283
 3670SOL     OW11908   2.048   5.108   6.952
 3670SOL    HW111909   2.046   5.158   0.013
 3670SOL    HW211910   2.098   5.160   6.883
 3671SOL     OW11911   6.447   1.003   4.246
 3671SOL    HW111912   6.464   0.997   4.147
 3671SOL    HW211913   6.349   0.998   4.263
 3672SOL     OW11914   5.575   1.719   1.197
 3672SOL    HW111915   5.512   1.649   1.164
 3672SOL    HW211916   5.605   1.776   1.120
 3673SOL     OW11917   4.435   6.154   6.622
 3673SOL    HW111918   4.533   6.141   6.610
 3673SOL    HW211919   4.399   6.082   6.682
 3674SOL     OW11920   1.108   6.070   5.800
 3674SOL    HW111921   1.025   6.099   5.751
 3674SOL    HW211922   1.143   5.985   5.759
 3675SOL     OW11923   2.150   3.149   3.732
 3675SOL    HW111924   2.168   3.153   3.634
 3675SOL    HW211925   2.148   3.053   3.761
 3676SOL     OW11926   5.182   4.196   3.048
 3676SOL    HW111927   5.088   4.222   3.024
 3676SOL    HW211928   5.212   4.248   3.128
 3677SOL     OW11929   2.135   5.753   3.410
 3677SOL    HW111930   2.203   5.826   3.412
 3677SOL    HW211931   2.043   5.794   3.412
 3678SOL     OW11932   0.802   2.438   5.066
 3678SOL    HW111933   0.847   2.484   5.143
 3678SOL    HW211934   0.712   2.478   5.052
 3679SOL     OW11935   1.220   0.576   3.348
 3679SOL    HW111936   1.204   0.588   3.446
 3679SOL    HW211937   1.285   0.646   3.317
 3680SOL     OW11938   5.691   3.038   4.016
 3680SOL    HW111939   5.742   3.107   4.067
 3680SOL    HW211940   5.667   3.074   3.926
 3681SOL     OW11941   0.941   0.016   6.862
 3681SOL    HW111942   0.993   0.099   6.841
 3681SOL    HW211943   0.843   0.033   6.850
 3682SOL     OW11944   5.253   2.018   0.484
 3682SOL    HW111945   5.164   2.005   0.439
 3682SOL    HW211946   5.262   2.114   0.511
 3683SOL     OW11947   6.392   0.355   3.017
 3683SOL    HW111948   6.305   0.310   3.034
 3683SOL    HW211949   6.385   0.452   3.042
 3684SOL     OW11950   1.855   4.997   0.298
 3684SOL    HW111951   1.815   5.032   0.382
 3684SOL    HW211952   1.845   5.066   0.226
 3685SOL     OW11953   0.247   6.266   0.140
 3685SOL    HW111954   0.195   6.204   0.080
 3685SOL    HW211955   0.298   6.331   0.084
 3686SOL     OW11956   5.251   5.735   3.611
 3686SOL    HW111957   5.188   5.663   3.639
 3686SOL    HW211958   5.295   5.774   3.692
 3687SOL     OW11959   3.502   5.725   5.080
 3687SOL    HW111960   3.432   5.669   5.035
 3687SOL    HW211961   3.500   5.818   5.042
 3688SOL     OW11962   6.810   4.094   6.757
 3688SOL    HW111963   6.773   4.177   6.715
 3688SOL    HW211964   6.752   4.016   6.732
 3689SOL     OW11965   2.145   6.975   5.973
 3689SOL    HW111966   2.234   6.942   6.005
 3689SOL    HW211967   2.136   6.957   5.875
 3690SOL     OW11968   4.418   5.748   0.687
 3690SOL    HW111969   4.426   5.845   0.711
 3690SOL    HW211970   4.322   5.723   0.677
 3691SOL     OW11971   2.749   1.627   6.758
 3691SOL    HW111972   2.650   1.614   6.751
 3691SOL    HW211973   2.781   1.675   6.676
 3692SOL     OW11974   6.486   5.633   5.257
 3692SOL    HW111975   6.548   5.639   5.178
 3692SOL    HW211976   6.485   5.540   5.292
 3693SOL     OW11977   2.144   3.705   3.188
 3693SOL    HW111978   2.165   3.772   3.117
 3693SOL    HW211979   2.103   3.751   3.267
 3694SOL     OW11980   1.629   6.053   3.078
 3694SOL    HW111981   1.684   6.132   3.049
 3694SOL    HW211982   1.555   6.038   3.013
 3695SOL     OW11983   6.350   3.172   1.501
 3695SOL    HW111984   6.289   3.099   1.531
 3695SOL    HW211985   6.378   3.227   1.580
 3696SOL     OW11986   3.387   6.051   5.137
 3696SOL    HW111987   3.377   6.108   5.055
 3696SOL    HW211988   3.300   6.006   5.156
 3697SOL     OW11989   0.461   6.473   2.938
 3697SOL    HW111990   0.398   6.463   2.861
 3697SOL    HW211991   0.418   6.436   3.021
 3698SOL     OW11992   2.533   0.515   4.023
 3698SOL    HW111993   2.455   0.565   3.985
 3698SOL    HW211994   2.542   0.537   4.121
 3699SOL     OW11995   1.093   2.341   3.580
 3699SOL    HW111996   1.125   2.433   3.559
 3699SOL    HW211997   1.153   2.274   3.536
 3700SOL     OW11998   0.444   5.733   4.660
 3700SOL    HW111999   0.507   5.692   4.726
 3700SOL    HW212000   0.355   5.748   4.704
 3701SOL     OW12001   1.700   0.547   3.498
 3701SOL    HW112002   1.710   0.461   3.548
 3701SOL    HW212003   1.694   0.623   3.563
 3702SOL     OW12004   5.842   6.516   3.168
 3702SOL    HW112005   5.780   6.469   3.231
 3702SOL    HW212006   5.799   6.601   3.137
 3703SOL     OW12007   5.900   1.511   5.375
 3703SOL    HW112008   5.966   1.436   5.370
 3703SOL    HW212009   5.884   1.547   5.283
 3704SOL     OW12010   3.847   1.943   1.185
 3704SOL    HW112011   3.757   1.977   1.156
 3704SOL    HW212012   3.895   2.014   1.235
 3705SOL     OW12013   4.174   4.787   4.012
 3705SOL    HW112014   4.221   4.870   4.044
 3705SOL    HW212015   4.141   4.735   4.091
 3706SOL     OW12016   1.865   3.468   6.884
 3706SOL    HW112017   1.889   3.441   6.977
 3706SOL    HW212018   1.794   3.539   6.887
 3707SOL     OW12019   5.186   4.579   4.077
 3707SOL    HW112020   5.125   4.607   4.003
 3707SOL    HW212021   5.190   4.650   4.147
 3708SOL     OW12022   0.066   0.739   6.521
 3708SOL    HW112023   0.079   0.675   6.445
 3708SOL    HW212024   0.075   0.689   6.608
 3709SOL     OW12025   3.229   0.849   0.725
 3709SOL    HW112026   3.297   0.788   0.683
 3709SOL    HW212027   3.263   0.943   0.722
 3710SOL     OW12028   6.199   5.529   5.474
 3710SOL    HW112029   6.232   5.620   5.449
 3710SOL    HW212030   6.180   5.476   5.391
 3711SOL     OW12031   1.073   6.667   4.354
 3711SOL    HW112032   1.074   6.716   4.442
 3711SOL    HW212033   1.069   6.733   4.279
 3712SOL     OW12034   6.893   5.375   6.865
 3712SOL    HW112035   6.815   5.364   6.926
 3712SOL    HW212036   6.923   5.285   6.832
 3713SOL     OW12037   1.281   6.365   6.187
 3713SOL    HW112038   1.375   6.385   6.158
 3713SOL    HW212039   1.259   6.270   6.164
 3714SOL     OW12040   5.216   6.628   5.836
 3714SOL    HW112041   5.192   6.718   5.800
 3714SOL    HW212042   5.249   6.569   5.761
 3715SOL     OW12043   0.403   4.005   2.699
 3715SOL    HW112044   0.449   4.019   2.787
 3715SOL    HW212045   0.304   4.000   2.713
 3716SOL     OW12046   6.531   0.052   5.048
 3716SOL    HW112047   6.538   6.983   5.016
 3716SOL    HW212048   6.552   0.115   4.973
 3717SOL     OW12049   6.297   6.540   6.816
 3717SOL    HW112050   6.321   6.464   6.755
 3717SOL    HW212051   6.273   6.620   6.760
 3718SOL     OW12052   1.711   0.719   6.815
 3718SOL    HW112053   1.662   0.786   6.870
 3718SOL    HW212054   1.716   0.750   6.720
 3719SOL     OW12055   5.051   4.163   1.651
 3719SOL    HW112056   5.070   4.260   1.635
 3719SOL    HW212057   5.070   4.140   1.746
 3720SOL     OW12058   5.997   2.529   6.460
 3720SOL    HW112059   6.036   2.510   6.370
 3720SOL    HW212060   5.964   2.623   6.463
 3721SOL     OW12061   6.193   4.574   2.009
 3721SOL    HW112062   6.287   4.569   2.041
 3721SOL    HW212063   6.155   4.482   2.001
 3722SOL     OW12064   6.236   6.135   0.935
 3722SOL    HW112065   6.327   6.172   0.914
 3722SOL    HW212066   6.245   6.044   0.975
 3723SOL     OW12067   6.109   5.476   1.624
 3723SOL    HW112068   6.170   5.553   1.607
 3723SOL    HW212069   6.142   5.423   1.702
 3724SOL     OW12070   1.831   4.557   4.325
 3724SOL    HW112071   1.778   4.621   4.271
 3724SOL    HW212072   1.835   4.588   4.420
 3725SOL     OW12073   6.290   5.912   0.695
 3725SOL    HW112074   6.335   5.947   0.777
 3725SOL    HW212075   6.261   5.818   0.711
 3726SOL     OW12076   5.922   3.852   0.650
 3726SOL    HW112077   5.995   3.882   0.590
 3726SOL    HW212078   5.861   3.789   0.600
 3727SOL     OW12079   0.136   1.762   4.885
 3727SOL    HW112080   0.073   1.806   4.948
 3727SOL    HW212081   0.226   1.754   4.928
 3728SOL     OW12082   1.460   3.823   6.731
 3728SOL    HW112083   1.542   3.773   6.702
 3728SOL    HW212084   1.382   3.793   6.677
 3729SOL     OW12085   0.846   2.774   3.806
 3729SOL    HW112086   0.770   2.817   3.758
 3729SOL    HW212087   0.829   2.779   3.905
 3730SOL     OW12088   2.248   5.340   6.222
 3730SOL    HW112089   2.327   5.368   6.168
 3730SOL    HW212090   2.195   5.273   6.171
 3731SOL     OW12091   6.702   1.890   0.892
 3731SOL    HW112092   6.699   1.938   0.980
 3731SOL    HW212093   6.776   1.928   0.836
 3732SOL     OW12094   2.963   1.313   0.328
 3732SOL    HW112095   2.977   1.412   0.332
 3732SOL    HW212096   2.869   1.291   0.354
 3733SOL     OW12097   1.161   3.789   2.733
 3733SOL    HW112098   1.159   3.805   2.634
 3733SOL    HW212099   1.154   3.691   2.750
 3734SOL     OW12100   4.864   0.465   1.975
 3734SOL    HW112101   4.959   0.466   2.007
 3734SOL    HW212102   4.803   0.442   2.050
 3735SOL     OW12103   2.134   0.903   3.694
 3735SOL    HW112104   2.202   0.903   3.621
 3735SOL    HW212105   2.112   0.809   3.719
 3736SOL     OW12106   0.029   2.312   1.171
 3736SOL    HW112107   0.087   2.373   1.224
 3736SOL    HW212108   6.961   2.315   1.206
 3737SOL     OW12109   4.851   1.161   3.522
 3737SOL    HW112110   4.854   1.061   3.520
 3737SOL    HW212111   4.832   1.196   3.429
 3738SOL     OW12112   0.112   0.061   2.648
 3738SOL    HW112113   0.140   0.123   2.721
 3738SOL    HW212114   0.193   0.018   2.608
 3739SOL     OW12115   2.391   4.524   1.437
 3739SOL    HW112116   2.413   4.609   1.391
 3739SOL    HW212117   2.358   4.544   1.530
 3740SOL     OW12118   5.605   1.009   0.865
 3740SOL    HW112119   5.688   1.059   0.838
 3740SOL    HW212120   5.549   0.992   0.785
 3741SOL     OW12121   5.231   2.872   0.070
 3741SOL    HW112122   5.319   2.858   0.117
 3741SOL    HW212123   5.198   2.964   0.089
 3742SOL     OW12124   2.571   1.975   0.148
 3742SOL    HW112125   2.473   1.985   0.136
 3742SOL    HW212126   2.615   1.967   0.058
 3743SOL     OW12127   5.555   3.703   0.663
 3743SOL    HW112128   5.487   3.665   0.726
 3743SOL    HW212129   5.566   3.801   0.681
 3744SOL     OW12130   1.575   6.242   2.268
 3744SOL    HW112131   1.631   6.165   2.238
 3744SOL    HW212132   1.545   6.227   2.363
 3745SOL     OW12133   4.132   4.923   1.569
 3745SOL    HW112134   4.064   4.939   1.497
 3745SOL    HW212135   4.154   4.826   1.572
 3746SOL     OW12136   5.401   0.607   3.077
 3746SOL    HW112137   5.494   0.607   3.115
 3746SOL    HW212138   5.404   0.638   2.982
 3747SOL     OW12139   2.757   6.579   5.161
 3747SOL    HW112140   2.728   6.485   5.144
 3747SOL    HW212141   2.838   6.599   5.105
 3748SOL     OW12142   5.225   1.276   1.348
 3748SOL    HW112143   5.302   1.269   1.284
 3748SOL    HW212144   5.167   1.353   1.323
 3749SOL     OW12145   1.727   5.517   3.584
 3749SOL    HW112146   1.631   5.523   3.557
 3749SOL    HW212147   1.767   5.609   3.586
 3750SOL     OW12148   0.697   4.421   1.216
 3750SOL    HW112149   0.765   4.355   1.246
 3750SOL    HW212150   0.665   4.397   1.124
 3751SOL     OW12151   6.861   3.255   1.523
 3751SOL    HW112152   6.961   3.250   1.520
 3751SOL    HW212153   6.825   3.275   1.432
 3752SOL     OW12154   5.252   0.420   0.714
 3752SOL    HW112155   5.273   0.515   0.689
 3752SOL    HW212156   5.332   0.378   0.757
 3753SOL     OW12157   6.151   6.942   4.862
 3753SOL    HW112158   6.157   0.005   4.817
 3753SOL    HW212159   6.088   6.883   4.811
 3754SOL     OW12160   2.847   0.926   1.236
 3754SOL    HW112161   2.874   0.843   1.284
 3754SOL    HW212162   2.779   0.976   1.291
 3755SOL     OW12163   4.953   4.998   4.295
 3755SOL    HW112164   4.967   4.902   4.321
 3755SOL    HW212165   4.996   5.058   4.363
 3756SOL     OW12166   2.900   4.981   6.798
 3756SOL    HW112167   2.906   5.070   6.754
 3756SOL    HW212168   2.970   4.920   6.760
 3757SOL     OW12169   5.369   6.215   0.049
 3757SOL    HW112170   5.329   6.180   0.134
 3757SOL    HW212171   5.297   6.258   7.019
 3758SOL     OW12172   2.500   1.179   4.784
 3758SOL    HW112173   2.450   1.264   4.766
 3758SOL    HW212174   2.592   1.200   4.815
 3759SOL     OW12175   4.252   0.104   6.606
 3759SOL    HW112176   4.185   0.036   6.637
 3759SOL    HW212177   4.209   0.195   6.606
 3760SOL     OW12178   1.931   1.420   4.629
 3760SOL    HW112179   1.904   1.507   4.670
 3760SOL    HW212180   1.985   1.437   4.547
 3761SOL     OW12181   1.110   1.332   4.945
 3761SOL    HW112182   1.180   1.376   4.889
 3761SOL    HW212183   1.137   1.238   4.963
 3762SOL     OW12184   1.756   4.587   1.201
 3762SOL    HW112185   1.842   4.540   1.222
 3762SOL    HW212186   1.777   4.677   1.163
 3763SOL     OW12187   6.671   3.981   1.105
 3763SOL    HW112188   6.581   3.970   1.148
 3763SOL    HW212189   6.730   3.904   1.130
 3764SOL     OW12190   1.484   0.349   2.421
 3764SOL    HW112191   1.546   0.292   2.367
 3764SOL    HW212192   1.527   0.371   2.508
 3765SOL     OW12193   4.864   1.834   1.264
 3765SOL    HW112194   4.915   1.825   1.178
 3765SOL    HW212195   4.768   1.851   1.243
 3766SOL     OW12196   2.648   1.638   4.655
 3766SOL    HW112197   2.569   1.678   4.609
 3766SOL    HW212198   2.697   1.579   4.592
 3767SOL     OW12199   2.095   4.629   6.805
 3767SOL    HW112200   2.117   4.671   6.893
 3767SOL    HW212201   2.017   4.676   6.764
 3768SOL     OW12202   0.986   6.385   4.401
 3768SOL    HW112203   1.034   6.470   4.380
 3768SOL    HW212204   0.895   6.388   4.361
 3769SOL     OW12205   6.117   5.853   4.422
 3769SOL    HW112206   6.067   5.922   4.474
 3769SOL    HW212207   6.054   5.806   4.360
 3770SOL     OW12208   1.511   0.795   6.280
 3770SOL    HW112209   1.590   0.853   6.265
 3770SOL    HW212210   1.523   0.744   6.366
 3771SOL     OW12211   5.432   2.948   0.275
 3771SOL    HW112212   5.466   2.913   0.363
 3771SOL    HW212213   5.357   3.012   0.292
 3772SOL     OW12214   0.449   1.135   0.028
 3772SOL    HW112215   0.387   1.103   0.099
 3772SOL    HW212216   0.438   1.078   6.972
 3773SOL     OW12217   5.775   3.587   5.747
 3773SOL    HW112218   5.756   3.612   5.653
 3773SOL    HW212219   5.691   3.590   5.800
 3774SOL     OW12220   6.127   5.876   1.376
 3774SOL    HW112221   6.143   5.971   1.349
 3774SOL    HW212222   6.108   5.822   1.294
 3775SOL     OW12223   4.523   5.093   2.542
 3775SOL    HW112224   4.529   4.994   2.548
 3775SOL    HW212225   4.430   5.120   2.517
 3776SOL     OW12226   4.516   1.928   6.568
 3776SOL    HW112227   4.606   1.916   6.608
 3776SOL    HW212228   4.456   1.976   6.631
 3777SOL     OW12229   3.590   5.870   3.419
 3777SOL    HW112230   3.626   5.926   3.494
 3777SOL    HW212231   3.546   5.788   3.457
 3778SOL     OW12232   2.813   5.033   2.608
 3778SOL    HW112233   2.731   5.085   2.630
 3778SOL    HW212234   2.794   4.973   2.530
 3779SOL     OW12235   1.040   4.878   0.489
 3779SOL    HW112236   1.032   4.966   0.536
 3779SOL    HW212237   1.119   4.880   0.428
 3780SOL     OW12238   5.765   5.149   4.506
 3780SOL    HW112239   5.670   5.178   4.497
 3780SOL    HW212240   5.815   5.218   4.558
 3781SOL     OW12241   0.467   6.399   4.580
 3781SOL    HW112242   0.452   6.303   4.607
 3781SOL    HW212243   0.378   6.442   4.564
 3782SOL     OW12244   2.647   6.911   3.162
 3782SOL    HW112245   2.658   6.819   3.125
 3782SOL    HW212246   2.551   6.924   3.190
 3783SOL     OW12247   5.555   5.413   3.456
 3783SOL    HW112248   5.619   5.456   3.393
 3783SOL    HW212249   5.573   5.315   3.461
 3784SOL     OW12250   4.549   2.309   3.094
 3784SOL    HW112251   4.626   2.274   3.040
 3784SOL    HW212252   4.565   2.405   3.117
 3785SOL     OW12253   2.085   3.522   5.662
 3785SOL    HW112254   2.154   3.480   5.721
 3785SOL    HW212255   2.004   3.545   5.717
 3786SOL     OW12256   2.360   5.123   2.950
 3786SOL    HW112257   2.337   5.126   3.048
 3786SOL    HW212258   2.459   5.120   2.939
 3787SOL     OW12259   5.827   1.153   3.171
 3787SOL    HW112260   5.843   1.205   3.087
 3787SOL    HW212261   5.737   1.110   3.167
 3788SOL     OW12262   6.999   5.112   4.552
 3788SOL    HW112263   0.061   5.067   4.568
 3788SOL    HW212264   7.014   5.204   4.516
 3789SOL     OW12265   0.237   2.963   4.399
 3789SOL    HW112266   0.277   2.890   4.455
 3789SOL    HW212267   0.174   3.017   4.455
 3790SOL     OW12268   1.317   4.068   6.040
 3790SOL    HW112269   1.359   4.065   5.949
 3790SOL    HW212270   1.217   4.069   6.031
 3791SOL     OW12271   4.933   1.448   6.650
 3791SOL    HW112272   4.945   1.538   6.609
 3791SOL    HW212273   4.900   1.384   6.580
 3792SOL     OW12274   1.404   2.374   4.190
 3792SOL    HW112275   1.379   2.277   4.191
 3792SOL    HW212276   1.485   2.387   4.133
 3793SOL     OW12277   4.885   6.120   1.907
 3793SOL    HW112278   4.802   6.153   1.862
 3793SOL    HW212279   4.962   6.180   1.883
 3794SOL     OW12280   2.039   2.797   0.993
 3794SOL    HW112281   2.086   2.715   1.027
 3794SOL    HW212282   1.941   2.780   0.989
 3795SOL     OW12283   4.157   6.063   0.924
 3795SOL    HW112284   4.097   6.101   0.853
 3795SOL    HW212285   4.209   6.138   0.967
 3796SOL     OW12286   3.340   2.002   2.119
 3796SOL    HW112287   3.313   2.003   2.215
 3796SOL    HW212288   3.266   2.041   2.063
 3797SOL     OW12289   0.185   3.526   2.242
 3797SOL    HW112290   0.213   3.480   2.158
 3797SOL    HW212291   0.267   3.549   2.296
 3798SOL     OW12292   2.782   5.201   3.032
 3798SOL    HW112293   2.711   5.272   3.037
 3798SOL    HW212294   2.828   5.194   3.120
 3799SOL     OW12295   6.464   2.412   3.640
 3799SOL    HW112296   6.468   2.335   3.704
 3799SOL    HW212297   6.555   2.451   3.629
 3800SOL     OW12298   5.802   2.761   4.328
 3800SOL    HW112299   5.732   2.776   4.259
 3800SOL    HW212300   5.888   2.801   4.297
 3801SOL     OW12301   6.220   6.802   1.996
 3801SOL    HW112302   6.148   6.767   1.936
 3801SOL    HW212303   6.190   6.794   2.091
 3802SOL     OW12304   1.501   2.218   1.728
 3802SOL    HW112305   1.580   2.250   1.781
 3802SOL    HW212306   1.517   2.237   1.631
 3803SOL     OW12307   4.072   3.147   2.202
 3803SOL    HW112308   3.996   3.212   2.205
 3803SOL    HW212309   4.078   3.106   2.111
 3804SOL     OW12310   4.641   1.620   4.079
 3804SOL    HW112311   4.700   1.540   4.066
 3804SOL    HW212312   4.640   1.646   4.175
 3805SOL     OW12313   2.241   2.622   1.106
 3805SOL    HW112314   2.159   2.601   1.159
 3805SOL    HW212315   2.316   2.562   1.134
 3806SOL     OW12316   3.493   3.406   6.081
 3806SOL    HW112317   3.569   3.431   6.021
 3806SOL    HW212318   3.434   3.341   6.034
 3807SOL     OW12319   1.593   6.034   2.656
 3807SOL    HW112320   1.545   6.045   2.743
 3807SOL    HW212321   1.540   6.076   2.582
 3808SOL     OW12322   4.702   0.995   0.761
 3808SOL    HW112323   4.747   1.084   0.750
 3808SOL    HW212324   4.642   0.977   0.684
 3809SOL     OW12325   5.565   2.735   1.758
 3809SOL    HW112326   5.625   2.805   1.796
 3809SOL    HW212327   5.473   2.774   1.744
 3810SOL     OW12328   4.543   2.253   3.687
 3810SOL    HW112329   4.472   2.323   3.682
 3810SOL    HW212330   4.535   2.191   3.609
 3811SOL     OW12331   1.144   5.472   5.155
 3811SOL    HW112332   1.238   5.468   5.121
 3811SOL    HW212333   1.114   5.380   5.181
 3812SOL     OW12334   4.624   5.457   5.093
 3812SOL    HW112335   4.575   5.535   5.054
 3812SOL    HW212336   4.614   5.378   5.033
 3813SOL     OW12337   4.139   3.275   0.628
 3813SOL    HW112338   4.093   3.196   0.588
 3813SOL    HW212339   4.229   3.248   0.661
 3814SOL     OW12340   7.009   6.895   6.511
 3814SOL    HW112341   0.047   6.868   6.584
 3814SOL    HW212342   6.948   6.966   6.545
 3815SOL     OW12343   4.088   2.400   0.728
 3815SOL    HW112344   4.134   2.424   0.643
 3815SOL    HW212345   3.989   2.411   0.717
 3816SOL     OW12346   0.933   5.578   6.789
 3816SOL    HW112347   0.912   5.654   6.850
 3816SOL    HW212348   0.847   5.542   6.751
 3817SOL     OW12349   4.984   3.458   2.758
 3817SOL    HW112350   4.951   3.412   2.841
 3817SOL    HW212351   5.031   3.392   2.700
 3818SOL     OW12352   6.283   1.200   6.749
 3818SOL    HW112353   6.376   1.170   6.769
 3818SOL    HW212354   6.223   1.120   6.741
 3819SOL     OW12355   4.967   5.359   1.831
 3819SOL    HW112356   5.060   5.322   1.825
 3819SOL    HW212357   4.901   5.284   1.832
 3820SOL     OW12358   5.166   7.010   3.941
 3820SOL    HW112359   5.120   6.992   4.028
 3820SOL    HW212360   5.158   6.930   3.882
 3821SOL     OW12361   2.560   1.492   0.981
 3821SOL    HW112362   2.570   1.433   1.062
 3821SOL    HW212363   2.486   1.557   0.997
 3822SOL     OW12364   2.342   0.100   1.026
 3822SOL    HW112365   2.317   0.184   1.074
 3822SOL    HW212366   2.373   0.123   0.934
 3823SOL     OW12367   3.365   3.780   5.677
 3823SOL    HW112368   3.393   3.716   5.605
 3823SOL    HW212369   3.430   3.855   5.683
 3824SOL     OW12370   6.954   2.702   0.374
 3824SOL    HW112371   0.006   2.719   0.313
 3824SOL    HW212372   6.983   2.715   0.469
 3825SOL     OW12373   0.533   5.508   0.703
 3825SOL    HW112374   0.560   5.470   0.792
 3825SOL    HW212375   0.537   5.608   0.707
 3826SOL     OW12376   1.146   3.175   6.629
 3826SOL    HW112377   1.136   3.270   6.599
 3826SOL    HW212378   1.239   3.160   6.664
 3827SOL     OW12379   1.645   1.270   2.163
 3827SOL    HW112380   1.661   1.175   2.189
 3827SOL    HW212381   1.675   1.285   2.069
 3828SOL     OW12382   3.137   3.586   2.568
 3828SOL    HW112383   3.159   3.683   2.554
 3828SOL    HW212384   3.040   3.572   2.549
 3829SOL     OW12385   1.751   4.978   3.035
 3829SOL    HW112386   1.804   4.905   2.993
 3829SOL    HW212387   1.655   4.968   3.011
 3830SOL     OW12388   0.880   1.471   5.294
 3830SOL    HW112389   0.847   1.414   5.219
 3830SOL    HW212390   0.972   1.443   5.320
 3831SOL     OW12391   4.680   2.628   2.434
 3831SOL    HW112392   4.779   2.612   2.426
 3831SOL    HW212393   4.654   2.705   2.377
 3832SOL     OW12394   5.811   0.781   2.873
 3832SOL    HW112395   5.808   0.827   2.962
 3832SOL    HW212396   5.826   0.848   2.801
 3833SOL     OW12397   0.320   6.495   6.085
 3833SOL    HW112398   0.409   6.495   6.130
 3833SOL    HW212399   0.254   6.547   6.140
 3834SOL     OW12400   4.237   4.333   1.378
 3834SOL    HW112401   4.145   4.316   1.344
 3834SOL    HW212402   4.245   4.301   1.473
 3835SOL     OW12403   3.735   5.511   4.566
 3835SOL    HW112404   3.677   5.591   4.583
 3835SOL    HW212405   3.684   5.427   4.587
 3836SOL     OW12406   1.549   3.925   6.122
 3836SOL    HW112407   1.631   3.965   6.081
 3836SOL    HW212408   1.468   3.972   6.087
 3837SOL     OW12409   4.583   5.046   6.289
 3837SOL    HW112410   4.623   5.137   6.302
 3837SOL    HW212411   4.618   5.007   6.203
 3838SOL     OW12412   0.497   3.945   4.651
 3838SOL    HW112413   0.489   3.862   4.705
 3838SOL    HW212414   0.577   3.998   4.683
 3839SOL     OW12415   5.093   0.671   3.784
 3839SOL    HW112416   5.096   0.597   3.716
 3839SOL    HW212417   5.126   0.636   3.872
 3840SOL     OW12418   2.499   0.665   6.111
 3840SOL    HW112419   2.459   0.737   6.168
 3840SOL    HW212420   2.433   0.591   6.101
 3841SOL     OW12421   6.941   3.121   4.287
 3841SOL    HW112422   6.987   3.132   4.375
 3841SOL    HW212423   6.842   3.128   4.299
 3842SOL     OW12424   2.021   3.037   1.154
 3842SOL    HW112425   2.051   2.956   1.103
 3842SOL    HW212426   1.957   3.089   1.098
 3843SOL     OW12427   5.977   4.619   2.264
 3843SOL    HW112428   6.054   4.568   2.302
 3843SOL    HW212429   5.912   4.554   2.223
 3844SOL     OW12430   0.590   2.860   6.250
 3844SOL    HW112431   0.672   2.897   6.207
 3844SOL    HW212432   0.577   2.902   6.339
 3845SOL     OW12433   3.142   3.564   5.200
 3845SOL    HW112434   3.121   3.661   5.215
 3845SOL    HW212435   3.065   3.508   5.231
 3846SOL     OW12436   0.589   5.502   3.621
 3846SOL    HW112437   0.638   5.548   3.546
 3846SOL    HW212438   0.604   5.404   3.615
 3847SOL     OW12439   5.511   1.162   4.808
 3847SOL    HW112440   5.452   1.166   4.888
 3847SOL    HW212441   5.580   1.234   4.813
 3848SOL     OW12442   4.376   5.572   2.931
 3848SOL    HW112443   4.432   5.635   2.878
 3848SOL    HW212444   4.419   5.482   2.933
 3849SOL     OW12445   1.464   1.169   5.703
 3849SOL    HW112446   1.405   1.136   5.629
 3849SOL    HW212447   1.422   1.248   5.747
 3850SOL     OW12448   1.861   3.234   1.028
 3850SOL    HW112449   1.776   3.224   0.976
 3850SOL    HW212450   1.882   3.331   1.039
 3851SOL     OW12451   0.854   4.583   2.261
 3851SOL    HW112452   0.830   4.520   2.334
 3851SOL    HW212453   0.953   4.579   2.245
 3852SOL     OW12454   4.262   6.591   3.954
 3852SOL    HW112455   4.293   6.576   4.048
 3852SOL    HW212456   4.169   6.557   3.944
 3853SOL     OW12457   1.296   4.141   3.402
 3853SOL    HW112458   1.223   4.209   3.403
 3853SOL    HW212459   1.357   4.158   3.325
 3854SOL     OW12460   1.794   3.160   2.372
 3854SOL    HW112461   1.758   3.252   2.358
 3854SOL    HW212462   1.800   3.142   2.471
 3855SOL     OW12463   5.406   6.918   6.510
 3855SOL    HW112464   5.471   6.994   6.510
 3855SOL    HW212465   5.424   6.859   6.431
 3856SOL     OW12466   0.170   0.600   5.829
 3856SOL    HW112467   0.235   0.675   5.817
 3856SOL    HW212468   0.130   0.576   5.741
 3857SOL     OW12469   0.195   6.098   6.955
 3857SOL    HW112470   0.145   6.073   6.872
 3857SOL    HW212471   0.272   6.157   6.931
 3858SOL     OW12472   1.470   0.331   5.560
 3858SOL    HW112473   1.463   0.308   5.462
 3858SOL    HW212474   1.424   0.261   5.614
 3859SOL     OW12475   6.307   1.530   2.840
 3859SOL    HW112476   6.272   1.481   2.919
 3859SOL    HW212477   6.235   1.587   2.801
 3860SOL     OW12478   2.885   0.427   5.565
 3860SOL    HW112479   2.824   0.504   5.582
 3860SOL    HW212480   2.979   0.453   5.586
 3861SOL     OW12481   5.052   4.552   3.240
 3861SOL    HW112482   5.065   4.645   3.207
 3861SOL    HW212483   4.956   4.541   3.269
 3862SOL     OW12484   1.439   0.058   5.409
 3862SOL    HW112485   1.498   7.005   5.389
 3862SOL    HW212486   1.421   0.061   5.507
 3863SOL     OW12487   4.572   3.163   6.654
 3863SOL    HW112488   4.642   3.129   6.591
 3863SOL    HW212489   4.586   3.261   6.670
 3864SOL     OW12490   2.452   0.334   5.519
 3864SOL    HW112491   2.380   0.363   5.581
 3864SOL    HW212492   2.525   0.289   5.571
 3865SOL     OW12493   3.381   6.963   6.903
 3865SOL    HW112494   3.308   6.941   6.968
 3865SOL    HW212495   3.456   7.007   6.951
 3866SOL     OW12496   3.780   0.708   1.762
 3866SOL    HW112497   3.805   0.804   1.765
 3866SOL    HW212498   3.680   0.700   1.767
 3867SOL     OW12499   1.427   4.357   3.862
 3867SOL    HW112500   1.332   4.345   3.891
 3867SOL    HW212501   1.475   4.270   3.872
 3868SOL     OW12502   3.510   6.852   0.277
 3868SOL    HW112503   3.474   6.938   0.243
 3868SOL    HW212504   3.595   6.868   0.326
 3869SOL     OW12505   6.160   4.368   5.085
 3869SOL    HW112506   6.140   4.418   5.000
 3869SOL    HW212507   6.157   4.431   5.162
 3870SOL     OW12508   4.498   5.412   6.937
 3870SOL    HW112509   4.579   5.355   6.950
 3870SOL    HW212510   4.515   5.479   6.865
 3871SOL     OW12511   3.402   0.526   2.746
 3871SOL    HW112512   3.368   0.550   2.655
 3871SOL    HW212513   3.435   0.431   2.746
 3872SOL     OW12514   3.717   3.232   3.136
 3872SOL    HW112515   3.812   3.248   3.109
 3872SOL    HW212516   3.686   3.146   3.096
 3873SOL     OW12517   5.877   3.164   2.228
 3873SOL    HW112518   5.883   3.135   2.324
 3873SOL    HW212519   5.816   3.242   2.221
 3874SOL     OW12520   3.858   5.801   6.911
 3874SOL    HW112521   3.878   5.703   6.911
 3874SOL    HW212522   3.936   5.851   6.875
 3875SOL     OW12523   1.892   2.485   1.743
 3875SOL    HW112524   1.864   2.581   1.751
 3875SOL    HW212525   1.839   2.429   1.806
 3876SOL     OW12526   4.588   4.849   0.523
 3876SOL    HW112527   4.564   4.792   0.603
 3876SOL    HW212528   4.511   4.910   0.503
 3877SOL     OW12529   6.802   2.881   6.851
 3877SOL    HW112530   6.803   2.792   6.806
 3877SOL    HW212531   6.788   2.869   6.949
 3878SOL     OW12532   2.985   6.569   4.358
 3878SOL    HW112533   3.047   6.642   4.387
 3878SOL    HW212534   2.892   6.591   4.389
 3879SOL     OW12535   4.735   6.218   1.437
 3879SOL    HW112536   4.767   6.313   1.433
 3879SOL    HW212537   4.805   6.162   1.481
 3880SOL     OW12538   6.430   4.802   3.757
 3880SOL    HW112539   6.524   4.823   3.784
 3880SOL    HW212540   6.367   4.827   3.831
 3881SOL     OW12541   1.030   4.392   0.911
 3881SOL    HW112542   0.984   4.480   0.904
 3881SOL    HW212543   1.056   4.375   1.006
 3882SOL     OW12544   0.915   1.794   5.252
 3882SOL    HW112545   0.844   1.865   5.254
 3882SOL    HW212546   0.905   1.735   5.333
 3883SOL     OW12547   4.223   0.980   3.897
 3883SOL    HW112548   4.247   0.885   3.876
 3883SOL    HW212549   4.140   0.982   3.953
 3884SOL     OW12550   0.977   5.169   3.340
 3884SOL    HW112551   1.025   5.232   3.279
 3884SOL    HW212552   0.878   5.183   3.331
 3885SOL     OW12553   6.280   0.560   2.796
 3885SOL    HW112554   6.238   0.643   2.759
 3885SOL    HW212555   6.335   0.583   2.876
 3886SOL     OW12556   6.588   6.040   4.797
 3886SOL    HW112557   6.498   6.024   4.757
 3886SOL    HW212558   6.609   5.966   4.861
 3887SOL     OW12559   6.735   1.155   6.313
 3887SOL    HW112560   6.719   1.134   6.409
 3887SOL    HW212561   6.786   1.241   6.306
 3888SOL     OW12562   1.003   0.159   6.480
 3888SOL    HW112563   0.935   0.173   6.408
 3888SOL    HW212564   1.057   0.243   6.491
 3889SOL     OW12565   6.565   3.634   5.872
 3889SOL    HW112566   6.531   3.567   5.806
 3889SOL    HW212567   6.528   3.614   5.963
 3890SOL     OW12568   5.660   5.580   2.502
 3890SOL    HW112569   5.618   5.669   2.485
 3890SOL    HW212570   5.741   5.592   2.559
 3891SOL     OW12571   5.656   4.594   4.160
 3891SOL    HW112572   5.558   4.577   4.149
 3891SOL    HW212573   5.693   4.631   4.076
 3892SOL     OW12574   7.008   2.245   1.628
 3892SOL    HW112575   0.078   2.266   1.646
 3892SOL    HW212576   6.965   2.324   1.583
 3893SOL     OW12577   3.401   5.474   0.810
 3893SOL    HW112578   3.386   5.543   0.740
 3893SOL    HW212579   3.344   5.394   0.790
 3894SOL     OW12580   2.882   2.041   0.824
 3894SOL    HW112581   2.845   2.027   0.732
 3894SOL    HW212582   2.906   1.952   0.863
 3895SOL     OW12583   1.460   0.374   5.273
 3895SOL    HW112584   1.391   0.408   5.208
 3895SOL    HW212585   1.518   0.307   5.227
 3896SOL     OW12586   0.526   1.830   6.611
 3896SOL    HW112587   0.609   1.810   6.558
 3896SOL    HW212588   0.448   1.833   6.549
 3897SOL     OW12589   3.463   6.771   1.886
 3897SOL    HW112590   3.457   6.803   1.980
 3897SOL    HW212591   3.554   6.789   1.850
 3898SOL     OW12592   3.473   3.674   4.060
 3898SOL    HW112593   3.509   3.590   4.102
 3898SOL    HW212594   3.469   3.746   4.129
 3899SOL     OW12595   4.887   1.128   4.584
 3899SOL    HW112596   4.908   1.047   4.639
 3899SOL    HW212597   4.913   1.111   4.489
 3900SOL     OW12598   5.067   2.399   3.926
 3900SOL    HW112599   5.101   2.489   3.897
 3900SOL    HW212600   5.139   2.331   3.912
 3901SOL     OW12601   3.096   6.207   5.335
 3901SOL    HW112602   3.044   6.158   5.405
 3901SOL    HW212603   3.074   6.304   5.339
 3902SOL     OW12604   5.967   3.557   1.678
 3902SOL    HW112605   5.962   3.465   1.716
 3902SOL    HW212606   5.969   3.552   1.578
 3903SOL     OW12607   5.090   4.561   6.832
 3903SOL    HW112608   5.165   4.627   6.840
 3903SOL    HW212609   5.035   4.583   6.752
 3904SOL     OW12610   2.406   6.311   5.519
 3904SOL    HW112611   2.418   6.220   5.560
 3904SOL    HW212612   2.462   6.377   5.569
 3905SOL     OW12613   6.009   6.924   5.709
 3905SOL    HW112614   6.094   6.926   5.656
 3905SOL    HW212615   6.029   6.940   5.805
 3906SOL     OW12616   2.147   5.265   5.432
 3906SOL    HW112617   2.088   5.346   5.431
 3906SOL    HW212618   2.194   5.257   5.344
 3907SOL     OW12619   6.621   6.813   4.604
 3907SOL    HW112620   6.576   6.859   4.527
 3907SOL    HW212621   6.566   6.824   4.687
 3908SOL     OW12622   1.552   0.926   6.663
 3908SOL    HW112623   1.560   0.950   6.567
 3908SOL    HW212624   1.531   1.009   6.717
 3909SOL     OW12625   0.086   4.617   6.433
 3909SOL    HW112626   0.043   4.532   6.464
 3909SOL    HW212627   0.064   4.632   6.336
 3910SOL     OW12628   3.722   4.124   1.868
 3910SOL    HW112629   3.660   4.049   1.892
 3910SOL    HW212630   3.672   4.195   1.820
 3911SOL     OW12631   4.548   1.555   6.856
 3911SOL    HW112632   4.475   1.496   6.822
 3911SOL    HW212633   4.590   1.513   6.936
 3912SOL     OW12634   3.571   1.419   6.227
 3912SOL    HW112635   3.472   1.428   6.217
 3912SOL    HW212636   3.616   1.485   6.168
 3913SOL     OW12637   2.846   6.111   6.841
 3913SOL    HW112638   2.875   6.187   6.900
 3913SOL    HW212639   2.926   6.060   6.809
 3914SOL     OW12640   5.095   0.628   1.152
 3914SOL    HW112641   5.124   0.573   1.231
 3914SOL    HW212642   5.066   0.567   1.078
 3915SOL     OW12643   4.182   6.414   0.833
 3915SOL    HW112644   4.116   6.345   0.805
 3915SOL    HW212645   4.265   6.406   0.778
 3916SOL     OW12646   1.875   6.540   2.393
 3916SOL    HW112647   1.791   6.503   2.432
 3916SOL    HW212648   1.950   6.475   2.408
 3917SOL     OW12649   1.302   4.336   0.792
 3917SOL    HW112650   1.213   4.330   0.837
 3917SOL    HW212651   1.289   4.347   0.694
 3918SOL     OW12652   4.262   6.463   1.797
 3918SOL    HW112653   4.325   6.391   1.767
 3918SOL    HW212654   4.315   6.543   1.825
 3919SOL     OW12655   3.216   0.211   6.613
 3919SOL    HW112656   3.278   0.207   6.535
 3919SOL    HW212657   3.144   0.144   6.602
 3920SOL     OW12658   2.264   2.158   5.998
 3920SOL    HW112659   2.210   2.215   6.060
 3920SOL    HW212660   2.352   2.137   6.041
 3921SOL     OW12661   6.782   2.818   0.125
 3921SOL    HW112662   6.793   2.745   0.058
 3921SOL    HW212663   6.847   2.803   0.201
 3922SOL     OW12664   4.335   4.957   0.461
 3922SOL    HW112665   4.307   4.868   0.495
 3922SOL    HW212666   4.262   5.023   0.478
 3923SOL     OW12667   6.368   2.008   0.186
 3923SOL    HW112668   6.290   1.952   0.158
 3923SOL    HW212669   6.442   1.949   0.217
 3924SOL     OW12670   0.575   4.762   3.239
 3924SOL    HW112671   0.653   4.743   3.298
 3924SOL    HW212672   0.500   4.700   3.261
 3925SOL     OW12673   4.303   4.502   0.787
 3925SOL    HW112674   4.251   4.424   0.821
 3925SOL    HW212675   4.385   4.516   0.844
 3926SOL     OW12676   6.899   0.020   4.340
 3926SOL    HW112677   6.832   0.043   4.269
 3926SOL    HW212678   6.857   0.033   4.430
 3927SOL     OW12679   0.316   2.672   4.412
 3927SOL    HW112680   0.325   2.668   4.512
 3927SOL    HW212681   0.393   2.724   4.374
 3928SOL     OW12682   3.991   5.834   4.738
 3928SOL    HW112683   4.009   5.802   4.832
 3928SOL    HW212684   4.058   5.793   4.676
 3929SOL     OW12685   0.246   1.418   6.478
 3929SOL    HW112686   0.218   1.502   6.431
 3929SOL    HW212687   0.296   1.359   6.414
 3930SOL     OW12688   1.238   2.174   3.385
 3930SOL    HW112689   1.324   2.203   3.426
 3930SOL    HW212690   1.216   2.081   3.414
 3931SOL     OW12691   2.096   1.643   2.085
 3931SOL    HW112692   2.151   1.718   2.122
 3931SOL    HW212693   2.154   1.562   2.073
 3932SOL     OW12694   1.873   4.111   3.771
 3932SOL    HW112695   1.907   4.113   3.865
 3932SOL    HW212696   1.934   4.166   3.713
 3933SOL     OW12697   1.781   6.830   0.032
 3933SOL    HW112698   1.727   6.858   6.978
 3933SOL    HW212699   1.721   6.816   0.110
 3934SOL     OW12700   0.346   0.648   2.395
 3934SOL    HW112701   0.398   0.725   2.431
 3934SOL    HW212702   0.388   0.615   2.311
 3935SOL     OW12703   1.909   0.936   5.392
 3935SOL    HW112704   1.914   0.991   5.475
 3935SOL    HW212705   1.818   0.946   5.351
 3936SOL     OW12706   6.940   6.381   5.255
 3936SOL    HW112707   6.860   6.346   5.304
 3936SOL    HW212708   6.913   6.407   5.162
 3937SOL     OW12709   0.008   6.537   2.728
 3937SOL    HW112710   6.977   6.599   2.674
 3937SOL    HW212711   6.982   6.506   2.809
 3938SOL     OW12712   6.029   2.993   3.690
 3938SOL    HW112713   6.038   3.068   3.756
 3938SOL    HW212714   5.957   2.930   3.720
 3939SOL     OW12715   2.751   2.079   2.937
 3939SOL    HW112716   2.779   2.167   2.899
 3939SOL    HW212717   2.822   2.045   2.998
 3940SOL     OW12718   3.459   4.947   2.122
 3940SOL    HW112719   3.476   4.936   2.219
 3940SOL    HW212720   3.503   4.873   2.071
 3941SOL     OW12721   6.178   0.312   5.067
 3941SOL    HW112722   6.248   0.306   4.996
 3941SOL    HW212723   6.221   0.334   5.154
 3942SOL     OW12724   0.925   6.173   5.391
 3942SOL    HW112725   0.889   6.117   5.465
 3942SOL    HW212726   0.985   6.117   5.333
 3943SOL     OW12727   0.313   3.268   2.361
 3943SOL    HW112728   0.264   3.239   2.279
 3943SOL    HW212729   0.278   3.218   2.441
 3944SOL     OW12730   5.688   3.922   5.660
 3944SOL    HW112731   5.783   3.935   5.687
 3944SOL    HW212732   5.678   3.941   5.562
 3945SOL     OW12733   0.786   2.489   2.681
 3945SOL    HW112734   0.831   2.400   2.687
 3945SOL    HW212735   0.850   2.555   2.642
 3946SOL     OW12736   6.697   3.794   6.227
 3946SOL    HW112737   6.763   3.853   6.274
 3946SOL    HW212738   6.678   3.713   6.283
 3947SOL     OW12739   5.677   5.281   0.995
 3947SOL    HW112740   5.739   5.272   1.073
 3947SOL    HW212741   5.714   5.232   0.916
 3948SOL     OW12742   0.799   5.044   0.271
 3948SOL    HW112743   0.724   5.093   0.227
 3948SOL    HW212744   0.790   5.052   0.370
 3949SOL     OW12745   6.167   6.651   2.829
 3949SOL    HW112746   6.115   6.701   2.898
 3949SOL    HW212747   6.239   6.709   2.792
 3950SOL     OW12748   3.440   3.953   1.370
 3950SOL    HW112749   3.411   3.992   1.458
 3950SOL    HW212750   3.365   3.898   1.332
 3951SOL     OW12751   0.497   0.468   6.889
 3951SOL    HW112752   0.485   0.555   6.937
 3951SOL    HW212753   0.585   0.428   6.915
 3952SOL     OW12754   6.158   3.577   4.776
 3952SOL    HW112755   6.213   3.603   4.855
 3952SOL    HW212756   6.144   3.478   4.776
 3953SOL     OW12757   3.607   4.420   6.992
 3953SOL    HW112758   3.602   4.347   6.924
 3953SOL    HW212759   3.699   4.425   0.004
 3954SOL     OW12760   5.641   5.398   5.436
 3954SOL    HW112761   5.688   5.318   5.399
 3954SOL    HW212762   5.669   5.413   5.531
 3955SOL     OW12763   4.588   6.530   6.907
 3955SOL    HW112764   4.677   6.541   6.952
 3955SOL    HW212765   4.525   6.599   6.941
 3956SOL     OW12766   1.250   1.802   4.577
 3956SOL    HW112767   1.233   1.879   4.638
 3956SOL    HW212768   1.230   1.829   4.483
 3957SOL     OW12769   4.351   6.962   3.438
 3957SOL    HW112770   4.350   0.036   3.429
 3957SOL    HW212771   4.302   6.935   3.521
 3958SOL     OW12772   6.064   6.996   6.450
 3958SOL    HW112773   5.999   6.976   6.378
 3958SOL    HW212774   6.151   7.025   6.410
 3959SOL     OW12775   3.350   6.496   0.988
 3959SOL    HW112776   3.399   6.579   1.015
 3959SOL    HW212777   3.284   6.518   0.916
 3960SOL     OW12778   5.822   2.224   6.148
 3960SOL    HW112779   5.873   2.143   6.119
 3960SOL    HW212780   5.789   2.210   6.242
 3961SOL     OW12781   5.172   2.944   2.460
 3961SOL    HW112782   5.196   3.035   2.492
 3961SOL    HW212783   5.175   2.880   2.537
 3962SOL     OW12784   1.218   5.599   6.781
 3962SOL    HW112785   1.244   5.637   6.692
 3962SOL    HW212786   1.120   5.616   6.797
 3963SOL     OW12787   5.195   4.669   3.790
 3963SOL    HW112788   5.206   4.763   3.821
 3963SOL    HW212789   5.101   4.656   3.757
 3964SOL     OW12790   4.360   4.686   4.791
 3964SOL    HW112791   4.367   4.599   4.839
 3964SOL    HW212792   4.265   4.716   4.789
 3965SOL     OW12793   4.256   4.117   6.171
 3965SOL    HW112794   4.236   4.021   6.192
 3965SOL    HW212795   4.256   4.171   6.255
 3966SOL     OW12796   6.590   5.047   0.076
 3966SOL    HW112797   6.571   4.951   0.098
 3966SOL    HW212798   6.580   5.103   0.158
 3967SOL     OW12799   1.270   4.427   2.742
 3967SOL    HW112800   1.347   4.490   2.754
 3967SOL    HW212801   1.256   4.410   2.644
 3968SOL     OW12802   6.649   0.631   1.176
 3968SOL    HW112803   6.558   0.591   1.168
 3968SOL    HW212804   6.716   0.572   1.131
 3969SOL     OW12805   0.445   3.548   3.063
 3969SOL    HW112806   0.501   3.630   3.070
 3969SOL    HW212807   0.402   3.529   3.151
 3970SOL     OW12808   4.608   4.693   3.503
 3970SOL    HW112809   4.591   4.754   3.426
 3970SOL    HW212810   4.535   4.702   3.571
 3971SOL     OW12811   2.271   4.764   2.355
 3971SOL    HW112812   2.264   4.705   2.275
 3971SOL    HW212813   2.288   4.708   2.436
 3972SOL     OW12814   1.886   5.653   1.602
 3972SOL    HW112815   1.791   5.643   1.571
 3972SOL    HW212816   1.944   5.676   1.524
 3973SOL     OW12817   2.164   3.958   5.294
 3973SOL    HW112818   2.253   3.980   5.254
 3973SOL    HW212819   2.102   4.035   5.280
 3974SOL     OW12820   2.052   0.858   5.727
 3974SOL    HW112821   2.080   0.945   5.687
 3974SOL    HW212822   1.957   0.838   5.701
 3975SOL     OW12823   6.073   0.023   6.864
 3975SOL    HW112824   6.158   0.028   6.811
 3975SOL    HW212825   6.000   7.013   6.806
 3976SOL     OW12826   2.203   4.953   1.169
 3976SOL    HW112827   2.123   4.900   1.197
 3976SOL    HW212828   2.263   4.968   1.248
 3977SOL     OW12829   2.909   4.826   5.444
 3977SOL    HW112830   2.993   4.847   5.394
 3977SOL    HW212831   2.927   4.752   5.509
 3978SOL     OW12832   5.733   0.622   4.552
 3978SOL    HW112833   5.700   0.716   4.537
 3978SOL    HW212834   5.797   0.621   4.628
 3979SOL     OW12835   2.641   5.980   1.523
 3979SOL    HW112836   2.564   6.030   1.561
 3979SOL    HW212837   2.615   5.938   1.436
 3980SOL     OW12838   0.247   4.497   6.226
 3980SOL    HW112839   0.338   4.531   6.247
 3980SOL    HW212840   0.195   4.568   6.178
 3981SOL     OW12841   1.646   1.838   6.662
 3981SOL    HW112842   1.637   1.927   6.708
 3981SOL    HW212843   1.556   1.810   6.629
 3982SOL     OW12844   2.633   0.793   4.378
 3982SOL    HW112845   2.594   0.827   4.293
 3982SOL    HW212846   2.574   0.820   4.455
 3983SOL     OW12847   3.341   5.530   4.379
 3983SOL    HW112848   3.318   5.520   4.475
 3983SOL    HW212849   3.420   5.592   4.370
 3984SOL     OW12850   2.204   0.511   2.368
 3984SOL    HW112851   2.231   0.572   2.293
 3984SOL    HW212852   2.201   0.417   2.334
 3985SOL     OW12853   2.087   4.372   6.797
 3985SOL    HW112854   2.087   4.472   6.792
 3985SOL    HW212855   2.154   4.341   6.865
 3986SOL     OW12856   6.674   1.339   3.409
 3986SOL    HW112857   6.637   1.414   3.462
 3986SOL    HW212858   6.644   1.347   3.314
 3987SOL     OW12859   1.563   5.940   5.214
 3987SOL    HW112860   1.652   5.933   5.259
 3987SOL    HW212861   1.495   5.885   5.263
 3988SOL     OW12862   3.571   2.807   5.742
 3988SOL    HW112863   3.562   2.732   5.676
 3988SOL    HW212864   3.595   2.771   5.832
 3989SOL     OW12865   6.578   1.390   0.119
 3989SOL    HW112866   6.658   1.446   0.142
 3989SOL    HW212867   6.495   1.446   0.123
 3990SOL     OW12868   6.250   1.481   3.779
 3990SOL    HW112869   6.159   1.439   3.777
 3990SOL    HW212870   6.260   1.535   3.862
 3991SOL     OW12871   6.102   1.582   2.470
 3991SOL    HW112872   6.074   1.590   2.566
 3991SOL    HW212873   6.063   1.498   2.431
 3992SOL     OW12874   4.284   2.116   6.427
 3992SOL    HW112875   4.371   2.088   6.387
 3992SOL    HW212876   4.294   2.205   6.472
 3993SOL     OW12877   1.521   2.238   3.213
 3993SOL    HW112878   1.495   2.304   3.143
 3993SOL    HW212879   1.453   2.166   3.218
 3994SOL     OW12880   1.653   2.865   5.421
 3994SOL    HW112881   1.630   2.939   5.484
 3994SOL    HW212882   1.661   2.901   5.329
 3995SOL     OW12883   2.088   3.794   4.337
 3995SOL    HW112884   2.006   3.744   4.366
 3995SOL    HW212885   2.113   3.767   4.244
 3996SOL     OW12886   1.541   0.811   4.850
 3996SOL    HW112887   1.474   0.740   4.827
 3996SOL    HW212888   1.499   0.878   4.911
 3997SOL     OW12889   4.819   2.940   3.155
 3997SOL    HW112890   4.808   2.963   3.058
 3997SOL    HW212891   4.834   3.024   3.207
 3998SOL     OW12892   4.800   1.615   2.265
 3998SOL    HW112893   4.729   1.587   2.330
 3998SOL    HW212894   4.789   1.566   2.179
 3999SOL     OW12895   5.532   3.346   3.913
 3999SOL    HW112896   5.484   3.431   3.933
 3999SOL    HW212897   5.631   3.360   3.922
 4000SOL     OW12898   3.241   5.589   2.707
 4000SOL    HW112899   3.200   5.680   2.704
 4000SOL    HW212900   3.208   5.535   2.630
 4001SOL     OW12901   1.591   2.735   4.716
 4001SOL    HW112902   1.576   2.683   4.632
 4001SOL    HW212903   1.582   2.674   4.795
 4002SOL     OW12904   2.700   2.976   6.983
 4002SOL    HW112905   2.612   2.974   0.006
 4002SOL    HW212906   2.700   3.051   6.918
 4003SOL     OW12907   2.832   6.949   6.123
 4003SOL    HW112908   2.914   7.006   6.132
 4003SOL    HW212909   2.772   6.964   6.203
 4004SOL     OW12910   6.163   2.635   3.988
 4004SOL    HW112911   6.204   2.721   4.019
 4004SOL    HW212912   6.185   2.562   4.053
 4005SOL     OW12913   5.242   5.188   1.029
 4005SOL    HW112914   5.226   5.094   1.059
 4005SOL    HW212915   5.323   5.225   1.074
 4006SOL     OW12916   4.488   4.718   2.183
 4006SOL    HW112917   4.412   4.782   2.187
 4006SOL    HW212918   4.551   4.744   2.110
 4007SOL     OW12919   0.624   2.879   1.833
 4007SOL    HW112920   0.665   2.799   1.791
 4007SOL    HW212921   0.600   2.945   1.763
 4008SOL     OW12922   3.622   1.543   5.240
 4008SOL    HW112923   3.547   1.599   5.274
 4008SOL    HW212924   3.699   1.602   5.214
 4009SOL     OW12925   4.701   2.744   0.750
 4009SOL    HW112926   4.677   2.814   0.817
 4009SOL    HW212927   4.770   2.683   0.789
 4010SOL     OW12928   1.769   3.441   1.225
 4010SOL    HW112929   1.787   3.350   1.260
 4010SOL    HW212930   1.852   3.497   1.231
 4011SOL     OW12931   1.153   6.847   1.971
 4011SOL    HW112932   1.107   6.762   1.997
 4011SOL    HW212933   1.126   6.920   2.033
 4012SOL     OW12934   4.583   4.792   1.591
 4012SOL    HW112935   4.501   4.810   1.646
 4012SOL    HW212936   4.658   4.764   1.651
 4013SOL     OW12937   2.697   0.584   0.671
 4013SOL    HW112938   2.684   0.582   0.770
 4013SOL    HW212939   2.738   0.498   0.641
 4014SOL     OW12940   4.304   5.577   3.747
 4014SOL    HW112941   4.369   5.653   3.755
 4014SOL    HW212942   4.331   5.505   3.810
 4015SOL     OW12943   4.244   5.010   6.256
 4015SOL    HW112944   4.343   4.994   6.249
 4015SOL    HW212945   4.227   5.106   6.277
 4016SOL     OW12946   0.887   5.232   6.565
 4016SOL    HW112947   0.814   5.284   6.609
 4016SOL    HW212948   0.887   5.251   6.467
 4017SOL     OW12949   0.642   6.538   0.313
 4017SOL    HW112950   0.556   6.588   0.315
 4017SOL    HW212951   0.667   6.511   0.406
 4018SOL     OW12952   5.967   6.330   1.887
 4018SOL    HW112953   5.891   6.327   1.951
 4018SOL    HW212954   6.037   6.264   1.915
 4019SOL     OW12955   5.929   3.857   2.335
 4019SOL    HW112956   5.890   3.935   2.385
 4019SOL    HW212957   5.926   3.876   2.237
 4020SOL     OW12958   6.489   2.688   5.781
 4020SOL    HW112959   6.426   2.669   5.856
 4020SOL    HW212960   6.448   2.756   5.720
 4021SOL     OW12961   2.921   4.056   5.511
 4021SOL    HW112962   2.842   4.065   5.572
 4021SOL    HW212963   2.972   3.974   5.534
 4022SOL     OW12964   4.660   0.136   6.589
 4022SOL    HW112965   4.624   0.051   6.551
 4022SOL    HW212966   4.611   0.159   6.673
 4023SOL     OW12967   6.766   0.903   4.269
 4023SOL    HW112968   6.834   0.968   4.301
 4023SOL    HW212969   6.742   0.923   4.174
 4024SOL     OW12970   3.179   5.159   4.123
 4024SOL    HW112971   3.127   5.189   4.203
 4024SOL    HW212972   3.165   5.225   4.048
 4025SOL     OW12973   0.154   6.152   4.765
 4025SOL    HW112974   0.063   6.179   4.735
 4025SOL    HW212975   0.158   6.052   4.771
 4026SOL     OW12976   6.302   0.145   3.201
 4026SOL    HW112977   6.261   0.065   3.157
 4026SOL    HW212978   6.332   0.120   3.293
 4027SOL     OW12979   2.708   2.702   1.024
 4027SOL    HW112980   2.787   2.754   1.057
 4027SOL    HW212981   2.625   2.753   1.043
 4028SOL     OW12982   2.907   2.246   2.741
 4028SOL    HW112983   2.867   2.241   2.649
 4028SOL    HW212984   2.865   2.320   2.792
 4029SOL     OW12985   2.896   4.712   6.339
 4029SOL    HW112986   2.978   4.745   6.387
 4029SOL    HW212987   2.851   4.789   6.294
 4030SOL     OW12988   1.016   1.777   0.482
 4030SOL    HW112989   0.957   1.823   0.548
 4030SOL    HW212990   1.061   1.700   0.526
 4031SOL     OW12991   5.098   6.330   3.637
 4031SOL    HW112992   5.142   6.254   3.684
 4031SOL    HW212993   5.163   6.405   3.625
 4032SOL     OW12994   6.302   0.264   2.595
 4032SOL    HW112995   6.274   0.222   2.510
 4032SOL    HW212996   6.231   0.252   2.664
 4033SOL     OW12997   2.917   3.616   1.955
 4033SOL    HW112998   2.933   3.707   1.915
 4033SOL    HW212999   2.896   3.551   1.882
 4034SOL     OW13000   0.094   1.669   4.360
 4034SOL    HW113001   0.103   1.668   4.459
 4034SOL    HW213002   0.184   1.654   4.318
 4035SOL     OW13003   6.208   2.463   0.797
 4035SOL    HW113004   6.241   2.504   0.712
 4035SOL    HW213005   6.133   2.518   0.833
 4036SOL     OW13006   5.291   6.688   2.528
 4036SOL    HW113007   5.242   6.707   2.613
 4036SOL    HW213008   5.317   6.591   2.525
 4037SOL     OW13009   2.171   1.021   0.541
 4037SOL    HW113010   2.091   0.983   0.495
 4037SOL    HW213011   2.229   0.947   0.573
 4038SOL     OW13012   4.436   4.060   1.554
 4038SOL    HW113013   4.500   4.121   1.507
 4038SOL    HW213014   4.409   4.101   1.641
 4039SOL     OW13015   4.791   4.452   1.556
 4039SOL    HW113016   4.733   4.381   1.597
 4039SOL    HW213017   4.743   4.493   1.478
 4040SOL     OW13018   3.765   0.221   5.989
 4040SOL    HW113019   3.806   0.308   6.017
 4040SOL    HW213020   3.832   0.148   5.999
 4041SOL     OW13021   2.034   5.087   1.002
 4041SOL    HW113022   2.114   5.032   1.028
 4041SOL    HW213023   2.054   5.184   1.019
 4042SOL     OW13024   6.545   5.501   2.981
 4042SOL    HW113025   6.493   5.579   3.015
 4042SOL    HW213026   6.529   5.422   3.041
 4043SOL     OW13027   5.141   1.712   4.366
 4043SOL    HW113028   5.054   1.677   4.401
 4043SOL    HW213029   5.129   1.807   4.335
 4044SOL     OW13030   4.645   6.963   3.395
 4044SOL    HW113031   4.545   6.964   3.401
 4044SOL    HW213032   4.677   6.870   3.383
 4045SOL     OW13033   2.706   5.300   5.984
 4045SOL    HW113034   2.738   5.284   6.078
 4045SOL    HW213035   2.650   5.223   5.954
 4046SOL     OW13036   1.241   1.290   3.708
 4046SOL    HW113037   1.150   1.309   3.745
 4046SOL    HW213038   1.301   1.260   3.783
 4047SOL     OW13039   1.507   2.271   0.735
 4047SOL    HW113040   1.459   2.302   0.653
 4047SOL    HW213041   1.586   2.216   0.708
 4048SOL     OW13042   5.260   2.036   2.137
 4048SOL    HW113043   5.279   1.952   2.187
 4048SOL    HW213044   5.164   2.060   2.148
 4049SOL     OW13045   6.534   5.739   6.230
 4049SOL    HW113046   6.495   5.798   6.301
 4049SOL    HW213047   6.501   5.770   6.140
 4050SOL     OW13048   1.076   6.569   0.547
 4050SOL    HW113049   1.024   6.624   0.613
 4050SOL    HW213050   1.038   6.477   0.543
 4051SOL     OW13051   3.916   2.716   6.837
 4051SOL    HW113052   3.896   2.762   6.751
 4051SOL    HW213053   3.933   2.619   6.820
 4052SOL     OW13054   6.895   0.764   2.543
 4052SOL    HW113055   6.985   0.736   2.577
 4052SOL    HW213056   6.827   0.747   2.614
 4053SOL     OW13057   3.613   5.279   4.183
 4053SOL    HW113058   3.646   5.254   4.092
 4053SOL    HW213059   3.678   5.245   4.252
 4054SOL     OW13060   6.934   3.403   2.193
 4054SOL    HW113061   0.004   3.424   2.218
 4054SOL    HW213062   6.933   3.354   2.106
 4055SOL     OW13063   3.848   3.245   6.308
 4055SOL    HW113064   3.765   3.295   6.333
 4055SOL    HW213065   3.908   3.237   6.387
 4056SOL     OW13066   3.804   3.872   0.767
 4056SOL    HW113067   3.899   3.878   0.796
 4056SOL    HW213068   3.796   3.804   0.694
 4057SOL     OW13069   5.383   2.253   1.635
 4057SOL    HW113070   5.288   2.231   1.655
 4057SOL    HW213071   5.391   2.286   1.541
 4058SOL     OW13072   1.981   6.880   3.935
 4058SOL    HW113073   2.051   6.847   3.998
 4058SOL    HW213074   2.020   6.950   3.875
 4059SOL     OW13075   0.987   2.762   3.490
 4059SOL    HW113076   0.972   2.758   3.589
 4059SOL    HW213077   0.965   2.854   3.457
 4060SOL     OW13078   4.686   5.307   4.659
 4060SOL    HW113079   4.654   5.332   4.568
 4060SOL    HW213080   4.723   5.215   4.657
 4061SOL     OW13081   3.213   5.014   1.613
 4061SOL    HW113082   3.174   4.970   1.532
 4061SOL    HW213083   3.174   5.105   1.623
 4062SOL     OW13084   2.708   1.853   2.794
 4062SOL    HW113085   2.620   1.804   2.798
 4062SOL    HW213086   2.700   1.940   2.842
 4063SOL     OW13087   6.075   6.318   5.272
 4063SOL    HW113088   6.021   6.388   5.224
 4063SOL    HW213089   6.167   6.314   5.232
 4064SOL     OW13090   1.576   6.670   3.699
 4064SOL    HW113091   1.564   6.744   3.765
 4064SOL    HW213092   1.672   6.644   3.695
 4065SOL     OW13093   6.943   6.776   0.738
 4065SOL    HW113094   0.014   6.772   0.764
 4065SOL    HW213095   6.890   6.817   0.812
 4066SOL     OW13096   5.096   5.856   2.652
 4066SOL    HW113097   5.033   5.923   2.613
 4066SOL    HW213098   5.109   5.781   2.588
 4067SOL     OW13099   5.792   3.262   3.149
 4067SOL    HW113100   5.692   3.257   3.157
 4067SOL    HW213101   5.818   3.351   3.113
 4068SOL     OW13102   3.421   0.373   4.575
 4068SOL    HW113103   3.401   0.277   4.596
 4068SOL    HW213104   3.335   0.424   4.567
 4069SOL     OW13105   4.251   4.548   6.573
 4069SOL    HW113106   4.184   4.567   6.644
 4069SOL    HW213107   4.227   4.463   6.526
 4070SOL     OW13108   0.343   3.830   2.367
 4070SOL    HW113109   0.437   3.821   2.401
 4070SOL    HW213110   0.344   3.840   2.268
 4071SOL     OW13111   1.184   1.126   5.784
 4071SOL    HW113112   1.161   1.033   5.813
 4071SOL    HW213113   1.241   1.169   5.854
 4072SOL     OW13114   1.147   5.811   4.031
 4072SOL    HW113115   1.109   5.843   3.944
 4072SOL    HW213116   1.133   5.882   4.100
 4073SOL     OW13117   2.735   5.808   5.974
 4073SOL    HW113118   2.671   5.742   5.935
 4073SOL    HW213119   2.744   5.793   6.072
 4074SOL     OW13120   0.157   3.042   1.851
 4074SOL    HW113121   0.065   3.026   1.818
 4074SOL    HW213122   0.155   3.066   1.948
 4075SOL     OW13123   4.037   2.127   2.808
 4075SOL    HW113124   3.994   2.181   2.881
 4075SOL    HW213125   4.129   2.101   2.836
 4076SOL     OW13126   3.076   3.800   5.253
 4076SOL    HW113127   3.100   3.883   5.202
 4076SOL    HW213128   3.071   3.823   5.351
 4077SOL     OW13129   3.560   0.078   0.088
 4077SOL    HW113130   3.637   0.033   0.133
 4077SOL    HW213131   3.593   0.125   0.005
 4078SOL     OW13132   6.037   5.692   2.395
 4078SOL    HW113133   6.111   5.679   2.462
 4078SOL    HW213134   5.977   5.612   2.396
 4079SOL     OW13135   0.832   1.645   3.773
 4079SOL    HW113136   0.854   1.674   3.866
 4079SOL    HW213137   0.774   1.714   3.729
 4080SOL     OW13138   2.361   3.568   0.407
 4080SOL    HW113139   2.321   3.573   0.498
 4080SOL    HW213140   2.305   3.509   0.349
 4081SOL     OW13141   1.649   2.090   3.845
 4081SOL    HW113142   1.686   2.044   3.926
 4081SOL    HW213143   1.705   2.066   3.766
 4082SOL     OW13144   1.323   2.552   1.074
 4082SOL    HW113145   1.361   2.583   1.161
 4082SOL    HW213146   1.281   2.629   1.027
 4083SOL     OW13147   6.311   4.134   2.030
 4083SOL    HW113148   6.347   4.184   2.109
 4083SOL    HW213149   6.376   4.137   1.955
 4084SOL     OW13150   4.369   2.125   3.194
 4084SOL    HW113151   4.422   2.042   3.211
 4084SOL    HW213152   4.431   2.202   3.179
 4085SOL     OW13153   2.542   5.470   0.813
 4085SOL    HW113154   2.551   5.490   0.910
 4085SOL    HW213155   2.447   5.446   0.792
 4086SOL     OW13156   0.110   4.599   1.136
 4086SOL    HW113157   0.139   4.613   1.041
 4086SOL    HW213158   0.090   4.503   1.151
 4087SOL     OW13159   1.663   1.666   3.147
 4087SOL    HW113160   1.569   1.637   3.128
 4087SOL    HW213161   1.682   1.751   3.099
 4088SOL     OW13162   6.421   0.951   6.590
 4088SOL    HW113163   6.391   0.913   6.503
 4088SOL    HW213164   6.499   1.011   6.575
 4089SOL     OW13165   6.206   4.793   3.932
 4089SOL    HW113166   6.244   4.709   3.971
 4089SOL    HW213167   6.136   4.829   3.993
 4090SOL     OW13168   1.688   5.813   5.806
 4090SOL    HW113169   1.732   5.810   5.716
 4090SOL    HW213170   1.611   5.749   5.808
 4091SOL     OW13171   0.378   6.262   0.429
 4091SOL    HW113172   0.381   6.272   0.329
 4091SOL    HW213173   0.311   6.192   0.454
 4092SOL     OW13174   5.614   2.442   4.296
 4092SOL    HW113175   5.617   2.364   4.359
 4092SOL    HW213176   5.707   2.473   4.278
 4093SOL     OW13177   4.922   6.492   1.351
 4093SOL    HW113178   4.986   6.546   1.296
 4093SOL    HW213179   4.931   6.516   1.447
 4094SOL     OW13180   1.741   4.891   5.844
 4094SOL    HW113181   1.650   4.884   5.805
 4094SOL    HW213182   1.760   4.986   5.868
 4095SOL     OW13183   0.255   3.897   0.375
 4095SOL    HW113184   0.268   3.805   0.413
 4095SOL    HW213185   0.335   3.923   0.322
 4096SOL     OW13186   4.775   0.841   6.621
 4096SOL    HW113187   4.764   0.924   6.567
 4096SOL    HW213188   4.812   0.768   6.563
 4097SOL     OW13189   4.597   4.622   4.475
 4097SOL    HW113190   4.673   4.556   4.482
 4097SOL    HW213191   4.540   4.598   4.396
 4098SOL     OW13192   0.973   2.226   1.828
 4098SOL    HW113193   0.900   2.232   1.896
 4098SOL    HW213194   1.050   2.175   1.866
 4099SOL     OW13195   4.007   5.206   0.993
 4099SOL    HW113196   3.966   5.283   1.042
 4099SOL    HW213197   3.961   5.194   0.905
 4100SOL     OW13198   0.261   6.496   4.426
 4100SOL    HW113199   0.296   6.544   4.346
 4100SOL    HW213200   0.212   6.560   4.485
 4101SOL     OW13201   0.363   1.638   0.634
 4101SOL    HW113202   0.336   1.710   0.698
 4101SOL    HW213203   0.454   1.604   0.658
 4102SOL     OW13204   1.006   0.776   0.965
 4102SOL    HW113205   1.070   0.708   1.000
 4102SOL    HW213206   1.049   0.867   0.965
 4103SOL     OW13207   0.567   6.899   0.791
 4103SOL    HW113208   0.472   6.905   0.760
 4103SOL    HW213209   0.574   6.932   0.885
 4104SOL     OW13210   0.271   4.820   3.457
 4104SOL    HW113211   0.206   4.746   3.440
 4104SOL    HW213212   0.364   4.784   3.450
 4105SOL     OW13213   5.676   0.649   3.119
 4105SOL    HW113214   5.770   0.629   3.150
 4105SOL    HW213215   5.664   0.615   3.026
 4106SOL     OW13216   6.800   3.152   3.387
 4106SOL    HW113217   6.889   3.159   3.432
 4106SOL    HW213218   6.748   3.078   3.429
 4107SOL     OW13219   1.382   5.716   0.996
 4107SOL    HW113220   1.293   5.682   0.963
 4107SOL    HW213221   1.409   5.794   0.941
 4108SOL     OW13222   6.655   4.997   4.535
 4108SOL    HW113223   6.705   5.024   4.452
 4108SOL    HW213224   6.716   4.947   4.596
 4109SOL     OW13225   6.437   0.397   4.919
 4109SOL    HW113226   6.535   0.376   4.922
 4109SOL    HW213227   6.413   0.435   4.830
 4110SOL     OW13228   4.152   3.506   5.999
 4110SOL    HW113229   4.097   3.478   6.078
 4110SOL    HW213230   4.139   3.604   5.983
 4111SOL     OW13231   5.883   4.802   6.405
 4111SOL    HW113232   5.879   4.703   6.414
 4111SOL    HW213233   5.962   4.828   6.349
 4112SOL     OW13234   4.952   6.161   4.527
 4112SOL    HW113235   4.986   6.088   4.468
 4112SOL    HW213236   4.910   6.120   4.609
 4113SOL     OW13237   5.384   5.676   5.061
 4113SOL    HW113238   5.318   5.633   5.000
 4113SOL    HW213239   5.393   5.622   5.144
 4114SOL     OW13240   3.783   1.964   4.094
 4114SOL    HW113241   3.781   1.871   4.058
 4114SOL    HW213242   3.857   2.016   4.051
 4115SOL     OW13243   3.206   4.861   2.088
 4115SOL    HW113244   3.145   4.906   2.153
 4115SOL    HW213245   3.297   4.902   2.095
 4116SOL     OW13246   3.675   1.504   2.913
 4116SOL    HW113247   3.766   1.490   2.951
 4116SOL    HW213248   3.606   1.477   2.980
 4117SOL     OW13249   0.812   3.374   2.606
 4117SOL    HW113250   0.733   3.427   2.578
 4117SOL    HW213251   0.800   3.279   2.577
 4118SOL     OW13252   5.138   6.691   0.478
 4118SOL    HW113253   5.086   6.608   0.497
 4118SOL    HW213254   5.108   6.731   0.391
 4119SOL     OW13255   2.992   1.712   3.882
 4119SOL    HW113256   2.980   1.646   3.957
 4119SOL    HW213257   2.920   1.698   3.815
 4120SOL     OW13258   3.562   0.990   5.519
 4120SOL    HW113259   3.606   1.054   5.457
 4120SOL    HW213260   3.627   0.963   5.591
 4121SOL     OW13261   6.597   0.193   3.513
 4121SOL    HW113262   6.678   0.138   3.529
 4121SOL    HW213263   6.612   0.287   3.545
 4122SOL     OW13264   1.389   0.042   4.748
 4122SOL    HW113265   1.367   0.138   4.734
 4122SOL    HW213266   1.381   7.018   4.661
 4123SOL     OW13267   4.099   4.572   5.456
 4123SOL    HW113268   4.075   4.494   5.398
 4123SOL    HW213269   4.015   4.615   5.489
 4124SOL     OW13270   6.524   6.257   0.571
 4124SOL    HW113271   6.514   6.242   0.669
 4124SOL    HW213272   6.495   6.349   0.547
 4125SOL     OW13273   4.552   1.796   2.865
 4125SOL    HW113274   4.493   1.792   2.946
 4125SOL    HW213275   4.512   1.741   2.792
 4126SOL     OW13276   1.838   3.264   3.038
 4126SOL    HW113277   1.834   3.256   2.939
 4126SOL    HW213278   1.863   3.357   3.063
 4127SOL     OW13279   5.725   3.733   5.399
 4127SOL    HW113280   5.628   3.741   5.424
 4127SOL    HW213281   5.746   3.638   5.378
 4128SOL     OW13282   0.865   3.284   1.224
 4128SOL    HW113283   0.900   3.285   1.317
 4128SOL    HW213284   0.815   3.199   1.208
 4129SOL     OW13285   3.484   1.031   6.958
 4129SOL    HW113286   3.547   0.979   7.016
 4129SOL    HW213287   3.452   0.972   6.884
 4130SOL     OW13288   6.291   2.729   0.731
 4130SOL    HW113289   6.255   2.776   0.651
 4130SOL    HW213290   6.330   2.795   0.796
 4131SOL     OW13291   0.337   1.463   3.574
 4131SOL    HW113292   0.378   1.400   3.507
 4131SOL    HW213293   0.252   1.501   3.536
 4132SOL     OW13294   5.025   4.044   3.339
 4132SOL    HW113295   4.992   3.950   3.334
 4132SOL    HW213296   5.116   4.050   3.299
 4133SOL     OW13297   3.332   5.901   1.386
 4133SOL    HW113298   3.407   5.908   1.321
 4133SOL    HW213299   3.300   5.993   1.410
 4134SOL     OW13300   2.206   3.683   1.276
 4134SOL    HW113301   2.224   3.781   1.268
 4134SOL    HW213302   2.115   3.670   1.316
 4135SOL     OW13303   0.346   2.335   2.291
 4135SOL    HW113304   0.391   2.292   2.369
 4135SOL    HW213305   0.394   2.309   2.207
 4136SOL     OW13306   1.113   3.279   2.922
 4136SOL    HW113307   1.180   3.299   2.993
 4136SOL    HW213308   1.046   3.213   2.957
 4137SOL     OW13309   1.535   3.778   1.242
 4137SOL    HW113310   1.583   3.730   1.316
 4137SOL    HW213311   1.540   3.876   1.257
 4138SOL     OW13312   3.964   5.608   2.715
 4138SOL    HW113313   3.895   5.681   2.717
 4138SOL    HW213314   4.006   5.599   2.805
 4139SOL     OW13315   1.549   1.529   5.230
 4139SOL    HW113316   1.640   1.569   5.220
 4139SOL    HW213317   1.517   1.496   5.141
 4140SOL     OW13318   3.680   0.949   5.066
 4140SOL    HW113319   3.660   0.937   4.969
 4140SOL    HW213320   3.759   1.009   5.076
 4141SOL     OW13321   4.987   6.289   1.162
 4141SOL    HW113322   5.075   6.281   1.210
 4141SOL    HW213323   4.933   6.361   1.204
 4142SOL     OW13324   6.430   4.899   1.067
 4142SOL    HW113325   6.420   4.807   1.107
 4142SOL    HW213326   6.525   4.928   1.074
 4143SOL     OW13327   5.774   2.441   0.923
 4143SOL    HW113328   5.692   2.471   0.874
 4143SOL    HW213329   5.762   2.457   1.021
 4144SOL     OW13330   4.684   1.776   6.933
 4144SOL    HW113331   4.625   1.698   6.913
 4144SOL    HW213332   4.779   1.753   6.914
 4145SOL     OW13333   0.181   6.534   1.598
 4145SOL    HW113334   0.119   6.506   1.670
 4145SOL    HW213335   0.157   6.486   1.513
 4146SOL     OW13336   6.182   0.401   3.228
 4146SOL    HW113337   6.125   0.415   3.309
 4146SOL    HW213338   6.225   0.311   3.233
 4147SOL     OW13339   4.591   5.023   5.995
 4147SOL    HW113340   4.632   4.972   5.920
 4147SOL    HW213341   4.491   5.024   5.984
 4148SOL     OW13342   2.661   0.222   4.740
 4148SOL    HW113343   2.704   0.157   4.678
 4148SOL    HW213344   2.562   0.221   4.727
 4149SOL     OW13345   6.972   4.018   1.208
 4149SOL    HW113346   7.000   4.078   1.134
 4149SOL    HW213347   6.875   3.997   1.200
 4150SOL     OW13348   1.503   0.457   6.040
 4150SOL    HW113349   1.463   0.459   6.132
 4150SOL    HW213350   1.437   0.490   5.973
 4151SOL     OW13351   3.122   6.079   5.643
 4151SOL    HW113352   3.133   6.027   5.728
 4151SOL    HW213353   3.049   6.038   5.589
 4152SOL     OW13354   4.312   5.663   1.260
 4152SOL    HW113355   4.253   5.725   1.209
 4152SOL    HW213356   4.267   5.574   1.270
 4153SOL     OW13357   5.911   5.166   1.114
 4153SOL    HW113358   5.913   5.119   1.202
 4153SOL    HW213359   5.974   5.244   1.116
 4154SOL     OW13360   6.966   5.033   3.722
 4154SOL    HW113361   0.027   5.038   3.672
 4154SOL    HW213362   6.980   5.067   3.815
 4155SOL     OW13363   0.112   0.923   1.636
 4155SOL    HW113364   0.131   0.961   1.726
 4155SOL    HW213365   0.173   0.846   1.618
 4156SOL     OW13366   6.037   6.054   4.851
 4156SOL    HW113367   5.992   6.005   4.926
 4156SOL    HW213368   6.018   6.151   4.858
 4157SOL     OW13369   4.970   5.447   4.159
 4157SOL    HW113370   5.027   5.495   4.226
 4157SOL    HW213371   4.928   5.514   4.098
 4158SOL     OW13372   0.487   3.238   1.475
 4158SOL    HW113373   0.487   3.174   1.552
 4158SOL    HW213374   0.445   3.194   1.396
 4159SOL     OW13375   2.220   2.938   3.006
 4159SOL    HW113376   2.212   3.038   3.011
 4159SOL    HW213377   2.259   2.904   3.091
 4160SOL     OW13378   5.442   0.817   0.384
 4160SOL    HW113379   5.536   0.787   0.400
 4160SOL    HW213380   5.382   0.737   0.379
 4161SOL     OW13381   1.052   2.074   0.848
 4161SOL    HW113382   1.087   2.002   0.789
 4161SOL    HW213383   1.074   2.053   0.944
 4162SOL     OW13384   6.564   6.004   0.094
 4162SOL    HW113385   6.505   5.944   0.041
 4162SOL    HW213386   6.512   6.044   0.170
 4163SOL     OW13387   5.119   0.474   2.841
 4163SOL    HW113388   5.182   0.410   2.887
 4163SOL    HW213389   5.168   0.524   2.770
 4164SOL     OW13390   1.939   6.534   5.798
 4164SOL    HW113391   1.926   6.600   5.873
 4164SOL    HW213392   1.901   6.446   5.825
 4165SOL     OW13393   4.333   0.802   5.861
 4165SOL    HW113394   4.262   0.870   5.880
 4165SOL    HW213395   4.399   0.801   5.936
 4166SOL     OW13396   5.368   1.774   0.723
 4166SOL    HW113397   5.421   1.698   0.686
 4166SOL    HW213398   5.295   1.798   0.659
 4167SOL     OW13399   2.404   4.304   0.114
 4167SOL    HW113400   2.342   4.225   0.112
 4167SOL    HW213401   2.357   4.385   0.080
 4168SOL     OW13402   0.016   4.340   1.284
 4168SOL    HW113403   7.012   4.301   1.197
 4168SOL    HW213404   0.116   4.341   1.288
 4169SOL     OW13405   5.820   5.451   5.049
 4169SOL    HW113406   5.732   5.408   5.072
 4169SOL    HW213407   5.814   5.492   4.958
 4170SOL     OW13408   4.688   3.411   6.665
 4170SOL    HW113409   4.699   3.504   6.632
 4170SOL    HW213410   4.772   3.381   6.710
 4171SOL     OW13411   6.574   5.955   0.787
 4171SOL    HW113412   6.563   5.918   0.695
 4171SOL    HW213413   6.558   5.882   0.854
 4172SOL     OW13414   1.299   2.189   6.106
 4172SOL    HW113415   1.217   2.151   6.149
 4172SOL    HW213416   1.306   2.286   6.127
 4173SOL     OW13417   5.277   4.168   4.511
 4173SOL    HW113418   5.341   4.127   4.575
 4173SOL    HW213419   5.187   4.175   4.554
 4174SOL     OW13420   4.536   1.369   2.707
 4174SOL    HW113421   4.488   1.284   2.729
 4174SOL    HW213422   4.605   1.387   2.777
 4175SOL     OW13423   2.048   5.592   4.489
 4175SOL    HW113424   2.059   5.632   4.581
 4175SOL    HW213425   1.960   5.544   4.485
 4176SOL     OW13426   3.440   6.186   1.934
 4176SOL    HW113427   3.363   6.156   1.990
 4176SOL    HW213428   3.472   6.275   1.966
 4177SOL     OW13429   5.754   5.159   5.360
 4177SOL    HW113430   5.713   5.091   5.300
 4177SOL    HW213431   5.745   5.129   5.455
 4178SOL     OW13432   3.973   0.005   4.344
 4178SOL    HW113433   3.952   6.953   4.284
 4178SOL    HW213434   3.969   0.090   4.292
 4179SOL     OW13435   5.538   3.061   3.025
 4179SOL    HW113436   5.628   3.022   3.005
 4179SOL    HW213437   5.549   3.149   3.070
 4180SOL     OW13438   4.708   4.336   0.682
 4180SOL    HW113439   4.747   4.247   0.706
 4180SOL    HW213440   4.779   4.393   0.640
 4181SOL     OW13441   3.568   0.978   0.478
 4181SOL    HW113442   3.622   0.989   0.394
 4181SOL    HW213443   3.490   1.041   0.477
 4182SOL     OW13444   1.082   6.545   3.465
 4182SOL    HW113445   1.050   6.562   3.372
 4182SOL    HW213446   1.175   6.507   3.461
 4183SOL     OW13447   2.976   1.481   6.958
 4183SOL    HW113448   2.939   1.555   7.013
 4183SOL    HW213449   2.927   1.475   6.871
 4184SOL     OW13450   3.936   6.385   2.330
 4184SOL    HW113451   3.882   6.463   2.361
 4184SOL    HW213452   4.022   6.417   2.289
 4185SOL     OW13453   0.774   4.910   2.883
 4185SOL    HW113454   0.742   4.925   2.977
 4185SOL    HW213455   0.871   4.936   2.877
 4186SOL     OW13456   3.017   4.796   0.130
 4186SOL    HW113457   3.023   4.699   0.155
 4186SOL    HW213458   2.928   4.813   0.086
 4187SOL     OW13459   4.040   3.474   5.408
 4187SOL    HW113460   4.106   3.400   5.418
 4187SOL    HW213461   3.949   3.436   5.391
 4188SOL     OW13462   5.199   0.602   5.057
 4188SOL    HW113463   5.157   0.654   5.132
 4188SOL    HW213464   5.246   0.664   4.995
 4189SOL     OW13465   3.340   5.027   5.600
 4189SOL    HW113466   3.432   5.020   5.639
 4189SOL    HW213467   3.319   5.123   5.580
 4190SOL     OW13468   0.670   0.500   0.490
 4190SOL    HW113469   0.624   0.415   0.465
 4190SOL    HW213470   0.689   0.500   0.588
 4191SOL     OW13471   4.856   4.363   3.501
 4191SOL    HW113472   4.790   4.297   3.537
 4191SOL    HW213473   4.828   4.391   3.409
 4192SOL     OW13474   0.721   0.619   4.018
 4192SOL    HW113475   0.626   0.596   3.998
 4192SOL    HW213476   0.735   0.717   4.007
 4193SOL     OW13477   0.195   1.034   1.866
 4193SOL    HW113478   0.152   1.006   1.952
 4193SOL    HW213479   0.266   1.101   1.884
 4194SOL     OW13480   6.107   0.051   4.281
 4194SOL    HW113481   6.130   7.009   4.351
 4194SOL    HW213482   6.131   0.015   4.191
 4195SOL     OW13483   4.036   6.550   1.666
 4195SOL    HW113484   4.024   6.647   1.648
 4195SOL    HW213485   4.115   6.537   1.725
 4196SOL     OW13486   6.142   1.957   2.825
 4196SOL    HW113487   6.061   2.002   2.864
 4196SOL    HW213488   6.113   1.886   2.761
 4197SOL     OW13489   4.614   5.394   5.825
 4197SOL    HW113490   4.611   5.354   5.917
 4197SOL    HW213491   4.615   5.321   5.757
 4198SOL     OW13492   5.692   2.254   0.206
 4198SOL    HW113493   5.621   2.191   0.176
 4198SOL    HW213494   5.715   2.316   0.131
 4199SOL     OW13495   1.946   2.707   6.248
 4199SOL    HW113496   1.903   2.796   6.235
 4199SOL    HW213497   1.943   2.682   6.345
 4200SOL     OW13498   3.951   0.426   6.021
 4200SOL    HW113499   3.953   0.518   5.982
 4200SOL    HW213500   4.014   0.367   5.970
 4201SOL     OW13501   5.951   7.015   3.683
 4201SOL    HW113502   5.884   0.040   3.738
 4201SOL    HW213503   5.968   0.039   3.598
 4202SOL     OW13504   3.670   5.679   5.296
 4202SOL    HW113505   3.608   5.713   5.225
 4202SOL    HW213506   3.680   5.748   5.368
 4203SOL     OW13507   4.086   4.971   0.218
 4203SOL    HW113508   4.082   4.974   0.318
 4203SOL    HW213509   4.076   5.064   0.182
 4204SOL     OW13510   3.540   3.914   2.837
 4204SOL    HW113511   3.577   3.965   2.914
 4204SOL    HW213512   3.526   3.975   2.759
 4205SOL     OW13513   4.098   5.864   3.219
 4205SOL    HW113514   4.158   5.784   3.209
 4205SOL    HW213515   4.135   5.940   3.166
 4206SOL     OW13516   6.818   0.525   6.059
 4206SOL    HW113517   6.847   0.482   5.973
 4206SOL    HW213518   6.883   0.597   6.083
 4207SOL     OW13519   2.023   1.599   1.116
 4207SOL    HW113520   1.968   1.643   1.187
 4207SOL    HW213521   2.016   1.650   1.031
 4208SOL     OW13522   0.120   2.520   5.891
 4208SOL    HW113523   0.098   2.605   5.843
 4208SOL    HW213524   0.036   2.482   5.931
 4209SOL     OW13525   0.071   0.210   4.262
 4209SOL    HW113526   0.043   0.280   4.196
 4209SOL    HW213527   7.022   0.145   4.275
 4210SOL     OW13528   3.421   3.556   2.308
 4210SOL    HW113529   3.431   3.569   2.209
 4210SOL    HW213530   3.375   3.635   2.348
 4211SOL     OW13531   4.729   6.382   6.293
 4211SOL    HW113532   4.758   6.433   6.212
 4211SOL    HW213533   4.646   6.330   6.272
 4212SOL     OW13534   6.004   1.652   2.786
 4212SOL    HW113535   5.930   1.646   2.718
 4212SOL    HW213536   5.964   1.660   2.877
 4213SOL     OW13537   1.877   1.045   1.318
 4213SOL    HW113538   1.964   1.000   1.303
 4213SOL    HW213539   1.892   1.143   1.334
 4214SOL     OW13540   0.963   5.244   5.263
 4214SOL    HW113541   0.899   5.297   5.207
 4214SOL    HW213542   0.923   5.155   5.285
 4215SOL     OW13543   5.559   6.954   5.643
 4215SOL    HW113544   5.481   6.892   5.633
 4215SOL    HW213545   5.586   6.987   5.553
 4216SOL     OW13546   1.178   1.166   2.638
 4216SOL    HW113547   1.172   1.152   2.737
 4216SOL    HW213548   1.140   1.255   2.614
 4217SOL     OW13549   0.932   0.492   2.152
 4217SOL    HW113550   1.001   0.522   2.086
 4217SOL    HW213551   0.861   0.440   2.105
 4218SOL     OW13552   4.460   0.923   1.452
 4218SOL    HW113553   4.401   0.987   1.500
 4218SOL    HW213554   4.473   0.841   1.509
 4219SOL     OW13555   3.616   5.493   3.850
 4219SOL    HW113556   3.591   5.519   3.943
 4219SOL    HW213557   3.665   5.406   3.851
 4220SOL     OW13558   6.042   2.295   4.223
 4220SOL    HW113559   5.995   2.345   4.296
 4220SOL    HW213560   5.981   2.227   4.184
 4221SOL     OW13561   5.755   5.014   6.794
 4221SOL    HW113562   5.720   5.026   6.887
 4221SOL    HW213563   5.684   5.040   6.729
 4222SOL     OW13564   6.242   2.171   2.654
 4222SOL    HW113565   6.223   2.092   2.713
 4222SOL    HW213566   6.341   2.187   2.652
 4223SOL     OW13567   4.033   3.082   6.144
 4223SOL    HW113568   4.105   3.151   6.152
 4223SOL    HW213569   3.968   3.094   6.220
 4224SOL     OW13570   5.244   3.596   4.206
 4224SOL    HW113571   5.198   3.679   4.174
 4224SOL    HW213572   5.337   3.619   4.236
 4225SOL     OW13573   3.988   1.232   5.607
 4225SOL    HW113574   3.984   1.197   5.700
 4225SOL    HW213575   4.069   1.194   5.561
 4226SOL     OW13576   0.942   0.436   2.679
 4226SOL    HW113577   0.860   0.415   2.733
 4226SOL    HW213578   0.915   0.466   2.588
 4227SOL     OW13579   3.753   4.587   1.192
 4227SOL    HW113580   3.763   4.530   1.274
 4227SOL    HW213581   3.705   4.535   1.121
 4228SOL     OW13582   0.508   4.265   4.870
 4228SOL    HW113583   0.513   4.320   4.786
 4228SOL    HW213584   0.535   4.171   4.850
 4229SOL     OW13585   4.831   5.541   5.734
 4229SOL    HW113586   4.800   5.581   5.648
 4229SOL    HW213587   4.754   5.501   5.783
 4230SOL     OW13588   1.518   6.500   3.015
 4230SOL    HW113589   1.603   6.449   3.031
 4230SOL    HW213590   1.530   6.560   2.936
 4231SOL     OW13591   5.866   6.764   5.527
 4231SOL    HW113592   5.963   6.767   5.503
 4231SOL    HW213593   5.853   6.803   5.618
 4232SOL     OW13594   0.038   4.949   2.536
 4232SOL    HW113595   0.023   4.897   2.452
 4232SOL    HW213596   0.135   4.975   2.543
 4233SOL     OW13597   6.991   0.964   6.394
 4233SOL    HW113598   7.005   1.052   6.439
 4233SOL    HW213599   7.014   0.890   6.458
 4234SOL     OW13600   2.562   6.572   5.415
 4234SOL    HW113601   2.543   6.612   5.504
 4234SOL    HW213602   2.487   6.593   5.352
 4235SOL     OW13603   5.945   3.965   5.766
 4235SOL    HW113604   6.014   3.936   5.701
 4235SOL    HW213605   5.986   3.976   5.856
 4236SOL     OW13606   6.348   3.609   2.892
 4236SOL    HW113607   6.287   3.532   2.909
 4236SOL    HW213608   6.342   3.674   2.968
 4237SOL     OW13609   5.345   5.411   2.180
 4237SOL    HW113610   5.310   5.345   2.113
 4237SOL    HW213611   5.438   5.384   2.206
 4238SOL     OW13612   2.944   5.106   2.843
 4238SOL    HW113613   2.878   5.139   2.910
 4238SOL    HW213614   2.895   5.073   2.762
 4239SOL     OW13615   5.568   1.639   3.122
 4239SOL    HW113616   5.532   1.668   3.033
 4239SOL    HW213617   5.573   1.539   3.125
 4240SOL     OW13618   2.229   6.980   6.707
 4240SOL    HW113619   2.209   0.035   6.763
 4240SOL    HW213620   2.182   6.901   6.745
 4241SOL     OW13621   6.283   1.288   0.486
 4241SOL    HW113622   6.221   1.300   0.408
 4241SOL    HW213623   6.308   1.377   0.523
 4242SOL     OW13624   2.577   1.067   3.914
 4242SOL    HW113625   2.589   1.166   3.905
 4242SOL    HW213626   2.656   1.020   3.875
 4243SOL     OW13627   6.427   3.136   3.231
 4243SOL    HW113628   6.495   3.079   3.276
 4243SOL    HW213629   6.431   3.122   3.132
 4244SOL     OW13630   4.415   4.498   1.289
 4244SOL    HW113631   4.353   4.509   1.212
 4244SOL    HW213632   4.394   4.413   1.337
 4245SOL     OW13633   0.142   1.234   6.032
 4245SOL    HW113634   0.124   1.144   6.071
 4245SOL    HW213635   0.114   1.235   5.936
 4246SOL     OW13636   6.889   4.090   3.098
 4246SOL    HW113637   6.984   4.093   3.066
 4246SOL    HW213638   6.885   4.056   3.191
 4247SOL     OW13639   2.999   4.824   3.266
 4247SOL    HW113640   2.918   4.833   3.208
 4247SOL    HW213641   3.079   4.810   3.208
 4248SOL     OW13642   2.040   1.854   3.940
 4248SOL    HW113643   1.990   1.918   3.999
 4248SOL    HW213644   2.137   1.854   3.964
 4249SOL     OW13645   5.523   2.345   3.987
 4249SOL    HW113646   5.543   2.250   4.009
 4249SOL    HW213647   5.571   2.405   4.051
 4250SOL     OW13648   6.884   5.646   3.264
 4250SOL    HW113649   6.915   5.740   3.278
 4250SOL    HW213650   6.963   5.586   3.257
 4251SOL     OW13651   5.504   4.186   1.438
 4251SOL    HW113652   5.443   4.258   1.470
 4251SOL    HW213653   5.525   4.124   1.514
 4252SOL     OW13654   5.940   6.891   6.674
 4252SOL    HW113655   5.886   6.816   6.636
 4252SOL    HW213656   5.980   6.945   6.600
 4253SOL     OW13657   3.371   6.895   1.203
 4253SOL    HW113658   3.372   6.885   1.104
 4253SOL    HW213659   3.304   6.832   1.242
 4254SOL     OW13660   1.137   3.672   2.079
 4254SOL    HW113661   1.063   3.718   2.031
 4254SOL    HW213662   1.151   3.715   2.168
 4255SOL     OW13663   0.084   4.220   4.182
 4255SOL    HW113664   0.128   4.171   4.257
 4255SOL    HW213665   0.001   4.171   4.156
 4256SOL     OW13666   1.916   6.319   0.573
 4256SOL    HW113667   1.824   6.324   0.612
 4256SOL    HW213668   1.983   6.321   0.647
 4257SOL     OW13669   2.891   0.742   4.401
 4257SOL    HW113670   2.957   0.817   4.407
 4257SOL    HW213671   2.801   0.778   4.380
 4258SOL     OW13672   3.486   6.272   0.858
 4258SOL    HW113673   3.452   6.365   0.845
 4258SOL    HW213674   3.525   6.264   0.950
 4259SOL     OW13675   2.384   0.708   1.038
 4259SOL    HW113676   2.326   0.676   0.963
 4259SOL    HW213677   2.480   0.704   1.010
 4260SOL     OW13678   5.857   0.666   1.498
 4260SOL    HW113679   5.821   0.574   1.515
 4260SOL    HW213680   5.941   0.679   1.552
 4261SOL     OW13681   2.283   0.110   2.712
 4261SOL    HW113682   2.349   0.175   2.674
 4261SOL    HW213683   2.331   0.041   2.766
 4262SOL     OW13684   0.677   4.380   6.450
 4262SOL    HW113685   0.633   4.372   6.360
 4262SOL    HW213686   0.606   4.387   6.521
 4263SOL     OW13687   3.021   0.589   2.995
 4263SOL    HW113688   3.056   0.502   2.962
 4263SOL    HW213689   2.928   0.577   3.031
 4264SOL     OW13690   6.228   1.715   3.286
 4264SOL    HW113691   6.282   1.664   3.354
 4264SOL    HW213692   6.135   1.679   3.284
 4265SOL     OW13693   4.241   1.708   0.938
 4265SOL    HW113694   4.243   1.667   1.030
 4265SOL    HW213695   4.147   1.721   0.909
 4266SOL     OW13696   1.795   5.636   6.356
 4266SOL    HW113697   1.842   5.698   6.419
 4266SOL    HW213698   1.811   5.541   6.385
 4267SOL     OW13699   2.151   3.864   3.724
 4267SOL    HW113700   2.194   3.930   3.663
 4267SOL    HW213701   2.054   3.856   3.702
 4268SOL     OW13702   0.867   5.804   6.307
 4268SOL    HW113703   0.951   5.750   6.310
 4268SOL    HW213704   0.847   5.828   6.212
 4269SOL     OW13705   2.766   0.605   2.584
 4269SOL    HW113706   2.704   0.672   2.624
 4269SOL    HW213707   2.858   0.644   2.578
 4270SOL     OW13708   3.948   3.618   3.273
 4270SOL    HW113709   3.852   3.592   3.261
 4270SOL    HW213710   3.972   3.689   3.207
 4271SOL     OW13711   6.576   1.237   6.891
 4271SOL    HW113712   6.542   1.279   6.976
 4271SOL    HW213713   6.672   1.259   6.879
 4272SOL     OW13714   6.664   2.588   4.274
 4272SOL    HW113715   6.688   2.491   4.268
 4272SOL    HW213716   6.667   2.618   4.369
 4273SOL     OW13717   4.778   6.885   5.045
 4273SOL    HW113718   4.728   6.816   5.098
 4273SOL    HW213719   4.713   6.954   5.012
 4274SOL     OW13720   0.860   6.853   1.638
 4274SOL    HW113721   0.811   6.821   1.719
 4274SOL    HW213722   0.949   6.807   1.632
 4275SOL     OW13723   6.696   2.380   4.475
 4275SOL    HW113724   6.692   2.476   4.501
 4275SOL    HW213725   6.761   2.332   4.533
 4276SOL     OW13726   1.980   5.569   3.849
 4276SOL    HW113727   1.921   5.490   3.834
 4276SOL    HW213728   1.928   5.653   3.832
 4277SOL     OW13729   6.110   4.752   3.319
 4277SOL    HW113730   6.167   4.805   3.381
 4277SOL    HW213731   6.080   4.810   3.243
 4278SOL     OW13732   0.033   0.028   5.396
 4278SOL    HW113733   0.062   0.057   5.487
 4278SOL    HW213734   0.113   0.022   5.336
 4279SOL     OW13735   3.640   0.956   3.934
 4279SOL    HW113736   3.655   0.901   4.017
 4279SOL    HW213737   3.552   0.932   3.894
 4280SOL     OW13738   5.176   0.677   6.066
 4280SOL    HW113739   5.191   0.645   5.973
 4280SOL    HW213740   5.139   0.602   6.121
 4281SOL     OW13741   0.263   4.214   3.210
 4281SOL    HW113742   0.194   4.281   3.181
 4281SOL    HW213743   0.353   4.257   3.213
 4282SOL     OW13744   3.675   4.182   5.956
 4282SOL    HW113745   3.739   4.246   5.915
 4282SOL    HW213746   3.591   4.229   5.979
 4283SOL     OW13747   1.683   0.688   3.014
 4283SOL    HW113748   1.737   0.618   2.968
 4283SOL    HW213749   1.664   0.659   3.108
 4284SOL     OW13750   4.287   4.826   1.261
 4284SOL    HW113751   4.340   4.765   1.202
 4284SOL    HW213752   4.212   4.867   1.208
 4285SOL     OW13753   1.875   0.581   5.503
 4285SOL    HW113754   1.841   0.632   5.582
 4285SOL    HW213755   1.936   0.639   5.449
 4286SOL     OW13756   5.140   6.867   5.745
 4286SOL    HW113757   5.169   6.961   5.757
 4286SOL    HW213758   5.072   6.844   5.816
 4287SOL     OW13759   5.786   1.167   5.678
 4287SOL    HW113760   5.721   1.224   5.728
 4287SOL    HW213761   5.842   1.224   5.619
 4288SOL     OW13762   0.380   5.549   3.773
 4288SOL    HW113763   0.312   5.505   3.715
 4288SOL    HW213764   0.470   5.542   3.731
 4289SOL     OW13765   0.025   3.112   6.236
 4289SOL    HW113766   6.983   3.053   6.280
 4289SOL    HW213767   0.071   3.168   6.306
 4290SOL     OW13768   1.355   6.070   3.726
 4290SOL    HW113769   1.321   6.138   3.661
 4290SOL    HW213770   1.366   6.112   3.816
 4291SOL     OW13771   4.709   3.482   0.280
 4291SOL    HW113772   4.800   3.514   0.254
 4291SOL    HW213773   4.668   3.433   0.203
 4292SOL     OW13774   5.620   2.918   0.072
 4292SOL    HW113775   5.571   2.956   0.150
 4292SOL    HW213776   5.646   2.823   0.093
 4293SOL     OW13777   2.443   2.478   6.814
 4293SOL    HW113778   2.475   2.550   6.752
 4293SOL    HW213779   2.450   2.389   6.768
 4294SOL     OW13780   1.919   2.123   6.801
 4294SOL    HW113781   1.990   2.170   6.853
 4294SOL    HW213782   1.930   2.024   6.811
 4295SOL     OW13783   3.809   5.564   5.070
 4295SOL    HW113784   3.734   5.616   5.110
 4295SOL    HW213785   3.775   5.511   4.992
 4296SOL     OW13786   3.120   6.916   0.869
 4296SOL    HW113787   3.168   6.991   0.916
 4296SOL    HW213788   3.148   6.913   0.773
 4297SOL     OW13789   5.054   0.187   6.876
 4297SOL    HW113790   5.116   0.265   6.867
 4297SOL    HW213791   4.960   0.217   6.861
 4298SOL     OW13792   3.701   4.994   0.346
 4298SOL    HW113793   3.680   5.088   0.318
 4298SOL    HW213794   3.748   4.995   0.434
 4299SOL     OW13795   1.426   3.322   6.619
 4299SOL    HW113796   1.524   3.323   6.601
 4299SOL    HW213797   1.379   3.385   6.557
 4300SOL     OW13798   3.243   6.725   0.199
 4300SOL    HW113799   3.220   6.692   0.291
 4300SOL    HW213800   3.327   6.779   0.204
 4301SOL     OW13801   3.845   0.984   1.778
 4301SOL    HW113802   3.795   1.053   1.726
 4301SOL    HW213803   3.807   0.979   1.871
 4302SOL     OW13804   0.874   0.175   6.233
 4302SOL    HW113805   0.948   0.163   6.167
 4302SOL    HW213806   0.826   0.261   6.213
 4303SOL     OW13807   6.802   4.504   3.963
 4303SOL    HW113808   6.823   4.442   3.888
 4303SOL    HW213809   6.731   4.464   4.022
 4304SOL     OW13810   3.169   4.057   1.971
 4304SOL    HW113811   3.108   4.129   2.004
 4304SOL    HW213812   3.188   4.071   1.874
 4305SOL     OW13813   0.280   0.293   5.152
 4305SOL    HW113814   0.204   0.351   5.181
 4305SOL    HW213815   0.258   0.197   5.173
 4306SOL     OW13816   5.059   5.097   5.512
 4306SOL    HW113817   4.995   5.062   5.581
 4306SOL    HW213818   5.076   5.194   5.528
 4307SOL     OW13819   5.560   3.875   5.904
 4307SOL    HW113820   5.474   3.924   5.912
 4307SOL    HW213821   5.599   3.889   5.813
 4308SOL     OW13822   5.915   4.652   1.232
 4308SOL    HW113823   5.975   4.647   1.312
 4308SOL    HW213824   5.965   4.694   1.156
 4309SOL     OW13825   0.884   1.161   0.026
 4309SOL    HW113826   0.972   1.177   7.008
 4309SOL    HW213827   0.897   1.137   0.122
 4310SOL     OW13828   2.313   2.687   2.211
 4310SOL    HW113829   2.282   2.704   2.304
 4310SOL    HW213830   2.397   2.632   2.214
 4311SOL     OW13831   1.957   6.227   2.722
 4311SOL    HW113832   1.891   6.297   2.752
 4311SOL    HW213833   1.977   6.240   2.624
 4312SOL     OW13834   2.068   5.860   1.488
 4312SOL    HW113835   2.144   5.915   1.455
 4312SOL    HW213836   1.991   5.919   1.511
 4313SOL     OW13837   4.494   1.231   1.247
 4313SOL    HW113838   4.492   1.206   1.150
 4313SOL    HW213839   4.408   1.275   1.272
 4314SOL     OW13840   6.010   1.224   4.564
 4314SOL    HW113841   5.972   1.135   4.538
 4314SOL    HW213842   6.017   1.282   4.483
 4315SOL     OW13843   2.483   6.052   2.311
 4315SOL    HW113844   2.469   6.095   2.222
 4315SOL    HW213845   2.541   6.110   2.368
 4316SOL     OW13846   5.367   0.860   1.961
 4316SOL    HW113847   5.435   0.875   1.889
 4316SOL    HW213848   5.324   0.770   1.947
 4317SOL     OW13849   5.206   2.642   4.755
 4317SOL    HW113850   5.210   2.558   4.701
 4317SOL    HW213851   5.286   2.698   4.736
 4318SOL     OW13852   0.521   2.851   4.267
 4318SOL    HW113853   0.496   2.946   4.282
 4318SOL    HW213854   0.546   2.838   4.171
 4319SOL     OW13855   1.857   1.399   0.698
 4319SOL    HW113856   1.896   1.355   0.616
 4319SOL    HW213857   1.813   1.484   0.672
 4320SOL     OW13858   4.933   5.004   0.145
 4320SOL    HW113859   4.847   5.038   0.183
 4320SOL    HW213860   4.917   4.969   0.053
 4321SOL     OW13861   6.895   6.460   5.013
 4321SOL    HW113862   6.796   6.455   5.003
 4321SOL    HW213863   6.930   6.532   4.953
 4322SOL     OW13864   6.185   2.790   6.684
 4322SOL    HW113865   6.283   2.809   6.676
 4322SOL    HW213866   6.170   2.691   6.673
 4323SOL     OW13867   4.749   4.172   0.226
 4323SOL    HW113868   4.656   4.136   0.225
 4323SOL    HW213869   4.807   4.112   0.282
 4324SOL     OW13870   5.592   3.689   6.786
 4324SOL    HW113871   5.612   3.591   6.775
 4324SOL    HW213872   5.581   3.710   6.883
 4325SOL     OW13873   2.109   1.379   1.769
 4325SOL    HW113874   2.152   1.305   1.717
 4325SOL    HW213875   2.062   1.341   1.848
 4326SOL     OW13876   4.595   4.874   3.763
 4326SOL    HW113877   4.666   4.807   3.739
 4326SOL    HW213878   4.562   4.855   3.855
 4327SOL     OW13879   5.766   6.035   1.554
 4327SOL    HW113880   5.784   5.992   1.466
 4327SOL    HW213881   5.669   6.063   1.558
 4328SOL     OW13882   4.378   3.577   5.664
 4328SOL    HW113883   4.355   3.636   5.586
 4328SOL    HW213884   4.298   3.522   5.689
 4329SOL     OW13885   4.613   2.144   5.464
 4329SOL    HW113886   4.615   2.243   5.482
 4329SOL    HW213887   4.519   2.117   5.441
 4330SOL     OW13888   2.288   6.203   4.265
 4330SOL    HW113889   2.244   6.113   4.275
 4330SOL    HW213890   2.387   6.190   4.259
 4331SOL     OW13891   5.504   1.790   1.948
 4331SOL    HW113892   5.571   1.721   1.922
 4331SOL    HW213893   5.435   1.748   2.008
 4332SOL     OW13894   4.956   3.316   2.148
 4332SOL    HW113895   4.923   3.272   2.064
 4332SOL    HW213896   4.919   3.409   2.153
 4333SOL     OW13897   3.946   1.171   5.869
 4333SOL    HW113898   3.873   1.102   5.870
 4333SOL    HW213899   3.933   1.234   5.946
 4334SOL     OW13900   1.791   1.992   2.769
 4334SOL    HW113901   1.727   2.021   2.697
 4334SOL    HW213902   1.818   2.072   2.823
 4335SOL     OW13903   3.532   4.093   2.594
 4335SOL    HW113904   3.476   4.101   2.512
 4335SOL    HW213905   3.627   4.115   2.573
 4336SOL     OW13906   3.404   6.659   5.845
 4336SOL    HW113907   3.435   6.579   5.896
 4336SOL    HW213908   3.414   6.642   5.747
 4337SOL     OW13909   0.852   4.421   0.496
 4337SOL    HW113910   0.909   4.493   0.534
 4337SOL    HW213911   0.909   4.344   0.470
 4338SOL     OW13912   6.300   0.118   5.959
 4338SOL    HW113913   6.272   0.111   5.863
 4338SOL    HW213914   6.230   0.166   6.010
 4339SOL     OW13915   5.093   3.570   5.660
 4339SOL    HW113916   5.007   3.603   5.622
 4339SOL    HW213917   5.156   3.546   5.586
 4340SOL     OW13918   6.143   3.738   1.745
 4340SOL    HW113919   6.203   3.691   1.810
 4340SOL    HW213920   6.073   3.675   1.712
 4341SOL     OW13921   0.798   5.030   1.696
 4341SOL    HW113922   0.756   4.960   1.753
 4341SOL    HW213923   0.853   5.091   1.753
 4342SOL     OW13924   5.490   3.937   3.953
 4342SOL    HW113925   5.403   3.976   3.984
 4342SOL    HW213926   5.516   3.863   4.015
 4343SOL     OW13927   2.659   6.034   5.354
 4343SOL    HW113928   2.619   6.053   5.265
 4343SOL    HW213929   2.613   6.088   5.424
 4344SOL     OW13930   0.041   3.982   2.086
 4344SOL    HW113931   0.033   3.991   1.987
 4344SOL    HW213932   7.020   3.898   2.115
 4345SOL     OW13933   3.565   3.940   4.935
 4345SOL    HW113934   3.497   4.014   4.938
 4345SOL    HW213935   3.656   3.979   4.940
 4346SOL     OW13936   1.810   3.349   2.762
 4346SOL    HW113937   1.904   3.343   2.731
 4346SOL    HW213938   1.749   3.311   2.692
 4347SOL     OW13939   6.416   6.399   3.123
 4347SOL    HW113940   6.476   6.322   3.147
 4347SOL    HW213941   6.451   6.444   3.041
 4348SOL     OW13942   6.937   5.365   3.638
 4348SOL    HW113943   6.901   5.337   3.549
 4348SOL    HW213944   6.890   5.314   3.710
 4349SOL     OW13945   5.466   1.687   2.866
 4349SOL    HW113946   5.494   1.637   2.784
 4349SOL    HW213947   5.473   1.786   2.849
 4350SOL     OW13948   3.357   1.872   3.918
 4350SOL    HW113949   3.269   1.898   3.958
 4350SOL    HW213950   3.423   1.853   3.991
 4351SOL     OW13951   1.711   5.423   0.750
 4351SOL    HW113952   1.753   5.513   0.753
 4351SOL    HW213953   1.668   5.409   0.661
 4352SOL     OW13954   6.449   3.946   2.460
 4352SOL    HW113955   6.471   3.908   2.550
 4352SOL    HW213956   6.424   3.872   2.398
 4353SOL     OW13957   4.177   2.909   6.777
 4353SOL    HW113958   4.110   2.870   6.714
 4353SOL    HW213959   4.209   2.839   6.840
 4354SOL     OW13960   2.176   0.585   5.737
 4354SOL    HW113961   2.145   0.678   5.719
 4354SOL    HW213962   2.274   0.585   5.757
 4355SOL     OW13963   2.357   6.743   2.587
 4355SOL    HW113964   2.439   6.771   2.537
 4355SOL    HW213965   2.360   6.781   2.680
 4356SOL     OW13966   5.349   3.683   0.061
 4356SOL    HW113967   5.387   3.680   6.994
 4356SOL    HW213968   5.324   3.590   0.090
 4357SOL     OW13969   6.283   1.263   1.408
 4357SOL    HW113970   6.269   1.357   1.378
 4357SOL    HW213971   6.243   1.200   1.342
 4358SOL     OW13972   0.210   1.030   0.714
 4358SOL    HW113973   0.173   1.022   0.807
 4358SOL    HW213974   0.310   1.036   0.718
 4359SOL     OW13975   1.755   1.703   5.984
 4359SOL    HW113976   1.720   1.778   5.928
 4359SOL    HW213977   1.694   1.688   6.062
 4360SOL     OW13978   1.349   3.400   3.459
 4360SOL    HW113979   1.444   3.384   3.433
 4360SOL    HW213980   1.313   3.318   3.504
 4361SOL     OW13981   2.315   3.338   1.498
 4361SOL    HW113982   2.348   3.325   1.404
 4361SOL    HW213983   2.385   3.307   1.562
 4362SOL     OW13984   6.387   5.067   3.445
 4362SOL    HW113985   6.374   4.971   3.469
 4362SOL    HW213986   6.317   5.095   3.379
 4363SOL     OW13987   5.732   2.304   1.211
 4363SOL    HW113988   5.813   2.268   1.166
 4363SOL    HW213989   5.663   2.232   1.221
 4364SOL     OW13990   2.992   3.880   3.977
 4364SOL    HW113991   2.904   3.891   3.932
 4364SOL    HW213992   2.989   3.801   4.038
 4365SOL     OW13993   2.967   0.733   1.972
 4365SOL    HW113994   2.960   0.633   1.962
 4365SOL    HW213995   2.876   0.773   1.962
 4366SOL     OW13996   5.655   0.429   0.146
 4366SOL    HW113997   5.560   0.400   0.151
 4366SOL    HW213998   5.688   0.450   0.238
 4367SOL     OW13999   2.227   4.356   4.481
 4367SOL    HW114000   2.316   4.400   4.469
 4367SOL    HW214001   2.200   4.313   4.395
 4368SOL     OW14002   3.481   5.292   0.002
 4368SOL    HW114003   3.396   5.243   0.020
 4368SOL    HW214004   3.543   5.280   0.080
 4369SOL     OW14005   4.774   5.473   3.099
 4369SOL    HW114006   4.782   5.433   3.008
 4369SOL    HW214007   4.720   5.412   3.157
 4370SOL     OW14008   3.824   5.098   1.536
 4370SOL    HW114009   3.842   5.143   1.624
 4370SOL    HW214010   3.865   5.151   1.462
 4371SOL     OW14011   0.800   2.290   2.432
 4371SOL    HW114012   0.880   2.346   2.412
 4371SOL    HW214013   0.781   2.293   2.531
 4372SOL     OW14014   2.469   2.205   2.929
 4372SOL    HW114015   2.497   2.151   3.009
 4372SOL    HW214016   2.382   2.171   2.894
 4373SOL     OW14017   5.758   1.583   0.372
 4373SOL    HW114018   5.773   1.485   0.359
 4373SOL    HW214019   5.767   1.630   0.285
 4374SOL     OW14020   0.833   1.895   0.631
 4374SOL    HW114021   0.770   1.964   0.666
 4374SOL    HW214022   0.784   1.808   0.619
 4375SOL     OW14023   4.399   6.792   3.206
 4375SOL    HW114024   4.391   6.826   3.299
 4375SOL    HW214025   4.472   6.840   3.158
 4376SOL     OW14026   6.626   6.924   2.720
 4376SOL    HW114027   6.640   7.019   2.694
 4376SOL    HW214028   6.627   6.866   2.638
 4377SOL     OW14029   5.663   5.045   0.270
 4377SOL    HW114030   5.695   5.137   0.290
 4377SOL    HW214031   5.640   5.038   0.173
 4378SOL     OW14032   2.271   2.814   2.456
 4378SOL    HW114033   2.281   2.836   2.553
 4378SOL    HW214034   2.255   2.898   2.404
 4379SOL     OW14035   2.205   2.554   2.474
 4379SOL    HW114036   2.272   2.627   2.490
 4379SOL    HW214037   2.127   2.592   2.424
 4380SOL     OW14038   1.067   0.096   3.106
 4380SOL    HW114039   1.082   0.066   3.012
 4380SOL    HW214040   1.117   0.181   3.122
 4381SOL     OW14041   1.665   4.054   5.550
 4381SOL    HW114042   1.730   3.980   5.563
 4381SOL    HW214043   1.707   4.126   5.495
 4382SOL     OW14044   6.216   3.602   5.875
 4382SOL    HW114045   6.141   3.640   5.930
 4382SOL    HW214046   6.296   3.588   5.934
 4383SOL     OW14047   0.715   2.332   5.851
 4383SOL    HW114048   0.720   2.240   5.812
 4383SOL    HW214049   0.742   2.399   5.782
 4384SOL     OW14050   6.456   2.200   5.880
 4384SOL    HW114051   6.419   2.236   5.794
 4384SOL    HW214052   6.395   2.226   5.956
 4385SOL     OW14053   6.083   2.958   5.111
 4385SOL    HW114054   6.063   2.876   5.057
 4385SOL    HW214055   6.155   2.938   5.177
 4386SOL     OW14056   2.173   3.390   7.020
 4386SOL    HW114057   2.252   3.424   0.047
 4386SOL    HW214058   2.158   3.448   6.941
 4387SOL     OW14059   6.978   1.561   1.591
 4387SOL    HW114060   6.921   1.509   1.527
 4387SOL    HW214061   7.022   1.499   1.656
 4388SOL     OW14062   5.213   1.572   6.355
 4388SOL    HW114063   5.214   1.508   6.278
 4388SOL    HW214064   5.267   1.653   6.331
 4389SOL     OW14065   0.173   3.423   0.946
 4389SOL    HW114066   0.250   3.421   1.009
 4389SOL    HW214067   0.194   3.368   0.865
 4390SOL     OW14068   3.725   1.325   1.417
 4390SOL    HW114069   3.696   1.255   1.482
 4390SOL    HW214070   3.783   1.283   1.347
 4391SOL     OW14071   1.924   6.126   7.018
 4391SOL    HW114072   1.869   6.079   6.948
 4391SOL    HW214073   2.021   6.107   7.003
 4392SOL     OW14074   6.969   3.635   5.320
 4392SOL    HW114075   6.963   3.609   5.416
 4392SOL    HW214076   6.955   3.554   5.262
 4393SOL     OW14077   5.975   0.223   2.435
 4393SOL    HW114078   5.928   0.282   2.368
 4393SOL    HW214079   5.985   0.131   2.396
 4394SOL     OW14080   6.003   6.185   2.367
 4394SOL    HW114081   6.013   6.274   2.412
 4394SOL    HW214082   6.088   6.164   2.318
 4395SOL     OW14083   3.114   6.463   1.771
 4395SOL    HW114084   3.183   6.399   1.738
 4395SOL    HW214085   3.137   6.556   1.741
 4396SOL     OW14086   2.135   2.036   4.138
 4396SOL    HW114087   2.142   2.102   4.062
 4396SOL    HW214088   2.134   2.085   4.225
 4397SOL     OW14089   0.444   1.137   4.614
 4397SOL    HW114090   0.499   1.129   4.698
 4397SOL    HW214091   0.399   1.049   4.595
 4398SOL     OW14092   0.554   4.328   5.432
 4398SOL    HW114093   0.492   4.308   5.356
 4398SOL    HW214094   0.575   4.244   5.481
 4399SOL     OW14095   2.011   0.746   1.672
 4399SOL    HW114096   1.995   0.842   1.647
 4399SOL    HW214097   1.929   0.709   1.715
 4400SOL     OW14098   3.555   6.807   5.461
 4400SOL    HW114099   3.652   6.805   5.485
 4400SOL    HW214100   3.501   6.833   5.541
 4401SOL     OW14101   4.438   6.996   6.484
 4401SOL    HW114102   4.364   0.027   6.521
 4401SOL    HW214103   4.452   7.020   6.388
 4402SOL     OW14104   2.714   0.318   1.986
 4402SOL    HW114105   2.797   0.374   1.990
 4402SOL    HW214106   2.641   0.371   1.943
 4403SOL     OW14107   1.118   0.096   2.813
 4403SOL    HW114108   1.018   0.083   2.813
 4403SOL    HW214109   1.160   0.029   2.752
 4404SOL     OW14110   0.428   4.776   6.047
 4404SOL    HW114111   0.459   4.822   6.131
 4404SOL    HW214112   0.405   4.845   5.978
 4405SOL     OW14113   1.860   4.212   1.300
 4405SOL    HW114114   1.908   4.300   1.306
 4405SOL    HW214115   1.867   4.177   1.206
 4406SOL     OW14116   6.913   3.793   0.748
 4406SOL    HW114117   6.890   3.747   0.662
 4406SOL    HW214118   6.866   3.747   0.824
 4407SOL     OW14119   6.368   4.862   0.523
 4407SOL    HW114120   6.372   4.839   0.620
 4407SOL    HW214121   6.354   4.779   0.470
 4408SOL     OW14122   3.462   0.772   1.602
 4408SOL    HW114123   3.508   0.786   1.515
 4408SOL    HW214124   3.499   0.836   1.670
 4409SOL     OW14125   4.996   0.733   2.303
 4409SOL    HW114126   5.071   0.691   2.251
 4409SOL    HW214127   4.963   0.814   2.255
 4410SOL     OW14128   1.208   5.128   6.543
 4410SOL    HW114129   1.167   5.216   6.519
 4410SOL    HW214130   1.163   5.092   6.625
 4411SOL     OW14131   4.025   3.887   4.301
 4411SOL    HW114132   4.119   3.872   4.332
 4411SOL    HW214133   4.023   3.886   4.201
 4412SOL     OW14134   4.320   6.624   4.728
 4412SOL    HW114135   4.393   6.673   4.679
 4412SOL    HW214136   4.361   6.563   4.796
 4413SOL     OW14137   6.606   5.278   4.121
 4413SOL    HW114138   6.587   5.272   4.023
 4413SOL    HW214139   6.648   5.193   4.152
 4414SOL     OW14140   3.176   4.403   1.096
 4414SOL    HW114141   3.077   4.387   1.090
 4414SOL    HW214142   3.203   4.407   1.192
 4415SOL     OW14143   3.860   3.076   0.736
 4415SOL    HW114144   3.793   3.003   0.721
 4415SOL    HW214145   3.908   3.095   0.650
 4416SOL     OW14146   2.825   0.689   3.697
 4416SOL    HW114147   2.914   0.643   3.693
 4416SOL    HW214148   2.818   0.755   3.622
 4417SOL     OW14149   5.813   4.443   3.251
 4417SOL    HW114150   5.796   4.354   3.209
 4417SOL    HW214151   5.736   4.468   3.310
 4418SOL     OW14152   5.803   2.129   2.291
 4418SOL    HW114153   5.817   2.223   2.258
 4418SOL    HW214154   5.771   2.072   2.215
 4419SOL     OW14155   6.004   6.326   6.478
 4419SOL    HW114156   5.911   6.356   6.456
 4419SOL    HW214157   6.057   6.318   6.394
 4420SOL     OW14158   5.400   1.152   1.985
 4420SOL    HW114159   5.393   1.052   1.981
 4420SOL    HW214160   5.310   1.192   1.965
 4421SOL     OW14161   2.204   0.859   4.972
 4421SOL    HW114162   2.110   0.826   4.981
 4421SOL    HW214163   2.212   0.949   5.013
 4422SOL     OW14164   2.489   4.040   6.756
 4422SOL    HW114165   2.529   3.966   6.810
 4422SOL    HW214166   2.399   4.062   6.794
 4423SOL     OW14167   0.467   2.923   5.945
 4423SOL    HW114168   0.395   2.923   6.015
 4423SOL    HW214169   0.492   3.018   5.924
 4424SOL     OW14170   5.636   1.073   4.582
 4424SOL    HW114171   5.697   1.037   4.653
 4424SOL    HW214172   5.548   1.099   4.622
 4425SOL     OW14173   3.104   4.481   0.589
 4425SOL    HW114174   3.063   4.553   0.644
 4425SOL    HW214175   3.148   4.521   0.509
 4426SOL     OW14176   6.994   1.107   4.103
 4426SOL    HW114177   7.020   1.122   4.199
 4426SOL    HW214178   6.994   1.194   4.054
 4427SOL     OW14179   0.405   6.469   2.473
 4427SOL    HW114180   0.335   6.442   2.407
 4427SOL    HW214181   0.492   6.481   2.426
 4428SOL     OW14182   3.377   6.904   2.541
 4428SOL    HW114183   3.406   6.948   2.456
 4428SOL    HW214184   3.330   6.971   2.598
 4429SOL     OW14185   2.288   6.270   2.596
 4429SOL    HW114186   2.276   6.181   2.550
 4429SOL    HW214187   2.281   6.257   2.695
 4430SOL     OW14188   4.813   4.047   4.865
 4430SOL    HW114189   4.804   3.992   4.948
 4430SOL    HW214190   4.774   4.138   4.881
 4431SOL     OW14191   2.250   1.131   1.940
 4431SOL    HW114192   2.326   1.189   1.913
 4431SOL    HW214193   2.280   1.069   2.013
 4432SOL     OW14194   3.090   3.871   5.538
 4432SOL    HW114195   3.186   3.870   5.566
 4432SOL    HW214196   3.033   3.834   5.612
 4433SOL     OW14197   4.786   1.741   4.843
 4433SOL    HW114198   4.795   1.646   4.870
 4433SOL    HW214199   4.843   1.758   4.762
 4434SOL     OW14200   4.955   1.652   4.012
 4434SOL    HW114201   4.945   1.561   4.052
 4434SOL    HW214202   4.900   1.659   3.929
 4435SOL     OW14203   4.985   3.480   1.480
 4435SOL    HW114204   4.962   3.545   1.407
 4435SOL    HW214205   5.057   3.518   1.537
 4436SOL     OW14206   4.536   0.988   0.550
 4436SOL    HW114207   4.468   0.914   0.551
 4436SOL    HW214208   4.490   1.076   0.540
 4437SOL     OW14209   6.048   2.130   3.065
 4437SOL    HW114210   6.059   2.043   3.115
 4437SOL    HW214211   5.989   2.191   3.118
 4438SOL     OW14212   5.575   0.672   7.022
 4438SOL    HW114213   5.592   0.623   0.083
 4438SOL    HW214214   5.494   0.730   0.007
 4439SOL     OW14215   0.563   4.676   1.999
 4439SOL    HW114216   0.602   4.585   1.984
 4439SOL    HW214217   0.519   4.707   1.914
 4440SOL     OW14218   2.421   4.953   0.472
 4440SOL    HW114219   2.436   4.928   0.567
 4440SOL    HW214220   2.323   4.968   0.457
 4441SOL     OW14221   6.780   1.404   2.617
 4441SOL    HW114222   6.756   1.343   2.693
 4441SOL    HW214223   6.831   1.353   2.548
 4442SOL     OW14224   2.389   5.495   4.278
 4442SOL    HW114225   2.381   5.458   4.371
 4442SOL    HW214226   2.394   5.420   4.212
 4443SOL     OW14227   0.307   2.832   0.367
 4443SOL    HW114228   0.323   2.924   0.329
 4443SOL    HW214229   0.255   2.778   0.301
 4444SOL     OW14230   3.326   4.624   5.497
 4444SOL    HW114231   3.283   4.592   5.412
 4444SOL    HW214232   3.370   4.546   5.542
 4445SOL     OW14233   1.192   6.774   0.799
 4445SOL    HW114234   1.203   6.674   0.793
 4445SOL    HW214235   1.096   6.797   0.784
 4446SOL     OW14236   5.679   0.646   1.905
 4446SOL    HW114237   5.771   0.678   1.880
 4446SOL    HW214238   5.623   0.637   1.823
 4447SOL     OW14239   5.640   3.631   5.983
 4447SOL    HW114240   5.603   3.723   5.971
 4447SOL    HW214241   5.571   3.574   6.028
 4448SOL     OW14242   2.543   3.914   1.698
 4448SOL    HW114243   2.515   3.910   1.602
 4448SOL    HW214244   2.519   3.828   1.743
 4449SOL     OW14245   5.678   0.671   6.163
 4449SOL    HW114246   5.715   0.701   6.075
 4449SOL    HW214247   5.578   0.676   6.161
 4450SOL     OW14248   3.398   3.422   5.201
 4450SOL    HW114249   3.439   3.435   5.110
 4450SOL    HW214250   3.316   3.477   5.208
 4451SOL     OW14251   6.576   4.851   3.034
 4451SOL    HW114252   6.545   4.763   2.997
 4451SOL    HW214253   6.630   4.899   2.965
 4452SOL     OW14254   5.099   6.391   4.501
 4452SOL    HW114255   5.050   6.479   4.503
 4452SOL    HW214256   5.035   6.317   4.520
 4453SOL     OW14257   0.677   2.647   1.705
 4453SOL    HW114258   0.674   2.557   1.750
 4453SOL    HW214259   0.606   2.651   1.635
 4454SOL     OW14260   1.573   2.155   0.375
 4454SOL    HW114261   1.489   2.141   0.428
 4454SOL    HW214262   1.550   2.170   0.279
 4455SOL     OW14263   4.210   6.653   5.866
 4455SOL    HW114264   4.256   6.701   5.941
 4455SOL    HW214265   4.264   6.574   5.839
 4456SOL     OW14266   3.286   5.859   2.070
 4456SOL    HW114267   3.192   5.828   2.085
 4456SOL    HW214268   3.315   5.833   1.978
 4457SOL     OW14269   4.418   1.119   2.414
 4457SOL    HW114270   4.373   1.059   2.348
 4457SOL    HW214271   4.351   1.185   2.449
 4458SOL     OW14272   1.819   2.934   0.303
 4458SOL    HW114273   1.807   2.989   0.386
 4458SOL    HW214274   1.781   2.843   0.317
 4459SOL     OW14275   3.830   1.070   4.770
 4459SOL    HW114276   3.844   0.991   4.710
 4459SOL    HW214277   3.911   1.081   4.828
 4460SOL     OW14278   2.728   2.945   5.846
 4460SOL    HW114279   2.705   2.944   5.749
 4460SOL    HW214280   2.755   3.038   5.873
 4461SOL     OW14281   1.316   0.494   1.208
 4461SOL    HW114282   1.224   0.473   1.173
 4461SOL    HW214283   1.308   0.557   1.285
 4462SOL     OW14284   6.173   5.045   1.806
 4462SOL    HW114285   6.188   4.976   1.876
 4462SOL    HW214286   6.195   5.135   1.843
 4463SOL     OW14287   5.243   2.046   0.156
 4463SOL    HW114288   5.217   2.042   0.252
 4463SOL    HW214289   5.245   1.953   0.118
 4464SOL     OW14290   6.514   5.719   0.921
 4464SOL    HW114291   6.495   5.734   1.018
 4464SOL    HW214292   6.436   5.671   0.880
 4465SOL     OW14293   2.628   5.358   1.262
 4465SOL    HW114294   2.701   5.300   1.224
 4465SOL    HW214295   2.575   5.305   1.327
 4466SOL     OW14296   1.761   1.542   3.537
 4466SOL    HW114297   1.674   1.495   3.553
 4466SOL    HW214298   1.829   1.508   3.601
 4467SOL     OW14299   1.650   6.360   2.554
 4467SOL    HW114300   1.695   6.391   2.638
 4467SOL    HW214301   1.605   6.438   2.510
 4468SOL     OW14302   1.937   3.467   0.403
 4468SOL    HW114303   1.990   3.549   0.425
 4468SOL    HW214304   1.909   3.422   0.488
 4469SOL     OW14305   3.251   0.672   1.346
 4469SOL    HW114306   3.265   0.770   1.332
 4469SOL    HW214307   3.316   0.638   1.414
 4470SOL     OW14308   6.220   2.420   2.264
 4470SOL    HW114309   6.257   2.479   2.192
 4470SOL    HW214310   6.149   2.469   2.314
 4471SOL     OW14311   0.961   2.155   6.635
 4471SOL    HW114312   0.928   2.061   6.641
 4471SOL    HW214313   0.974   2.181   6.540
 4472SOL     OW14314   1.295   3.383   2.368
 4472SOL    HW114315   1.364   3.311   2.371
 4472SOL    HW214316   1.213   3.353   2.417
 4473SOL     OW14317   6.550   2.866   4.739
 4473SOL    HW114318   6.632   2.892   4.688
 4473SOL    HW214319   6.544   2.921   4.822
 4474SOL     OW14320   2.551   0.829   2.260
 4474SOL    HW114321   2.650   0.835   2.243
 4474SOL    HW214322   2.533   0.854   2.355
 4475SOL     OW14323   1.863   3.996   3.002
 4475SOL    HW114324   1.834   3.913   2.954
 4475SOL    HW214325   1.953   4.024   2.968
 4476SOL     OW14326   4.076   0.575   3.056
 4476SOL    HW114327   4.021   0.630   2.994
 4476SOL    HW214328   4.126   0.635   3.118
 4477SOL     OW14329   1.974   6.772   5.080
 4477SOL    HW114330   2.052   6.711   5.092
 4477SOL    HW214331   1.986   6.826   4.996
 4478SOL     OW14332   4.084   6.737   2.868
 4478SOL    HW114333   4.017   6.811   2.871
 4478SOL    HW214334   4.169   6.771   2.828
 4479SOL     OW14335   0.328   1.363   2.197
 4479SOL    HW114336   0.341   1.460   2.217
 4479SOL    HW214337   0.409   1.312   2.226
 4480SOL     OW14338   1.531   3.923   5.037
 4480SOL    HW114339   1.570   4.014   5.046
 4480SOL    HW214340   1.601   3.854   5.056
 4481SOL     OW14341   3.400   5.895   4.827
 4481SOL    HW114342   3.462   5.961   4.869
 4481SOL    HW214343   3.311   5.898   4.874
 4482SOL     OW14344   1.106   2.909   4.711
 4482SOL    HW114345   1.160   2.846   4.767
 4482SOL    HW214346   1.017   2.868   4.692
 4483SOL     OW14347   5.531   2.992   2.456
 4483SOL    HW114348   5.539   2.992   2.555
 4483SOL    HW214349   5.435   2.988   2.430
 4484SOL     OW14350   2.672   2.271   6.521
 4484SOL    HW114351   2.754   2.320   6.492
 4484SOL    HW214352   2.696   2.176   6.544
 4485SOL     OW14353   5.950   1.948   4.936
 4485SOL    HW114354   5.916   1.920   5.025
 4485SOL    HW214355   5.916   2.040   4.915
 4486SOL     OW14356   5.525   4.565   5.189
 4486SOL    HW114357   5.434   4.526   5.203
 4486SOL    HW214358   5.524   4.626   5.111
 4487SOL     OW14359   1.942   3.023   6.349
 4487SOL    HW114360   1.995   2.984   6.424
 4487SOL    HW214361   1.989   3.104   6.314
 4488SOL     OW14362   0.518   3.521   6.144
 4488SOL    HW114363   0.502   3.426   6.119
 4488SOL    HW214364   0.613   3.545   6.122
 4489SOL     OW14365   5.475   5.166   4.566
 4489SOL    HW114366   5.435   5.074   4.567
 4489SOL    HW214367   5.464   5.207   4.656
 4490SOL     OW14368   6.173   2.951   2.390
 4490SOL    HW114369   6.079   2.955   2.424
 4490SOL    HW214370   6.237   2.970   2.464
 4491SOL     OW14371   6.691   2.659   4.591
 4491SOL    HW114372   6.638   2.630   4.671
 4491SOL    HW214373   6.704   2.758   4.593
 4492SOL     OW14374   5.759   4.555   1.590
 4492SOL    HW114375   5.720   4.497   1.518
 4492SOL    HW214376   5.783   4.498   1.669
 4493SOL     OW14377   4.895   5.393   4.795
 4493SOL    HW114378   4.962   5.326   4.826
 4493SOL    HW214379   4.817   5.346   4.754
 4494SOL     OW14380   0.717   1.101   6.841
 4494SOL    HW114381   0.801   1.108   6.894
 4494SOL    HW214382   0.653   1.039   6.886
 4495SOL     OW14383   3.628   6.701   4.563
 4495SOL    HW114384   3.629   6.711   4.464
 4495SOL    HW214385   3.720   6.681   4.596
 4496SOL     OW14386   5.534   6.088   1.066
 4496SOL    HW114387   5.484   6.167   1.101
 4496SOL    HW214388   5.616   6.073   1.122
 4497SOL     OW14389   4.976   1.508   0.112
 4497SOL    HW114390   4.898   1.560   0.146
 4497SOL    HW214391   4.978   1.512   0.012
 4498SOL     OW14392   0.206   4.053   0.592
 4498SOL    HW114393   0.213   3.976   0.530
 4498SOL    HW214394   0.145   4.030   0.668
 4499SOL     OW14395   6.343   3.667   4.987
 4499SOL    HW114396   6.387   3.739   5.042
 4499SOL    HW214397   6.410   3.627   4.925
 4500SOL     OW14398   3.232   3.118   4.564
 4500SOL    HW114399   3.244   3.204   4.514
 4500SOL    HW214400   3.221   3.137   4.662
 4501SOL     OW14401   0.276   3.167   3.301
 4501SOL    HW114402   0.322   3.234   3.359
 4501SOL    HW214403   0.295   3.187   3.205
 4502SOL     OW14404   0.787   2.891   6.668
 4502SOL    HW114405   0.751   2.922   6.756
 4502SOL    HW214406   0.834   2.803   6.681
 4503SOL     OW14407   3.520   0.026   1.612
 4503SOL    HW114408   3.428   7.021   1.636
 4503SOL    HW214409   3.575   0.036   1.695
 4504SOL     OW14410   6.876   1.216   4.969
 4504SOL    HW114411   6.823   1.144   5.013
 4504SOL    HW214412   6.889   1.292   5.033
 4505SOL     OW14413   5.467   5.366   1.852
 4505SOL    HW114414   5.370   5.351   1.866
 4505SOL    HW214415   5.489   5.358   1.754
 4506SOL     OW14416   4.577   2.580   3.726
 4506SOL    HW114417   4.576   2.628   3.814
 4506SOL    HW214418   4.488   2.538   3.710
 4507SOL     OW14419   5.550   4.399   2.860
 4507SOL    HW114420   5.468   4.343   2.850
 4507SOL    HW214421   5.530   4.477   2.920
 4508SOL     OW14422   1.477   5.323   6.474
 4508SOL    HW114423   1.386   5.288   6.495
 4508SOL    HW214424   1.486   5.415   6.512
 4509SOL     OW14425   4.289   2.340   2.822
 4509SOL    HW114426   4.372   2.391   2.843
 4509SOL    HW214427   4.234   2.330   2.905
 4510SOL     OW14428   3.594   1.588   4.125
 4510SOL    HW114429   3.540   1.641   4.191
 4510SOL    HW214430   3.542   1.507   4.097
 4511SOL     OW14431   6.233   3.592   0.069
 4511SOL    HW114432   6.175   3.637   0.137
 4511SOL    HW214433   6.316   3.646   0.055
 4512SOL     OW14434   2.827   1.364   5.515
 4512SOL    HW114435   2.772   1.447   5.516
 4512SOL    HW214436   2.858   1.343   5.608
 4513SOL     OW14437   6.373   5.365   0.532
 4513SOL    HW114438   6.453   5.340   0.587
 4513SOL    HW214439   6.370   5.464   0.521
 4514SOL     OW14440   4.089   1.780   6.414
 4514SOL    HW114441   4.189   1.773   6.409
 4514SOL    HW214442   4.064   1.858   6.471
 4515SOL     OW14443   0.038   1.594   6.017
 4515SOL    HW114444   6.969   1.563   6.006
 4515SOL    HW214445   0.088   1.578   5.933
 4516SOL     OW14446   1.917   0.196   6.860
 4516SOL    HW114447   1.982   0.141   6.913
 4516SOL    HW214448   1.834   0.209   6.914
 4517SOL     OW14449   4.112   1.191   6.801
 4517SOL    HW114450   4.167   1.144   6.870
 4517SOL    HW214451   4.081   1.279   6.837
 4518SOL     OW14452   6.526   0.314   2.759
 4518SOL    HW114453   6.458   0.304   2.686
 4518SOL    HW214454   6.480   0.316   2.848
 4519SOL     OW14455   6.951   0.059   1.305
 4519SOL    HW114456   0.025   0.062   1.293
 4519SOL    HW214457   6.926   0.104   1.391
 4520SOL     OW14458   4.680   6.557   4.872
 4520SOL    HW114459   4.719   6.486   4.931
 4520SOL    HW214460   4.753   6.618   4.842
 4521SOL     OW14461   6.759   1.896   4.330
 4521SOL    HW114462   6.788   1.895   4.426
 4521SOL    HW214463   6.707   1.980   4.312
 4522SOL     OW14464   5.485   5.872   2.984
 4522SOL    HW114465   5.459   5.822   2.901
 4522SOL    HW214466   5.494   5.808   3.060
 4523SOL     OW14467   0.772   4.631   6.906
 4523SOL    HW114468   0.814   4.630   6.815
 4523SOL    HW214469   0.816   4.702   6.962
 4524SOL     OW14470   6.559   2.603   3.160
 4524SOL    HW114471   6.553   2.591   3.061
 4524SOL    HW214472   6.485   2.552   3.204
 4525SOL     OW14473   5.075   1.690   5.717
 4525SOL    HW114474   5.144   1.621   5.696
 4525SOL    HW214475   5.083   1.766   5.653
 4526SOL     OW14476   6.733   0.397   1.047
 4526SOL    HW114477   6.808   0.343   1.007
 4526SOL    HW214478   6.657   0.402   0.982
 4527SOL     OW14479   4.930   1.211   3.943
 4527SOL    HW114480   5.018   1.244   3.978
 4527SOL    HW214481   4.942   1.120   3.905
 4528SOL     OW14482   4.895   0.769   0.636
 4528SOL    HW114483   4.886   0.857   0.591
 4528SOL    HW214484   4.875   0.780   0.734
 4529SOL     OW14485   2.446   0.387   5.241
 4529SOL    HW114486   2.392   0.393   5.325
 4529SOL    HW214487   2.542   0.406   5.262
 4530SOL     OW14488   2.334   5.094   4.929
 4530SOL    HW114489   2.236   5.081   4.941
 4530SOL    HW214490   2.381   5.070   5.014
 4531SOL     OW14491   0.377   2.740   4.880
 4531SOL    HW114492   0.307   2.733   4.809
 4531SOL    HW214493   0.427   2.827   4.869
 4532SOL     OW14494   6.421   1.528   2.579
 4532SOL    HW114495   6.382   1.501   2.667
 4532SOL    HW214496   6.387   1.619   2.554
 4533SOL     OW14497   1.071   1.613   1.861
 4533SOL    HW114498   1.138   1.546   1.829
 4533SOL    HW214499   1.003   1.568   1.919
 4534SOL     OW14500   4.806   4.039   4.274
 4534SOL    HW114501   4.879   4.077   4.330
 4534SOL    HW214502   4.728   4.102   4.272
 4535SOL     OW14503   3.777   0.888   2.695
 4535SOL    HW114504   3.745   0.966   2.748
 4535SOL    HW214505   3.810   0.920   2.606
 4536SOL     OW14506   3.330   1.465   4.057
 4536SOL    HW114507   3.269   1.537   4.091
 4536SOL    HW214508   3.329   1.387   4.120
 4537SOL     OW14509   4.108   3.743   0.312
 4537SOL    HW114510   4.159   3.794   0.380
 4537SOL    HW214511   4.027   3.795   0.285
 4538SOL     OW14512   1.666   0.296   3.053
 4538SOL    HW114513   1.723   0.352   2.993
 4538SOL    HW214514   1.586   0.349   3.082
 4539SOL     OW14515   2.760   6.842   4.877
 4539SOL    HW114516   2.665   6.862   4.899
 4539SOL    HW214517   2.818   6.865   4.955
 4540SOL     OW14518   2.614   2.631   5.784
 4540SOL    HW114519   2.624   2.669   5.876
 4540SOL    HW214520   2.529   2.663   5.743
 4541SOL     OW14521   6.547   2.068   0.726
 4541SOL    HW114522   6.529   2.125   0.805
 4541SOL    HW214523   6.575   1.977   0.756
 4542SOL     OW14524   0.060   1.596   2.177
 4542SOL    HW114525   0.063   1.525   2.248
 4542SOL    HW214526   0.125   1.668   2.199
 4543SOL     OW14527   4.347   1.987   2.089
 4543SOL    HW114528   4.319   1.927   2.014
 4543SOL    HW214529   4.328   2.082   2.064
 4544SOL     OW14530   3.439   6.084   5.830
 4544SOL    HW114531   3.457   5.988   5.850
 4544SOL    HW214532   3.510   6.120   5.769
 4545SOL     OW14533   5.644   3.512   4.232
 4545SOL    HW114534   5.582   3.434   4.225
 4545SOL    HW214535   5.698   3.504   4.316
 4546SOL     OW14536   1.651   0.978   5.242
 4546SOL    HW114537   1.567   0.951   5.195
 4546SOL    HW214538   1.666   1.076   5.231
 4547SOL     OW14539   5.814   2.737   2.474
 4547SOL    HW114540   5.721   2.763   2.500
 4547SOL    HW214541   5.823   2.638   2.475
 4548SOL     OW14542   1.580   3.262   3.961
 4548SOL    HW114543   1.526   3.329   3.910
 4548SOL    HW214544   1.570   3.278   4.059
 4549SOL     OW14545   6.661   3.965   1.589
 4549SOL    HW114546   6.633   4.022   1.666
 4549SOL    HW214547   6.594   3.973   1.516
 4550SOL     OW14548   1.072   4.898   3.298
 4550SOL    HW114549   1.043   4.990   3.324
 4550SOL    HW214550   1.027   4.830   3.355
 4551SOL     OW14551   0.172   3.079   4.883
 4551SOL    HW114552   0.218   3.098   4.969
 4551SOL    HW214553   0.114   2.999   4.893
 4552SOL     OW14554   6.370   3.357   2.075
 4552SOL    HW114555   6.270   3.361   2.084
 4552SOL    HW214556   6.400   3.428   2.012
 4553SOL     OW14557   3.125   4.810   6.475
 4553SOL    HW114558   3.134   4.800   6.574
 4553SOL    HW214559   3.160   4.899   6.447
 4554SOL     OW14560   5.996   0.143   1.285
 4554SOL    HW114561   6.077   0.137   1.226
 4554SOL    HW214562   5.993   0.234   1.328
 4555SOL     OW14563   2.275   2.754   6.123
 4555SOL    HW114564   2.337   2.708   6.060
 4555SOL    HW214565   2.272   2.852   6.102
 4556SOL     OW14566   5.605   2.828   4.153
 4556SOL    HW114567   5.551   2.766   4.095
 4556SOL    HW214568   5.638   2.905   4.098
 4557SOL     OW14569   5.066   6.414   5.351
 4557SOL    HW114570   5.116   6.498   5.327
 4557SOL    HW214571   5.030   6.423   5.444
 4558SOL     OW14572   0.265   4.563   5.260
 4558SOL    HW114573   0.264   4.482   5.201
 4558SOL    HW214574   0.202   4.548   5.337
 4559SOL     OW14575   0.374   3.909   2.101
 4559SOL    HW114576   0.424   3.991   2.073
 4559SOL    HW214577   0.277   3.930   2.109
 4560SOL     OW14578   5.281   4.023   1.466
 4560SOL    HW114579   5.368   4.070   1.453
 4560SOL    HW214580   5.229   4.069   1.538
 4561SOL     OW14581   2.046   1.920   2.803
 4561SOL    HW114582   2.089   1.860   2.735
 4561SOL    HW214583   1.946   1.913   2.796
 4562SOL     OW14584   2.714   6.182   5.598
 4562SOL    HW114585   2.766   6.114   5.649
 4562SOL    HW214586   2.705   6.266   5.653
 4563SOL     OW14587   0.032   2.958   1.556
 4563SOL    HW114588   6.988   2.949   1.485
 4563SOL    HW214589   7.017   2.998   1.638
 4564SOL     OW14590   6.705   6.205   1.612
 4564SOL    HW114591   6.719   6.177   1.517
 4564SOL    HW214592   6.782   6.260   1.642
 4565SOL     OW14593   0.869   1.203   4.842
 4565SOL    HW114594   0.956   1.207   4.890
 4565SOL    HW214595   0.849   1.291   4.800
 4566SOL     OW14596   6.543   2.935   0.272
 4566SOL    HW114597   6.521   2.957   0.177
 4566SOL    HW214598   6.623   2.875   0.274
 4567SOL     OW14599   6.283   0.739   6.731
 4567SOL    HW114600   6.313   0.815   6.673
 4567SOL    HW214601   6.335   0.740   6.817
 4568SOL     OW14602   2.648   3.640   5.908
 4568SOL    HW114603   2.689   3.691   5.984
 4568SOL    HW214604   2.620   3.704   5.837
 4569SOL     OW14605   1.839   1.406   2.734
 4569SOL    HW114606   1.784   1.339   2.783
 4569SOL    HW214607   1.802   1.498   2.752
 4570SOL     OW14608   0.653   6.625   3.115
 4570SOL    HW114609   0.710   6.549   3.144
 4570SOL    HW214610   0.685   6.659   3.026
 4571SOL     OW14611   4.374   4.246   6.394
 4571SOL    HW114612   4.433   4.324   6.372
 4571SOL    HW214613   4.372   4.233   6.493
 4572SOL     OW14614   2.191   0.610   6.675
 4572SOL    HW114615   2.153   0.643   6.589
 4572SOL    HW214616   2.131   0.639   6.750
 4573SOL     OW14617   6.523   1.148   0.228
 4573SOL    HW114618   6.555   1.227   0.176
 4573SOL    HW214619   6.529   1.167   0.326
 4574SOL     OW14620   5.784   4.234   0.851
 4574SOL    HW114621   5.839   4.292   0.911
 4574SOL    HW214622   5.820   4.141   0.851
 4575SOL     OW14623   5.942   0.964   6.865
 4575SOL    HW114624   5.975   1.004   6.779
 4575SOL    HW214625   5.866   0.901   6.845
 4576SOL     OW14626   2.755   6.554   5.849
 4576SOL    HW114627   2.779   6.649   5.868
 4576SOL    HW214628   2.834   6.506   5.810
 4577SOL     OW14629   1.817   2.382   5.204
 4577SOL    HW114630   1.783   2.465   5.250
 4577SOL    HW214631   1.905   2.357   5.244
 4578SOL     OW14632   0.510   2.999   5.219
 4578SOL    HW114633   0.417   3.004   5.182
 4578SOL    HW214634   0.508   3.028   5.315
 4579SOL     OW14635   4.073   0.833   3.654
 4579SOL    HW114636   4.147   0.781   3.698
 4579SOL    HW214637   3.994   0.838   3.716
 4580SOL     OW14638   6.049   5.039   0.536
 4580SOL    HW114639   6.075   5.027   0.632
 4580SOL    HW214640   6.010   5.130   0.523
 4581SOL     OW14641   2.222   5.202   2.722
 4581SOL    HW114642   2.257   5.156   2.804
 4581SOL    HW214643   2.275   5.285   2.705
 4582SOL     OW14644   5.366   0.040   5.195
 4582SOL    HW114645   5.424   0.044   5.113
 4582SOL    HW214646   5.386   6.982   5.246
 4583SOL     OW14647   2.474   2.681   6.613
 4583SOL    HW114648   2.380   2.650   6.628
 4583SOL    HW214649   2.484   2.709   6.517
 4584SOL     OW14650   0.277   4.729   5.656
 4584SOL    HW114651   0.305   4.811   5.605
 4584SOL    HW214652   0.343   4.655   5.637
 4585SOL     OW14653   3.300   5.813   3.153
 4585SOL    HW114654   3.275   5.717   3.145
 4585SOL    HW214655   3.265   5.849   3.240
 4586SOL     OW14656   3.220   4.839   0.456
 4586SOL    HW114657   3.120   4.836   0.445
 4586SOL    HW214658   3.250   4.934   0.457
 4587SOL     OW14659   3.952   3.823   3.104
 4587SOL    HW114660   3.941   3.879   3.022
 4587SOL    HW214661   3.867   3.826   3.157
 4588SOL     OW14662   2.729   3.715   5.342
 4588SOL    HW114663   2.785   3.651   5.291
 4588SOL    HW214664   2.731   3.805   5.298
 4589SOL     OW14665   6.126   1.031   2.509
 4589SOL    HW114666   6.167   0.989   2.428
 4589SOL    HW214667   6.029   1.044   2.494
 4590SOL     OW14668   4.725   5.910   1.361
 4590SOL    HW114669   4.652   5.977   1.346
 4590SOL    HW214670   4.691   5.836   1.419
 4591SOL     OW14671   1.139   6.761   4.816
 4591SOL    HW114672   1.227   6.746   4.861
 4591SOL    HW214673   1.106   6.675   4.778
 4592SOL     OW14674   2.661   1.642   2.379
 4592SOL    HW114675   2.679   1.728   2.426
 4592SOL    HW214676   2.563   1.634   2.359
 4593SOL     OW14677   4.885   5.650   2.508
 4593SOL    HW114678   4.984   5.645   2.516
 4593SOL    HW214679   4.846   5.685   2.593
 4594SOL     OW14680   2.791   1.489   2.995
 4594SOL    HW114681   2.851   1.550   2.943
 4594SOL    HW214682   2.696   1.504   2.968
 4595SOL     OW14683   3.701   3.461   5.640
 4595SOL    HW114684   3.639   3.457   5.562
 4595SOL    HW214685   3.736   3.369   5.660
 4596SOL     OW14686   5.807   0.143   1.980
 4596SOL    HW114687   5.718   0.155   2.023
 4596SOL    HW214688   5.812   0.052   1.939
 4597SOL     OW14689   3.693   5.637   5.826
 4597SOL    HW114690   3.774   5.581   5.840
 4597SOL    HW214691   3.645   5.608   5.744
 4598SOL     OW14692   2.265   6.453   6.580
 4598SOL    HW114693   2.349   6.431   6.531
 4598SOL    HW214694   2.255   6.552   6.588
 4599SOL     OW14695   1.374   5.124   1.045
 4599SOL    HW114696   1.399   5.215   1.012
 4599SOL    HW214697   1.449   5.086   1.099
 4600SOL     OW14698   1.027   5.408   5.496
 4600SOL    HW114699   1.051   5.493   5.450
 4600SOL    HW214700   1.012   5.336   5.428
 4601SOL     OW14701   2.074   1.156   5.638
 4601SOL    HW114702   2.013   1.205   5.699
 4601SOL    HW214703   2.143   1.219   5.602
 4602SOL     OW14704   2.228   6.335   1.043
 4602SOL    HW114705   2.166   6.285   1.104
 4602SOL    HW214706   2.316   6.288   1.040
 4603SOL     OW14707   3.016   6.308   0.880
 4603SOL    HW114708   3.073   6.268   0.951
 4603SOL    HW214709   3.045   6.273   0.790
 4604SOL     OW14710   4.261   0.577   0.681
 4604SOL    HW114711   4.355   0.544   0.675
 4604SOL    HW214712   4.203   0.523   0.619
 4605SOL     OW14713   2.826   0.042   2.379
 4605SOL    HW114714   2.783   0.111   2.321
 4605SOL    HW214715   2.923   0.036   2.358
 4606SOL     OW14716   0.637   6.454   2.275
 4606SOL    HW114717   0.678   6.386   2.336
 4606SOL    HW214718   0.582   6.407   2.206
 4607SOL     OW14719   1.484   3.343   1.561
 4607SOL    HW114720   1.531   3.374   1.644
 4607SOL    HW214721   1.399   3.394   1.551
 4608SOL     OW14722   0.568   6.097   3.591
 4608SOL    HW114723   0.528   6.159   3.659
 4608SOL    HW214724   0.667   6.099   3.599
 4609SOL     OW14725   4.376   5.154   6.527
 4609SOL    HW114726   4.329   5.182   6.444
 4609SOL    HW214727   4.346   5.212   6.603
 4610SOL     OW14728   4.991   2.525   1.101
 4610SOL    HW114729   4.940   2.527   1.015
 4610SOL    HW214730   5.067   2.460   1.093
 4611SOL     OW14731   0.797   6.391   6.616
 4611SOL    HW114732   0.830   6.447   6.692
 4611SOL    HW214733   0.849   6.305   6.614
 4612SOL     OW14734   1.205   5.905   0.104
 4612SOL    HW114735   1.280   5.919   0.040
 4612SOL    HW214736   1.178   5.809   0.104
 4613SOL     OW14737   2.590   6.164   1.868
 4613SOL    HW114738   2.575   6.066   1.856
 4613SOL    HW214739   2.655   6.179   1.942
 4614SOL     OW14740   6.456   3.189   3.642
 4614SOL    HW114741   6.447   3.287   3.623
 4614SOL    HW214742   6.385   3.140   3.592
 4615SOL     OW14743   1.701   0.201   0.018
 4615SOL    HW114744   1.730   0.171   0.109
 4615SOL    HW214745   1.652   0.126   6.998
 4616SOL     OW14746   6.684   0.836   5.015
 4616SOL    HW114747   6.665   0.934   5.019
 4616SOL    HW214748   6.606   0.785   5.051
 4617SOL     OW14749   0.552   2.526   2.561
 4617SOL    HW114750   0.616   2.535   2.637
 4617SOL    HW214751   0.560   2.435   2.520
 4618SOL     OW14752   2.360   2.812   4.753
 4618SOL    HW114753   2.377   2.864   4.670
 4618SOL    HW214754   2.393   2.864   4.832
 4619SOL     OW14755   3.110   6.145   2.920
 4619SOL    HW114756   3.167   6.222   2.949
 4619SOL    HW214757   3.139   6.115   2.829
 4620SOL     OW14758   2.700   4.912   0.910
 4620SOL    HW114759   2.644   4.994   0.900
 4620SOL    HW214760   2.797   4.939   0.915
 4621SOL     OW14761   5.160   0.600   2.133
 4621SOL    HW114762   5.161   0.502   2.150
 4621SOL    HW214763   5.239   0.643   2.178
 4622SOL     OW14764   2.490   4.545   0.724
 4622SOL    HW114765   2.475   4.512   0.817
 4622SOL    HW214766   2.568   4.497   0.684
 4623SOL     OW14767   5.214   6.221   0.844
 4623SOL    HW114768   5.223   6.126   0.876
 4623SOL    HW214769   5.118   6.239   0.821
 4624SOL     OW14770   4.182   6.949   3.117
 4624SOL    HW114771   4.235   6.890   3.177
 4624SOL    HW214772   4.235   6.970   3.034
 4625SOL     OW14773   2.313   4.344   0.947
 4625SOL    HW114774   2.255   4.277   0.992
 4625SOL    HW214775   2.305   4.334   0.848
 4626SOL     OW14776   5.323   4.356   1.519
 4626SOL    HW114777   5.365   4.438   1.560
 4626SOL    HW214778   5.224   4.361   1.530
 4627SOL     OW14779   2.516   4.495   4.484
 4627SOL    HW114780   2.608   4.474   4.517
 4627SOL    HW214781   2.478   4.571   4.537
 4628SOL     OW14782   6.297   4.155   3.757
 4628SOL    HW114783   6.286   4.218   3.681
 4628SOL    HW214784   6.263   4.198   3.841
 4629SOL     OW14785   2.448   5.380   6.050
 4629SOL    HW114786   2.521   5.341   5.994
 4629SOL    HW214787   2.366   5.394   5.993
 4630SOL     OW14788   2.733   5.544   2.693
 4630SOL    HW114789   2.649   5.511   2.735
 4630SOL    HW214790   2.797   5.467   2.681
 4631SOL     OW14791   1.537   5.620   3.281
 4631SOL    HW114792   1.586   5.560   3.218
 4631SOL    HW214793   1.517   5.570   3.365
 4632SOL     OW14794   3.068   4.902   2.584
 4632SOL    HW114795   3.018   4.815   2.597
 4632SOL    HW214796   3.043   4.942   2.496
 4633SOL     OW14797   5.515   0.527   4.745
 4633SOL    HW114798   5.569   0.468   4.804
 4633SOL    HW214799   5.551   0.522   4.652
 4634SOL     OW14800   3.433   4.504   5.742
 4634SOL    HW114801   3.514   4.527   5.795
 4634SOL    HW214802   3.351   4.519   5.798
 4635SOL     OW14803   4.705   4.024   1.209
 4635SOL    HW114804   4.657   3.937   1.192
 4635SOL    HW214805   4.794   4.023   1.164
 4636SOL     OW14806   1.346   4.677   0.067
 4636SOL    HW114807   1.427   4.624   0.093
 4636SOL    HW214808   1.374   4.755   0.012
 4637SOL     OW14809   0.946   6.156   1.281
 4637SOL    HW114810   0.997   6.242   1.291
 4637SOL    HW214811   0.907   6.131   1.370
 4638SOL     OW14812   4.739   4.456   6.784
 4638SOL    HW114813   4.768   4.426   6.875
 4638SOL    HW214814   4.642   4.478   6.786
 4639SOL     OW14815   3.735   3.760   5.674
 4639SOL    HW114816   3.731   3.766   5.773
 4639SOL    HW214817   3.704   3.670   5.644
 4640SOL     OW14818   4.832   3.943   3.947
 4640SOL    HW114819   4.889   3.862   3.963
 4640SOL    HW214820   4.822   3.994   4.033
 4641SOL     OW14821   2.271   6.965   4.766
 4641SOL    HW114822   2.202   6.976   4.837
 4641SOL    HW214823   2.226   6.945   4.679
 4642SOL     OW14824   1.262   5.729   4.368
 4642SOL    HW114825   1.291   5.782   4.448
 4642SOL    HW214826   1.162   5.729   4.363
 4643SOL     OW14827   6.598   2.554   1.164
 4643SOL    HW114828   6.544   2.568   1.081
 4643SOL    HW214829   6.551   2.489   1.224
 4644SOL     OW14830   6.851   5.249   5.299
 4644SOL    HW114831   6.937   5.206   5.273
 4644SOL    HW214832   6.775   5.198   5.261
 4645SOL     OW14833   0.173   0.087   3.858
 4645SOL    HW114834   0.216   0.095   3.769
 4645SOL    HW214835   0.089   0.032   3.850
 4646SOL     OW14836   2.193   5.886   3.695
 4646SOL    HW114837   2.108   5.851   3.656
 4646SOL    HW214838   2.246   5.810   3.734
 4647SOL     OW14839   1.684   7.008   3.024
 4647SOL    HW114840   1.596   6.962   3.032
 4647SOL    HW214841   1.670   0.082   3.024
 4648SOL     OW14842   3.349   1.222   2.778
 4648SOL    HW114843   3.348   1.166   2.861
 4648SOL    HW214844   3.285   1.184   2.712
 4649SOL     OW14845   5.320   0.854   6.986
 4649SOL    HW114846   5.276   0.906   6.913
 4649SOL    HW214847   5.271   0.870   0.047
 4650SOL     OW14848   4.788   5.396   2.591
 4650SOL    HW114849   4.811   5.490   2.569
 4650SOL    HW214850   4.690   5.381   2.574
 4651SOL     OW14851   6.642   2.896   0.616
 4651SOL    HW114852   6.657   2.812   0.563
 4651SOL    HW214853   6.621   2.971   0.553
 4652SOL     OW14854   6.441   6.988   4.437
 4652SOL    HW114855   6.440   0.063   4.431
 4652SOL    HW214856   6.485   6.950   4.356
 4653SOL     OW14857   5.118   5.213   0.732
 4653SOL    HW114858   5.180   5.291   0.739
 4653SOL    HW214859   5.169   5.132   0.701
 4654SOL     OW14860   0.808   6.824   0.384
 4654SOL    HW114861   0.819   6.736   0.430
 4654SOL    HW214862   0.712   6.853   0.392
 4655SOL     OW14863   5.293   3.860   1.003
 4655SOL    HW114864   5.249   3.907   1.080
 4655SOL    HW214865   5.283   3.761   1.014
 4656SOL     OW14866   1.236   0.202   2.435
 4656SOL    HW114867   1.327   0.238   2.417
 4656SOL    HW214868   1.236   0.154   2.523
 4657SOL     OW14869   4.395   6.702   1.885
 4657SOL    HW114870   4.420   6.754   1.966
 4657SOL    HW214871   4.461   6.720   1.812
 4658SOL     OW14872   3.596   1.124   3.139
 4658SOL    HW114873   3.503   1.153   3.117
 4658SOL    HW214874   3.660   1.196   3.114
 4659SOL     OW14875   3.467   4.989   5.230
 4659SOL    HW114876   3.439   4.997   5.134
 4659SOL    HW214877   3.463   4.892   5.257
 4660SOL     OW14878   1.174   3.616   5.426
 4660SOL    HW114879   1.079   3.591   5.405
 4660SOL    HW214880   1.215   3.661   5.348
 4661SOL     OW14881   2.786   4.348   5.680
 4661SOL    HW114882   2.726   4.298   5.618
 4661SOL    HW214883   2.739   4.366   5.766
 4662SOL     OW14884   3.236   0.222   5.581
 4662SOL    HW114885   3.203   0.133   5.612
 4662SOL    HW214886   3.275   0.271   5.659
 4663SOL     OW14887   0.455   1.792   1.717
 4663SOL    HW114888   0.520   1.862   1.744
 4663SOL    HW214889   0.401   1.824   1.639
 4664SOL     OW14890   1.280   1.061   1.199
 4664SOL    HW114891   1.275   1.119   1.280
 4664SOL    HW214892   1.329   1.110   1.127
 4665SOL     OW14893   3.707   0.208   6.495
 4665SOL    HW114894   3.661   0.123   6.522
 4665SOL    HW214895   3.706   0.272   6.572
 4666SOL     OW14896   1.396   3.053   0.694
 4666SOL    HW114897   1.359   2.962   0.711
 4666SOL    HW214898   1.492   3.055   0.721
 4667SOL     OW14899   6.709   3.310   2.387
 4667SOL    HW114900   6.777   3.369   2.343
 4667SOL    HW214901   6.619   3.329   2.348
 4668SOL     OW14902   4.329   2.076   2.757
 4668SOL    HW114903   4.350   2.173   2.768
 4668SOL    HW214904   4.402   2.033   2.703
 4669SOL     OW14905   4.881   6.662   6.183
 4669SOL    HW114906   4.858   6.742   6.238
 4669SOL    HW214907   4.948   6.606   6.232
 4670SOL     OW14908   2.250   2.566   5.871
 4670SOL    HW114909   2.318   2.496   5.851
 4670SOL    HW214910   2.206   2.546   5.959
 4671SOL     OW14911   0.128   2.644   0.826
 4671SOL    HW114912   0.148   2.615   0.732
 4671SOL    HW214913   0.140   2.566   0.888
 4672SOL     OW14914   2.211   4.505   5.755
 4672SOL    HW114915   2.268   4.452   5.692
 4672SOL    HW214916   2.264   4.526   5.838
 4673SOL     OW14917   5.160   0.328   2.035
 4673SOL    HW114918   5.074   0.279   2.019
 4673SOL    HW214919   5.221   0.271   2.090
 4674SOL     OW14920   5.521   1.232   6.625
 4674SOL    HW114921   5.539   1.174   6.705
 4674SOL    HW214922   5.546   1.326   6.647
 4675SOL     OW14923   2.081   1.229   6.620
 4675SOL    HW114924   2.027   1.313   6.629
 4675SOL    HW214925   2.020   1.152   6.603
 4676SOL     OW14926   7.011   6.260   3.700
 4676SOL    HW114927   0.037   6.301   3.625
 4676SOL    HW214928   0.040   6.188   3.743
 4677SOL     OW14929   2.208   1.627   6.621
 4677SOL    HW114930   2.155   1.705   6.587
 4677SOL    HW214931   2.250   1.579   6.544
 4678SOL     OW14932   1.785   4.187   3.163
 4678SOL    HW114933   1.796   4.122   3.088
 4678SOL    HW214934   1.812   4.278   3.133
 4679SOL     OW14935   3.633   1.201   0.645
 4679SOL    HW114936   3.698   1.131   0.614
 4679SOL    HW214937   3.589   1.242   0.566
 4680SOL     OW14938   3.203   1.473   0.605
 4680SOL    HW114939   3.155   1.465   0.517
 4680SOL    HW214940   3.200   1.568   0.636
 4681SOL     OW14941   4.964   5.980   6.207
 4681SOL    HW114942   4.962   5.969   6.108
 4681SOL    HW214943   5.039   5.928   6.245
 4682SOL     OW14944   4.283   4.364   5.605
 4682SOL    HW114945   4.243   4.430   5.670
 4682SOL    HW214946   4.219   4.351   5.528
 4683SOL     OW14947   4.382   4.878   3.066
 4683SOL    HW114948   4.407   4.933   2.986
 4683SOL    HW214949   4.347   4.789   3.036
 4684SOL     OW14950   6.825   1.753   4.861
 4684SOL    HW114951   6.800   1.657   4.857
 4684SOL    HW214952   6.862   1.774   4.952
 4685SOL     OW14953   0.858   6.101   5.647
 4685SOL    HW114954   0.787   6.041   5.685
 4685SOL    HW214955   0.854   6.190   5.693
 4686SOL     OW14956   4.473   4.969   6.918
 4686SOL    HW114957   4.449   4.916   7.000
 4686SOL    HW214958   4.422   4.935   6.840
 4687SOL     OW14959   6.363   3.994   4.786
 4687SOL    HW114960   6.283   3.934   4.782
 4687SOL    HW214961   6.393   4.003   4.881
 4688SOL     OW14962   6.143   4.514   4.490
 4688SOL    HW114963   6.188   4.466   4.414
 4688SOL    HW214964   6.058   4.555   4.458
 4689SOL     OW14965   5.767   0.859   0.394
 4689SOL    HW114966   5.798   0.803   0.317
 4689SOL    HW214967   5.747   0.800   0.473
 4690SOL     OW14968   1.118   6.840   0.032
 4690SOL    HW114969   1.054   6.912   0.004
 4690SOL    HW214970   1.140   6.852   0.129
 4691SOL     OW14971   3.006   4.823   1.486
 4691SOL    HW114972   2.986   4.881   1.408
 4691SOL    HW214973   2.921   4.792   1.528
 4692SOL     OW14974   6.066   5.623   1.963
 4692SOL    HW114975   6.108   5.645   2.051
 4692SOL    HW214976   5.969   5.601   1.977
 4693SOL     OW14977   0.587   1.541   3.326
 4693SOL    HW114978   0.672   1.495   3.352
 4693SOL    HW214979   0.601   1.592   3.241
 4694SOL     OW14980   1.989   0.420   0.240
 4694SOL    HW114981   2.073   0.398   0.190
 4694SOL    HW214982   1.912   0.421   0.176
 4695SOL     OW14983   1.626   3.403   1.805
 4695SOL    HW114984   1.671   3.488   1.834
 4695SOL    HW214985   1.580   3.361   1.884
 4696SOL     OW14986   0.418   4.180   0.304
 4696SOL    HW114987   0.513   4.209   0.289
 4696SOL    HW214988   0.402   4.170   0.402
 4697SOL     OW14989   2.038   3.153   1.388
 4697SOL    HW114990   2.091   3.115   1.464
 4697SOL    HW214991   2.072   3.114   1.302
 4698SOL     OW14992   4.507   4.996   2.861
 4698SOL    HW114993   4.602   4.980   2.833
 4698SOL    HW214994   4.462   5.054   2.794
 4699SOL     OW14995   1.687   6.668   2.175
 4699SOL    HW114996   1.703   6.711   2.086
 4699SOL    HW214997   1.702   6.569   2.168
 4700SOL     OW14998   6.537   1.532   3.031
 4700SOL    HW114999   6.512   1.466   3.102
 4700SOL    HW215000   6.491   1.508   2.946
 4701SOL     OW15001   2.288   2.022   0.088
 4701SOL    HW115002   2.308   2.008   7.017
 4701SOL    HW215003   2.257   2.116   0.103
 4702SOL     OW15004   3.877   5.208   6.940
 4702SOL    HW115005   3.931   5.216   7.024
 4702SOL    HW215006   3.928   5.154   6.873
 4703SOL     OW15007   1.023   1.503   1.571
 4703SOL    HW115008   1.068   1.580   1.524
 4703SOL    HW215009   1.088   1.460   1.633
 4704SOL     OW15010   0.446   6.398   0.752
 4704SOL    HW115011   0.488   6.350   0.829
 4704SOL    HW215012   0.491   6.370   0.667
 4705SOL     OW15013   3.572   3.179   2.381
 4705SOL    HW115014   3.630   3.258   2.360
 4705SOL    HW215015   3.493   3.209   2.435
 4706SOL     OW15016   3.665   0.375   6.696
 4706SOL    HW115017   3.732   0.449   6.707
 4706SOL    HW215018   3.573   0.414   6.689
 4707SOL     OW15019   1.946   6.534   0.951
 4707SOL    HW115020   2.004   6.610   0.979
 4707SOL    HW215021   1.976   6.500   0.862
 4708SOL     OW15022   1.261   1.698   6.563
 4708SOL    HW115023   1.166   1.670   6.547
 4708SOL    HW215024   1.290   1.761   6.491
 4709SOL     OW15025   4.683   6.045   5.816
 4709SOL    HW115026   4.714   6.070   5.908
 4709SOL    HW215027   4.751   5.986   5.772
 4710SOL     OW15028   4.157   0.946   5.505
 4710SOL    HW115029   4.108   0.864   5.476
 4710SOL    HW215030   4.241   0.921   5.552
 4711SOL     OW15031   5.797   0.824   1.266
 4711SOL    HW115032   5.792   0.751   1.334
 4711SOL    HW215033   5.871   0.804   1.202
 4712SOL     OW15034   2.829   4.398   6.927
 4712SOL    HW115035   2.881   4.315   6.948
 4712SOL    HW215036   2.731   4.377   6.930
 4713SOL     OW15037   3.289   3.707   0.417
 4713SOL    HW115038   3.304   3.703   0.516
 4713SOL    HW215039   3.206   3.760   0.399
 4714SOL     OW15040   1.128   2.462   0.082
 4714SOL    HW115041   1.118   2.470   7.008
 4714SOL    HW215042   1.078   2.536   0.127
 4715SOL     OW15043   5.489   2.412   2.760
 4715SOL    HW115044   5.435   2.440   2.681
 4715SOL    HW215045   5.556   2.343   2.732
 4716SOL     OW15046   5.094   5.685   6.565
 4716SOL    HW115047   5.063   5.595   6.595
 4716SOL    HW215048   5.015   5.741   6.541
 4717SOL     OW15049   6.956   0.283   3.837
 4717SOL    HW115050   6.960   0.333   3.924
 4717SOL    HW215051   6.928   0.189   3.855
 4718SOL     OW15052   5.326   2.840   1.644
 4718SOL    HW115053   5.331   2.910   1.573
 4718SOL    HW215054   5.261   2.769   1.618
 4719SOL     OW15055   5.314   3.176   1.835
 4719SOL    HW115056   5.292   3.093   1.886
 4719SOL    HW215057   5.254   3.251   1.866
 4720SOL     OW15058   2.266   5.344   5.856
 4720SOL    HW115059   2.297   5.297   5.774
 4720SOL    HW215060   2.172   5.316   5.878
 4721SOL     OW15061   6.675   2.025   2.113
 4721SOL    HW115062   6.609   1.988   2.047
 4721SOL    HW215063   6.747   1.958   2.129
 4722SOL     OW15064   0.907   6.125   6.382
 4722SOL    HW115065   0.845   6.052   6.355
 4722SOL    HW215066   0.889   6.151   6.477
 4723SOL     OW15067   2.623   3.848   5.653
 4723SOL    HW115068   2.638   3.771   5.591
 4723SOL    HW215069   2.539   3.896   5.627
 4724SOL     OW15070   6.351   5.917   2.854
 4724SOL    HW115071   6.268   5.928   2.908
 4724SOL    HW215072   6.360   5.994   2.791
 4725SOL     OW15073   6.496   5.733   2.706
 4725SOL    HW115074   6.478   5.807   2.772
 4725SOL    HW215075   6.593   5.731   2.683
 4726SOL     OW15076   1.527   2.490   5.637
 4726SOL    HW115077   1.607   2.464   5.583
 4726SOL    HW215078   1.556   2.531   5.723
 4727SOL     OW15079   1.104   6.012   1.112
 4727SOL    HW115080   1.040   6.066   1.168
 4727SOL    HW215081   1.101   5.917   1.141
 4728SOL     OW15082   6.232   0.942   2.070
 4728SOL    HW115083   6.156   1.005   2.084
 4728SOL    HW215084   6.293   0.979   1.999
 4729SOL     OW15085   2.750   1.375   0.533
 4729SOL    HW115086   2.694   1.343   0.456
 4729SOL    HW215087   2.691   1.397   0.610
 4730SOL     OW15088   3.138   5.849   4.916
 4730SOL    HW115089   3.156   5.767   4.969
 4730SOL    HW215090   3.090   5.916   4.973
 4731SOL     OW15091   4.557   0.074   0.070
 4731SOL    HW115092   4.635   0.077   0.008
 4731SOL    HW215093   4.580   0.122   0.155
 4732SOL     OW15094   0.828   2.957   6.125
 4732SOL    HW115095   0.828   3.052   6.157
 4732SOL    HW215096   0.859   2.953   6.030
 4733SOL     OW15097   1.104   3.888   3.403
 4733SOL    HW115098   1.148   3.802   3.379
 4733SOL    HW215099   1.175   3.957   3.420
 4734SOL     OW15100   4.470   2.715   0.573
 4734SOL    HW115101   4.536   2.725   0.647
 4734SOL    HW215102   4.411   2.796   0.571
 4735SOL     OW15103   7.021   5.716   4.628
 4735SOL    HW115104   6.925   5.745   4.634
 4735SOL    HW215105   0.003   5.637   4.568
 4736SOL     OW15106   0.089   1.886   6.003
 4736SOL    HW115107   0.129   1.806   5.957
 4736SOL    HW215108   0.059   1.859   6.095
 4737SOL     OW15109   2.301   4.358   2.226
 4737SOL    HW115110   2.276   4.447   2.190
 4737SOL    HW215111   2.358   4.370   2.307
 4738SOL     OW15112   0.204   6.571   3.156
 4738SOL    HW115113   0.230   6.646   3.095
 4738SOL    HW215114   0.270   6.496   3.147
 4739SOL     OW15115   4.143   6.731   3.504
 4739SOL    HW115116   4.127   6.821   3.545
 4739SOL    HW215117   4.108   6.660   3.565
 4740SOL     OW15118   0.803   1.289   1.557
 4740SOL    HW115119   0.875   1.350   1.524
 4740SOL    HW215120   0.729   1.344   1.595
 4741SOL     OW15121   4.050   3.461   1.035
 4741SOL    HW115122   4.086   3.537   1.088
 4741SOL    HW215123   4.056   3.482   0.937
 4742SOL     OW15124   3.635   6.969   5.956
 4742SOL    HW115125   3.720   6.926   5.988
 4742SOL    HW215126   3.643   0.043   5.962
 4743SOL     OW15127   1.625   3.263   3.210
 4743SOL    HW115128   1.693   3.274   3.137
 4743SOL    HW215129   1.618   3.348   3.262
 4744SOL     OW15130   1.758   4.500   0.518
 4744SOL    HW115131   1.841   4.475   0.468
 4744SOL    HW215132   1.763   4.464   0.611
 4745SOL     OW15133   3.287   4.155   5.884
 4745SOL    HW115134   3.251   4.124   5.797
 4745SOL    HW215135   3.226   4.125   5.958
 4746SOL     OW15136   5.457   5.924   2.113
 4746SOL    HW115137   5.413   5.995   2.169
 4746SOL    HW215138   5.549   5.906   2.147
 4747SOL     OW15139   1.408   4.100   0.130
 4747SOL    HW115140   1.418   4.075   0.227
 4747SOL    HW215141   1.393   4.198   0.122
 4748SOL     OW15142   2.345   5.313   0.954
 4748SOL    HW115143   2.405   5.379   1.000
 4748SOL    HW215144   2.252   5.349   0.952
 4749SOL     OW15145   2.139   6.297   5.576
 4749SOL    HW115146   2.229   6.299   5.532
 4749SOL    HW215147   2.088   6.379   5.550
 4750SOL     OW15148   0.252   3.971   4.533
 4750SOL    HW115149   0.219   4.066   4.535
 4750SOL    HW215150   0.346   3.968   4.568
 4751SOL     OW15151   4.009   2.005   2.335
 4751SOL    HW115152   4.003   2.086   2.394
 4751SOL    HW215153   3.924   1.995   2.284
 4752SOL     OW15154   3.895   1.543   6.533
 4752SOL    HW115155   3.923   1.631   6.572
 4752SOL    HW215156   3.837   1.495   6.599
 4753SOL     OW15157   6.082   0.255   3.561
 4753SOL    HW115158   6.169   0.232   3.517
 4753SOL    HW215159   6.009   0.251   3.493
 4754SOL     OW15160   5.991   5.275   4.891
 4754SOL    HW115161   5.932   5.329   4.951
 4754SOL    HW215162   5.936   5.207   4.843
 4755SOL     OW15163   3.037   0.493   0.146
 4755SOL    HW115164   3.025   0.590   0.167
 4755SOL    HW215165   3.107   0.454   0.205
 4756SOL     OW15166   6.026   2.695   6.952
 4756SOL    HW115167   5.946   2.751   6.933
 4756SOL    HW215168   6.057   2.652   6.867
 4757SOL     OW15169   2.564   1.385   0.730
 4757SOL    HW115170   2.533   1.292   0.752
 4757SOL    HW215171   2.558   1.442   0.812
 4758SOL     OW15172   1.674   6.174   3.523
 4758SOL    HW115173   1.612   6.100   3.496
 4758SOL    HW215174   1.624   6.240   3.579
 4759SOL     OW15175   6.392   4.604   4.862
 4759SOL    HW115176   6.419   4.577   4.769
 4759SOL    HW215177   6.383   4.704   4.866
 4760SOL     OW15178   2.438   2.255   0.656
 4760SOL    HW115179   2.508   2.239   0.726
 4760SOL    HW215180   2.350   2.222   0.689
 4761SOL     OW15181   0.405   5.911   0.143
 4761SOL    HW115182   0.429   5.996   0.096
 4761SOL    HW215183   0.347   5.856   0.083
 4762SOL     OW15184   1.264   5.772   1.998
 4762SOL    HW115185   1.177   5.821   2.007
 4762SOL    HW215186   1.338   5.829   2.033
 4763SOL     OW15187   5.969   6.809   2.938
 4763SOL    HW115188   5.902   6.797   3.012
 4763SOL    HW215189   6.001   6.904   2.938
 4764SOL     OW15190   4.820   3.900   5.109
 4764SOL    HW115191   4.918   3.915   5.123
 4764SOL    HW215192   4.805   3.807   5.076
 4765SOL     OW15193   4.814   1.183   5.057
 4765SOL    HW115194   4.734   1.231   5.091
 4765SOL    HW215195   4.891   1.246   5.051
 4766SOL     OW15196   5.589   5.604   4.093
 4766SOL    HW115197   5.646   5.522   4.097
 4766SOL    HW215198   5.541   5.616   4.180
 4767SOL     OW15199   3.010   5.366   5.217
 4767SOL    HW115200   3.045   5.277   5.246
 4767SOL    HW215201   2.998   5.367   5.118
 4768SOL     OW15202   4.344   2.341   6.585
 4768SOL    HW115203   4.377   2.392   6.505
 4768SOL    HW215204   4.306   2.405   6.651
 4769SOL     OW15205   4.689   5.222   6.997
 4769SOL    HW115206   4.687   5.187   0.065
 4769SOL    HW215207   4.721   5.149   6.935
 4770SOL     OW15208   0.416   1.187   4.075
 4770SOL    HW115209   0.433   1.147   4.165
 4770SOL    HW215210   0.333   1.243   4.078
 4771SOL     OW15211   2.800   5.449   5.382
 4771SOL    HW115212   2.859   5.421   5.306
 4771SOL    HW215213   2.706   5.421   5.363
 4772SOL     OW15214   4.073   4.904   0.782
 4772SOL    HW115215   4.044   4.809   0.790
 4772SOL    HW215216   4.173   4.909   0.780
 4773SOL     OW15217   6.852   5.509   4.510
 4773SOL    HW115218   6.837   5.491   4.413
 4773SOL    HW215219   6.764   5.518   4.556
 4774SOL     OW15220   1.777   3.208   1.689
 4774SOL    HW115221   1.708   3.268   1.729
 4774SOL    HW215222   1.843   3.262   1.638
 4775SOL     OW15223   5.370   6.681   2.909
 4775SOL    HW115224   5.300   6.751   2.917
 4775SOL    HW215225   5.333   6.601   2.863
 4776SOL     OW15226   1.169   6.150   6.055
 4776SOL    HW115227   1.156   6.102   5.968
 4776SOL    HW215228   1.080   6.180   6.090
 4777SOL     OW15229   2.046   5.344   1.294
 4777SOL    HW115230   1.953   5.314   1.311
 4777SOL    HW215231   2.069   5.419   1.357
 4778SOL     OW15232   6.666   2.662   3.807
 4778SOL    HW115233   6.604   2.621   3.873
 4778SOL    HW215234   6.618   2.734   3.756
 4779SOL     OW15235   5.740   6.152   2.262
 4779SOL    HW115236   5.832   6.167   2.299
 4779SOL    HW215237   5.737   6.065   2.214
 4780SOL     OW15238   5.790   1.757   0.110
 4780SOL    HW115239   5.766   1.790   0.019
 4780SOL    HW215240   5.750   1.818   0.179
 4781SOL     OW15241   2.554   5.891   2.543
 4781SOL    HW115242   2.553   5.936   2.453
 4781SOL    HW215243   2.463   5.857   2.564
 4782SOL     OW15244   5.938   5.443   6.927
 4782SOL    HW115245   6.001   5.365   6.934
 4782SOL    HW215246   5.855   5.413   6.881
 4783SOL     OW15247   4.925   3.801   0.064
 4783SOL    HW115248   4.959   3.894   0.051
 4783SOL    HW215249   4.920   3.754   7.001
 4784SOL     OW15250   6.478   3.421   6.618
 4784SOL    HW115251   6.417   3.439   6.540
 4784SOL    HW215252   6.444   3.469   6.699
 4785SOL     OW15253   1.437   6.038   2.886
 4785SOL    HW115254   1.423   6.137   2.893
 4785SOL    HW215255   1.351   5.994   2.858
 4786SOL     OW15256   2.590   0.076   0.382
 4786SOL    HW115257   2.559   0.155   0.435
 4786SOL    HW215258   2.600   7.023   0.443
 4787SOL     OW15259   3.894   1.261   2.840
 4787SOL    HW115260   3.797   1.240   2.825
 4787SOL    HW215261   3.903   1.320   2.921
 4788SOL     OW15262   6.419   6.027   6.857
 4788SOL    HW115263   6.454   6.051   6.767
 4788SOL    HW215264   6.375   6.106   6.898
 4789SOL     OW15265   4.849   2.243   1.397
 4789SOL    HW115266   4.771   2.184   1.416
 4789SOL    HW215267   4.817   2.337   1.385
 4790SOL     OW15268   6.215   1.729   5.423
 4790SOL    HW115269   6.281   1.678   5.368
 4790SOL    HW215270   6.163   1.791   5.364
 4791SOL     OW15271   0.204   2.893   1.155
 4791SOL    HW115272   0.158   2.966   1.105
 4791SOL    HW215273   0.136   2.835   1.200
 4792SOL     OW15274   2.802   4.761   3.453
 4792SOL    HW115275   2.877   4.738   3.392
 4792SOL    HW215276   2.838   4.782   3.544
 4793SOL     OW15277   2.482   2.488   5.067
 4793SOL    HW115278   2.445   2.572   5.106
 4793SOL    HW215279   2.409   2.419   5.060
 4794SOL     OW15280   5.309   0.201   4.754
 4794SOL    HW115281   5.337   0.109   4.781
 4794SOL    HW215282   5.279   0.252   4.835
 4795SOL     OW15283   6.279   2.255   3.852
 4795SOL    HW115284   6.204   2.220   3.797
 4795SOL    HW215285   6.269   2.223   3.946
 4796SOL     OW15286   4.524   1.498   5.009
 4796SOL    HW115287   4.504   1.561   5.084
 4796SOL    HW215288   4.622   1.504   4.986
 4797SOL     OW15289   0.636   6.425   5.480
 4797SOL    HW115290   0.679   6.409   5.391
 4797SOL    HW215291   0.698   6.479   5.537
 4798SOL     OW15292   0.016   4.217   5.568
 4798SOL    HW115293   0.092   4.153   5.567
 4798SOL    HW215294   6.975   4.189   5.638
 4799SOL     OW15295   4.194   1.917   0.678
 4799SOL    HW115296   4.098   1.897   0.698
 4799SOL    HW215297   4.245   1.927   0.764
 4800SOL     OW15298   2.769   2.496   6.943
 4800SOL    HW115299   2.726   2.545   6.867
 4800SOL    HW215300   2.782   2.400   6.918
 4801SOL     OW15301   3.116   2.260   6.489
 4801SOL    HW115302   3.088   2.214   6.404
 4801SOL    HW215303   3.116   2.194   6.564
 4802SOL     OW15304   0.401   6.601   1.774
 4802SOL    HW115305   0.314   6.552   1.782
 4802SOL    HW215306   0.400   6.657   1.691
 4803SOL     OW15307   6.832   4.607   0.025
 4803SOL    HW115308   6.931   4.615   0.028
 4803SOL    HW215309   6.791   4.681   0.079
 4804SOL     OW15310   6.772   6.662   1.810
 4804SOL    HW115311   6.862   6.700   1.789
 4804SOL    HW215312   6.783   6.573   1.855
 4805SOL     OW15313   5.838   1.587   2.333
 4805SOL    HW115314   5.923   1.625   2.371
 4805SOL    HW215315   5.835   1.489   2.351
 4806SOL     OW15316   0.952   4.288   2.794
 4806SOL    HW115317   0.999   4.267   2.709
 4806SOL    HW215318   0.963   4.385   2.816
 4807SOL     OW15319   0.580   5.248   0.218
 4807SOL    HW115320   0.480   5.253   0.218
 4807SOL    HW215321   0.616   5.308   0.290
 4808SOL     OW15322   4.594   5.281   0.806
 4808SOL    HW115323   4.649   5.291   0.724
 4808SOL    HW215324   4.536   5.362   0.818
 4809SOL     OW15325   3.626   4.809   0.187
 4809SOL    HW115326   3.629   4.724   0.240
 4809SOL    HW215327   3.644   4.886   0.249
 4810SOL     OW15328   1.801   4.217   2.483
 4810SOL    HW115329   1.755   4.140   2.527
 4810SOL    HW215330   1.733   4.273   2.434
 4811SOL     OW15331   2.494   4.182   1.803
 4811SOL    HW115332   2.533   4.090   1.796
 4811SOL    HW215333   2.521   4.236   1.723
 4812SOL     OW15334   0.530   5.614   2.264
 4812SOL    HW115335   0.432   5.602   2.273
 4812SOL    HW215336   0.576   5.584   2.347
 4813SOL     OW15337   6.051   1.672   6.465
 4813SOL    HW115338   6.010   1.582   6.452
 4813SOL    HW215339   6.056   1.693   6.563
 4814SOL     OW15340   0.103   3.166   1.171
 4814SOL    HW115341   0.109   3.262   1.146
 4814SOL    HW215342   0.028   3.123   1.120
 4815SOL     OW15343   5.160   3.953   2.785
 4815SOL    HW115344   5.137   3.879   2.722
 4815SOL    HW215345   5.077   3.988   2.828
 4816SOL     OW15346   2.270   4.753   0.977
 4816SOL    HW115347   2.261   4.820   1.051
 4816SOL    HW215348   2.365   4.725   0.969
 4817SOL     OW15349   2.109   1.596   6.872
 4817SOL    HW115350   2.136   1.577   6.778
 4817SOL    HW215351   2.188   1.587   6.933
 4818SOL     OW15352   0.853   6.575   4.634
 4818SOL    HW115353   0.952   6.576   4.618
 4818SOL    HW215354   0.808   6.518   4.565
 4819SOL     OW15355   2.386   1.611   0.675
 4819SOL    HW115356   2.416   1.517   0.660
 4819SOL    HW215357   2.291   1.611   0.706
 4820SOL     OW15358   6.070   2.677   2.406
 4820SOL    HW115359   6.053   2.689   2.308
 4820SOL    HW215360   6.000   2.725   2.458
 4821SOL     OW15361   0.394   6.735   2.537
 4821SOL    HW115362   0.306   6.777   2.514
 4821SOL    HW215363   0.389   6.636   2.523
 4822SOL     OW15364   2.168   3.420   4.455
 4822SOL    HW115365   2.245   3.357   4.456
 4822SOL    HW215366   2.161   3.467   4.543
 4823SOL     OW15367   1.354   0.323   4.675
 4823SOL    HW115368   1.368   0.363   4.584
 4823SOL    HW215369   1.426   0.353   4.737
 4824SOL     OW15370   5.554   2.223   4.515
 4824SOL    HW115371   5.551   2.169   4.599
 4824SOL    HW215372   5.481   2.193   4.453
 4825SOL     OW15373   1.967   2.278   4.538
 4825SOL    HW115374   2.003   2.194   4.497
 4825SOL    HW215375   2.030   2.309   4.609
 4826SOL     OW15376   6.795   1.580   6.133
 4826SOL    HW115377   6.713   1.544   6.090
 4826SOL    HW215378   6.810   1.532   6.220
 4827SOL     OW15379   6.569   1.293   1.385
 4827SOL    HW115380   6.568   1.202   1.342
 4827SOL    HW215381   6.502   1.295   1.459
 4828SOL     OW15382   5.436   2.889   0.871
 4828SOL    HW115383   5.531   2.861   0.855
 4828SOL    HW215384   5.405   2.944   0.794
 4829SOL     OW15385   4.636   6.779   0.162
 4829SOL    HW115386   4.657   6.870   0.126
 4829SOL    HW215387   4.551   6.746   0.120
 4830SOL     OW15388   4.397   6.779   3.809
 4830SOL    HW115389   4.433   6.737   3.726
 4830SOL    HW215390   4.322   6.723   3.845
 4831SOL     OW15391   0.336   4.773   6.394
 4831SOL    HW115392   0.285   4.688   6.402
 4831SOL    HW215393   0.273   4.849   6.380
 4832SOL     OW15394   3.323   3.670   4.514
 4832SOL    HW115395   3.277   3.610   4.580
 4832SOL    HW215396   3.386   3.730   4.562
 4833SOL     OW15397   4.757   1.741   3.463
 4833SOL    HW115398   4.758   1.765   3.365
 4833SOL    HW215399   4.663   1.727   3.493
 4834SOL     OW15400   3.893   6.276   1.065
 4834SOL    HW115401   3.877   6.362   1.017
 4834SOL    HW215402   3.910   6.294   1.162
 4835SOL     OW15403   6.850   1.408   6.350
 4835SOL    HW115404   6.935   1.362   6.376
 4835SOL    HW215405   6.816   1.462   6.428
 4836SOL     OW15406   5.103   2.959   4.662
 4836SOL    HW115407   5.176   2.921   4.720
 4836SOL    HW215408   5.121   2.937   4.566
 4837SOL     OW15409   6.171   3.721   2.687
 4837SOL    HW115410   6.204   3.670   2.766
 4837SOL    HW215411   6.203   3.678   2.603
 4838SOL     OW15412   1.030   5.042   0.147
 4838SOL    HW115413   0.945   5.047   0.199
 4838SOL    HW215414   1.044   4.949   0.114
 4839SOL     OW15415   1.700   3.308   6.603
 4839SOL    HW115416   1.692   3.253   6.687
 4839SOL    HW215417   1.797   3.329   6.587
 4840SOL     OW15418   6.866   4.842   6.367
 4840SOL    HW115419   6.796   4.853   6.296
 4840SOL    HW215420   6.956   4.858   6.326
 4841SOL     OW15421   3.208   5.191   1.894
 4841SOL    HW115422   3.299   5.186   1.934
 4841SOL    HW215423   3.205   5.264   1.826
 4842SOL     OW15424   3.658   5.077   2.601
 4842SOL    HW115425   3.590   5.044   2.667
 4842SOL    HW215426   3.750   5.054   2.634
 4843SOL     OW15427   6.729   2.943   1.139
 4843SOL    HW115428   6.755   3.000   1.216
 4843SOL    HW215429   6.633   2.915   1.149
 4844SOL     OW15430   0.206   3.009   6.013
 4844SOL    HW115431   0.131   3.044   6.070
 4844SOL    HW215432   0.189   3.031   5.918
 4845SOL     OW15433   5.428   5.400   6.370
 4845SOL    HW115434   5.484   5.409   6.452
 4845SOL    HW215435   5.333   5.384   6.397
 4846SOL     OW15436   6.697   3.412   3.780
 4846SOL    HW115437   6.684   3.314   3.798
 4846SOL    HW215438   6.791   3.428   3.749
 4847SOL     OW15439   2.569   1.131   6.225
 4847SOL    HW115440   2.540   1.157   6.133
 4847SOL    HW215441   2.541   1.202   6.290
 4848SOL     OW15442   1.788   0.725   4.116
 4848SOL    HW115443   1.712   0.669   4.084
 4848SOL    HW215444   1.856   0.668   4.160
 4849SOL     OW15445   1.090   5.943   6.775
 4849SOL    HW115446   1.119   5.932   6.680
 4849SOL    HW215447   1.151   5.891   6.834
 4850SOL     OW15448   4.078   1.624   1.955
 4850SOL    HW115449   3.985   1.657   1.939
 4850SOL    HW215450   4.104   1.642   2.050
 4851SOL     OW15451   4.763   6.633   5.599
 4851SOL    HW115452   4.818   6.623   5.682
 4851SOL    HW215453   4.686   6.695   5.618
 4852SOL     OW15454   1.717   6.243   4.962
 4852SOL    HW115455   1.632   6.195   4.984
 4852SOL    HW215456   1.755   6.284   5.045
 4853SOL     OW15457   3.130   1.320   3.274
 4853SOL    HW115458   3.139   1.412   3.237
 4853SOL    HW215459   3.054   1.272   3.229
 4854SOL     OW15460   4.635   6.614   1.338
 4854SOL    HW115461   4.616   6.519   1.312
 4854SOL    HW215462   4.733   6.629   1.344
 4855SOL     OW15463   6.367   2.429   3.208
 4855SOL    HW115464   6.356   2.345   3.261
 4855SOL    HW215465   6.313   2.501   3.249
 4856SOL     OW15466   1.429   3.679   2.865
 4856SOL    HW115467   1.429   3.691   2.964
 4856SOL    HW215468   1.337   3.655   2.834
 4857SOL     OW15469   2.485   1.746   4.907
 4857SOL    HW115470   2.451   1.658   4.941
 4857SOL    HW215471   2.585   1.749   4.917
 4858SOL     OW15472   0.485   0.656   4.311
 4858SOL    HW115473   0.424   0.725   4.348
 4858SOL    HW215474   0.580   0.679   4.333
 4859SOL     OW15475   0.622   0.043   4.535
 4859SOL    HW115476   0.636   0.019   4.439
 4859SOL    HW215477   0.541   7.022   4.570
 4860SOL     OW15478   4.347   4.364   1.647
 4860SOL    HW115479   4.318   4.297   1.716
 4860SOL    HW215480   4.375   4.448   1.693
 4861SOL     OW15481   6.170   4.842   0.107
 4861SOL    HW115482   6.149   4.831   0.205
 4861SOL    HW215483   6.091   4.813   0.053
 4862SOL     OW15484   2.106   4.557   4.911
 4862SOL    HW115485   2.179   4.491   4.897
 4862SOL    HW215486   2.044   4.523   4.982
 4863SOL     OW15487   5.442   3.625   1.395
 4863SOL    HW115488   5.526   3.591   1.353
 4863SOL    HW215489   5.386   3.547   1.424
 4864SOL     OW15490   3.964   1.411   2.607
 4864SOL    HW115491   3.978   1.508   2.628
 4864SOL    HW215492   3.924   1.365   2.686
 4865SOL     OW15493   1.986   6.530   4.215
 4865SOL    HW115494   2.022   6.593   4.146
 4865SOL    HW215495   2.007   6.436   4.188
 4866SOL     OW15496   5.993   3.386   1.893
 4866SOL    HW115497   5.909   3.331   1.896
 4866SOL    HW215498   6.029   3.395   1.986
 4867SOL     OW15499   3.717   5.309   2.000
 4867SOL    HW115500   3.713   5.329   2.098
 4867SOL    HW215501   3.637   5.254   1.974
 4868SOL     OW15502   6.714   5.019   2.876
 4868SOL    HW115503   6.793   4.964   2.847
 4868SOL    HW215504   6.687   5.080   2.801
 4869SOL     OW15505   1.320   1.178   1.825
 4869SOL    HW115506   1.311   1.079   1.815
 4869SOL    HW215507   1.399   1.210   1.773
 4870SOL     OW15508   0.406   5.808   2.685
 4870SOL    HW115509   0.497   5.832   2.650
 4870SOL    HW215510   0.373   5.727   2.637
 4871SOL     OW15511   1.325   0.667   4.190
 4871SOL    HW115512   1.317   0.718   4.275
 4871SOL    HW215513   1.414   0.620   4.188
 4872SOL     OW15514   6.164   6.147   3.801
 4872SOL    HW115515   6.083   6.166   3.745
 4872SOL    HW215516   6.166   6.049   3.823
 4873SOL     OW15517   0.067   4.714   3.667
 4873SOL    HW115518   0.063   4.679   3.573
 4873SOL    HW215519   0.151   4.765   3.680
 4874SOL     OW15520   6.205   2.971   3.222
 4874SOL    HW115521   6.263   3.051   3.236
 4874SOL    HW215522   6.236   2.921   3.141
 4875SOL     OW15523   5.701   2.671   1.503
 4875SOL    HW115524   5.665   2.675   1.596
 4875SOL    HW215525   5.637   2.622   1.444
 4876SOL     OW15526   5.702   1.683   4.356
 4876SOL    HW115527   5.671   1.607   4.414
 4876SOL    HW215528   5.741   1.647   4.271
 4877SOL     OW15529   1.432   2.316   6.832
 4877SOL    HW115530   1.463   2.380   6.902
 4877SOL    HW215531   1.343   2.279   6.858
 4878SOL     OW15532   6.395   0.627   3.057
 4878SOL    HW115533   6.467   0.681   3.100
 4878SOL    HW215534   6.309   0.643   3.104
 4879SOL     OW15535   4.392   6.248   2.494
 4879SOL    HW115536   4.411   6.170   2.553
 4879SOL    HW215537   4.374   6.216   2.401
 4880SOL     OW15538   5.661   3.498   0.058
 4880SOL    HW115539   5.694   3.407   0.034
 4880SOL    HW215540   5.603   3.491   0.140
 4881SOL     OW15541   1.665   1.001   6.386
 4881SOL    HW115542   1.742   0.990   6.449
 4881SOL    HW215543   1.675   1.088   6.337
 4882SOL     OW15544   5.312   1.415   5.100
 4882SOL    HW115545   5.398   1.452   5.134
 4882SOL    HW215546   5.323   1.319   5.077
 4883SOL     OW15547   5.483   4.769   2.078
 4883SOL    HW115548   5.440   4.689   2.036
 4883SOL    HW215549   5.570   4.743   2.119
 4884SOL     OW15550   3.088   6.955   1.303
 4884SOL    HW115551   2.998   6.943   1.260
 4884SOL    HW215552   3.124   0.020   1.280
 4885SOL     OW15553   2.022   5.273   2.170
 4885SOL    HW115554   2.041   5.242   2.263
 4885SOL    HW215555   2.108   5.286   2.120
 4886SOL     OW15556   1.386   5.448   1.000
 4886SOL    HW115557   1.414   5.540   1.025
 4886SOL    HW215558   1.461   5.403   0.949
 4887SOL     OW15559   0.742   0.343   2.851
 4887SOL    HW115560   0.717   0.410   2.920
 4887SOL    HW215561   0.664   0.328   2.790
 4888SOL     OW15562   2.669   6.776   4.099
 4888SOL    HW115563   2.637   6.682   4.089
 4888SOL    HW215564   2.621   6.818   4.177
 4889SOL     OW15565   6.578   1.425   5.981
 4889SOL    HW115566   6.545   1.463   5.895
 4889SOL    HW215567   6.502   1.384   6.031
 4890SOL     OW15568   1.090   1.450   0.038
 4890SOL    HW115569   1.020   1.521   0.044
 4890SOL    HW215570   1.172   1.478   0.088
 4891SOL     OW15571   1.673   4.566   6.614
 4891SOL    HW115572   1.581   4.528   6.614
 4891SOL    HW215573   1.735   4.505   6.663
 4892SOL     OW15574   3.146   6.209   2.090
 4892SOL    HW115575   3.187   6.299   2.083
 4892SOL    HW215576   3.073   6.210   2.159
 4893SOL     OW15577   6.380   3.852   1.515
 4893SOL    HW115578   6.384   3.881   1.611
 4893SOL    HW215579   6.359   3.754   1.511
 4894SOL     OW15580   2.522   1.430   2.971
 4894SOL    HW115581   2.466   1.376   2.908
 4894SOL    HW215582   2.467   1.505   3.008
 4895SOL     OW15583   0.790   4.891   3.663
 4895SOL    HW115584   0.722   4.833   3.706
 4895SOL    HW215585   0.774   4.986   3.688
 4896SOL     OW15586   1.665   5.663   2.113
 4896SOL    HW115587   1.575   5.619   2.120
 4896SOL    HW215588   1.691   5.668   2.017
 4897SOL     OW15589   2.795   4.066   6.170
 4897SOL    HW115590   2.799   4.064   6.070
 4897SOL    HW215591   2.700   4.076   6.199
 4898SOL     OW15592   3.755   0.663   4.352
 4898SOL    HW115593   3.820   0.630   4.284
 4898SOL    HW215594   3.788   0.643   4.444
 4899SOL     OW15595   5.987   4.990   3.176
 4899SOL    HW115596   5.903   5.045   3.175
 4899SOL    HW215597   6.002   4.952   3.084
 4900SOL     OW15598   2.285   5.998   4.045
 4900SOL    HW115599   2.331   6.048   3.972
 4900SOL    HW215600   2.187   6.015   4.040
 4901SOL     OW15601   3.175   7.011   5.713
 4901SOL    HW115602   3.252   6.977   5.767
 4901SOL    HW215603   3.133   6.935   5.663
 4902SOL     OW15604   2.352   1.913   4.219
 4902SOL    HW115605   2.260   1.953   4.213
 4902SOL    HW215606   2.345   1.820   4.254
 4903SOL     OW15607   3.600   6.216   6.806
 4903SOL    HW115608   3.569   6.294   6.752
 4903SOL    HW215609   3.620   6.139   6.746
 4904SOL     OW15610   1.885   6.420   3.872
 4904SOL    HW115611   1.899   6.370   3.957
 4904SOL    HW215612   1.962   6.401   3.810
 4905SOL     OW15613   4.596   0.146   2.274
 4905SOL    HW115614   4.565   0.089   2.350
 4905SOL    HW215615   4.523   0.153   2.206
 4906SOL     OW15616   4.504   2.126   5.880
 4906SOL    HW115617   4.413   2.167   5.890
 4906SOL    HW215618   4.495   2.035   5.839
 4907SOL     OW15619   4.176   6.202   1.269
 4907SOL    HW115620   4.079   6.196   1.249
 4907SOL    HW215621   4.193   6.278   1.332
 4908SOL     OW15622   5.518   4.695   6.452
 4908SOL    HW115623   5.576   4.742   6.386
 4908SOL    HW215624   5.570   4.623   6.497
 4909SOL     OW15625   6.668   0.264   4.469
 4909SOL    HW115626   6.690   0.174   4.508
 4909SOL    HW215627   6.575   0.289   4.495
 4910SOL     OW15628   5.674   0.159   5.037
 4910SOL    HW115629   5.665   0.256   5.059
 4910SOL    HW215630   5.765   0.127   5.063
 4911SOL     OW15631   1.393   3.296   4.201
 4911SOL    HW115632   1.431   3.385   4.176
 4911SOL    HW215633   1.326   3.308   4.274
 4912SOL     OW15634   5.177   1.296   6.693
 4912SOL    HW115635   5.094   1.348   6.710
 4912SOL    HW215636   5.253   1.338   6.743
 4913SOL     OW15637   3.903   2.841   5.202
 4913SOL    HW115638   3.865   2.786   5.276
 4913SOL    HW215639   3.834   2.855   5.131
 4914SOL     OW15640   4.072   0.650   5.115
 4914SOL    HW115641   4.067   0.574   5.049
 4914SOL    HW215642   4.148   0.710   5.090
 4915SOL     OW15643   4.675   0.230   4.953
 4915SOL    HW115644   4.595   0.286   4.928
 4915SOL    HW215645   4.682   0.224   5.053
 4916SOL     OW15646   1.866   6.990   4.242
 4916SOL    HW115647   1.950   6.962   4.197
 4916SOL    HW215648   1.887   7.023   4.334
 4917SOL     OW15649   2.508   4.798   1.253
 4917SOL    HW115650   2.592   4.751   1.281
 4917SOL    HW215651   2.463   4.745   1.181
 4918SOL     OW15652   4.523   5.386   2.508
 4918SOL    HW115653   4.435   5.391   2.555
 4918SOL    HW215654   4.515   5.425   2.416
 4919SOL     OW15655   3.076   2.231   6.917
 4919SOL    HW115656   3.085   2.177   7.000
 4919SOL    HW215657   3.071   2.328   6.942
 4920SOL     OW15658   6.042   0.771   4.212
 4920SOL    HW115659   6.126   0.819   4.236
 4920SOL    HW215660   5.969   0.838   4.195
 4921SOL     OW15661   1.548   4.685   0.568
 4921SOL    HW115662   1.577   4.776   0.537
 4921SOL    HW215663   1.620   4.619   0.546
 4922SOL     OW15664   2.123   1.782   5.187
 4922SOL    HW115665   2.068   1.756   5.266
 4922SOL    HW215666   2.220   1.776   5.210
 4923SOL     OW15667   4.311   1.812   1.875
 4923SOL    HW115668   4.257   1.728   1.888
 4923SOL    HW215669   4.408   1.788   1.867
 4924SOL     OW15670   3.050   1.611   5.214
 4924SOL    HW115671   3.076   1.514   5.217
 4924SOL    HW215672   3.065   1.652   5.303
 4925SOL     OW15673   6.555   6.202   2.197
 4925SOL    HW115674   6.498   6.201   2.115
 4925SOL    HW215675   6.541   6.117   2.248
 4926SOL     OW15676   5.516   1.600   0.563
 4926SOL    HW115677   5.593   1.608   0.500
 4926SOL    HW215678   5.464   1.517   0.541
 4927SOL     OW15679   3.736   3.684   4.639
 4927SOL    HW115680   3.814   3.745   4.654
 4927SOL    HW215681   3.745   3.638   4.551
 4928SOL     OW15682   1.406   0.111   6.935
 4928SOL    HW115683   1.406   0.011   6.945
 4928SOL    HW215684   1.472   0.137   6.865
 4929SOL     OW15685   0.555   5.502   4.926
 4929SOL    HW115686   0.494   5.423   4.929
 4929SOL    HW215687   0.505   5.584   4.954
 4930SOL     OW15688   4.853   0.978   3.121
 4930SOL    HW115689   4.891   1.069   3.135
 4930SOL    HW215690   4.927   0.910   3.122
 4931SOL     OW15691   0.232   0.003   0.916
 4931SOL    HW115692   0.295   6.995   0.986
 4931SOL    HW215693   0.256   0.097   0.891
 4932SOL     OW15694   2.740   3.216   1.826
 4932SOL    HW115695   2.729   3.122   1.796
 4932SOL    HW215696   2.793   3.218   1.911
 4933SOL     OW15697   2.405   0.016   3.482
 4933SOL    HW115698   2.355   0.070   3.415
 4933SOL    HW215699   2.503   0.023   3.463
 4934SOL     OW15700   2.802   5.806   2.608
 4934SOL    HW115701   2.718   5.860   2.603
 4934SOL    HW215702   2.779   5.709   2.620
 4935SOL     OW15703   1.629   0.743   5.929
 4935SOL    HW115704   1.575   0.659   5.934
 4935SOL    HW215705   1.568   0.822   5.935
 4936SOL     OW15706   2.547   4.611   1.929
 4936SOL    HW115707   2.639   4.622   1.966
 4936SOL    HW215708   2.514   4.518   1.948
 4937SOL     OW15709   6.804   3.006   6.018
 4937SOL    HW115710   6.818   3.005   6.117
 4937SOL    HW215711   6.845   2.924   5.977
 4938SOL     OW15712   2.138   5.619   5.695
 4938SOL    HW115713   2.220   5.672   5.719
 4938SOL    HW215714   2.154   5.523   5.717
 4939SOL     OW15715   6.324   1.902   3.921
 4939SOL    HW115716   6.422   1.889   3.904
 4939SOL    HW215717   6.309   1.988   3.969
 4940SOL     OW15718   0.423   0.706   5.154
 4940SOL    HW115719   0.343   0.689   5.096
 4940SOL    HW215720   0.440   0.627   5.212
 4941SOL     OW15721   4.842   2.186   5.263
 4941SOL    HW115722   4.784   2.253   5.310
 4941SOL    HW215723   4.904   2.144   5.329
 4942SOL     OW15724   5.474   3.440   6.094
 4942SOL    HW115725   5.535   3.363   6.111
 4942SOL    HW215726   5.396   3.436   6.157
 4943SOL     OW15727   4.491   3.785   6.152
 4943SOL    HW115728   4.504   3.698   6.200
 4943SOL    HW215729   4.498   3.770   6.054
 4944SOL     OW15730   2.206   4.179   1.802
 4944SOL    HW115731   2.192   4.232   1.718
 4944SOL    HW215732   2.304   4.173   1.821
 4945SOL     OW15733   0.904   0.113   4.597
 4945SOL    HW115734   0.931   0.209   4.592
 4945SOL    HW215735   0.814   0.101   4.555
 4946SOL     OW15736   1.491   4.999   0.013
 4946SOL    HW115737   1.453   4.959   6.955
 4946SOL    HW215738   1.583   5.033   7.021
 4947SOL     OW15739   2.388   0.359   1.141
 4947SOL    HW115740   2.367   0.456   1.145
 4947SOL    HW215741   2.394   0.322   1.234
 4948SOL     OW15742   1.663   2.778   2.597
 4948SOL    HW115743   1.594   2.769   2.525
 4948SOL    HW215744   1.621   2.818   2.678
 4949SOL     OW15745   5.506   5.739   6.580
 4949SOL    HW115746   5.523   5.647   6.615
 4949SOL    HW215747   5.408   5.751   6.564
 4950SOL     OW15748   2.470   5.327   4.526
 4950SOL    HW115749   2.469   5.233   4.493
 4950SOL    HW215750   2.444   5.328   4.623
 4951SOL     OW15751   5.897   1.090   5.354
 4951SOL    HW115752   5.889   1.126   5.261
 4951SOL    HW215753   5.976   1.030   5.360
 4952SOL     OW15754   0.423   1.015   5.909
 4952SOL    HW115755   0.519   1.026   5.882
 4952SOL    HW215756   0.414   1.038   6.006
 4953SOL     OW15757   2.162   6.242   2.896
 4953SOL    HW115758   2.115   6.247   2.984
 4953SOL    HW215759   2.095   6.233   2.822
 4954SOL     OW15760   3.695   3.011   0.422
 4954SOL    HW115761   3.774   2.987   0.478
 4954SOL    HW215762   3.654   3.096   0.456
 4955SOL     OW15763   2.971   6.602   6.669
 4955SOL    HW115764   2.875   6.629   6.659
 4955SOL    HW215765   3.023   6.636   6.592
 4956SOL     OW15766   2.197   0.096   5.074
 4956SOL    HW115767   2.120   0.143   5.118
 4956SOL    HW215768   2.215   0.010   5.121
 4957SOL     OW15769   5.844   2.391   2.214
 4957SOL    HW115770   5.823   2.431   2.303
 4957SOL    HW215771   5.859   2.464   2.148
 4958SOL     OW15772   0.008   5.585   5.661
 4958SOL    HW115773   0.068   5.607   5.584
 4958SOL    HW215774   0.048   5.510   5.714
 4959SOL     OW15775   6.277   1.744   6.974
 4959SOL    HW115776   6.346   1.719   0.017
 4959SOL    HW215777   6.194   1.776   7.020
 4960SOL     OW15778   3.387   4.995   3.401
 4960SOL    HW115779   3.331   5.004   3.484
 4960SOL    HW215780   3.365   5.070   3.339
 4961SOL     OW15781   4.386   1.296   5.780
 4961SOL    HW115782   4.395   1.258   5.688
 4961SOL    HW215783   4.311   1.363   5.781
 4962SOL     OW15784   6.318   2.179   0.574
 4962SOL    HW115785   6.327   2.223   0.484
 4962SOL    HW215786   6.407   2.145   0.603
 4963SOL     OW15787   6.208   6.025   0.454
 4963SOL    HW115788   6.128   5.973   0.424
 4963SOL    HW215789   6.254   5.975   0.527
 4964SOL     OW15790   2.989   0.201   3.720
 4964SOL    HW115791   2.893   0.172   3.710
 4964SOL    HW215792   2.995   0.300   3.707
 4965SOL     OW15793   0.667   1.173   2.475
 4965SOL    HW115794   0.694   1.244   2.540
 4965SOL    HW215795   0.718   1.089   2.494
 4966SOL     OW15796   2.309   6.891   5.198
 4966SOL    HW115797   2.405   6.868   5.214
 4966SOL    HW215798   2.251   6.838   5.260
 4967SOL     OW15799   3.548   5.358   5.591
 4967SOL    HW115800   3.557   5.404   5.503
 4967SOL    HW215801   3.464   5.304   5.591
 4968SOL     OW15802   6.686   1.583   3.611
 4968SOL    HW115803   6.704   1.681   3.612
 4968SOL    HW215804   6.772   1.533   3.619
 4969SOL     OW15805   2.640   6.289   2.782
 4969SOL    HW115806   2.686   6.347   2.714
 4969SOL    HW215807   2.567   6.341   2.827
 4970SOL     OW15808   2.076   2.732   2.906
 4970SOL    HW115809   2.028   2.701   2.988
 4970SOL    HW215810   2.133   2.811   2.928
 4971SOL     OW15811   5.833   5.642   3.552
 4971SOL    HW115812   5.803   5.728   3.591
 4971SOL    HW215813   5.894   5.659   3.474
 4972SOL     OW15814   1.505   3.897   0.723
 4972SOL    HW115815   1.497   3.906   0.624
 4972SOL    HW215816   1.503   3.987   0.765
 4973SOL     OW15817   1.595   6.843   2.370
 4973SOL    HW115818   1.650   6.808   2.295
 4973SOL    HW215819   1.516   6.893   2.334
 4974SOL     OW15820   6.142   4.289   1.248
 4974SOL    HW115821   6.171   4.368   1.302
 4974SOL    HW215822   6.042   4.284   1.247
 4975SOL     OW15823   5.747   4.166   5.402
 4975SOL    HW115824   5.782   4.258   5.383
 4975SOL    HW215825   5.796   4.099   5.346
 4976SOL     OW15826   1.982   0.834   3.411
 4976SOL    HW115827   2.066   0.791   3.445
 4976SOL    HW215828   1.943   0.776   3.339
 4977SOL     OW15829   3.976   4.670   0.246
 4977SOL    HW115830   4.015   4.754   0.211
 4977SOL    HW215831   3.997   4.661   0.344
 4978SOL     OW15832   6.738   4.050   4.772
 4978SOL    HW115833   6.790   4.090   4.846
 4978SOL    HW215834   6.740   3.950   4.780
 4979SOL     OW15835   0.307   0.353   6.310
 4979SOL    HW115836   0.388   0.393   6.354
 4979SOL    HW215837   0.331   0.264   6.271
 4980SOL     OW15838   5.284   6.291   3.107
 4980SOL    HW115839   5.242   6.263   3.193
 4980SOL    HW215840   5.225   6.358   3.061
 4981SOL     OW15841   4.948   6.066   0.316
 4981SOL    HW115842   4.850   6.049   0.325
 4981SOL    HW215843   4.967   6.103   0.226
 4982SOL     OW15844   2.486   1.170   5.973
 4982SOL    HW115845   2.391   1.202   5.972
 4982SOL    HW215846   2.500   1.103   5.900
 4983SOL     OW15847   5.781   3.134   4.858
 4983SOL    HW115848   5.876   3.163   4.870
 4983SOL    HW215849   5.721   3.214   4.859
 4984SOL     OW15850   5.803   3.961   3.497
 4984SOL    HW115851   5.710   3.998   3.497
 4984SOL    HW215852   5.799   3.861   3.496
 4985SOL     OW15853   6.360   6.816   3.581
 4985SOL    HW115854   6.285   6.750   3.587
 4985SOL    HW215855   6.389   6.824   3.485
 4986SOL     OW15856   6.084   4.290   1.988
 4986SOL    HW115857   6.001   4.234   1.975
 4986SOL    HW215858   6.164   4.230   1.988
 4987SOL     OW15859   1.013   0.326   1.623
 4987SOL    HW115860   0.966   0.334   1.535
 4987SOL    HW215861   1.047   0.233   1.635
 4988SOL     OW15862   5.173   0.690   3.247
 4988SOL    HW115863   5.235   0.662   3.173
 4988SOL    HW215864   5.080   0.663   3.225
 4989SOL     OW15865   4.840   0.022   1.799
 4989SOL    HW115866   4.797   0.111   1.814
 4989SOL    HW215867   4.828   7.020   1.703
 4990SOL     OW15868   2.071   2.044   5.442
 4990SOL    HW115869   2.098   1.965   5.499
 4990SOL    HW215870   2.121   2.125   5.473
 4991SOL     OW15871   6.572   4.944   4.200
 4991SOL    HW115872   6.526   4.863   4.237
 4991SOL    HW215873   6.608   5.000   4.275
 4992SOL     OW15874   4.966   0.948   3.830
 4992SOL    HW115875   4.878   0.963   3.785
 4992SOL    HW215876   4.998   0.855   3.812
 4993SOL     OW15877   3.042   6.209   3.796
 4993SOL    HW115878   2.990   6.276   3.848
 4993SOL    HW215879   3.035   6.119   3.839
 4994SOL     OW15880   1.867   6.882   3.195
 4994SOL    HW115881   1.905   6.945   3.263
 4994SOL    HW215882   1.803   6.932   3.136
 4995SOL     OW15883   0.391   2.437   5.850
 4995SOL    HW115884   0.295   2.463   5.857
 4995SOL    HW215885   0.399   2.347   5.806
 4996SOL     OW15886   1.360   1.130   2.434
 4996SOL    HW115887   1.288   1.151   2.500
 4996SOL    HW215888   1.374   1.208   2.374
 4997SOL     OW15889   5.426   2.233   2.994
 4997SOL    HW115890   5.440   2.264   2.900
 4997SOL    HW215891   5.510   2.244   3.046
 4998SOL     OW15892   2.099   4.131   5.071
 4998SOL    HW115893   2.124   4.182   5.154
 4998SOL    HW215894   2.182   4.099   5.026
 4999SOL     OW15895   6.263   3.892   0.274
 4999SOL    HW115896   6.334   3.961   0.262
 4999SOL    HW215897   6.305   3.805   0.300
 5000SOL     OW15898   2.877   6.593   3.522
 5000SOL    HW115899   2.959   6.536   3.516
 5000SOL    HW215900   2.809   6.548   3.579
 5001SOL     OW15901   0.376   4.240   1.040
 5001SOL    HW115902   0.399   4.146   1.017
 5001SOL    HW215903   0.346   4.245   1.135
 5002SOL     OW15904   0.617   3.213   3.433
 5002SOL    HW115905   0.530   3.260   3.448
 5002SOL    HW215906   0.600   3.126   3.386
 5003SOL     OW15907   2.529   6.321   2.449
 5003SOL    HW115908   2.608   6.368   2.488
 5003SOL    HW215909   2.450   6.333   2.509
 5004SOL     OW15910   3.593   5.016   5.981
 5004SOL    HW115911   3.594   4.926   5.938
 5004SOL    HW215912   3.542   5.013   6.067
 5005SOL     OW15913   2.902   2.248   0.528
 5005SOL    HW115914   2.923   2.345   0.520
 5005SOL    HW215915   2.864   2.214   0.442
 5006SOL     OW15916   5.313   1.082   0.520
 5006SOL    HW115917   5.229   1.097   0.467
 5006SOL    HW215918   5.343   0.988   0.508
 5007SOL     OW15919   1.431   0.026   0.196
 5007SOL    HW115920   1.360   6.981   0.196
 5007SOL    HW215921   1.447   0.058   0.102
 5008SOL     OW15922   6.654   6.537   3.144
 5008SOL    HW115923   6.692   6.445   3.147
 5008SOL    HW215924   6.629   6.566   3.236
 5009SOL     OW15925   1.257   6.455   0.854
 5009SOL    HW115926   1.194   6.387   0.818
 5009SOL    HW215927   1.254   6.456   0.954
 5010SOL     OW15928   3.360   3.332   2.959
 5010SOL    HW115929   3.427   3.311   2.888
 5010SOL    HW215930   3.355   3.257   3.024
 5011SOL     OW15931   1.727   3.584   2.917
 5011SOL    HW115932   1.654   3.632   2.869
 5011SOL    HW215933   1.763   3.511   2.860
 5012SOL     OW15934   5.401   4.238   6.128
 5012SOL    HW115935   5.319   4.295   6.138
 5012SOL    HW215936   5.450   4.234   6.215
 5013SOL     OW15937   4.960   1.658   6.429
 5013SOL    HW115938   5.050   1.626   6.400
 5013SOL    HW215939   4.938   1.743   6.380
 5014SOL     OW15940   5.429   4.555   0.661
 5014SOL    HW115941   5.505   4.619   0.658
 5014SOL    HW215942   5.463   4.461   0.661
 5015SOL     OW15943   4.465   1.938   4.557
 5015SOL    HW115944   4.367   1.936   4.535
 5015SOL    HW215945   4.518   1.914   4.476
 5016SOL     OW15946   2.158   2.173   0.621
 5016SOL    HW115947   2.103   2.243   0.667
 5016SOL    HW215948   2.109   2.139   0.541
 5017SOL     OW15949   1.728   2.138   0.015
 5017SOL    HW115950   1.786   2.146   6.959
 5017SOL    HW215951   1.777   2.176   0.093
 5018SOL     OW15952   6.946   4.304   2.089
 5018SOL    HW115953   6.995   4.225   2.127
 5018SOL    HW215954   6.978   4.321   1.996
 5019SOL     OW15955   1.074   5.017   6.193
 5019SOL    HW115956   1.167   4.992   6.219
 5019SOL    HW215957   1.010   4.989   6.264
 5020SOL     OW15958   5.538   0.144   6.494
 5020SOL    HW115959   5.480   0.224   6.510
 5020SOL    HW215960   5.618   0.172   6.442
 5021SOL     OW15961   1.415   1.941   6.050
 5021SOL    HW115962   1.364   1.918   5.967
 5021SOL    HW215963   1.383   2.029   6.086
 5022SOL     OW15964   1.228   0.905   0.117
 5022SOL    HW115965   1.162   0.859   0.177
 5022SOL    HW215966   1.309   0.847   0.107
 5023SOL     OW15967   6.546   3.050   1.372
 5023SOL    HW115968   6.483   3.112   1.418
 5023SOL    HW215969   6.495   2.979   1.324
 5024SOL     OW15970   5.314   5.745   1.959
 5024SOL    HW115971   5.375   5.810   2.005
 5024SOL    HW215972   5.260   5.696   2.027
 5025SOL     OW15973   3.741   1.990   1.569
 5025SOL    HW115974   3.756   1.991   1.668
 5025SOL    HW215975   3.827   2.009   1.522
 5026SOL     OW15976   6.411   6.459   6.406
 5026SOL    HW115977   6.443   6.469   6.312
 5026SOL    HW215978   6.346   6.532   6.427
 5027SOL     OW15979   0.638   6.006   2.454
 5027SOL    HW115980   0.654   5.908   2.469
 5027SOL    HW215981   0.576   6.041   2.524
 5028SOL     OW15982   0.931   0.429   3.366
 5028SOL    HW115983   0.839   0.462   3.391
 5028SOL    HW215984   0.999   0.474   3.424
 5029SOL     OW15985   0.134   2.194   2.998
 5029SOL    HW115986   0.040   2.160   2.992
 5029SOL    HW215987   0.160   2.206   3.094
 5030SOL     OW15988   6.841   6.776   0.147
 5030SOL    HW115989   6.766   6.798   0.209
 5030SOL    HW215990   6.913   6.729   0.198
 5031SOL     OW15991   5.962   0.961   4.765
 5031SOL    HW115992   5.975   0.865   4.790
 5031SOL    HW215993   5.953   0.969   4.666
 5032SOL     OW15994   1.017   3.580   1.232
 5032SOL    HW115995   0.965   3.524   1.297
 5032SOL    HW215996   1.106   3.602   1.272
 5033SOL     OW15997   3.143   6.373   6.087
 5033SOL    HW115998   3.183   6.322   6.011
 5033SOL    HW215999   3.214   6.427   6.132
 5034SOL     OW16000   4.849   0.955   2.845
 5034SOL    HW116001   4.888   1.015   2.775
 5034SOL    HW216002   4.772   0.904   2.807
 5035SOL     OW16003   0.356   4.515   0.479
 5035SOL    HW116004   0.453   4.537   0.490
 5035SOL    HW216005   0.343   4.416   0.489
 5036SOL     OW16006   6.875   4.848   0.244
 5036SOL    HW116007   6.889   4.783   0.319
 5036SOL    HW216008   6.778   4.848   0.218
 5037SOL     OW16009   5.298   2.498   3.341
 5037SOL    HW116010   5.251   2.576   3.383
 5037SOL    HW216011   5.230   2.431   3.310
 5038SOL     OW16012   1.843   4.009   0.009
 5038SOL    HW116013   1.861   3.968   6.945
 5038SOL    HW216014   1.765   4.070   0.002
 5039SOL     OW16015   3.140   4.482   5.337
 5039SOL    HW116016   3.069   4.511   5.272
 5039SOL    HW216017   3.097   4.458   5.424
 5040SOL     OW16018   2.106   4.747   6.016
 5040SOL    HW116019   2.086   4.784   5.925
 5040SOL    HW216020   2.176   4.676   6.007
 5041SOL     OW16021   1.559   1.755   1.769
 5041SOL    HW116022   1.493   1.821   1.734
 5041SOL    HW216023   1.645   1.763   1.718
 5042SOL     OW16024   6.090   3.031   0.792
 5042SOL    HW116025   6.023   3.103   0.771
 5042SOL    HW216026   6.129   2.996   0.707
 5043SOL     OW16027   3.035   1.059   6.118
 5043SOL    HW116028   2.941   1.027   6.108
 5043SOL    HW216029   3.043   1.153   6.085
 5044SOL     OW16030   0.165   6.243   1.671
 5044SOL    HW116031   0.156   6.160   1.616
 5044SOL    HW216032   0.213   6.222   1.755
 5045SOL     OW16033   5.793   1.907   0.324
 5045SOL    HW116034   5.832   1.851   0.397
 5045SOL    HW216035   5.716   1.959   0.359
 5046SOL     OW16036   3.592   4.081   3.517
 5046SOL    HW116037   3.673   4.025   3.501
 5046SOL    HW216038   3.619   4.167   3.562
 5047SOL     OW16039   0.217   3.182   2.606
 5047SOL    HW116040   0.255   3.241   2.677
 5047SOL    HW216041   0.252   3.089   2.617
 5048SOL     OW16042   0.723   0.709   2.083
 5048SOL    HW116043   0.703   0.783   2.147
 5048SOL    HW216044   0.819   0.712   2.056
 5049SOL     OW16045   6.323   1.759   4.998
 5049SOL    HW116046   6.382   1.761   4.917
 5049SOL    HW216047   6.233   1.724   4.972
 5050SOL     OW16048   1.564   0.504   1.747
 5050SOL    HW116049   1.630   0.519   1.820
 5050SOL    HW216050   1.544   0.406   1.739
 5051SOL     OW16051   4.354   4.044   1.266
 5051SOL    HW116052   4.328   4.139   1.249
 5051SOL    HW216053   4.400   4.037   1.354
 5052SOL     OW16054   2.209   6.074   5.937
 5052SOL    HW116055   2.185   6.148   6.000
 5052SOL    HW216056   2.306   6.082   5.912
 5053SOL     OW16057   2.202   4.241   3.749
 5053SOL    HW116058   2.218   4.337   3.727
 5053SOL    HW216059   2.247   4.219   3.836
 5054SOL     OW16060   3.735   6.292   4.938
 5054SOL    HW116061   3.812   6.310   4.876
 5054SOL    HW216062   3.671   6.369   4.935
 5055SOL     OW16063   2.000   0.180   5.234
 5055SOL    HW116064   1.997   0.191   5.333
 5055SOL    HW216065   1.963   0.262   5.189
 5056SOL     OW16066   6.430   4.143   0.694
 5056SOL    HW116067   6.510   4.132   0.635
 5056SOL    HW216068   6.455   4.196   0.775
 5057SOL     OW16069   6.340   6.052   5.390
 5057SOL    HW116070   6.310   5.958   5.403
 5057SOL    HW216071   6.326   6.079   5.295
 5058SOL     OW16072   2.686   3.024   5.338
 5058SOL    HW116073   2.631   2.986   5.264
 5058SOL    HW216074   2.671   2.970   5.421
 5059SOL     OW16075   5.527   2.441   3.445
 5059SOL    HW116076   5.595   2.461   3.375
 5059SOL    HW216077   5.438   2.478   3.417
 5060SOL     OW16078   0.454   2.059   5.714
 5060SOL    HW116079   0.394   2.111   5.654
 5060SOL    HW216080   0.414   2.055   5.805
 5061SOL     OW16081   3.685   3.498   3.082
 5061SOL    HW116082   3.676   3.400   3.097
 5061SOL    HW216083   3.737   3.515   2.998
 5062SOL     OW16084   5.318   0.082   3.235
 5062SOL    HW116085   5.301   0.174   3.269
 5062SOL    HW216086   5.341   0.022   3.312
 5063SOL     OW16087   1.082   0.077   2.172
 5063SOL    HW116088   1.023   0.111   2.245
 5063SOL    HW216089   1.132   0.154   2.132
 5064SOL     OW16090   4.360   3.809   1.625
 5064SOL    HW116091   4.391   3.891   1.578
 5064SOL    HW216092   4.438   3.754   1.652
 5065SOL     OW16093   1.595   1.792   3.581
 5065SOL    HW116094   1.606   1.692   3.587
 5065SOL    HW216095   1.678   1.832   3.542
 5066SOL     OW16096   3.603   4.457   0.963
 5066SOL    HW116097   3.528   4.394   0.985
 5066SOL    HW216098   3.682   4.404   0.931
 5067SOL     OW16099   3.142   1.178   2.554
 5067SOL    HW116100   3.097   1.260   2.590
 5067SOL    HW216101   3.117   1.166   2.458
 5068SOL     OW16102   3.087   4.786   6.754
 5068SOL    HW116103   3.065   4.707   6.811
 5068SOL    HW216104   3.186   4.803   6.758
 5069SOL     OW16105   1.962   3.014   5.959
 5069SOL    HW116106   1.950   3.014   5.860
 5069SOL    HW216107   1.879   2.979   6.003
 5070SOL     OW16108   5.149   4.322   4.030
 5070SOL    HW116109   5.159   4.261   4.109
 5070SOL    HW216110   5.134   4.415   4.061
 5071SOL     OW16111   4.019   1.099   4.060
 5071SOL    HW116112   3.975   1.011   4.079
 5071SOL    HW216113   3.951   1.164   4.027
 5072SOL     OW16114   1.295   0.928   1.699
 5072SOL    HW116115   1.301   0.919   1.600
 5072SOL    HW216116   1.353   0.859   1.743
 5073SOL     OW16117   1.524   4.565   1.335
 5073SOL    HW116118   1.606   4.552   1.281
 5073SOL    HW216119   1.444   4.569   1.275
 5074SOL     OW16120   3.417   2.103   1.216
 5074SOL    HW116121   3.343   2.169   1.229
 5074SOL    HW216122   3.426   2.046   1.297
 5075SOL     OW16123   1.271   2.474   5.868
 5075SOL    HW116124   1.281   2.414   5.948
 5075SOL    HW216125   1.265   2.418   5.785
 5076SOL     OW16126   4.949   0.374   1.064
 5076SOL    HW116127   4.965   0.428   0.981
 5076SOL    HW216128   4.994   0.285   1.054
 5077SOL     OW16129   2.115   4.293   5.279
 5077SOL    HW116130   2.143   4.277   5.374
 5077SOL    HW216131   2.186   4.347   5.233
 5078SOL     OW16132   0.837   0.363   3.948
 5078SOL    HW116133   0.805   0.455   3.972
 5078SOL    HW216134   0.937   0.359   3.958
 5079SOL     OW16135   2.189   3.193   4.679
 5079SOL    HW116136   2.166   3.107   4.632
 5079SOL    HW216137   2.172   3.183   4.777
 5080SOL     OW16138   5.956   6.617   6.240
 5080SOL    HW116139   6.046   6.577   6.255
 5080SOL    HW216140   5.947   6.643   6.143
 5081SOL     OW16141   2.883   3.832   4.991
 5081SOL    HW116142   2.898   3.788   4.903
 5081SOL    HW216143   2.908   3.929   4.985
 5082SOL     OW16144   5.120   5.769   1.327
 5082SOL    HW116145   5.136   5.674   1.300
 5082SOL    HW216146   5.094   5.823   1.247
 5083SOL     OW16147   2.385   0.443   2.822
 5083SOL    HW116148   2.471   0.393   2.831
 5083SOL    HW216149   2.372   0.471   2.727
 5084SOL     OW16150   0.565   4.114   4.230
 5084SOL    HW116151   0.643   4.154   4.182
 5084SOL    HW216152   0.584   4.019   4.253
 5085SOL     OW16153   6.454   2.453   6.132
 5085SOL    HW116154   6.403   2.538   6.121
 5085SOL    HW216155   6.523   2.446   6.060
 5086SOL     OW16156   1.483   4.877   3.021
 5086SOL    HW116157   1.416   4.806   3.043
 5086SOL    HW216158   1.456   4.963   3.064
 5087SOL     OW16159   1.541   5.372   2.739
 5087SOL    HW116160   1.483   5.433   2.684
 5087SOL    HW216161   1.484   5.324   2.806
 5088SOL     OW16162   5.932   0.133   3.983
 5088SOL    HW116163   5.974   0.044   4.001
 5088SOL    HW216164   6.000   0.194   3.944
 5089SOL     OW16165   5.973   3.517   4.178
 5089SOL    HW116166   5.880   3.552   4.162
 5089SOL    HW216167   6.031   3.541   4.100
 5090SOL     OW16168   1.796   3.816   2.668
 5090SOL    HW116169   1.892   3.841   2.654
 5090SOL    HW216170   1.767   3.754   2.595
 5091SOL     OW16171   6.896   1.270   1.888
 5091SOL    HW116172   6.914   1.292   1.983
 5091SOL    HW216173   6.973   1.300   1.831
 5092SOL     OW16174   3.424   3.829   3.181
 5092SOL    HW116175   3.334   3.832   3.226
 5092SOL    HW216176   3.433   3.743   3.131
 5093SOL     OW16177   3.014   0.696   0.436
 5093SOL    HW116178   2.998   0.746   0.521
 5093SOL    HW216179   3.112   0.687   0.420
 5094SOL     OW16180   2.366   5.776   5.769
 5094SOL    HW116181   2.422   5.761   5.851
 5094SOL    HW216182   2.415   5.745   5.688
 5095SOL     OW16183   6.181   1.839   3.688
 5095SOL    HW116184   6.252   1.860   3.756
 5095SOL    HW216185   6.210   1.873   3.599
 5096SOL     OW16186   3.856   4.945   6.360
 5096SOL    HW116187   3.852   5.008   6.437
 5096SOL    HW216188   3.859   4.996   6.274
 5097SOL     OW16189   0.890   6.931   6.304
 5097SOL    HW116190   0.853   7.023   6.295
 5097SOL    HW216191   0.989   6.936   6.319
 5098SOL     OW16192   3.074   0.851   2.294
 5098SOL    HW116193   3.130   0.933   2.306
 5098SOL    HW216194   2.990   0.875   2.247
 5099SOL     OW16195   0.375   0.230   0.852
 5099SOL    HW116196   0.314   0.276   0.788
 5099SOL    HW216197   0.468   0.262   0.838
 5100SOL     OW16198   3.036   5.431   4.558
 5100SOL    HW116199   3.006   5.357   4.499
 5100SOL    HW216200   2.957   5.471   4.605
 5101SOL     OW16201   4.630   0.562   6.738
 5101SOL    HW116202   4.601   0.633   6.802
 5101SOL    HW216203   4.556   0.497   6.724
 5102SOL     OW16204   5.837   6.996   4.298
 5102SOL    HW116205   5.784   6.981   4.215
 5102SOL    HW216206   5.923   0.016   4.275
 5103SOL     OW16207   0.241   0.332   3.979
 5103SOL    HW116208   0.154   0.357   4.021
 5103SOL    HW216209   0.231   0.246   3.929
 5104SOL     OW16210   1.743   6.378   1.793
 5104SOL    HW116211   1.780   6.287   1.777
 5104SOL    HW216212   1.727   6.391   1.891
 5105SOL     OW16213   2.179   2.576   0.159
 5105SOL    HW116214   2.194   2.483   0.127
 5105SOL    HW216215   2.082   2.598   0.154
 5106SOL     OW16216   4.184   2.463   0.262
 5106SOL    HW116217   4.142   2.491   0.176
 5106SOL    HW216218   4.274   2.423   0.243
 5107SOL     OW16219   4.111   1.593   1.195
 5107SOL    HW116220   4.063   1.670   1.152
 5107SOL    HW216221   4.096   1.595   1.293
 5108SOL     OW16222   4.077   3.881   4.902
 5108SOL    HW116223   4.105   3.894   4.997
 5108SOL    HW216224   4.108   3.792   4.869
 5109SOL     OW16225   0.752   1.887   6.926
 5109SOL    HW116226   0.662   1.844   6.918
 5109SOL    HW216227   0.742   1.981   6.958
 5110SOL     OW16228   0.868   0.548   5.856
 5110SOL    HW116229   0.851   0.644   5.834
 5110SOL    HW216230   0.783   0.504   5.882
 5111SOL     OW16231   0.981   0.348   4.942
 5111SOL    HW116232   0.958   0.250   4.940
 5111SOL    HW216233   0.964   0.384   5.033
 5112SOL     OW16234   1.597   0.620   3.275
 5112SOL    HW116235   1.639   0.595   3.362
 5112SOL    HW216236   1.553   0.709   3.283
 5113SOL     OW16237   1.885   6.949   0.946
 5113SOL    HW116238   1.838   6.944   1.034
 5113SOL    HW216239   1.950   6.874   0.938
 5114SOL     OW16240   3.707   0.777   7.021
 5114SOL    HW116241   3.691   0.777   0.094
 5114SOL    HW216242   3.662   0.699   6.979
 5115SOL     OW16243   1.851   4.690   3.940
 5115SOL    HW116244   1.816   4.604   3.901
 5115SOL    HW216245   1.945   4.704   3.909
 5116SOL     OW16246   0.594   0.074   6.549
 5116SOL    HW116247   0.543   0.109   6.470
 5116SOL    HW216248   0.644   7.018   6.522
 5117SOL     OW16249   2.207   3.955   4.701
 5117SOL    HW116250   2.264   3.975   4.780
 5117SOL    HW216251   2.171   3.862   4.709
 5118SOL     OW16252   4.958   0.973   0.093
 5118SOL    HW116253   5.003   0.896   0.047
 5118SOL    HW216254   4.948   1.049   0.029
 5119SOL     OW16255   5.228   0.628   1.851
 5119SOL    HW116256   5.186   0.558   1.794
 5119SOL    HW216257   5.182   0.629   1.941
 5120SOL     OW16258   3.636   0.307   4.095
 5120SOL    HW116259   3.544   0.285   4.063
 5120SOL    HW216260   3.630   0.349   4.186
 5121SOL     OW16261   2.608   2.033   6.892
 5121SOL    HW116262   2.677   1.972   6.852
 5121SOL    HW216263   2.648   2.123   6.908
 5122SOL     OW16264   3.417   6.619   3.466
 5122SOL    HW116265   3.349   6.573   3.408
 5122SOL    HW216266   3.414   6.717   3.448
 5123SOL     OW16267   4.090   2.240   4.321
 5123SOL    HW116268   4.130   2.330   4.303
 5123SOL    HW216269   4.156   2.183   4.369
 5124SOL     OW16270   2.638   5.843   4.451
 5124SOL    HW116271   2.551   5.856   4.497
 5124SOL    HW216272   2.625   5.782   4.372
 5125SOL     OW16273   6.143   3.209   4.097
 5125SOL    HW116274   6.231   3.254   4.084
 5125SOL    HW216275   6.125   3.197   4.195
 5126SOL     OW16276   5.854   5.266   5.658
 5126SOL    HW116277   5.948   5.298   5.647
 5126SOL    HW216278   5.793   5.345   5.666
 5127SOL     OW16279   0.928   4.368   6.998
 5127SOL    HW116280   0.861   4.429   0.014
 5127SOL    HW216281   0.979   4.418   6.927
 5128SOL     OW16282   0.165   0.721   7.014
 5128SOL    HW116283   0.259   0.687   7.010
 5128SOL    HW216284   0.109   0.672   6.947
 5129SOL     OW16285   6.133   6.951   2.651
 5129SOL    HW116286   6.059   6.935   2.585
 5129SOL    HW216287   6.095   6.975   2.740
 5130SOL     OW16288   0.414   5.919   3.770
 5130SOL    HW116289   0.492   5.950   3.715
 5130SOL    HW216290   0.446   5.896   3.862
 5131SOL     OW16291   2.409   5.083   3.984
 5131SOL    HW116292   2.327   5.026   3.977
 5131SOL    HW216293   2.490   5.025   3.994
 5132SOL     OW16294   3.139   2.622   6.347
 5132SOL    HW116295   3.146   2.563   6.428
 5132SOL    HW216296   3.185   2.709   6.366
 5133SOL     OW16297   1.709   5.793   6.749
 5133SOL    HW116298   1.798   5.751   6.768
 5133SOL    HW216299   1.712   5.890   6.774
 5134SOL     OW16300   0.057   2.938   2.349
 5134SOL    HW116301   0.151   2.958   2.376
 5134SOL    HW216302   0.015   2.878   2.418
 5135SOL     OW16303   5.604   3.231   4.494
 5135SOL    HW116304   5.596   3.297   4.419
 5135SOL    HW216305   5.518   3.227   4.545
 5136SOL     OW16306   4.860   0.642   6.434
 5136SOL    HW116307   4.885   0.626   6.529
 5136SOL    HW216308   4.828   0.557   6.393
 5137SOL     OW16309   5.271   4.018   5.670
 5137SOL    HW116310   5.303   4.024   5.765
 5137SOL    HW216311   5.345   4.047   5.609
 5138SOL     OW16312   4.064   3.309   5.073
 5138SOL    HW116313   4.063   3.293   4.974
 5138SOL    HW216314   4.019   3.232   5.119
 5139SOL     OW16315   1.247   1.345   3.244
 5139SOL    HW116316   1.216   1.286   3.319
 5139SOL    HW216317   1.345   1.363   3.254
 5140SOL     OW16318   3.852   2.967   6.627
 5140SOL    HW116319   3.826   3.000   6.717
 5140SOL    HW216320   3.805   3.020   6.557
 5141SOL     OW16321   6.222   3.874   1.110
 5141SOL    HW116322   6.185   3.930   1.185
 5141SOL    HW216323   6.221   3.927   1.025
 5142SOL     OW16324   6.236   6.467   2.614
 5142SOL    HW116325   6.318   6.415   2.637
 5142SOL    HW216326   6.208   6.523   2.692
 5143SOL     OW16327   6.207   4.461   4.225
 5143SOL    HW116328   6.124   4.516   4.227
 5143SOL    HW216329   6.274   4.504   4.165
 5144SOL     OW16330   0.998   4.346   5.588
 5144SOL    HW116331   0.912   4.395   5.575
 5144SOL    HW216332   1.061   4.402   5.643
 5145SOL     OW16333   2.960   5.312   5.585
 5145SOL    HW116334   2.906   5.365   5.519
 5145SOL    HW216335   2.938   5.342   5.678
 5146SOL     OW16336   3.418   3.795   5.242
 5146SOL    HW116337   3.383   3.845   5.163
 5146SOL    HW216338   3.463   3.860   5.304
 5147SOL     OW16339   0.025   5.326   2.698
 5147SOL    HW116340   0.039   5.236   2.740
 5147SOL    HW216341   7.015   5.389   2.767
 5148SOL     OW16342   6.153   0.086   1.649
 5148SOL    HW116343   6.169   0.019   1.577
 5148SOL    HW216344   6.183   0.048   1.736
 5149SOL     OW16345   6.564   5.327   3.181
 5149SOL    HW116346   6.550   5.241   3.229
 5149SOL    HW216347   6.569   5.402   3.246
 5150SOL     OW16348   2.148   5.603   3.152
 5150SOL    HW116349   2.104   5.679   3.104
 5150SOL    HW216350   2.161   5.628   3.248
 5151SOL     OW16351   6.478   2.817   1.686
 5151SOL    HW116352   6.416   2.854   1.616
 5151SOL    HW216353   6.425   2.774   1.759
 5152SOL     OW16354   1.726   4.588   6.963
 5152SOL    HW116355   1.660   4.595   0.012
 5152SOL    HW216356   1.736   4.678   6.919
 5153SOL     OW16357   1.922   1.027   6.846
 5153SOL    HW116358   1.891   0.951   6.790
 5153SOL    HW216359   2.022   1.024   6.853
 5154SOL     OW16360   0.942   2.730   6.209
 5154SOL    HW116361   0.930   2.650   6.151
 5154SOL    HW216362   0.905   2.811   6.163
 5155SOL     OW16363   4.425   0.570   2.232
 5155SOL    HW116364   4.411   0.513   2.313
 5155SOL    HW216365   4.500   0.634   2.249
 5156SOL     OW16366   5.823   3.763   6.226
 5156SOL    HW116367   5.799   3.669   6.203
 5156SOL    HW216368   5.868   3.766   6.315
 5157SOL     OW16369   3.766   2.151   3.410
 5157SOL    HW116370   3.798   2.138   3.504
 5157SOL    HW216371   3.782   2.245   3.382
 5158SOL     OW16372   3.615   1.382   1.812
 5158SOL    HW116373   3.523   1.363   1.845
 5158SOL    HW216374   3.633   1.480   1.818
 5159SOL     OW16375   6.394   4.044   4.526
 5159SOL    HW116376   6.404   4.017   4.622
 5159SOL    HW216377   6.303   4.085   4.512
 5160SOL     OW16378   0.508   5.138   2.978
 5160SOL    HW116379   0.514   5.111   3.074
 5160SOL    HW216380   0.448   5.218   2.970
 5161SOL     OW16381   1.793   4.008   6.025
 5161SOL    HW116382   1.799   4.010   5.925
 5161SOL    HW216383   1.879   3.976   6.063
 5162SOL     OW16384   1.059   4.921   2.785
 5162SOL    HW116385   1.081   4.970   2.870
 5162SOL    HW216386   1.144   4.892   2.741
 5163SOL     OW16387   3.338   6.350   0.232
 5163SOL    HW116388   3.289   6.386   0.153
 5163SOL    HW216389   3.430   6.322   0.204
 5164SOL     OW16390   3.769   2.640   6.601
 5164SOL    HW116391   3.715   2.574   6.549
 5164SOL    HW216392   3.775   2.726   6.550
 5165SOL     OW16393   6.502   4.216   5.630
 5165SOL    HW116394   6.534   4.286   5.694
 5165SOL    HW216395   6.457   4.260   5.552
 5166SOL     OW16396   0.443   5.142   2.275
 5166SOL    HW116397   0.525   5.137   2.333
 5166SOL    HW216398   0.386   5.062   2.293
 5167SOL     OW16399   6.866   6.348   6.331
 5167SOL    HW116400   6.835   6.414   6.262
 5167SOL    HW216401   6.939   6.291   6.292
 5168SOL     OW16402   5.043   3.510   1.791
 5168SOL    HW116403   5.066   3.530   1.886
 5168SOL    HW216404   5.025   3.412   1.781
 5169SOL     OW16405   3.883   2.145   4.476
 5169SOL    HW116406   3.809   2.149   4.409
 5169SOL    HW216407   3.962   2.196   4.443
 5170SOL     OW16408   0.483   4.547   5.600
 5170SOL    HW116409   0.560   4.559   5.662
 5170SOL    HW216410   0.495   4.463   5.547
 5171SOL     OW16411   0.478   5.122   4.716
 5171SOL    HW116412   0.561   5.092   4.764
 5171SOL    HW216413   0.423   5.179   4.777
 5172SOL     OW16414   1.496   2.484   2.396
 5172SOL    HW116415   1.460   2.407   2.448
 5172SOL    HW216416   1.430   2.560   2.400
 5173SOL     OW16417   5.340   5.098   5.882
 5173SOL    HW116418   5.401   5.148   5.943
 5173SOL    HW216419   5.293   5.026   5.934
 5174SOL     OW16420   2.240   4.974   3.210
 5174SOL    HW116421   2.328   5.002   3.248
 5174SOL    HW216422   2.167   5.029   3.251
 5175SOL     OW16423   2.873   3.561   6.940
 5175SOL    HW116424   2.957   3.551   6.994
 5175SOL    HW216425   2.878   3.500   6.861
 5176SOL     OW16426   4.923   3.363   6.804
 5176SOL    HW116427   4.972   3.279   6.781
 5176SOL    HW216428   4.851   3.342   6.869
 5177SOL     OW16429   5.292   0.593   0.374
 5177SOL    HW116430   5.207   0.553   0.339
 5177SOL    HW216431   5.363   0.522   0.378
 5178SOL     OW16432   1.124   4.324   2.432
 5178SOL    HW116433   1.174   4.246   2.397
 5178SOL    HW216434   1.125   4.398   2.365
 5179SOL     OW16435   4.081   5.582   3.565
 5179SOL    HW116436   4.074   5.498   3.511
 5179SOL    HW216437   4.159   5.575   3.628
 5180SOL     OW16438   2.122   1.921   1.202
 5180SOL    HW116439   2.211   1.966   1.213
 5180SOL    HW216440   2.086   1.940   1.111
 5181SOL     OW16441   5.816   1.361   2.547
 5181SOL    HW116442   5.839   1.333   2.640
 5181SOL    HW216443   5.888   1.333   2.484
 5182SOL     OW16444   3.942   4.378   1.669
 5182SOL    HW116445   3.994   4.295   1.691
 5182SOL    HW216446   3.846   4.364   1.691
 5183SOL     OW16447   3.931   1.472   3.000
 5183SOL    HW116448   3.967   1.443   3.089
 5183SOL    HW216449   3.974   1.559   2.974
 5184SOL     OW16450   0.764   1.838   4.508
 5184SOL    HW116451   0.845   1.798   4.465
 5184SOL    HW216452   0.781   1.934   4.529
 5185SOL     OW16453   5.738   0.751   2.363
 5185SOL    HW116454   5.814   0.687   2.355
 5185SOL    HW216455   5.693   0.760   2.274
 5186SOL     OW16456   6.679   2.642   0.811
 5186SOL    HW116457   6.641   2.732   0.790
 5186SOL    HW216458   6.714   2.600   0.727
 5187SOL     OW16459   1.356   6.932   4.502
 5187SOL    HW116460   1.259   6.920   4.520
 5187SOL    HW216461   1.388   6.857   4.443
 5188SOL     OW16462   0.764   5.543   0.868
 5188SOL    HW116463   0.795   5.496   0.785
 5188SOL    HW216464   0.823   5.517   0.944
 5189SOL     OW16465   3.855   4.343   0.901
 5189SOL    HW116466   3.937   4.361   0.954
 5189SOL    HW216467   3.873   4.270   0.835
 5190SOL     OW16468   0.802   1.742   4.090
 5190SOL    HW116469   0.768   1.836   4.102
 5190SOL    HW216470   0.731   1.677   4.115
 5191SOL     OW16471   4.126   0.311   1.907
 5191SOL    HW116472   4.170   0.382   1.853
 5191SOL    HW216473   4.029   0.329   1.915
 5192SOL     OW16474   2.609   5.527   2.458
 5192SOL    HW116475   2.512   5.537   2.481
 5192SOL    HW216476   2.664   5.532   2.542
 5193SOL     OW16477   4.868   4.579   4.754
 5193SOL    HW116478   4.944   4.603   4.693
 5193SOL    HW216479   4.900   4.582   4.849
 5194SOL     OW16480   4.762   2.287   0.002
 5194SOL    HW116481   4.841   2.283   6.967
 5194SOL    HW216482   4.729   2.195   0.021
 5195SOL     OW16483   6.331   6.358   3.939
 5195SOL    HW116484   6.274   6.278   3.917
 5195SOL    HW216485   6.427   6.336   3.924
 5196SOL     OW16486   3.179   5.112   0.269
 5196SOL    HW116487   3.244   5.095   0.342
 5196SOL    HW216488   3.188   5.041   0.199
 5197SOL     OW16489   1.902   5.223   5.656
 5197SOL    HW116490   1.936   5.306   5.611
 5197SOL    HW216491   1.932   5.143   5.605
 5198SOL     OW16492   4.439   6.666   3.589
 5198SOL    HW116493   4.345   6.656   3.558
 5198SOL    HW216494   4.490   6.582   3.570
 5199SOL     OW16495   1.708   5.938   0.504
 5199SOL    HW116496   1.658   5.968   0.585
 5199SOL    HW216497   1.669   5.982   0.423
 5200SOL     OW16498   0.901   2.599   5.262
 5200SOL    HW116499   0.918   2.654   5.344
 5200SOL    HW216500   0.972   2.618   5.194
 5201SOL     OW16501   0.447   6.682   3.837
 5201SOL    HW116502   0.422   6.768   3.792
 5201SOL    HW216503   0.372   6.653   3.896
 5202SOL     OW16504   6.063   4.244   5.848
 5202SOL    HW116505   6.026   4.216   5.937
 5202SOL    HW216506   6.160   4.217   5.842
 5203SOL     OW16507   2.338   1.202   6.688
 5203SOL    HW116508   2.257   1.253   6.658
 5203SOL    HW216509   2.372   1.239   6.774
 5204SOL     OW16510   4.262   5.927   6.737
 5204SOL    HW116511   4.317   5.865   6.794
 5204SOL    HW216512   4.239   5.881   6.651
 5205SOL     OW16513   0.525   5.793   0.645
 5205SOL    HW116514   0.451   5.770   0.582
 5205SOL    HW216515   0.510   5.884   0.684
 5206SOL     OW16516   0.596   4.766   6.553
 5206SOL    HW116517   0.566   4.713   6.474
 5206SOL    HW216518   0.524   4.767   6.622
 5207SOL     OW16519   1.071   6.168   4.177
 5207SOL    HW116520   1.021   6.163   4.090
 5207SOL    HW216521   1.059   6.259   4.217
 5208SOL     OW16522   4.989   2.809   6.457
 5208SOL    HW116523   4.915   2.801   6.389
 5208SOL    HW216524   4.953   2.850   6.540
 5209SOL     OW16525   5.811   6.600   2.074
 5209SOL    HW116526   5.730   6.629   2.124
 5209SOL    HW216527   5.797   6.509   2.037
 5210SOL     OW16528   4.541   2.810   0.327
 5210SOL    HW116529   4.500   2.742   0.388
 5210SOL    HW216530   4.632   2.780   0.301
 5211SOL     OW16531   3.768   2.486   5.737
 5211SOL    HW116532   3.806   2.422   5.670
 5211SOL    HW216533   3.668   2.478   5.737
 5212SOL     OW16534   0.230   2.598   0.555
 5212SOL    HW116535   0.199   2.543   0.477
 5212SOL    HW216536   0.273   2.682   0.522
 5213SOL     OW16537   4.600   4.198   6.812
 5213SOL    HW116538   4.689   4.197   6.857
 5213SOL    HW216539   4.534   4.245   6.871
 5214SOL     OW16540   5.587   1.787   6.226
 5214SOL    HW116541   5.644   1.791   6.309
 5214SOL    HW216542   5.623   1.851   6.158
 5215SOL     OW16543   0.785   4.269   4.091
 5215SOL    HW116544   0.848   4.235   4.161
 5215SOL    HW216545   0.792   4.211   4.009
 5216SOL     OW16546   4.577   4.923   2.001
 5216SOL    HW116547   4.559   5.020   1.985
 5216SOL    HW216548   4.670   4.901   1.971
 5217SOL     OW16549   3.797   5.163   4.381
 5217SOL    HW116550   3.763   5.099   4.450
 5217SOL    HW216551   3.865   5.118   4.324
 5218SOL     OW16552   0.750   0.932   2.251
 5218SOL    HW116553   0.794   0.936   2.340
 5218SOL    HW216554   0.814   0.962   2.180
 5219SOL     OW16555   4.401   1.549   4.738
 5219SOL    HW116556   4.383   1.647   4.734
 5219SOL    HW216557   4.427   1.524   4.832
 5220SOL     OW16558   0.746   6.224   2.356
 5220SOL    HW116559   0.778   6.201   2.264
 5220SOL    HW216560   0.687   6.151   2.391
 5221SOL     OW16561   5.991   1.442   3.740
 5221SOL    HW116562   5.990   1.389   3.824
 5221SOL    HW216563   5.902   1.434   3.695
 5222SOL     OW16564   4.121   6.299   3.163
 5222SOL    HW116565   4.166   6.384   3.190
 5222SOL    HW216566   4.190   6.235   3.128
 5223SOL     OW16567   5.985   2.728   0.464
 5223SOL    HW116568   6.034   2.641   0.468
 5223SOL    HW216569   5.963   2.750   0.369
 5224SOL     OW16570   6.276   3.039   4.804
 5224SOL    HW116571   6.221   3.063   4.723
 5224SOL    HW216572   6.249   2.948   4.836
 5225SOL     OW16573   0.085   0.546   3.696
 5225SOL    HW116574   0.173   0.591   3.682
 5225SOL    HW216575   0.099   0.461   3.746
 5226SOL     OW16576   6.799   6.888   4.911
 5226SOL    HW116577   6.843   6.859   4.997
 5226SOL    HW216578   6.802   6.988   4.906
 5227SOL     OW16579   0.003   3.503   4.931
 5227SOL    HW116580   0.024   3.415   4.889
 5227SOL    HW216581   6.939   3.499   4.976
 5228SOL     OW16582   6.184   2.340   1.064
 5228SOL    HW116583   6.210   2.408   1.133
 5228SOL    HW216584   6.164   2.386   0.977
 5229SOL     OW16585   2.571   6.064   0.200
 5229SOL    HW116586   2.516   6.013   0.266
 5229SOL    HW216587   2.522   6.147   0.172
 5230SOL     OW16588   0.733   5.543   1.607
 5230SOL    HW116589   0.703   5.509   1.518
 5230SOL    HW216590   0.689   5.631   1.626
 5231SOL     OW16591   4.853   2.375   4.745
 5231SOL    HW116592   4.941   2.347   4.782
 5231SOL    HW216593   4.780   2.346   4.807
 5232SOL     OW16594   2.293   3.363   6.188
 5232SOL    HW116595   2.304   3.344   6.285
 5232SOL    HW216596   2.383   3.368   6.145
 5233SOL     OW16597   4.499   1.049   2.139
 5233SOL    HW116598   4.586   1.017   2.174
 5233SOL    HW216599   4.426   0.987   2.167
 5234SOL     OW16600   2.708   1.619   5.987
 5234SOL    HW116601   2.780   1.668   5.937
 5234SOL    HW216602   2.621   1.632   5.939
 5235SOL     OW16603   1.722   2.421   0.848
 5235SOL    HW116604   1.648   2.360   0.819
 5235SOL    HW216605   1.750   2.477   0.770
 5236SOL     OW16606   4.859   4.949   1.973
 5236SOL    HW116607   4.936   4.888   1.954
 5236SOL    HW216608   4.854   4.968   2.071
 5237SOL     OW16609   1.542   1.184   4.889
 5237SOL    HW116610   1.527   1.097   4.842
 5237SOL    HW216611   1.639   1.196   4.906
 5238SOL     OW16612   0.411   4.453   0.192
 5238SOL    HW116613   0.387   4.364   0.230
 5238SOL    HW216614   0.447   4.441   0.099
 5239SOL     OW16615   3.389   2.911   4.495
 5239SOL    HW116616   3.314   2.972   4.520
 5239SOL    HW216617   3.359   2.848   4.424
 5240SOL     OW16618   3.117   2.115   5.779
 5240SOL    HW116619   3.169   2.047   5.832
 5240SOL    HW216620   3.089   2.074   5.692
 5241SOL     OW16621   0.363   5.324   4.894
 5241SOL    HW116622   0.302   5.250   4.922
 5241SOL    HW216623   0.312   5.410   4.889
 5242SOL     OW16624   6.898   6.373   6.639
 5242SOL    HW116625   6.815   6.389   6.692
 5242SOL    HW216626   6.878   6.379   6.542
 5243SOL     OW16627   1.461   5.500   1.666
 5243SOL    HW116628   1.435   5.419   1.614
 5243SOL    HW216629   1.515   5.473   1.745
 5244SOL     OW16630   3.174   5.375   0.176
 5244SOL    HW116631   3.208   5.292   0.220
 5244SOL    HW216632   3.097   5.353   0.116
 5245SOL     OW16633   3.879   4.909   0.048
 5245SOL    HW116634   3.944   4.936   0.119
 5245SOL    HW216635   3.788   4.896   0.089
 5246SOL     OW16636   5.206   3.686   1.674
 5246SOL    HW116637   5.153   3.644   1.748
 5246SOL    HW216638   5.151   3.757   1.630
 5247SOL     OW16639   1.708   1.053   0.034
 5247SOL    HW116640   1.743   1.096   0.117
 5247SOL    HW216641   1.784   1.016   7.006
 5248SOL     OW16642   5.748   1.391   3.630
 5248SOL    HW116643   5.705   1.389   3.721
 5248SOL    HW216644   5.677   1.399   3.560
 5249SOL     OW16645   6.951   5.081   6.155
 5249SOL    HW116646   6.886   5.007   6.144
 5249SOL    HW216647   6.902   5.168   6.160
 5250SOL     OW16648   2.241   5.826   6.073
 5250SOL    HW116649   2.239   5.877   5.987
 5250SOL    HW216650   2.147   5.804   6.101
 5251SOL     OW16651   0.381   3.483   0.107
 5251SOL    HW116652   0.437   3.557   0.070
 5251SOL    HW216653   0.289   3.518   0.128
 5252SOL     OW16654   1.836   6.493   0.401
 5252SOL    HW116655   1.767   6.437   0.356
 5252SOL    HW216656   1.867   6.446   0.484
 5253SOL     OW16657   6.026   4.937   4.504
 5253SOL    HW116658   6.013   5.027   4.462
 5253SOL    HW216659   6.068   4.948   4.594
 5254SOL     OW16660   4.248   1.072   3.078
 5254SOL    HW116661   4.313   1.000   3.103
 5254SOL    HW216662   4.157   1.032   3.065
 5255SOL     OW16663   5.881   1.588   5.116
 5255SOL    HW116664   5.954   1.578   5.047
 5255SOL    HW216665   5.798   1.545   5.083
 5256SOL     OW16666   3.960   1.356   3.651
 5256SOL    HW116667   4.048   1.309   3.664
 5256SOL    HW216668   3.934   1.350   3.555
 5257SOL     OW16669   6.032   6.643   1.905
 5257SOL    HW116670   6.072   6.555   1.880
 5257SOL    HW216671   5.950   6.628   1.960
 5258SOL     OW16672   5.628   3.367   1.579
 5258SOL    HW116673   5.671   3.392   1.492
 5258SOL    HW216674   5.560   3.295   1.563
 5259SOL     OW16675   5.400   6.369   1.922
 5259SOL    HW116676   5.369   6.282   1.962
 5259SOL    HW216677   5.478   6.404   1.972
 5260SOL     OW16678   5.196   3.609   1.024
 5260SOL    HW116679   5.100   3.607   1.052
 5260SOL    HW216680   5.245   3.536   1.072
 5261SOL     OW16681   0.513   3.701   0.015
 5261SOL    HW116682   0.473   3.709   6.949
 5261SOL    HW216683   0.566   3.783   0.036
 5262SOL     OW16684   2.708   0.732   3.322
 5262SOL    HW116685   2.711   0.830   3.299
 5262SOL    HW216686   2.758   0.717   3.408
 5263SOL     OW16687   1.853   1.676   4.264
 5263SOL    HW116688   1.844   1.678   4.165
 5263SOL    HW216689   1.766   1.647   4.305
 5264SOL     OW16690   6.525   2.589   2.886
 5264SOL    HW116691   6.508   2.670   2.830
 5264SOL    HW216692   6.547   2.511   2.826
 5265SOL     OW16693   6.535   3.844   4.005
 5265SOL    HW116694   6.626   3.805   4.014
 5265SOL    HW216695   6.469   3.786   4.053
 5266SOL     OW16696   2.802   5.398   0.705
 5266SOL    HW116697   2.714   5.427   0.742
 5266SOL    HW216698   2.812   5.432   0.611
 5267SOL     OW16699   5.259   3.955   4.997
 5267SOL    HW116700   5.255   3.964   4.897
 5267SOL    HW216701   5.206   3.875   5.025
 5268SOL     OW16702   5.749   0.760   6.837
 5268SOL    HW116703   5.753   0.683   6.774
 5268SOL    HW216704   5.684   0.740   6.911
 5269SOL     OW16705   1.244   6.987   3.852
 5269SOL    HW116706   1.246   6.978   3.752
 5269SOL    HW216707   1.160   0.008   3.880
 5270SOL     OW16708   5.962   1.016   1.031
 5270SOL    HW116709   5.954   0.919   1.057
 5270SOL    HW216710   5.938   1.026   0.935
 5271SOL     OW16711   6.016   5.478   5.272
 5271SOL    HW116712   6.009   5.568   5.314
 5271SOL    HW216713   5.953   5.472   5.195
 5272SOL     OW16714   2.929   5.136   1.894
 5272SOL    HW116715   2.909   5.042   1.923
 5272SOL    HW216716   3.024   5.157   1.914
 5273SOL     OW16717   6.592   2.949   3.420
 5273SOL    HW116718   6.654   2.870   3.417
 5273SOL    HW216719   6.507   2.922   3.466
 5274SOL     OW16720   6.788   6.957   2.980
 5274SOL    HW116721   6.716   6.995   3.037
 5274SOL    HW216722   6.775   6.987   2.885
 5275SOL     OW16723   3.795   2.462   1.092
 5275SOL    HW116724   3.781   2.560   1.100
 5275SOL    HW216725   3.713   2.413   1.121
 5276SOL     OW16726   1.995   0.593   1.031
 5276SOL    HW116727   2.057   0.650   0.977
 5276SOL    HW216728   2.044   0.556   1.110
 5277SOL     OW16729   1.503   1.446   2.531
 5277SOL    HW116730   1.584   1.429   2.475
 5277SOL    HW216731   1.435   1.375   2.513
 5278SOL     OW16732   5.935   0.297   3.351
 5278SOL    HW116733   5.901   0.389   3.332
 5278SOL    HW216734   5.897   0.233   3.284
 5279SOL     OW16735   2.097   5.169   6.084
 5279SOL    HW116736   2.037   5.217   6.020
 5279SOL    HW216737   2.127   5.082   6.043
 5280SOL     OW16738   2.493   6.102   5.124
 5280SOL    HW116739   2.494   6.025   5.060
 5280SOL    HW216740   2.465   6.185   5.076
 5281SOL     OW16741   0.404   1.663   2.960
 5281SOL    HW116742   0.389   1.755   2.997
 5281SOL    HW216743   0.316   1.625   2.930
 5282SOL     OW16744   2.241   1.844   3.010
 5282SOL    HW116745   2.162   1.867   2.954
 5282SOL    HW216746   2.257   1.917   3.076
 5283SOL     OW16747   4.021   6.994   1.019
 5283SOL    HW116748   3.979   0.011   1.099
 5283SOL    HW216749   4.120   6.992   1.032
 5284SOL     OW16750   4.964   3.772   3.308
 5284SOL    HW116751   4.965   3.694   3.370
 5284SOL    HW216752   5.031   3.757   3.235
 5285SOL     OW16753   2.938   5.284   3.258
 5285SOL    HW116754   2.964   5.205   3.314
 5285SOL    HW216755   3.004   5.357   3.272
 5286SOL     OW16756   1.247   4.642   0.418
 5286SOL    HW116757   1.336   4.677   0.448
 5286SOL    HW216758   1.215   4.697   0.341
 5287SOL     OW16759   2.805   6.618   1.050
 5287SOL    HW116760   2.844   6.544   1.104
 5287SOL    HW216761   2.840   6.613   0.956
 5288SOL     OW16762   3.386   0.250   1.624
 5288SOL    HW116763   3.341   0.273   1.538
 5288SOL    HW216764   3.402   0.151   1.628
 5289SOL     OW16765   1.791   4.387   5.850
 5289SOL    HW116766   1.702   4.353   5.824
 5289SOL    HW216767   1.801   4.482   5.820
 5290SOL     OW16768   1.535   5.157   4.942
 5290SOL    HW116769   1.555   5.114   4.854
 5290SOL    HW216770   1.580   5.246   4.947
 5291SOL     OW16771   2.467   4.914   5.909
 5291SOL    HW116772   2.461   4.833   5.968
 5291SOL    HW216773   2.378   4.958   5.904
 5292SOL     OW16774   6.429   2.899   6.675
 5292SOL    HW116775   6.413   2.997   6.676
 5292SOL    HW216776   6.486   2.875   6.596
 5293SOL     OW16777   0.732   0.191   4.821
 5293SOL    HW116778   0.800   0.147   4.763
 5293SOL    HW216779   0.671   0.122   4.859
 5294SOL     OW16780   4.727   3.655   5.755
 5294SOL    HW116781   4.751   3.594   5.680
 5294SOL    HW216782   4.732   3.750   5.723
 5295SOL     OW16783   5.376   0.805   2.767
 5295SOL    HW116784   5.467   0.785   2.731
 5295SOL    HW216785   5.350   0.898   2.741
 5296SOL     OW16786   2.161   5.191   0.190
 5296SOL    HW116787   2.186   5.281   0.154
 5296SOL    HW216788   2.239   5.130   0.185
 5297SOL     OW16789   2.944   2.280   1.299
 5297SOL    HW116790   2.905   2.269   1.390
 5297SOL    HW216791   2.934   2.375   1.269
 5298SOL     OW16792   0.728   5.479   0.378
 5298SOL    HW116793   0.756   5.565   0.420
 5298SOL    HW216794   0.803   5.445   0.321
 5299SOL     OW16795   2.452   2.486   0.523
 5299SOL    HW116796   2.520   2.544   0.568
 5299SOL    HW216797   2.439   2.403   0.577
 5300SOL     OW16798   0.333   6.005   2.065
 5300SOL    HW116799   0.289   5.920   2.093
 5300SOL    HW216800   0.410   6.024   2.126
 5301SOL     OW16801   4.337   2.408   0.870
 5301SOL    HW116802   4.275   2.470   0.822
 5301SOL    HW216803   4.394   2.360   0.804
 5302SOL     OW16804   5.774   3.962   2.934
 5302SOL    HW116805   5.848   3.919   2.882
 5302SOL    HW216806   5.734   4.036   2.880
 5303SOL     OW16807   6.675   5.978   3.384
 5303SOL    HW116808   6.596   5.923   3.357
 5303SOL    HW216809   6.721   5.936   3.462
 5304SOL     OW16810   6.786   2.037   5.719
 5304SOL    HW116811   6.824   1.991   5.639
 5304SOL    HW216812   6.860   2.062   5.782
 5305SOL     OW16813   1.521   6.431   4.832
 5305SOL    HW116814   1.601   6.462   4.884
 5305SOL    HW216815   1.532   6.335   4.809
 5306SOL     OW16816   0.233   5.920   5.046
 5306SOL    HW116817   0.319   5.951   5.007
 5306SOL    HW216818   0.196   5.990   5.108
 5307SOL     OW16819   4.364   0.212   6.961
 5307SOL    HW116820   4.440   0.164   7.006
 5307SOL    HW216821   4.318   0.272   0.002
 5308SOL     OW16822   0.948   6.582   5.091
 5308SOL    HW116823   1.022   6.529   5.049
 5308SOL    HW216824   0.860   6.555   5.051
 5309SOL     OW16825   3.132   3.676   2.172
 5309SOL    HW116826   3.149   3.594   2.227
 5309SOL    HW216827   3.073   3.653   2.095
 5310SOL     OW16828   5.265   2.968   1.988
 5310SOL    HW116829   5.210   2.991   2.069
 5310SOL    HW216830   5.264   2.869   1.975
 5311SOL     OW16831   0.403   5.709   1.093
 5311SOL    HW116832   0.405   5.660   1.180
 5311SOL    HW216833   0.495   5.738   1.069
 5312SOL     OW16834   7.020   4.278   2.804
 5312SOL    HW116835   6.946   4.303   2.867
 5312SOL    HW216836   0.058   4.355   2.796
 5313SOL     OW16837   1.005   4.805   6.857
 5313SOL    HW116838   1.015   4.891   6.807
 5313SOL    HW216839   1.042   4.730   6.802
 5314SOL     OW16840   3.219   4.924   0.019
 5314SOL    HW116841   3.144   4.864   0.049
 5314SOL    HW216842   3.306   4.884   0.047
 5315SOL     OW16843   3.837   3.802   1.391
 5315SOL    HW116844   3.822   3.735   1.319
 5315SOL    HW216845   3.926   3.846   1.377
 5316SOL     OW16846   6.787   5.533   5.253
 5316SOL    HW116847   6.867   5.550   5.195
 5316SOL    HW216848   6.798   5.445   5.300
 5317SOL     OW16849   6.823   0.897   4.578
 5317SOL    HW116850   6.855   0.954   4.654
 5317SOL    HW216851   6.901   0.870   4.522
 5318SOL     OW16852   0.625   1.743   5.974
 5318SOL    HW116853   0.547   1.682   5.984
 5318SOL    HW216854   0.621   1.788   5.884
 5319SOL     OW16855   4.819   6.600   0.075
 5319SOL    HW116856   4.832   6.523   0.137
 5319SOL    HW216857   4.751   6.662   0.114
 5320SOL     OW16858   5.557   5.109   6.648
 5320SOL    HW116859   5.482   5.175   6.638
 5320SOL    HW216860   5.597   5.090   6.558
 5321SOL     OW16861   0.949   4.016   2.808
 5321SOL    HW116862   0.959   4.114   2.790
 5321SOL    HW216863   1.032   3.968   2.779
 5322SOL     OW16864   3.913   6.387   6.098
 5322SOL    HW116865   3.862   6.406   6.014
 5322SOL    HW216866   3.936   6.473   6.143
 5323SOL     OW16867   3.693   3.343   0.738
 5323SOL    HW116868   3.755   3.267   0.720
 5323SOL    HW216869   3.667   3.343   0.835
 5324SOL     OW16870   3.706   2.531   1.710
 5324SOL    HW116871   3.799   2.541   1.747
 5324SOL    HW216872   3.653   2.471   1.769
 5325SOL     OW16873   5.777   6.409   3.883
 5325SOL    HW116874   5.729   6.332   3.927
 5325SOL    HW216875   5.866   6.421   3.926
 5326SOL     OW16876   0.018   5.059   2.804
 5326SOL    HW116877   0.016   4.982   2.741
 5326SOL    HW216878   0.089   5.043   2.874
 5327SOL     OW16879   0.218   5.056   5.584
 5327SOL    HW116880   0.127   5.019   5.562
 5327SOL    HW216881   0.207   5.139   5.638
 5328SOL     OW16882   4.371   2.930   5.569
 5328SOL    HW116883   4.356   2.867   5.646
 5328SOL    HW216884   4.284   2.970   5.542
 5329SOL     OW16885   0.572   4.108   6.850
 5329SOL    HW116886   0.592   4.044   6.924
 5329SOL    HW216887   0.640   4.098   6.777
 5330SOL     OW16888   3.337   4.824   6.716
 5330SOL    HW116889   3.379   4.744   6.759
 5330SOL    HW216890   3.404   4.868   6.657
 5331SOL     OW16891   5.189   1.577   1.644
 5331SOL    HW116892   5.271   1.625   1.613
 5331SOL    HW216893   5.108   1.616   1.599
 5332SOL     OW16894   6.691   4.171   0.554
 5332SOL    HW116895   6.712   4.133   0.464
 5332SOL    HW216896   6.762   4.144   0.619
 5333SOL     OW16897   1.156   0.608   4.008
 5333SOL    HW116898   1.211   0.625   4.090
 5333SOL    HW216899   1.164   0.512   3.982
 5334SOL     OW16900   3.614   5.087   5.672
 5334SOL    HW116901   3.691   5.050   5.724
 5334SOL    HW216902   3.599   5.183   5.698
 5335SOL     OW16903   0.265   4.996   1.978
 5335SOL    HW116904   0.292   4.949   2.062
 5335SOL    HW216905   0.332   4.979   1.906
 5336SOL     OW16906   2.162   2.088   3.476
 5336SOL    HW116907   2.143   2.037   3.560
 5336SOL    HW216908   2.130   2.182   3.486
 5337SOL     OW16909   5.436   4.558   1.697
 5337SOL    HW116910   5.454   4.521   1.788
 5337SOL    HW216911   5.441   4.657   1.699
 5338SOL     OW16912   5.935   1.045   6.289
 5338SOL    HW116913   5.937   1.116   6.218
 5338SOL    HW216914   5.860   1.064   6.352
 5339SOL     OW16915   5.588   1.368   3.163
 5339SOL    HW116916   5.593   1.271   3.141
 5339SOL    HW216917   5.599   1.380   3.262
 5340SOL     OW16918   6.155   3.932   1.369
 5340SOL    HW116919   6.227   3.898   1.429
 5340SOL    HW216920   6.088   3.983   1.422
 5341SOL     OW16921   2.992   5.090   5.061
 5341SOL    HW116922   2.902   5.132   5.078
 5341SOL    HW216923   2.997   5.002   5.108
 5342SOL     OW16924   5.529   6.323   4.760
 5342SOL    HW116925   5.494   6.344   4.668
 5342SOL    HW216926   5.517   6.402   4.819
 5343SOL     OW16927   3.887   3.412   4.630
 5343SOL    HW116928   3.850   3.459   4.550
 5343SOL    HW216929   3.811   3.380   4.687
 5344SOL     OW16930   0.611   1.674   0.482
 5344SOL    HW116931   0.557   1.633   0.409
 5344SOL    HW216932   0.607   1.616   0.563
 5345SOL     OW16933   5.087   0.509   6.908
 5345SOL    HW116934   5.176   0.466   6.920
 5345SOL    HW216935   5.082   0.592   6.964
 5346SOL     OW16936   3.364   5.691   4.008
 5346SOL    HW116937   3.446   5.655   4.054
 5346SOL    HW216938   3.348   5.785   4.037
 5347SOL     OW16939   6.452   3.882   3.322
 5347SOL    HW116940   6.527   3.924   3.270
 5347SOL    HW216941   6.382   3.950   3.340
 5348SOL     OW16942   0.497   1.469   6.582
 5348SOL    HW116943   0.550   1.423   6.654
 5348SOL    HW216944   0.402   1.438   6.586
 5349SOL     OW16945   2.645   3.118   0.759
 5349SOL    HW116946   2.606   3.041   0.708
 5349SOL    HW216947   2.598   3.126   0.847
 5350SOL     OW16948   2.589   6.837   5.179
 5350SOL    HW116949   2.647   6.759   5.202
 5350SOL    HW216950   2.626   6.920   5.220
 5351SOL     OW16951   0.286   5.532   2.245
 5351SOL    HW116952   0.248   5.496   2.331
 5351SOL    HW216953   0.332   5.459   2.196
 5352SOL     OW16954   2.036   4.763   3.176
 5352SOL    HW116955   2.118   4.818   3.191
 5352SOL    HW216956   2.061   4.674   3.139
 5353SOL     OW16957   3.725   6.152   4.192
 5353SOL    HW116958   3.675   6.231   4.226
 5353SOL    HW216959   3.661   6.079   4.168
 5354SOL     OW16960   1.822   4.779   0.693
 5354SOL    HW116961   1.835   4.741   0.602
 5354SOL    HW216962   1.821   4.706   0.761
 5355SOL     OW16963   6.392   5.109   3.969
 5355SOL    HW116964   6.452   5.089   4.047
 5355SOL    HW216965   6.447   5.109   3.885
 5356SOL     OW16966   6.696   3.673   2.591
 5356SOL    HW116967   6.698   3.671   2.491
 5356SOL    HW216968   6.767   3.734   2.625
 5357SOL     OW16969   3.830   4.530   0.682
 5357SOL    HW116970   3.850   4.531   0.780
 5357SOL    HW216971   3.900   4.477   0.634
 5358SOL     OW16972   4.536   2.749   1.358
 5358SOL    HW116973   4.474   2.720   1.430
 5358SOL    HW216974   4.566   2.670   1.305
 5359SOL     OW16975   2.403   1.742   6.238
 5359SOL    HW116976   2.490   1.784   6.210
 5359SOL    HW216977   2.343   1.812   6.276
 5360SOL     OW16978   5.147   5.985   3.701
 5360SOL    HW116979   5.139   6.029   3.790
 5360SOL    HW216980   5.070   5.923   3.687
 5361SOL     OW16981   2.267   6.431   4.113
 5361SOL    HW116982   2.295   6.421   4.017
 5361SOL    HW216983   2.265   6.340   4.156
 5362SOL     OW16984   6.764   5.739   2.590
 5362SOL    HW116985   6.807   5.777   2.672
 5362SOL    HW216986   6.760   5.809   2.519
 5363SOL     OW16987   5.386   6.397   5.933
 5363SOL    HW116988   5.384   6.306   5.891
 5363SOL    HW216989   5.335   6.394   6.020
 5364SOL     OW16990   6.053   6.582   1.541
 5364SOL    HW116991   6.122   6.611   1.608
 5364SOL    HW216992   5.977   6.539   1.589
 5365SOL     OW16993   3.258   2.882   2.227
 5365SOL    HW116994   3.161   2.868   2.207
 5365SOL    HW216995   3.313   2.825   2.166
 5366SOL     OW16996   6.795   6.439   2.475
 5366SOL    HW116997   6.848   6.473   2.397
 5366SOL    HW216998   6.830   6.478   2.559
 5367SOL     OW16999   0.208   6.807   1.488
 5367SOL    HW117000   0.210   6.708   1.504
 5367SOL    HW217001   0.120   6.832   1.446
 5368SOL     OW17002   6.348   6.927   2.812
 5368SOL    HW117003   6.443   6.911   2.786
 5368SOL    HW217004   6.293   6.942   2.729
 5369SOL     OW17005   3.008   6.194   1.238
 5369SOL    HW117006   2.974   6.100   1.247
 5369SOL    HW217007   2.984   6.246   1.320
 5370SOL     OW17008   4.335   4.071   0.999
 5370SOL    HW117009   4.369   4.022   1.079
 5370SOL    HW217010   4.323   4.008   0.923
 5371SOL     OW17011   0.036   5.117   5.236
 5371SOL    HW117012   0.048   5.036   5.177
 5371SOL    HW217013   0.122   5.137   5.283
 5372SOL     OW17014   0.865   6.044   2.816
 5372SOL    HW117015   0.922   6.105   2.871
 5372SOL    HW217016   0.826   6.095   2.739
 5373SOL     OW17017   4.158   6.876   5.454
 5373SOL    HW117018   4.196   6.892   5.545
 5373SOL    HW217019   4.107   6.789   5.454
 5374SOL     OW17020   2.138   4.724   0.734
 5374SOL    HW117021   2.207   4.747   0.802
 5374SOL    HW217022   2.048   4.717   0.778
 5375SOL     OW17023   0.373   5.744   5.897
 5375SOL    HW117024   0.367   5.813   5.970
 5375SOL    HW217025   0.465   5.703   5.898
 5376SOL     OW17026   1.139   2.176   1.368
 5376SOL    HW117027   1.090   2.198   1.453
 5376SOL    HW217028   1.136   2.255   1.307
 5377SOL     OW17029   1.203   0.348   2.774
 5377SOL    HW117030   1.203   0.251   2.799
 5377SOL    HW217031   1.117   0.371   2.729
 5378SOL     OW17032   6.829   0.308   2.255
 5378SOL    HW117033   6.912   0.270   2.297
 5378SOL    HW217034   6.834   0.298   2.156
 5379SOL     OW17035   1.104   3.408   4.666
 5379SOL    HW117036   1.085   3.429   4.570
 5379SOL    HW217037   1.192   3.446   4.692
 5380SOL     OW17038   2.591   6.589   1.347
 5380SOL    HW117039   2.624   6.506   1.301
 5380SOL    HW217040   2.621   6.669   1.296
 5381SOL     OW17041   0.125   6.197   2.156
 5381SOL    HW117042   0.171   6.284   2.172
 5381SOL    HW217043   0.190   6.132   2.115
 5382SOL     OW17044   2.942   2.147   2.333
 5382SOL    HW117045   2.936   2.186   2.241
 5382SOL    HW217046   2.870   2.186   2.390
 5383SOL     OW17047   1.308   2.777   4.823
 5383SOL    HW117048   1.385   2.749   4.766
 5383SOL    HW217049   1.339   2.793   4.917
 5384SOL     OW17050   4.885   5.884   4.599
 5384SOL    HW117051   4.790   5.855   4.608
 5384SOL    HW217052   4.938   5.849   4.676
 5385SOL     OW17053   5.077   3.205   5.521
 5385SOL    HW117054   5.142   3.133   5.495
 5385SOL    HW217055   5.108   3.293   5.486
 5386SOL     OW17056   5.761   1.231   4.131
 5386SOL    HW117057   5.706   1.192   4.205
 5386SOL    HW217058   5.705   1.239   4.048
 5387SOL     OW17059   2.610   6.057   3.157
 5387SOL    HW117060   2.686   6.086   3.099
 5387SOL    HW217061   2.531   6.034   3.101
 5388SOL     OW17062   1.256   6.972   2.624
 5388SOL    HW117063   1.356   6.981   2.629
 5388SOL    HW217064   1.231   6.926   2.539
 5389SOL     OW17065   4.043   1.640   4.628
 5389SOL    HW117066   4.107   1.582   4.578
 5389SOL    HW217067   3.978   1.681   4.564
 5390SOL     OW17068   5.555   4.348   3.496
 5390SOL    HW117069   5.608   4.350   3.581
 5390SOL    HW217070   5.560   4.437   3.452
 5391SOL     OW17071   2.377   1.929   0.445
 5391SOL    HW117072   2.439   1.937   0.524
 5391SOL    HW217073   2.342   1.836   0.440
 5392SOL     OW17074   5.541   4.015   0.973
 5392SOL    HW117075   5.453   3.969   0.983
 5392SOL    HW217076   5.554   4.079   1.049
 5393SOL     OW17077   4.950   1.170   5.311
 5393SOL    HW117078   4.876   1.132   5.256
 5393SOL    HW217079   4.932   1.266   5.329
 5394SOL     OW17080   0.883   5.493   1.116
 5394SOL    HW117081   0.975   5.455   1.117
 5394SOL    HW217082   0.878   5.571   1.178
 5395SOL     OW17083   5.105   0.285   1.586
 5395SOL    HW117084   5.192   0.285   1.634
 5395SOL    HW217085   5.101   0.208   1.522
 5396SOL     OW17086   5.737   5.196   1.885
 5396SOL    HW117087   5.680   5.275   1.862
 5396SOL    HW217088   5.678   5.119   1.911
 5397SOL     OW17089   0.017   1.724   2.486
 5397SOL    HW117090   0.022   1.651   2.554
 5397SOL    HW217091   6.950   1.728   2.449
 5398SOL     OW17092   2.687   1.884   3.957
 5398SOL    HW117093   2.692   1.950   4.032
 5398SOL    HW217094   2.742   1.916   3.880
 5399SOL     OW17095   2.966   6.798   6.423
 5399SOL    HW117096   2.915   6.868   6.373
 5399SOL    HW217097   2.929   6.708   6.402
 5400SOL     OW17098   2.917   3.135   0.368
 5400SOL    HW117099   3.010   3.174   0.367
 5400SOL    HW217100   2.923   3.036   0.381
 5401SOL     OW17101   5.572   4.303   2.197
 5401SOL    HW117102   5.609   4.396   2.189
 5401SOL    HW217103   5.644   4.237   2.174
 5402SOL     OW17104   2.557   6.712   0.983
 5402SOL    HW117105   2.638   6.672   1.026
 5402SOL    HW217106   2.555   6.810   1.000
 5403SOL     OW17107   5.144   3.446   6.269
 5403SOL    HW117108   5.098   3.394   6.196
 5403SOL    HW217109   5.099   3.427   6.356
 5404SOL     OW17110   0.770   0.115   1.586
 5404SOL    HW117111   0.713   0.063   1.521
 5404SOL    HW217112   0.814   0.053   1.650
 5405SOL     OW17113   6.190   4.745   6.782
 5405SOL    HW117114   6.100   4.759   6.824
 5405SOL    HW217115   6.192   4.787   6.692
 5406SOL     OW17116   2.475   0.988   4.971
 5406SOL    HW117117   2.403   1.014   5.035
 5406SOL    HW217118   2.508   1.070   4.923
 5407SOL     OW17119   3.598   1.761   0.986
 5407SOL    HW117120   3.615   1.852   1.023
 5407SOL    HW217121   3.515   1.763   0.930
 5408SOL     OW17122   4.305   0.846   5.036
 5408SOL    HW117123   4.308   0.920   4.969
 5408SOL    HW217124   4.330   0.883   5.126
 5409SOL     OW17125   6.291   1.212   2.645
 5409SOL    HW117126   6.248   1.141   2.589
 5409SOL    HW217127   6.389   1.192   2.654
 5410SOL     OW17128   0.958   2.367   6.800
 5410SOL    HW117129   0.964   2.284   6.745
 5410SOL    HW217130   1.050   2.400   6.822
 5411SOL     OW17131   4.934   4.990   6.269
 5411SOL    HW117132   4.928   5.030   6.177
 5411SOL    HW217133   5.022   5.012   6.309
 5412SOL     OW17134   2.869   1.433   6.374
 5412SOL    HW117135   2.950   1.476   6.414
 5412SOL    HW217136   2.798   1.503   6.361
 5413SOL     OW17137   0.518   0.141   7.023
 5413SOL    HW117138   0.550   0.057   0.043
 5413SOL    HW217139   0.587   0.212   0.006
 5414SOL     OW17140   6.427   4.904   4.814
 5414SOL    HW117141   6.484   4.904   4.732
 5414SOL    HW217142   6.345   4.959   4.798
 5415SOL     OW17143   2.790   6.129   0.970
 5415SOL    HW117144   2.842   6.055   1.012
 5415SOL    HW217145   2.853   6.203   0.943
 5416SOL     OW17146   2.619   4.760   5.141
 5416SOL    HW117147   2.584   4.691   5.205
 5416SOL    HW217148   2.697   4.723   5.091
 5417SOL     OW17149   3.993   0.195   5.062
 5417SOL    HW117150   3.925   0.177   4.991
 5417SOL    HW217151   3.951   0.251   5.135
 5418SOL     OW17152   5.679   5.794   5.024
 5418SOL    HW117153   5.691   5.830   4.932
 5418SOL    HW217154   5.582   5.779   5.042
 5419SOL     OW17155   3.869   5.745   0.681
 5419SOL    HW117156   3.816   5.827   0.706
 5419SOL    HW217157   3.842   5.669   0.740
 5420SOL     OW17158   2.205   1.931   0.755
 5420SOL    HW117159   2.286   1.939   0.813
 5420SOL    HW217160   2.210   1.998   0.681
 5421SOL     OW17161   3.433   4.902   1.103
 5421SOL    HW117162   3.381   4.837   1.159
 5421SOL    HW217163   3.410   4.888   1.007
 5422SOL     OW17164   1.142   4.719   4.516
 5422SOL    HW117165   1.169   4.796   4.573
 5422SOL    HW217166   1.223   4.673   4.480
 5423SOL     OW17167   5.321   5.058   0.211
 5423SOL    HW117168   5.236   5.057   0.262
 5423SOL    HW217169   5.388   5.116   0.258
 5424SOL     OW17170   5.851   3.806   4.320
 5424SOL    HW117171   5.872   3.722   4.370
 5424SOL    HW217172   5.753   3.824   4.325
 5425SOL     OW17173   6.328   2.532   4.931
 5425SOL    HW117174   6.312   2.591   4.851
 5425SOL    HW217175   6.336   2.589   5.013
 5426SOL     OW17176   5.188   5.633   2.161
 5426SOL    HW117177   5.103   5.593   2.128
 5426SOL    HW217178   5.251   5.561   2.189
 5427SOL     OW17179   5.405   3.215   6.984
 5427SOL    HW117180   5.418   3.123   6.949
 5427SOL    HW217181   5.370   3.274   6.911
 5428SOL     OW17182   5.196   6.689   1.633
 5428SOL    HW117183   5.287   6.692   1.674
 5428SOL    HW217184   5.152   6.778   1.643
 5429SOL     OW17185   1.850   6.956   5.235
 5429SOL    HW117186   1.850   0.018   5.186
 5429SOL    HW217187   1.909   6.891   5.187
 5430SOL     OW17188   1.841   2.875   4.720
 5430SOL    HW117189   1.814   2.881   4.625
 5430SOL    HW217190   1.775   2.820   4.771
 5431SOL     OW17191   2.900   3.686   6.544
 5431SOL    HW117192   3.000   3.690   6.551
 5431SOL    HW217193   2.863   3.779   6.539
 5432SOL     OW17194   4.020   5.632   6.530
 5432SOL    HW117195   4.096   5.696   6.531
 5432SOL    HW217196   3.934   5.683   6.521
 5433SOL     OW17197   0.954   0.287   1.364
 5433SOL    HW117198   0.859   0.302   1.337
 5433SOL    HW217199   1.014   0.348   1.312
 5434SOL     OW17200   4.285   1.090   4.884
 5434SOL    HW117201   4.237   1.083   4.796
 5434SOL    HW217202   4.380   1.113   4.868
 5435SOL     OW17203   6.349   3.657   0.394
 5435SOL    HW117204   6.410   3.671   0.471
 5435SOL    HW217205   6.318   3.562   0.393
 5436SOL     OW17206   6.209   4.297   3.957
 5436SOL    HW117207   6.127   4.282   4.013
 5436SOL    HW217208   6.212   4.391   3.925
 5437SOL     OW17209   3.330   4.988   4.993
 5437SOL    HW117210   3.377   4.967   4.908
 5437SOL    HW217211   3.231   4.986   4.978
 5438SOL     OW17212   5.374   4.514   1.987
 5438SOL    HW117213   5.311   4.506   2.064
 5438SOL    HW217214   5.413   4.424   1.966
 5439SOL     OW17215   0.482   3.411   6.612
 5439SOL    HW117216   0.575   3.379   6.626
 5439SOL    HW217217   0.440   3.360   6.536
 5440SOL     OW17218   6.477   6.169   3.777
 5440SOL    HW117219   6.522   6.240   3.722
 5440SOL    HW217220   6.379   6.169   3.757
 5441SOL     OW17221   5.161   3.148   3.681
 5441SOL    HW117222   5.254   3.142   3.717
 5441SOL    HW217223   5.156   3.220   3.612
 5442SOL     OW17224   4.117   6.963   3.611
 5442SOL    HW117225   4.020   6.989   3.609
 5442SOL    HW217226   4.170   0.011   3.653
 5443SOL     OW17227   4.562   6.005   3.745
 5443SOL    HW117228   4.466   6.003   3.719
 5443SOL    HW217229   4.574   6.062   3.826
 5444SOL     OW17230   0.100   0.833   4.284
 5444SOL    HW117231   0.052   0.746   4.290
 5444SOL    HW217232   0.034   0.908   4.283
 5445SOL     OW17233   6.130   3.979   3.636
 5445SOL    HW117234   6.199   4.026   3.692
 5445SOL    HW217235   6.069   3.927   3.696
 5446SOL     OW17236   6.150   5.376   4.233
 5446SOL    HW117237   6.056   5.401   4.210
 5446SOL    HW217238   6.198   5.346   4.151
 5447SOL     OW17239   1.775   1.268   1.067
 5447SOL    HW117240   1.870   1.298   1.080
 5447SOL    HW217241   1.767   1.222   0.978
 5448SOL     OW17242   4.406   4.554   3.743
 5448SOL    HW117243   4.397   4.480   3.676
 5448SOL    HW217244   4.332   4.620   3.729
 5449SOL     OW17245   2.127   1.023   0.820
 5449SOL    HW117246   2.169   0.991   0.735
 5449SOL    HW217247   2.095   1.117   0.809
 5450SOL     OW17248   3.352   0.134   1.188
 5450SOL    HW117249   3.380   0.042   1.216
 5450SOL    HW217250   3.281   0.128   1.118
 5451SOL     OW17251   1.910   5.928   3.449
 5451SOL    HW117252   1.839   5.905   3.382
 5451SOL    HW217253   1.910   6.027   3.464
 5452SOL     OW17254   2.570   4.424   0.972
 5452SOL    HW117255   2.616   4.339   0.946
 5452SOL    HW217256   2.473   4.407   0.983
 5453SOL     OW17257   5.134   3.705   1.969
 5453SOL    HW117258   5.213   3.668   2.018
 5453SOL    HW217259   5.143   3.804   1.960
 5454SOL     OW17260   5.645   5.690   0.869
 5454SOL    HW117261   5.637   5.710   0.967
 5454SOL    HW217262   5.590   5.756   0.818
 5455SOL     OW17263   0.408   1.993   3.637
 5455SOL    HW117264   0.350   2.074   3.635
 5455SOL    HW217265   0.353   1.911   3.620
 5456SOL     OW17266   3.426   2.057   6.593
 5456SOL    HW117267   3.431   1.957   6.596
 5456SOL    HW217268   3.406   2.093   6.684
 5457SOL     OW17269   6.328   2.056   1.367
 5457SOL    HW117270   6.403   1.992   1.385
 5457SOL    HW217271   6.356   2.121   1.296
 5458SOL     OW17272   6.895   5.052   0.430
 5458SOL    HW117273   6.820   5.095   0.480
 5458SOL    HW217274   6.858   4.994   0.357
 5459SOL     OW17275   2.210   4.898   5.375
 5459SOL    HW117276   2.282   4.937   5.431
 5459SOL    HW217277   2.191   4.804   5.404
 5460SOL     OW17278   3.003   6.901   2.000
 5460SOL    HW117279   2.909   6.873   2.019
 5460SOL    HW217280   3.045   6.936   2.084
 5461SOL     OW17281   0.738   6.997   4.287
 5461SOL    HW117282   0.725   6.913   4.339
 5461SOL    HW217283   0.835   7.020   4.284
 5462SOL     OW17284   5.628   6.237   0.009
 5462SOL    HW117285   5.683   6.195   0.082
 5462SOL    HW217286   5.535   6.200   0.012
 5463SOL     OW17287   0.387   2.017   0.198
 5463SOL    HW117288   0.464   1.973   0.244
 5463SOL    HW217289   0.347   1.953   0.132
 5464SOL     OW17290   5.971   6.015   4.574
 5464SOL    HW117291   5.990   5.989   4.669
 5464SOL    HW217292   5.893   6.078   4.572
 5465SOL     OW17293   6.396   0.893   3.295
 5465SOL    HW117294   6.347   0.967   3.249
 5465SOL    HW217295   6.353   0.872   3.382
 5466SOL     OW17296   5.214   2.525   5.701
 5466SOL    HW117297   5.128   2.543   5.653
 5466SOL    HW217298   5.222   2.427   5.719
 5467SOL     OW17299   6.217   3.507   3.203
 5467SOL    HW117300   6.249   3.593   3.243
 5467SOL    HW217301   6.203   3.439   3.275
 5468SOL     OW17302   6.929   2.333   4.598
 5468SOL    HW117303   6.947   2.309   4.693
 5468SOL    HW217304   6.946   2.431   4.584
 5469SOL     OW17305   3.049   5.770   5.577
 5469SOL    HW117306   3.124   5.785   5.641
 5469SOL    HW217307   3.071   5.694   5.516
 5470SOL     OW17308   4.314   5.589   4.077
 5470SOL    HW117309   4.227   5.627   4.047
 5470SOL    HW217310   4.347   5.523   4.009
 5471SOL     OW17311   6.094   0.331   2.898
 5471SOL    HW117312   6.046   0.387   2.965
 5471SOL    HW217313   6.152   0.389   2.841
 5472SOL     OW17314   3.400   3.498   6.628
 5472SOL    HW117315   3.412   3.508   6.726
 5472SOL    HW217316   3.443   3.575   6.581
 5473SOL     OW17317   1.465   3.562   0.789
 5473SOL    HW117318   1.508   3.580   0.877
 5473SOL    HW217319   1.438   3.649   0.747
 5474SOL     OW17320   0.874   5.215   4.801
 5474SOL    HW117321   0.865   5.314   4.811
 5474SOL    HW217322   0.795   5.169   4.840
 5475SOL     OW17323   1.785   2.331   0.249
 5475SOL    HW117324   1.747   2.257   0.304
 5475SOL    HW217325   1.871   2.362   0.289
 5476SOL     OW17326   2.337   4.404   4.912
 5476SOL    HW117327   2.412   4.467   4.933
 5476SOL    HW217328   2.363   4.348   4.832
 5477SOL     OW17329   2.086   3.843   3.428
 5477SOL    HW117330   2.132   3.917   3.475
 5477SOL    HW217331   2.008   3.880   3.376
 5478SOL     OW17332   4.561   0.117   5.554
 5478SOL    HW117333   4.518   0.150   5.638
 5478SOL    HW217334   4.497   0.124   5.478
 5479SOL     OW17335   5.103   2.372   4.892
 5479SOL    HW117336   5.157   2.326   4.821
 5479SOL    HW217337   5.162   2.434   4.943
 5480SOL     OW17338   5.525   5.460   4.360
 5480SOL    HW117339   5.444   5.518   4.377
 5480SOL    HW217340   5.542   5.403   4.440
 5481SOL     OW17341   4.498   1.817   4.791
 5481SOL    HW117342   4.587   1.803   4.835
 5481SOL    HW217343   4.510   1.869   4.707
 5482SOL     OW17344   3.523   3.601   2.026
 5482SOL    HW117345   3.506   3.642   1.936
 5482SOL    HW217346   3.620   3.609   2.048
 5483SOL     OW17347   0.513   2.232   5.360
 5483SOL    HW117348   0.499   2.273   5.270
 5483SOL    HW217349   0.598   2.267   5.400
 5484SOL     OW17350   5.339   0.357   4.288
 5484SOL    HW117351   5.375   0.338   4.379
 5484SOL    HW217352   5.384   0.438   4.251
 5485SOL     OW17353   3.141   0.314   5.267
 5485SOL    HW117354   3.061   0.278   5.314
 5485SOL    HW217355   3.122   0.406   5.233
 5486SOL     OW17356   1.829   5.629   4.930
 5486SOL    HW117357   1.753   5.604   4.871
 5486SOL    HW217358   1.795   5.677   5.011
 5487SOL     OW17359   4.928   3.089   6.612
 5487SOL    HW117360   5.025   3.113   6.624
 5487SOL    HW217361   4.899   3.031   6.688
 5488SOL     OW17362   5.393   0.981   1.102
 5488SOL    HW117363   5.403   0.883   1.084
 5488SOL    HW217364   5.457   1.032   1.045
 5489SOL     OW17365   1.164   5.174   0.880
 5489SOL    HW117366   1.217   5.159   0.964
 5489SOL    HW217367   1.144   5.272   0.871
 5490SOL     OW17368   3.774   6.976   0.170
 5490SOL    HW117369   3.777   6.904   0.240
 5490SOL    HW217370   3.866   6.993   0.135
 5491SOL     OW17371   1.960   4.280   0.506
 5491SOL    HW117372   2.031   4.340   0.467
 5491SOL    HW217373   1.947   4.302   0.602
 5492SOL     OW17374   0.665   2.245   6.442
 5492SOL    HW117375   0.756   2.227   6.404
 5492SOL    HW217376   0.669   2.239   6.542
 5493SOL     OW17377   4.128   3.669   3.771
 5493SOL    HW117378   4.222   3.703   3.775
 5493SOL    HW217379   4.101   3.657   3.676
 5494SOL     OW17380   6.925   2.633   6.187
 5494SOL    HW117381   6.891   2.545   6.220
 5494SOL    HW217382   7.024   2.630   6.178
 5495SOL     OW17383   3.598   2.514   1.464
 5495SOL    HW117384   3.643   2.473   1.384
 5495SOL    HW217385   3.653   2.495   1.545
 5496SOL     OW17386   2.391   0.302   3.143
 5496SOL    HW117387   2.490   0.294   3.139
 5496SOL    HW217388   2.349   0.234   3.082
 5497SOL     OW17389   0.442   1.881   3.903
 5497SOL    HW117390   0.440   1.926   3.814
 5497SOL    HW217391   0.513   1.923   3.960
 5498SOL     OW17392   5.284   6.690   1.340
 5498SOL    HW117393   5.249   6.682   1.434
 5498SOL    HW217394   5.355   6.760   1.337
 5499SOL     OW17395   6.957   1.095   4.386
 5499SOL    HW117396   0.028   1.099   4.415
 5499SOL    HW217397   6.916   1.185   4.393
 5500SOL     OW17398   1.825   0.027   0.689
 5500SOL    HW117399   1.821   6.997   0.773
 5500SOL    HW217400   1.863   6.997   0.615
 5501SOL     OW17401   4.110   6.719   0.244
 5501SOL    HW117402   4.120   6.645   0.177
 5501SOL    HW217403   4.062   6.796   0.202
 5502SOL     OW17404   5.827   3.249   7.018
 5502SOL    HW117405   5.894   3.322   7.008
 5502SOL    HW217406   5.832   3.187   6.940
 5503SOL     OW17407   0.330   5.348   2.936
 5503SOL    HW117408   0.250   5.293   2.961
 5503SOL    HW217409   0.311   5.444   2.955
 5504SOL     OW17410   4.039   1.090   5.010
 5504SOL    HW117411   4.132   1.064   4.984
 5504SOL    HW217412   4.025   1.071   5.107
 5505SOL     OW17413   1.560   5.808   4.803
 5505SOL    HW117414   1.626   5.824   4.876
 5505SOL    HW217415   1.539   5.710   4.798
 5506SOL     OW17416   1.551   1.756   6.182
 5506SOL    HW117417   1.482   1.807   6.131
 5506SOL    HW217418   1.543   1.777   6.279
 5507SOL     OW17419   2.717   0.138   3.734
 5507SOL    HW117420   2.693   0.048   3.770
 5507SOL    HW217421   2.699   0.208   3.804
 5508SOL     OW17422   2.103   0.730   6.449
 5508SOL    HW117423   2.034   0.689   6.388
 5508SOL    HW217424   2.105   0.829   6.435
 5509SOL     OW17425   0.858   6.497   0.889
 5509SOL    HW117426   0.896   6.461   0.804
 5509SOL    HW217427   0.766   6.534   0.872
 5510SOL     OW17428   4.513   5.904   1.159
 5510SOL    HW117429   4.552   5.813   1.174
 5510SOL    HW217430   4.455   5.929   1.237
 5511SOL     OW17431   2.341   1.099   4.424
 5511SOL    HW117432   2.360   1.162   4.348
 5511SOL    HW217433   2.274   1.031   4.394
 5512SOL     OW17434   5.782   2.092   1.832
 5512SOL    HW117435   5.698   2.146   1.834
 5512SOL    HW217436   5.840   2.118   1.910
 5513SOL     OW17437   4.579   4.862   6.482
 5513SOL    HW117438   4.597   4.940   6.423
 5513SOL    HW217439   4.525   4.891   6.561
 5514SOL     OW17440   4.397   6.315   3.363
 5514SOL    HW117441   4.451   6.329   3.446
 5514SOL    HW217442   4.328   6.387   3.357
 5515SOL     OW17443   0.042   4.831   1.251
 5515SOL    HW117444   0.051   4.742   1.206
 5515SOL    HW217445   0.130   4.877   1.252
 5516SOL     OW17446   1.210   3.799   6.556
 5516SOL    HW117447   1.205   3.872   6.488
 5516SOL    HW217448   1.118   3.762   6.572
 5517SOL     OW17449   2.124   3.184   2.054
 5517SOL    HW117450   2.164   3.271   2.024
 5517SOL    HW217451   2.027   3.182   2.032
 5518SOL     OW17452   6.188   6.746   6.662
 5518SOL    HW117453   6.252   6.822   6.651
 5518SOL    HW217454   6.097   6.782   6.687
 5519SOL     OW17455   5.257   2.953   3.187
 5519SOL    HW117456   5.312   2.886   3.138
 5519SOL    HW217457   5.221   2.912   3.271
 5520SOL     OW17458   6.412   5.884   1.993
 5520SOL    HW117459   6.387   5.876   2.089
 5520SOL    HW217460   6.330   5.898   1.938
 5521SOL     OW17461   5.354   6.871   1.881
 5521SOL    HW117462   5.268   6.909   1.912
 5521SOL    HW217463   5.389   6.924   1.804
 5522SOL     OW17464   6.609   5.316   0.686
 5522SOL    HW117465   6.688   5.310   0.625
 5522SOL    HW217466   6.631   5.377   0.762
 5523SOL     OW17467   3.764   0.206   2.243
 5523SOL    HW117468   3.736   0.223   2.338
 5523SOL    HW217469   3.772   0.294   2.195
 5524SOL     OW17470   5.066   5.210   4.897
 5524SOL    HW117471   5.049   5.245   4.989
 5524SOL    HW217472   5.066   5.110   4.899
 5525SOL     OW17473   0.122   2.695   0.199
 5525SOL    HW117474   0.096   2.666   0.107
 5525SOL    HW217475   0.154   2.615   0.251
 5526SOL     OW17476   4.900   4.763   4.421
 5526SOL    HW117477   4.855   4.675   4.409
 5526SOL    HW217478   4.862   4.811   4.500
 5527SOL     OW17479   6.114   3.812   4.254
 5527SOL    HW117480   6.018   3.807   4.226
 5527SOL    HW217481   6.124   3.769   4.344
 5528SOL     OW17482   1.227   1.694   6.869
 5528SOL    HW117483   1.214   1.656   6.778
 5528SOL    HW217484   1.144   1.679   6.924
 5529SOL     OW17485   2.250   0.208   3.343
 5529SOL    HW117486   2.300   0.256   3.271
 5529SOL    HW217487   2.246   0.266   3.424
 5530SOL     OW17488   6.358   2.211   2.330
 5530SOL    HW117489   6.298   2.291   2.323
 5530SOL    HW217490   6.305   2.128   2.312
 5531SOL     OW17491   3.873   2.930   2.264
 5531SOL    HW117492   3.819   2.921   2.348
 5531SOL    HW217493   3.926   3.015   2.268
 5532SOL     OW17494   1.174   2.544   0.684
 5532SOL    HW117495   1.231   2.488   0.624
 5532SOL    HW217496   1.188   2.641   0.663
 5533SOL     OW17497   3.502   1.071   3.407
 5533SOL    HW117498   3.441   0.991   3.401
 5533SOL    HW217499   3.555   1.079   3.322
 5534SOL     OW17500   0.929   1.961   5.974
 5534SOL    HW117501   0.846   1.989   5.927
 5534SOL    HW217502   0.915   1.871   6.016
 5535SOL     OW17503   0.051   3.151   3.510
 5535SOL    HW117504   0.136   3.182   3.469
 5535SOL    HW217505   0.069   3.116   3.602
 5536SOL     OW17506   3.061   1.243   3.974
 5536SOL    HW117507   3.012   1.167   3.931
 5536SOL    HW217508   3.156   1.244   3.941
 5537SOL     OW17509   2.599   0.803   2.909
 5537SOL    HW117510   2.576   0.718   2.957
 5537SOL    HW217511   2.585   0.792   2.811
 5538SOL     OW17512   2.728   6.905   5.613
 5538SOL    HW117513   2.762   6.849   5.689
 5538SOL    HW217514   2.635   6.935   5.634
 5539SOL     OW17515   1.105   3.746   0.818
 5539SOL    HW117516   1.057   3.767   0.904
 5539SOL    HW217517   1.045   3.765   0.741
 5540SOL     OW17518   5.790   3.420   3.877
 5540SOL    HW117519   5.856   3.496   3.876
 5540SOL    HW217520   5.819   3.351   3.811
 5541SOL     OW17521   6.148   0.530   6.388
 5541SOL    HW117522   6.067   0.587   6.376
 5541SOL    HW217523   6.121   0.434   6.391
 5542SOL     OW17524   6.302   5.110   6.062
 5542SOL    HW117525   6.298   5.195   6.010
 5542SOL    HW217526   6.245   5.117   6.143
 5543SOL     OW17527   3.422   5.544   5.864
 5543SOL    HW117528   3.338   5.512   5.907
 5543SOL    HW217529   3.479   5.466   5.839
 5544SOL     OW17530   5.664   6.558   6.202
 5544SOL    HW117531   5.749   6.607   6.223
 5544SOL    HW217532   5.657   6.545   6.103
 5545SOL     OW17533   4.160   1.716   2.235
 5545SOL    HW117534   4.224   1.655   2.280
 5545SOL    HW217535   4.160   1.805   2.281
 5546SOL     OW17536   0.667   6.197   4.730
 5546SOL    HW117537   0.606   6.142   4.673
 5546SOL    HW217538   0.614   6.238   4.804
 5547SOL     OW17539   3.563   0.176   4.929
 5547SOL    HW117540   3.633   0.105   4.932
 5547SOL    HW217541   3.594   0.251   4.871
 5548SOL     OW17542   5.462   3.410   5.798
 5548SOL    HW117543   5.469   3.508   5.779
 5548SOL    HW217544   5.452   3.395   5.896
 5549SOL     OW17545   4.724   3.930   0.499
 5549SOL    HW117546   4.673   3.849   0.471
 5549SOL    HW217547   4.799   3.946   0.435
 5550SOL     OW17548   2.074   4.146   2.022
 5550SOL    HW117549   1.981   4.110   2.013
 5550SOL    HW217550   2.113   4.158   1.931
 5551SOL     OW17551   1.753   6.619   3.232
 5551SOL    HW117552   1.661   6.643   3.265
 5551SOL    HW217553   1.802   6.703   3.207
 5552SOL     OW17554   6.823   0.340   0.152
 5552SOL    HW117555   6.791   0.365   0.061
 5552SOL    HW217556   6.915   0.376   0.166
 5553SOL     OW17557   5.293   6.164   6.669
 5553SOL    HW117558   5.389   6.138   6.672
 5553SOL    HW217559   5.261   6.184   6.762
 5554SOL     OW17560   4.821   1.730   5.451
 5554SOL    HW117561   4.864   1.815   5.481
 5554SOL    HW217562   4.722   1.744   5.442
 5555SOL     OW17563   2.296   4.609   4.026
 5555SOL    HW117564   2.356   4.529   4.025
 5555SOL    HW217565   2.228   4.598   4.098
 5556SOL     OW17566   6.896   1.111   3.789
 5556SOL    HW117567   6.977   1.167   3.771
 5556SOL    HW217568   6.913   1.017   3.760
 5557SOL     OW17569   3.641   6.907   2.628
 5557SOL    HW117570   3.544   6.902   2.609
 5557SOL    HW217571   3.693   6.887   2.546
 5558SOL     OW17572   4.892   3.636   6.015
 5558SOL    HW117573   4.846   3.565   6.069
 5558SOL    HW217574   4.839   3.654   5.932
 5559SOL     OW17575   2.185   0.417   1.993
 5559SOL    HW117576   2.168   0.363   2.076
 5559SOL    HW217577   2.222   0.506   2.019
 5560SOL     OW17578   1.542   6.641   2.780
 5560SOL    HW117579   1.460   6.654   2.725
 5560SOL    HW217580   1.623   6.661   2.724
 5561SOL     OW17581   1.528   1.908   4.275
 5561SOL    HW117582   1.617   1.953   4.287
 5561SOL    HW217583   1.510   1.849   4.353
 5562SOL     OW17584   3.414   2.381   6.602
 5562SOL    HW117585   3.407   2.378   6.702
 5562SOL    HW217586   3.412   2.287   6.567
 5563SOL     OW17587   4.263   5.421   2.620
 5563SOL    HW117588   4.265   5.520   2.636
 5563SOL    HW217589   4.231   5.375   2.703
 5564SOL     OW17590   4.440   0.984   1.804
 5564SOL    HW117591   4.482   0.896   1.828
 5564SOL    HW217592   4.376   1.011   1.876
 5565SOL     OW17593   4.649   1.864   6.025
 5565SOL    HW117594   4.735   1.831   5.986
 5565SOL    HW217595   4.588   1.894   5.952
 5566SOL     OW17596   1.753   5.053   6.974
 5566SOL    HW117597   1.731   5.140   6.930
 5566SOL    HW217598   1.850   5.034   6.961
 5567SOL     OW17599   6.951   3.313   1.929
 5567SOL    HW117600   6.934   3.217   1.904
 5567SOL    HW217601   6.940   3.370   1.848
 5568SOL     OW17602   4.226   2.094   3.899
 5568SOL    HW117603   4.307   2.136   3.940
 5568SOL    HW217604   4.250   2.005   3.861
 5569SOL     OW17605   1.690   1.681   2.354
 5569SOL    HW117606   1.769   1.643   2.402
 5569SOL    HW217607   1.607   1.658   2.404
 5570SOL     OW17608   6.095   4.321   4.732
 5570SOL    HW117609   6.095   4.395   4.665
 5570SOL    HW217610   6.064   4.236   4.689
 5571SOL     OW17611   6.925   5.530   0.740
 5571SOL    HW117612   6.904   5.559   0.646
 5571SOL    HW217613   7.019   5.495   0.744
 5572SOL     OW17614   1.088   2.247   5.068
 5572SOL    HW117615   1.030   2.198   5.133
 5572SOL    HW217616   1.092   2.196   4.982
 5573SOL     OW17617   2.118   3.797   6.457
 5573SOL    HW117618   2.173   3.764   6.380
 5573SOL    HW217619   2.069   3.880   6.430
 5574SOL     OW17620   6.185   1.431   3.092
 5574SOL    HW117621   6.255   1.486   3.138
 5574SOL    HW217622   6.131   1.381   3.160
 5575SOL     OW17623   6.861   1.370   1.379
 5575SOL    HW117624   6.915   1.290   1.354
 5575SOL    HW217625   6.767   1.342   1.399
 5576SOL     OW17626   1.305   5.815   2.386
 5576SOL    HW117627   1.378   5.877   2.355
 5576SOL    HW217628   1.276   5.757   2.309
 5577SOL     OW17629   2.717   2.575   5.309
 5577SOL    HW117630   2.764   2.644   5.364
 5577SOL    HW217631   2.684   2.501   5.368
 5578SOL     OW17632   3.984   4.272   0.293
 5578SOL    HW117633   4.008   4.310   0.204
 5578SOL    HW217634   3.890   4.237   0.289
 5579SOL     OW17635   0.307   3.673   5.975
 5579SOL    HW117636   0.327   3.649   6.070
 5579SOL    HW217637   0.351   3.760   5.952
 5580SOL     OW17638   5.313   2.792   5.915
 5580SOL    HW117639   5.357   2.857   5.977
 5580SOL    HW217640   5.215   2.790   5.932
 5581SOL     OW17641   2.794   0.764   1.642
 5581SOL    HW117642   2.869   0.699   1.654
 5581SOL    HW217643   2.709   0.714   1.621
 5582SOL     OW17644   3.744   3.503   4.415
 5582SOL    HW117645   3.770   3.550   4.331
 5582SOL    HW217646   3.658   3.454   4.399
 5583SOL     OW17647   3.914   0.733   2.893
 5583SOL    HW117648   3.838   0.724   2.958
 5583SOL    HW217649   3.888   0.798   2.821
 5584SOL     OW17650   5.744   4.065   3.907
 5584SOL    HW117651   5.713   4.159   3.898
 5584SOL    HW217652   5.665   4.005   3.923
 5585SOL     OW17653   4.828   6.323   4.270
 5585SOL    HW117654   4.765   6.279   4.334
 5585SOL    HW217655   4.912   6.269   4.263
 5586SOL     OW17656   0.235   2.254   0.137
 5586SOL    HW117657   0.247   2.284   0.042
 5586SOL    HW217658   0.259   2.158   0.145
 5587SOL     OW17659   3.824   5.955   2.451
 5587SOL    HW117660   3.825   5.859   2.425
 5587SOL    HW217661   3.906   6.000   2.415
 5588SOL     OW17662   2.049   6.891   2.964
 5588SOL    HW117663   1.994   6.928   2.889
 5588SOL    HW217664   1.993   6.888   3.047
 5589SOL     OW17665   6.027   3.517   5.694
 5589SOL    HW117666   5.939   3.547   5.730
 5589SOL    HW217667   6.100   3.544   5.756
 5590SOL     OW17668   6.649   5.098   3.336
 5590SOL    HW117669   6.552   5.084   3.351
 5590SOL    HW217670   6.701   5.062   3.413
 5591SOL     OW17671   5.880   1.365   6.763
 5591SOL    HW117672   5.940   1.426   6.816
 5591SOL    HW217673   5.873   1.277   6.810
 5592SOL     OW17674   0.326   4.265   2.918
 5592SOL    HW117675   0.262   4.336   2.946
 5592SOL    HW217676   0.360   4.285   2.826
 5593SOL     OW17677   0.196   2.205   5.725
 5593SOL    HW117678   0.112   2.225   5.675
 5593SOL    HW217679   0.175   2.194   5.823
 5594SOL     OW17680   3.404   1.367   6.707
 5594SOL    HW117681   3.475   1.437   6.710
 5594SOL    HW217682   3.371   1.348   6.800
 5595SOL     OW17683   6.282   0.376   5.300
 5595SOL    HW117684   6.357   0.317   5.272
 5595SOL    HW217685   6.317   0.446   5.362
 5596SOL     OW17686   4.786   0.422   2.730
 5596SOL    HW117687   4.750   0.496   2.672
 5596SOL    HW217688   4.879   0.446   2.758
 5597SOL     OW17689   6.427   1.613   5.233
 5597SOL    HW117690   6.426   1.661   5.145
 5597SOL    HW217691   6.401   1.518   5.219
 5598SOL     OW17692   6.303   2.897   3.972
 5598SOL    HW117693   6.349   2.940   4.049
 5598SOL    HW217694   6.205   2.920   3.974
 5599SOL     OW17695   0.481   2.340   2.040
 5599SOL    HW117696   0.442   2.259   1.996
 5599SOL    HW217697   0.434   2.422   2.007
 5600SOL     OW17698   2.541   0.180   2.580
 5600SOL    HW117699   2.569   0.258   2.526
 5600SOL    HW217700   2.522   0.102   2.520
 5601SOL     OW17701   3.096   1.268   6.460
 5601SOL    HW117702   3.145   1.188   6.427
 5601SOL    HW217703   3.000   1.263   6.434
 5602SOL     OW17704   0.481   0.136   2.013
 5602SOL    HW117705   0.470   0.190   2.096
 5602SOL    HW217706   0.514   0.193   1.939
 5603SOL     OW17707   5.512   1.958   6.964
 5603SOL    HW117708   5.519   1.999   0.030
 5603SOL    HW217709   5.441   1.887   6.965
 5604SOL     OW17710   6.986   2.162   5.044
 5604SOL    HW117711   6.967   2.154   5.142
 5604SOL    HW217712   0.058   2.176   5.030
 5605SOL     OW17713   1.551   0.415   4.819
 5605SOL    HW117714   1.596   0.486   4.874
 5605SOL    HW217715   1.619   0.349   4.787
 5606SOL     OW17716   5.877   1.111   0.770
 5606SOL    HW117717   5.948   1.098   0.701
 5606SOL    HW217718   5.860   1.209   0.783
 5607SOL     OW17719   5.996   1.317   3.989
 5607SOL    HW117720   6.044   1.403   4.007
 5607SOL    HW217721   5.954   1.284   4.073
 5608SOL     OW17722   5.948   0.892   3.101
 5608SOL    HW117723   6.002   0.919   3.022
 5608SOL    HW217724   5.892   0.968   3.132
 5609SOL     OW17725   4.248   5.993   1.690
 5609SOL    HW117726   4.150   5.981   1.677
 5609SOL    HW217727   4.283   5.922   1.751
 5610SOL     OW17728   5.043   4.425   1.510
 5610SOL    HW117729   4.946   4.424   1.533
 5610SOL    HW217730   5.078   4.519   1.515
 5611SOL     OW17731   0.951   5.106   3.032
 5611SOL    HW117732   0.893   5.187   3.019
 5611SOL    HW217733   0.926   5.061   3.118
 5612SOL     OW17734   4.441   3.305   0.185
 5612SOL    HW117735   4.436   3.343   0.278
 5612SOL    HW217736   4.355   3.260   0.162
 5613SOL     OW17737   5.445   5.527   5.309
 5613SOL    HW117738   5.507   5.478   5.370
 5613SOL    HW217739   5.353   5.488   5.316
 5614SOL     OW17740   5.190   3.687   5.065
 5614SOL    HW117741   5.096   3.656   5.051
 5614SOL    HW217742   5.251   3.636   5.004
 5615SOL     OW17743   6.811   1.737   4.048
 5615SOL    HW117744   6.852   1.656   4.005
 5615SOL    HW217745   6.829   1.736   4.146
 5616SOL     OW17746   2.137   2.643   4.791
 5616SOL    HW117747   2.226   2.685   4.773
 5616SOL    HW217748   2.145   2.544   4.788
 5617SOL     OW17749   1.428   4.552   4.957
 5617SOL    HW117750   1.454   4.456   4.947
 5617SOL    HW217751   1.492   4.609   4.905
 5618SOL     OW17752   6.747   5.002   3.551
 5618SOL    HW117753   6.824   5.049   3.595
 5618SOL    HW217754   6.759   4.904   3.560
 5619SOL     OW17755   3.328   3.648   3.837
 5619SOL    HW117756   3.373   3.677   3.752
 5619SOL    HW217757   3.378   3.685   3.915
 5620SOL     OW17758   4.392   3.956   0.247
 5620SOL    HW117759   4.409   4.053   0.229
 5620SOL    HW217760   4.458   3.900   0.198
 5621SOL     OW17761   1.485   3.171   0.035
 5621SOL    HW117762   1.449   3.204   0.122
 5621SOL    HW217763   1.419   3.192   6.988
 5622SOL     OW17764   5.147   0.569   5.830
 5622SOL    HW117765   5.226   0.508   5.830
 5622SOL    HW217766   5.108   0.574   5.738
 5623SOL     OW17767   4.430   6.480   4.920
 5623SOL    HW117768   4.436   6.386   4.950
 5623SOL    HW217769   4.512   6.504   4.868
 5624SOL     OW17770   0.527   4.562   4.186
 5624SOL    HW117771   0.613   4.566   4.136
 5624SOL    HW217772   0.545   4.544   4.283
 5625SOL     OW17773   0.062   6.631   5.744
 5625SOL    HW117774   0.050   6.584   5.657
 5625SOL    HW217775   0.159   6.648   5.760
 5626SOL     OW17776   2.607   5.136   3.733
 5626SOL    HW117777   2.631   5.186   3.650
 5626SOL    HW217778   2.689   5.102   3.776
 5627SOL     OW17779   0.339   5.004   6.635
 5627SOL    HW117780   0.398   4.931   6.599
 5627SOL    HW217781   0.376   5.093   6.608
 5628SOL     OW17782   1.922   2.756   1.495
 5628SOL    HW117783   1.889   2.722   1.583
 5628SOL    HW217784   1.966   2.682   1.444
 5629SOL     OW17785   4.871   3.226   1.906
 5629SOL    HW117786   4.926   3.216   1.823
 5629SOL    HW217787   4.786   3.175   1.896
 5630SOL     OW17788   1.565   4.558   0.162
 5630SOL    HW117789   1.589   4.625   0.232
 5630SOL    HW217790   1.561   4.467   0.202
 5631SOL     OW17791   4.598   1.909   1.637
 5631SOL    HW117792   4.539   1.829   1.624
 5631SOL    HW217793   4.682   1.882   1.685
 5632SOL     OW17794   3.351   2.202   5.305
 5632SOL    HW117795   3.323   2.110   5.277
 5632SOL    HW217796   3.275   2.265   5.292
 5633SOL     OW17797   6.092   4.753   4.313
 5633SOL    HW117798   6.033   4.750   4.232
 5633SOL    HW217799   6.067   4.831   4.370
 5634SOL     OW17800   2.237   4.985   4.555
 5634SOL    HW117801   2.171   4.910   4.563
 5634SOL    HW217802   2.223   5.031   4.467
 5635SOL     OW17803   1.487   6.211   6.836
 5635SOL    HW117804   1.505   6.283   6.768
 5635SOL    HW217805   1.389   6.202   6.850
 5636SOL     OW17806   6.501   6.896   5.270
 5636SOL    HW117807   6.427   6.963   5.271
 5636SOL    HW217808   6.587   6.942   5.292
 5637SOL     OW17809   4.032   6.520   3.609
 5637SOL    HW117810   4.048   6.422   3.605
 5637SOL    HW217811   3.937   6.539   3.586
 5638SOL     OW17812   6.456   3.902   1.261
 5638SOL    HW117813   6.382   3.878   1.199
 5638SOL    HW217814   6.437   3.864   1.352
 5639SOL     OW17815   2.632   0.420   2.467
 5639SOL    HW117816   2.686   0.357   2.412
 5639SOL    HW217817   2.693   0.480   2.519
 5640SOL     OW17818   3.330   0.946   2.390
 5640SOL    HW117819   3.389   1.019   2.425
 5640SOL    HW217820   3.347   0.862   2.442
 5641SOL     OW17821   1.150   4.568   5.728
 5641SOL    HW117822   1.238   4.549   5.685
 5641SOL    HW217823   1.125   4.664   5.713
 5642SOL     OW17824   0.466   5.982   4.925
 5642SOL    HW117825   0.553   5.987   4.974
 5642SOL    HW217826   0.454   6.064   4.870
 5643SOL     OW17827   3.536   1.055   4.274
 5643SOL    HW117828   3.630   1.063   4.308
 5643SOL    HW217829   3.492   1.144   4.276
 5644SOL     OW17830   3.830   6.887   4.506
 5644SOL    HW117831   3.904   6.941   4.465
 5644SOL    HW217832   3.773   6.848   4.434
 5645SOL     OW17833   5.678   4.736   2.761
 5645SOL    HW117834   5.707   4.653   2.713
 5645SOL    HW217835   5.730   4.744   2.847
 5646SOL     OW17836   1.141   5.310   3.164
 5646SOL    HW117837   1.176   5.231   3.114
 5646SOL    HW217838   1.145   5.391   3.105
 5647SOL     OW17839   5.507   0.310   0.766
 5647SOL    HW117840   5.527   0.375   0.693
 5647SOL    HW217841   5.523   0.217   0.733
 5648SOL     OW17842   1.913   0.389   3.739
 5648SOL    HW117843   1.917   0.488   3.747
 5648SOL    HW217844   1.888   0.349   3.827
 5649SOL     OW17845   0.102   6.991   4.957
 5649SOL    HW117846   0.175   6.975   4.891
 5649SOL    HW217847   0.014   6.996   4.909
 5650SOL     OW17848   1.409   5.236   0.613
 5650SOL    HW117849   1.374   5.153   0.569
 5650SOL    HW217850   1.442   5.214   0.705
 5651SOL     OW17851   0.570   0.982   1.661
 5651SOL    HW117852   0.588   0.901   1.717
 5651SOL    HW217853   0.531   1.055   1.718
 5652SOL     OW17854   6.650   6.925   2.088
 5652SOL    HW117855   6.611   6.947   1.998
 5652SOL    HW217856   6.741   6.965   2.095
 5653SOL     OW17857   0.510   6.128   7.010
 5653SOL    HW117858   0.463   6.164   6.930
 5653SOL    HW217859   0.554   6.202   0.034
 5654SOL     OW17860   6.890   0.402   5.796
 5654SOL    HW117861   6.817   0.364   5.740
 5654SOL    HW217862   6.942   0.468   5.741
 5655SOL     OW17863   1.599   3.755   4.709
 5655SOL    HW117864   1.640   3.722   4.794
 5655SOL    HW217865   1.670   3.797   4.652
 5656SOL     OW17866   0.133   3.608   0.154
 5656SOL    HW117867   0.163   3.693   0.110
 5656SOL    HW217868   0.061   3.629   0.221
 5657SOL     OW17869   5.645   1.504   0.065
 5657SOL    HW117870   5.676   1.438   7.021
 5657SOL    HW217871   5.685   1.594   0.045
 5658SOL     OW17872   3.652   4.526   5.941
 5658SOL    HW117873   3.748   4.502   5.930
 5658SOL    HW217874   3.606   4.456   5.996
 5659SOL     OW17875   3.567   3.431   4.161
 5659SOL    HW117876   3.484   3.379   4.141
 5659SOL    HW217877   3.647   3.378   4.132
 5660SOL     OW17878   5.655   1.101   0.381
 5660SOL    HW117879   5.713   1.020   0.384
 5660SOL    HW217880   5.565   1.080   0.420
 5661SOL     OW17881   1.521   5.160   5.213
 5661SOL    HW117882   1.525   5.192   5.119
 5661SOL    HW217883   1.437   5.107   5.227
 5662SOL     OW17884   2.651   5.434   3.024
 5662SOL    HW117885   2.734   5.489   3.032
 5662SOL    HW217886   2.572   5.495   3.016
 5663SOL     OW17887   2.182   3.337   0.894
 5663SOL    HW117888   2.111   3.276   0.859
 5663SOL    HW217889   2.255   3.283   0.935
 5664SOL     OW17890   6.494   4.260   4.803
 5664SOL    HW117891   6.438   4.336   4.772
 5664SOL    HW217892   6.446   4.174   4.785
 5665SOL     OW17893   1.558   1.300   0.253
 5665SOL    HW117894   1.554   1.296   0.353
 5665SOL    HW217895   1.647   1.335   0.225
 5666SOL     OW17896   5.842   6.022   1.845
 5666SOL    HW117897   5.818   6.038   1.750
 5666SOL    HW217898   5.843   5.924   1.863
 5667SOL     OW17899   1.275   4.899   4.773
 5667SOL    HW117900   1.175   4.908   4.769
 5667SOL    HW217901   1.300   4.847   4.855
 5668SOL     OW17902   5.611   2.031   4.710
 5668SOL    HW117903   5.626   1.933   4.696
 5668SOL    HW217904   5.616   2.053   4.807
 5669SOL     OW17905   0.319   3.293   6.801
 5669SOL    HW117906   0.387   3.362   6.777
 5669SOL    HW217907   0.324   3.273   6.898
 5670SOL     OW17908   6.742   2.758   3.284
 5670SOL    HW117909   6.678   2.701   3.232
 5670SOL    HW217910   6.808   2.799   3.221
 5671SOL     OW17911   0.098   6.359   0.371
 5671SOL    HW117912   0.171   6.312   0.321
 5671SOL    HW217913   0.135   6.397   0.456
 5672SOL     OW17914   3.994   4.687   6.032
 5672SOL    HW117915   4.032   4.606   5.989
 5672SOL    HW217916   3.933   4.660   6.106
 5673SOL     OW17917   0.915   6.820   2.418
 5673SOL    HW117918   0.854   6.754   2.375
 5673SOL    HW217919   0.904   6.909   2.374
 5674SOL     OW17920   0.287   5.046   4.912
 5674SOL    HW117921   0.221   5.011   4.978
 5674SOL    HW217922   0.351   4.974   4.886
 5675SOL     OW17923   3.483   2.186   5.919
 5675SOL    HW117924   3.582   2.177   5.929
 5675SOL    HW217925   3.439   2.101   5.949
 5676SOL     OW17926   1.559   2.889   1.936
 5676SOL    HW117927   1.545   2.791   1.948
 5676SOL    HW217928   1.489   2.926   1.875
 5677SOL     OW17929   0.368   0.962   1.447
 5677SOL    HW117930   0.342   0.867   1.465
 5677SOL    HW217931   0.454   0.982   1.494
 5678SOL     OW17932   4.161   6.230   2.766
 5678SOL    HW117933   4.254   6.195   2.755
 5678SOL    HW217934   4.161   6.330   2.757
 5679SOL     OW17935   0.964   1.144   3.924
 5679SOL    HW117936   0.975   1.236   3.886
 5679SOL    HW217937   0.949   1.150   4.023
 5680SOL     OW17938   1.306   4.899   6.429
 5680SOL    HW117939   1.242   4.828   6.455
 5680SOL    HW217940   1.276   4.987   6.466
 5681SOL     OW17941   0.127   4.733   0.443
 5681SOL    HW117942   0.119   4.830   0.424
 5681SOL    HW217943   0.041   4.699   0.481
 5682SOL     OW17944   2.586   4.193   5.566
 5682SOL    HW117945   2.534   4.125   5.619
 5682SOL    HW217946   2.603   4.157   5.475
 5683SOL     OW17947   4.062   0.758   6.255
 5683SOL    HW117948   4.057   0.858   6.247
 5683SOL    HW217949   4.116   0.721   6.180
 5684SOL     OW17950   2.824   3.414   5.830
 5684SOL    HW117951   2.850   3.398   5.925
 5684SOL    HW217952   2.768   3.497   5.824
 5685SOL     OW17953   1.437   3.125   2.377
 5685SOL    HW117954   1.477   3.070   2.305
 5685SOL    HW217955   1.375   3.069   2.432
 5686SOL     OW17956   3.186   1.374   5.728
 5686SOL    HW117957   3.249   1.371   5.806
 5686SOL    HW217958   3.093   1.390   5.762
 5687SOL     OW17959   0.584   4.924   6.213
 5687SOL    HW117960   0.495   4.966   6.230
 5687SOL    HW217961   0.598   4.848   6.277
 5688SOL     OW17962   0.385   2.541   1.131
 5688SOL    HW117963   0.363   2.606   1.058
 5688SOL    HW217964   0.476   2.560   1.167
 5689SOL     OW17965   3.906   1.316   0.784
 5689SOL    HW117966   3.826   1.377   0.784
 5689SOL    HW217967   3.947   1.315   0.875
 5690SOL     OW17968   2.795   6.078   0.525
 5690SOL    HW117969   2.708   6.033   0.542
 5690SOL    HW217970   2.784   6.149   0.456
 5691SOL     OW17971   2.966   0.422   1.944
 5691SOL    HW117972   2.948   0.468   1.857
 5691SOL    HW217973   3.014   0.336   1.927
 5692SOL     OW17974   5.936   3.189   0.599
 5692SOL    HW117975   5.948   3.288   0.592
 5692SOL    HW217976   5.967   3.146   0.514
 5693SOL     OW17977   5.619   2.107   2.479
 5693SOL    HW117978   5.535   2.151   2.447
 5693SOL    HW217979   5.690   2.116   2.409
 5694SOL     OW17980   0.459   1.758   3.468
 5694SOL    HW117981   0.536   1.805   3.424
 5694SOL    HW217982   0.456   1.663   3.437
 5695SOL     OW17983   1.037   2.605   2.887
 5695SOL    HW117984   1.002   2.651   2.970
 5695SOL    HW217985   1.077   2.517   2.912
 5696SOL     OW17986   1.297   1.233   2.910
 5696SOL    HW117987   1.213   1.215   2.963
 5696SOL    HW217988   1.303   1.331   2.891
 5697SOL     OW17989   5.932   2.465   1.824
 5697SOL    HW117990   5.837   2.495   1.838
 5697SOL    HW217991   5.951   2.387   1.884
 5698SOL     OW17992   0.635   3.453   3.750
 5698SOL    HW117993   0.717   3.472   3.695
 5698SOL    HW217994   0.658   3.386   3.820
 5699SOL     OW17995   0.290   1.995   3.323
 5699SOL    HW117996   0.242   2.071   3.279
 5699SOL    HW217997   0.363   2.030   3.382
 5700SOL     OW17998   6.743   0.132   4.106
 5700SOL    HW117999   6.649   0.126   4.073
 5700SOL    HW218000   6.805   0.093   4.038
 5701SOL     OW18001   1.527   0.575   2.239
 5701SOL    HW118002   1.494   0.505   2.303
 5701SOL    HW218003   1.559   0.531   2.155
 5702SOL     OW18004   2.911   6.278   4.935
 5702SOL    HW118005   2.845   6.283   5.010
 5702SOL    HW218006   2.874   6.221   4.862
 5703SOL     OW18007   6.637   4.592   1.452
 5703SOL    HW118008   6.728   4.635   1.455
 5703SOL    HW218009   6.625   4.547   1.364
 5704SOL     OW18010   4.660   4.383   2.624
 5704SOL    HW118011   4.733   4.449   2.609
 5704SOL    HW218012   4.598   4.382   2.546
 5705SOL     OW18013   5.109   1.031   0.720
 5705SOL    HW118014   5.051   1.106   0.753
 5705SOL    HW218015   5.164   1.064   0.643
 5706SOL     OW18016   6.517   3.688   0.605
 5706SOL    HW118017   6.595   3.716   0.548
 5706SOL    HW218018   6.498   3.759   0.673
 5707SOL     OW18019   0.132   6.765   0.912
 5707SOL    HW118020   0.182   6.851   0.919
 5707SOL    HW218021   0.194   6.694   0.878
 5708SOL     OW18022   5.013   6.139   1.571
 5708SOL    HW118023   5.055   6.053   1.599
 5708SOL    HW218024   5.031   6.209   1.640
 5709SOL     OW18025   0.944   0.181   2.410
 5709SOL    HW118026   0.891   0.262   2.434
 5709SOL    HW218027   1.041   0.200   2.424
 5710SOL     OW18028   2.949   2.856   0.386
 5710SOL    HW118029   2.947   2.835   0.484
 5710SOL    HW218030   2.858   2.842   0.347
 5711SOL     OW18031   4.866   1.276   2.458
 5711SOL    HW118032   4.925   1.338   2.406
 5711SOL    HW218033   4.772   1.309   2.454
 5712SOL     OW18034   0.226   6.448   6.547
 5712SOL    HW118035   0.310   6.410   6.585
 5712SOL    HW218036   0.160   6.374   6.532
 5713SOL     OW18037   2.907   2.865   1.738
 5713SOL    HW118038   2.902   2.765   1.733
 5713SOL    HW218039   2.952   2.892   1.823
 5714SOL     OW18040   0.049   5.699   0.200
 5714SOL    HW118041   0.125   5.635   0.207
 5714SOL    HW218042   7.007   5.663   0.136
 5715SOL     OW18043   0.756   6.914   3.566
 5715SOL    HW118044   0.703   6.997   3.581
 5715SOL    HW218045   0.762   6.896   3.467
 5716SOL     OW18046   1.333   3.791   0.223
 5716SOL    HW118047   1.272   3.869   0.233
 5716SOL    HW218048   1.362   3.783   0.128
 5717SOL     OW18049   2.165   5.336   0.553
 5717SOL    HW118050   2.129   5.328   0.646
 5717SOL    HW218051   2.113   5.405   0.503
 5718SOL     OW18052   0.243   2.702   5.618
 5718SOL    HW118053   0.338   2.718   5.644
 5718SOL    HW218054   0.238   2.684   5.519
 5719SOL     OW18055   2.612   1.850   6.483
 5719SOL    HW118056   2.585   1.756   6.463
 5719SOL    HW218057   2.709   1.853   6.507
 5720SOL     OW18058   1.736   5.345   4.982
 5720SOL    HW118059   1.821   5.317   4.938
 5720SOL    HW218060   1.752   5.360   5.080
 5721SOL     OW18061   0.173   3.873   1.211
 5721SOL    HW118062   0.233   3.887   1.290
 5721SOL    HW218063   0.092   3.932   1.221
 5722SOL     OW18064   6.320   1.361   5.282
 5722SOL    HW118065   6.265   1.376   5.364
 5722SOL    HW218066   6.390   1.293   5.301
 5723SOL     OW18067   4.555   3.590   0.638
 5723SOL    HW118068   4.647   3.574   0.674
 5723SOL    HW218069   4.560   3.651   0.559
 5724SOL     OW18070   5.502   3.350   5.033
 5724SOL    HW118071   5.473   3.259   5.064
 5724SOL    HW218072   5.425   3.413   5.038
 5725SOL     OW18073   4.966   4.988   3.704
 5725SOL    HW118074   4.942   4.962   3.797
 5725SOL    HW218075   5.055   5.034   3.704
 5726SOL     OW18076   0.381   4.876   5.184
 5726SOL    HW118077   0.465   4.928   5.168
 5726SOL    HW218078   0.388   4.826   5.270
 5727SOL     OW18079   6.695   1.430   4.050
 5727SOL    HW118080   6.627   1.361   4.073
 5727SOL    HW218081   6.688   1.452   3.953
 5728SOL     OW18082   4.093   1.042   6.266
 5728SOL    HW118083   4.065   1.108   6.196
 5728SOL    HW218084   4.064   1.075   6.356
 5729SOL     OW18085   1.130   1.026   0.894
 5729SOL    HW118086   1.105   1.084   0.971
 5729SOL    HW218087   1.121   1.077   0.809
 5730SOL     OW18088   5.099   5.450   6.353
 5730SOL    HW118089   5.102   5.547   6.329
 5730SOL    HW218090   5.142   5.396   6.280
 5731SOL     OW18091   0.649   6.905   3.943
 5731SOL    HW118092   0.651   7.003   3.923
 5731SOL    HW218093   0.561   6.881   3.985
 5732SOL     OW18094   6.500   5.363   4.415
 5732SOL    HW118095   6.486   5.456   4.379
 5732SOL    HW218096   6.516   5.300   4.339
 5733SOL     OW18097   3.896   6.840   5.223
 5733SOL    HW118098   3.885   6.741   5.234
 5733SOL    HW218099   3.993   6.864   5.228
 5734SOL     OW18100   1.102   6.643   5.577
 5734SOL    HW118101   1.123   6.550   5.547
 5734SOL    HW218102   1.172   6.706   5.543
 5735SOL     OW18103   4.004   2.190   2.082
 5735SOL    HW118104   4.042   2.145   2.162
 5735SOL    HW218105   3.904   2.193   2.090
 5736SOL     OW18106   6.076   4.218   0.388
 5736SOL    HW118107   6.146   4.255   0.448
 5736SOL    HW218108   5.989   4.210   0.438
 5737SOL     OW18109   5.236   5.939   0.761
 5737SOL    HW118110   5.329   5.953   0.725
 5737SOL    HW218111   5.171   5.936   0.685
 5738SOL     OW18112   3.043   3.349   6.393
 5738SOL    HW118113   3.096   3.423   6.351
 5738SOL    HW218114   2.982   3.387   6.463
 5739SOL     OW18115   1.416   0.612   5.531
 5739SOL    HW118116   1.466   0.526   5.537
 5739SOL    HW218117   1.347   0.604   5.459
 5740SOL     OW18118   4.179   3.650   1.457
 5740SOL    HW118119   4.256   3.585   1.460
 5740SOL    HW218120   4.204   3.733   1.507
 5741SOL     OW18121   0.235   3.805   4.301
 5741SOL    HW118122   0.239   3.867   4.380
 5741SOL    HW218123   0.274   3.850   4.221
 5742SOL     OW18124   4.934   6.492   2.767
 5742SOL    HW118125   4.854   6.468   2.821
 5742SOL    HW218126   4.911   6.486   2.670
 5743SOL     OW18127   2.559   5.123   5.797
 5743SOL    HW118128   2.527   5.042   5.846
 5743SOL    HW218129   2.497   5.142   5.721
 5744SOL     OW18130   5.151   1.235   1.840
 5744SOL    HW118131   5.200   1.233   1.753
 5744SOL    HW218132   5.052   1.235   1.823
 5745SOL     OW18133   2.257   0.638   3.953
 5745SOL    HW118134   2.203   0.554   3.948
 5745SOL    HW218135   2.230   0.691   4.033
 5746SOL     OW18136   5.560   6.524   1.374
 5746SOL    HW118137   5.646   6.573   1.356
 5746SOL    HW218138   5.483   6.579   1.341
 5747SOL     OW18139   0.151   4.435   3.071
 5747SOL    HW118140   0.198   4.520   3.048
 5747SOL    HW218141   0.052   4.451   3.071
 5748SOL     OW18142   1.521   5.683   0.615
 5748SOL    HW118143   1.462   5.676   0.535
 5748SOL    HW218144   1.494   5.762   0.670
 5749SOL     OW18145   1.772   6.461   4.552
 5749SOL    HW118146   1.833   6.429   4.624
 5749SOL    HW218147   1.687   6.408   4.553
 5750SOL     OW18148   6.613   6.361   4.321
 5750SOL    HW118149   6.683   6.295   4.294
 5750SOL    HW218150   6.639   6.404   4.408
 5751SOL     OW18151   3.007   2.246   4.493
 5751SOL    HW118152   2.918   2.275   4.458
 5751SOL    HW218153   2.995   2.197   4.579
 5752SOL     OW18154   6.621   0.886   0.241
 5752SOL    HW118155   6.576   0.976   0.238
 5752SOL    HW218156   6.551   0.814   0.246
 5753SOL     OW18157   3.826   2.980   4.629
 5753SOL    HW118158   3.735   3.019   4.635
 5753SOL    HW218159   3.825   2.886   4.663
 5754SOL     OW18160   6.464   4.690   1.228
 5754SOL    HW118161   6.563   4.703   1.238
 5754SOL    HW218162   6.417   4.723   1.310
 5755SOL     OW18163   2.077   3.479   6.054
 5755SOL    HW118164   2.023   3.408   6.009
 5755SOL    HW218165   2.168   3.443   6.076
 5756SOL     OW18166   6.339   0.155   3.483
 5756SOL    HW118167   6.429   0.194   3.463
 5756SOL    HW218168   6.347   0.091   3.560
 5757SOL     OW18169   6.637   6.241   3.182
 5757SOL    HW118170   6.628   6.240   3.282
 5757SOL    HW218171   6.597   6.158   3.144
 5758SOL     OW18172   2.514   0.965   4.588
 5758SOL    HW118173   2.470   1.001   4.506
 5758SOL    HW218174   2.498   1.026   4.665
 5759SOL     OW18175   4.934   1.581   6.884
 5759SOL    HW118176   4.933   1.528   6.799
 5759SOL    HW218177   4.976   1.671   6.867
 5760SOL     OW18178   0.166   4.371   0.948
 5760SOL    HW118179   0.185   4.414   0.860
 5760SOL    HW218180   0.251   4.335   0.987
 5761SOL     OW18181   5.740   6.376   6.416
 5761SOL    HW118182   5.671   6.307   6.393
 5761SOL    HW218183   5.730   6.454   6.353
 5762SOL     OW18184   4.808   5.768   0.133
 5762SOL    HW118185   4.731   5.742   0.191
 5762SOL    HW218186   4.893   5.732   0.173
 5763SOL     OW18187   0.104   6.962   0.415
 5763SOL    HW118188   0.030   6.913   0.460
 5763SOL    HW218189   0.191   6.918   0.435
 5764SOL     OW18190   4.761   5.163   5.269
 5764SOL    HW118191   4.735   5.158   5.172
 5764SOL    HW218192   4.722   5.246   5.310
 5765SOL     OW18193   6.439   3.507   6.903
 5765SOL    HW118194   6.462   3.599   6.936
 5765SOL    HW218195   6.365   3.469   6.958
 5766SOL     OW18196   2.029   2.802   6.911
 5766SOL    HW118197   2.123   2.806   6.944
 5766SOL    HW218198   2.003   2.890   6.871
 5767SOL     OW18199   1.998   0.798   0.402
 5767SOL    HW118200   2.054   0.772   0.324
 5767SOL    HW218201   1.937   0.722   0.425
 5768SOL     OW18202   0.579   6.168   3.083
 5768SOL    HW118203   0.661   6.225   3.072
 5768SOL    HW218204   0.499   6.228   3.089
 5769SOL     OW18205   2.282   5.807   4.237
 5769SOL    HW118206   2.306   5.879   4.172
 5769SOL    HW218207   2.307   5.835   4.329
 5770SOL     OW18208   5.941   0.141   0.368
 5770SOL    HW118209   6.038   0.118   0.366
 5770SOL    HW218210   5.890   0.075   0.312
 5771SOL     OW18211   1.963   6.496   3.351
 5771SOL    HW118212   1.877   6.525   3.311
 5771SOL    HW218213   1.974   6.539   3.441
 5772SOL     OW18214   6.306   1.730   1.059
 5772SOL    HW118215   6.385   1.736   1.121
 5772SOL    HW218216   6.326   1.780   0.975
 5773SOL     OW18217   4.500   0.997   3.921
 5773SOL    HW118218   4.531   1.040   3.836
 5773SOL    HW218219   4.403   1.016   3.934
 5774SOL     OW18220   2.951   5.466   3.583
 5774SOL    HW118221   2.886   5.481   3.509
 5774SOL    HW218222   2.914   5.506   3.668
 5775SOL     OW18223   1.674   0.988   2.070
 5775SOL    HW118224   1.767   0.952   2.067
 5775SOL    HW218225   1.644   1.008   1.977
 5776SOL     OW18226   6.944   0.954   5.910
 5776SOL    HW118227   6.898   1.042   5.922
 5776SOL    HW218228   6.991   0.928   5.994
 5777SOL     OW18229   6.513   0.239   5.233
 5777SOL    HW118230   6.539   0.166   5.170
 5777SOL    HW218231   6.569   0.320   5.215
 5778SOL     OW18232   1.655   0.235   1.490
 5778SOL    HW118233   1.559   0.206   1.491
 5778SOL    HW218234   1.686   0.243   1.396
 5779SOL     OW18235   4.269   1.988   0.926
 5779SOL    HW118236   4.341   2.047   0.963
 5779SOL    HW218237   4.276   1.897   0.966
 5780SOL     OW18238   6.359   5.017   3.029
 5780SOL    HW118239   6.387   5.086   2.962
 5780SOL    HW218240   6.438   4.959   3.051
 5781SOL     OW18241   6.943   4.103   4.478
 5781SOL    HW118242   7.003   4.115   4.557
 5781SOL    HW218243   6.848   4.114   4.507
 5782SOL     OW18244   0.869   0.806   0.554
 5782SOL    HW118245   0.775   0.837   0.569
 5782SOL    HW218246   0.886   0.725   0.610
 5783SOL     OW18247   1.613   0.792   1.673
 5783SOL    HW118248   1.639   0.826   1.583
 5783SOL    HW218249   1.609   0.692   1.670
 5784SOL     OW18250   6.839   6.499   0.411
 5784SOL    HW118251   6.909   6.427   0.413
 5784SOL    HW218252   6.750   6.459   0.391
 5785SOL     OW18253   1.498   1.648   0.849
 5785SOL    HW118254   1.452   1.561   0.868
 5785SOL    HW218255   1.435   1.724   0.867
 5786SOL     OW18256   0.676   3.960   0.742
 5786SOL    HW118257   0.622   3.983   0.824
 5786SOL    HW218258   0.760   4.014   0.742
 5787SOL     OW18259   4.144   3.045   5.506
 5787SOL    HW118260   4.157   3.140   5.477
 5787SOL    HW218261   4.142   2.985   5.426
 5788SOL     OW18262   2.844   1.367   1.267
 5788SOL    HW118263   2.935   1.362   1.307
 5788SOL    HW218264   2.826   1.284   1.214
 5789SOL     OW18265   3.603   4.111   6.397
 5789SOL    HW118266   3.641   4.124   6.305
 5789SOL    HW218267   3.507   4.083   6.389
 5790SOL     OW18268   0.396   4.785   4.924
 5790SOL    HW118269   0.346   4.778   5.010
 5790SOL    HW218270   0.491   4.755   4.939
 5791SOL     OW18271   2.908   1.889   2.171
 5791SOL    HW118272   2.969   1.948   2.225
 5791SOL    HW218273   2.956   1.806   2.145
 5792SOL     OW18274   5.506   2.641   2.421
 5792SOL    HW118275   5.498   2.598   2.331
 5792SOL    HW218276   5.479   2.737   2.415
 5793SOL     OW18277   5.929   0.954   4.495
 5793SOL    HW118278   6.012   0.927   4.445
 5793SOL    HW218279   5.853   0.896   4.466
 5794SOL     OW18280   2.709   0.222   6.007
 5794SOL    HW118281   2.614   0.192   6.001
 5794SOL    HW218282   2.769   0.142   6.010
 5795SOL     OW18283   0.035   6.355   1.191
 5795SOL    HW118284   7.022   6.416   1.260
 5795SOL    HW218285   0.128   6.384   1.168
 5796SOL     OW18286   4.621   1.292   6.652
 5796SOL    HW118287   4.639   1.222   6.582
 5796SOL    HW218288   4.649   1.381   6.617
 5797SOL     OW18289   5.005   2.031   0.343
 5797SOL    HW118290   4.942   2.109   0.352
 5797SOL    HW218291   4.952   1.948   0.326
 5798SOL     OW18292   6.981   5.441   4.777
 5798SOL    HW118293   6.928   5.374   4.830
 5798SOL    HW218294   6.951   5.438   4.681
 5799SOL     OW18295   0.235   0.590   4.719
 5799SOL    HW118296   0.309   0.613   4.656
 5799SOL    HW218297   0.214   0.493   4.712
 5800SOL     OW18298   0.787   6.991   2.222
 5800SOL    HW118299   0.746   6.900   2.229
 5800SOL    HW218300   0.757   0.009   2.137
 5801SOL     OW18301   1.740   2.180   3.459
 5801SOL    HW118302   1.773   2.271   3.485
 5801SOL    HW218303   1.679   2.188   3.380
 5802SOL     OW18304   6.431   3.235   2.348
 5802SOL    HW118305   6.413   3.255   2.251
 5802SOL    HW218306   6.478   3.147   2.354
 5803SOL     OW18307   1.779   5.855   2.942
 5803SOL    HW118308   1.737   5.922   3.002
 5803SOL    HW218309   1.727   5.848   2.857
 5804SOL     OW18310   0.234   5.605   3.325
 5804SOL    HW118311   0.244   5.672   3.399
 5804SOL    HW218312   0.151   5.551   3.340
 5805SOL     OW18313   1.625   3.241   0.870
 5805SOL    HW118314   1.610   3.327   0.822
 5805SOL    HW218315   1.583   3.245   0.961
 5806SOL     OW18316   6.476   5.296   4.884
 5806SOL    HW118317   6.543   5.287   4.810
 5806SOL    HW218318   6.390   5.253   4.856
 5807SOL     OW18319   1.175   5.675   0.523
 5807SOL    HW118320   1.127   5.588   0.522
 5807SOL    HW218321   1.248   5.674   0.454
 5808SOL     OW18322   0.050   6.410   4.064
 5808SOL    HW118323   0.024   6.464   4.143
 5808SOL    HW218324   0.068   6.316   4.092
 5809SOL     OW18325   6.713   1.488   5.157
 5809SOL    HW118326   6.643   1.459   5.092
 5809SOL    HW218327   6.696   1.445   5.245
 5810SOL     OW18328   5.134   1.147   5.837
 5810SOL    HW118329   5.057   1.174   5.895
 5810SOL    HW218330   5.101   1.128   5.744
 5811SOL     OW18331   3.362   1.421   5.067
 5811SOL    HW118332   3.462   1.427   5.062
 5811SOL    HW218333   3.322   1.464   4.986
 5812SOL     OW18334   5.181   3.359   5.819
 5812SOL    HW118335   5.279   3.382   5.820
 5812SOL    HW218336   5.131   3.427   5.765
 5813SOL     OW18337   2.562   0.824   0.734
 5813SOL    HW118338   2.582   0.826   0.833
 5813SOL    HW218339   2.610   0.747   0.692
 5814SOL     OW18340   6.754   3.076   2.189
 5814SOL    HW118341   6.734   3.108   2.282
 5814SOL    HW218342   6.702   3.130   2.123
 5815SOL     OW18343   4.016   1.596   4.004
 5815SOL    HW118344   4.025   1.604   3.905
 5815SOL    HW218345   4.098   1.633   4.048
 5816SOL     OW18346   5.200   4.123   0.139
 5816SOL    HW118347   5.211   4.166   0.229
 5816SOL    HW218348   5.163   4.189   0.074
 5817SOL     OW18349   6.171   5.018   5.452
 5817SOL    HW118350   6.109   5.094   5.432
 5817SOL    HW218351   6.245   5.050   5.511
 5818SOL     OW18352   6.716   5.548   5.775
 5818SOL    HW118353   6.744   5.629   5.722
 5818SOL    HW218354   6.698   5.472   5.712
 5819SOL     OW18355   4.079   6.962   6.747
 5819SOL    HW118356   4.116   6.875   6.713
 5819SOL    HW218357   3.984   6.950   6.774
 5820SOL     OW18358   4.119   4.801   2.777
 5820SOL    HW118359   4.194   4.739   2.800
 5820SOL    HW218360   4.068   4.824   2.860
 5821SOL     OW18361   6.681   0.765   1.880
 5821SOL    HW118362   6.716   0.721   1.963
 5821SOL    HW218363   6.754   0.773   1.813
 5822SOL     OW18364   1.739   2.456   1.519
 5822SOL    HW118365   1.825   2.471   1.566
 5822SOL    HW218366   1.748   2.379   1.456
 5823SOL     OW18367   3.157   0.166   4.573
 5823SOL    HW118368   3.209   0.149   4.490
 5823SOL    HW218369   3.085   0.233   4.554
 5824SOL     OW18370   0.247   6.067   2.994
 5824SOL    HW118371   0.196   6.135   2.941
 5824SOL    HW218372   0.230   6.081   3.091
 5825SOL     OW18373   0.197   6.731   4.599
 5825SOL    HW118374   0.234   6.768   4.514
 5825SOL    HW218375   0.163   6.806   4.656
 5826SOL     OW18376   0.060   6.182   6.522
 5826SOL    HW118377   0.006   6.142   6.448
 5826SOL    HW218378   0.010   6.257   6.564
 5827SOL     OW18379   1.918   3.411   4.320
 5827SOL    HW118380   2.004   3.412   4.371
 5827SOL    HW218381   1.885   3.504   4.309
 5828SOL     OW18382   5.058   1.646   2.347
 5828SOL    HW118383   4.965   1.665   2.316
 5828SOL    HW218384   5.078   1.548   2.336
 5829SOL     OW18385   1.636   0.104   4.358
 5829SOL    HW118386   1.548   0.106   4.311
 5829SOL    HW218387   1.704   0.060   4.299
 5830SOL     OW18388   5.852   0.132   5.902
 5830SOL    HW118389   5.812   0.184   5.826
 5830SOL    HW218390   5.798   0.049   5.917
 5831SOL     OW18391   1.354   0.738   6.035
 5831SOL    HW118392   1.414   0.760   6.112
 5831SOL    HW218393   1.259   0.751   6.062
 5832SOL     OW18394   3.045   4.573   6.915
 5832SOL    HW118395   2.971   4.506   6.915
 5832SOL    HW218396   3.072   4.592   7.009
 5833SOL     OW18397   4.095   3.713   5.330
 5833SOL    HW118398   4.148   3.677   5.253
 5833SOL    HW218399   4.050   3.638   5.377
 5834SOL     OW18400   0.070   3.953   6.539
 5834SOL    HW118401   0.074   4.041   6.588
 5834SOL    HW218402   0.071   3.879   6.606
 5835SOL     OW18403   5.636   2.233   3.161
 5835SOL    HW118404   5.666   2.161   3.225
 5835SOL    HW218405   5.668   2.322   3.194
 5836SOL     OW18406   3.302   0.320   1.370
 5836SOL    HW118407   3.312   0.260   1.291
 5836SOL    HW218408   3.254   0.403   1.342
 5837SOL     OW18409   3.566   3.107   0.038
 5837SOL    HW118410   3.621   3.037   0.084
 5837SOL    HW218411   3.591   3.111   6.967
 5838SOL     OW18412   3.017   1.802   0.869
 5838SOL    HW118413   2.944   1.735   0.876
 5838SOL    HW218414   3.051   1.824   0.961
 5839SOL     OW18415   0.657   1.974   1.281
 5839SOL    HW118416   0.717   1.895   1.286
 5839SOL    HW218417   0.563   1.944   1.262
 5840SOL     OW18418   1.262   3.891   6.305
 5840SOL    HW118419   1.286   3.988   6.294
 5840SOL    HW218420   1.330   3.834   6.259
 5841SOL     OW18421   5.072   1.377   2.050
 5841SOL    HW118422   5.121   1.295   2.022
 5841SOL    HW218423   5.112   1.457   2.005
 5842SOL     OW18424   4.747   2.885   1.638
 5842SOL    HW118425   4.736   2.831   1.722
 5842SOL    HW218426   4.670   2.948   1.628
 5843SOL     OW18427   1.447   4.924   1.961
 5843SOL    HW118428   1.494   4.931   2.049
 5843SOL    HW218429   1.504   4.873   1.897
 5844SOL     OW18430   1.591   6.147   5.789
 5844SOL    HW118431   1.521   6.216   5.807
 5844SOL    HW218432   1.584   6.074   5.857
 5845SOL     OW18433   0.595   0.273   1.781
 5845SOL    HW118434   0.662   0.206   1.747
 5845SOL    HW218435   0.503   0.246   1.752
 5846SOL     OW18436   6.387   3.644   6.105
 5846SOL    HW118437   6.374   3.600   6.193
 5846SOL    HW218438   6.343   3.734   6.106
 5847SOL     OW18439   2.687   2.301   2.181
 5847SOL    HW118440   2.780   2.324   2.155
 5847SOL    HW218441   2.683   2.205   2.208
 5848SOL     OW18442   1.623   5.325   3.164
 5848SOL    HW118443   1.638   5.393   3.092
 5848SOL    HW218444   1.705   5.269   3.175
 5849SOL     OW18445   1.820   0.404   5.162
 5849SOL    HW118446   1.909   0.449   5.157
 5849SOL    HW218447   1.748   0.469   5.138
 5850SOL     OW18448   6.729   3.476   2.032
 5850SOL    HW118449   6.711   3.422   1.950
 5850SOL    HW218450   6.778   3.420   2.099
 5851SOL     OW18451   4.947   3.457   3.367
 5851SOL    HW118452   4.904   3.367   3.366
 5851SOL    HW218453   5.045   3.449   3.349
 5852SOL     OW18454   5.636   6.430   2.964
 5852SOL    HW118455   5.591   6.369   2.898
 5852SOL    HW218456   5.609   6.404   3.057
 5853SOL     OW18457   4.226   5.226   5.445
 5853SOL    HW118458   4.280   5.210   5.362
 5853SOL    HW218459   4.129   5.218   5.423
 5854SOL     OW18460   4.330   4.010   5.586
 5854SOL    HW118461   4.420   4.015   5.544
 5854SOL    HW218462   4.339   3.994   5.684
 5855SOL     OW18463   1.635   0.918   4.479
 5855SOL    HW118464   1.708   0.876   4.425
 5855SOL    HW218465   1.600   0.999   4.431
 5856SOL     OW18466   1.785   5.761   3.625
 5856SOL    HW118467   1.826   5.808   3.547
 5856SOL    HW218468   1.735   5.827   3.681
 5857SOL     OW18469   5.919   3.429   5.463
 5857SOL    HW118470   5.975   3.353   5.429
 5857SOL    HW218471   5.963   3.471   5.541
 5858SOL     OW18472   2.562   2.458   2.475
 5858SOL    HW118473   2.568   2.492   2.381
 5858SOL    HW218474   2.473   2.415   2.489
 5859SOL     OW18475   6.447   6.267   1.547
 5859SOL    HW118476   6.456   6.341   1.481
 5859SOL    HW218477   6.536   6.246   1.587
 5860SOL     OW18478   0.406   4.565   3.358
 5860SOL    HW118479   0.306   4.554   3.358
 5860SOL    HW218480   0.435   4.603   3.446
 5861SOL     OW18481   5.669   0.860   4.414
 5861SOL    HW118482   5.647   0.869   4.317
 5861SOL    HW218483   5.645   0.944   4.462
 5862SOL     OW18484   5.923   5.456   0.862
 5862SOL    HW118485   6.017   5.442   0.832
 5862SOL    HW218486   5.915   5.433   0.959
 5863SOL     OW18487   3.044   2.107   5.243
 5863SOL    HW118488   3.052   2.014   5.206
 5863SOL    HW218489   3.094   2.170   5.185
 5864SOL     OW18490   3.889   4.007   2.564
 5864SOL    HW118491   3.909   4.093   2.515
 5864SOL    HW218492   3.860   3.938   2.498
 5865SOL     OW18493   6.042   0.339   5.470
 5865SOL    HW118494   6.113   0.319   5.402
 5865SOL    HW218495   6.055   0.431   5.506
 5866SOL     OW18496   3.793   3.291   1.099
 5866SOL    HW118497   3.888   3.289   1.066
 5866SOL    HW218498   3.763   3.386   1.105
 5867SOL     OW18499   2.038   3.532   1.070
 5867SOL    HW118500   2.080   3.553   1.159
 5867SOL    HW218501   2.090   3.460   1.025
 5868SOL     OW18502   1.582   1.492   5.531
 5868SOL    HW118503   1.598   1.577   5.481
 5868SOL    HW218504   1.656   1.427   5.511
 5869SOL     OW18505   1.815   6.412   3.057
 5869SOL    HW118506   1.907   6.387   3.085
 5869SOL    HW218507   1.781   6.487   3.115
 5870SOL     OW18508   4.930   6.409   4.863
 5870SOL    HW118509   4.901   6.469   4.787
 5870SOL    HW218510   4.971   6.465   4.935
 5871SOL     OW18511   3.530   3.232   1.718
 5871SOL    HW118512   3.491   3.144   1.744
 5871SOL    HW218513   3.522   3.296   1.795
 5872SOL     OW18514   4.819   6.764   1.119
 5872SOL    HW118515   4.797   6.747   1.023
 5872SOL    HW218516   4.902   6.714   1.143
 5873SOL     OW18517   3.604   0.734   2.056
 5873SOL    HW118518   3.544   0.770   2.128
 5873SOL    HW218519   3.570   0.646   2.025
 5874SOL     OW18520   2.211   4.620   5.381
 5874SOL    HW118521   2.220   4.579   5.291
 5874SOL    HW218522   2.282   4.583   5.442
 5875SOL     OW18523   4.307   1.468   6.693
 5875SOL    HW118524   4.230   1.406   6.676
 5875SOL    HW218525   4.354   1.487   6.607
 5876SOL     OW18526   3.792   3.139   1.665
 5876SOL    HW118527   3.790   3.046   1.701
 5876SOL    HW218528   3.699   3.178   1.668
 5877SOL     OW18529   6.683   6.713   1.308
 5877SOL    HW118530   6.696   6.649   1.232
 5877SOL    HW218531   6.670   6.661   1.392
 5878SOL     OW18532   0.279   5.457   4.177
 5878SOL    HW118533   0.204   5.459   4.243
 5878SOL    HW218534   0.244   5.428   4.088
 5879SOL     OW18535   1.258   4.185   6.839
 5879SOL    HW118536   1.214   4.106   6.879
 5879SOL    HW218537   1.355   4.165   6.823
 5880SOL     OW18538   4.396   4.138   6.666
 5880SOL    HW118539   4.390   4.038   6.677
 5880SOL    HW218540   4.472   4.173   6.720
 5881SOL     OW18541   0.923   6.882   2.706
 5881SOL    HW118542   0.825   6.885   2.686
 5881SOL    HW218543   0.974   6.870   2.621
 5882SOL     OW18544   0.112   5.762   1.541
 5882SOL    HW118545   0.162   5.724   1.618
 5882SOL    HW218546   0.026   5.713   1.529
 5883SOL     OW18547   0.982   1.227   6.641
 5883SOL    HW118548   0.941   1.144   6.603
 5883SOL    HW218549   0.976   1.301   6.574
 5884SOL     OW18550   2.945   1.647   4.769
 5884SOL    HW118551   3.008   1.719   4.742
 5884SOL    HW218552   2.877   1.633   4.697
 5885SOL     OW18553   0.694   0.189   3.127
 5885SOL    HW118554   0.732   0.171   3.218
 5885SOL    HW218555   0.766   0.183   3.059
 5886SOL     OW18556   0.946   2.049   4.840
 5886SOL    HW118557   0.943   2.149   4.832
 5886SOL    HW218558   0.884   2.021   4.913
 5887SOL     OW18559   2.449   1.766   2.803
 5887SOL    HW118560   2.411   1.795   2.891
 5887SOL    HW218561   2.387   1.793   2.729
 5888SOL     OW18562   2.875   1.070   1.629
 5888SOL    HW118563   2.913   0.979   1.613
 5888SOL    HW218564   2.800   1.086   1.564
 5889SOL     OW18565   1.376   6.766   0.504
 5889SOL    HW118566   1.437   6.799   0.577
 5889SOL    HW218567   1.362   6.668   0.515
 5890SOL     OW18568   2.394   1.154   3.663
 5890SOL    HW118569   2.328   1.176   3.735
 5890SOL    HW218570   2.364   1.072   3.615
 5891SOL     OW18571   3.738   2.943   6.257
 5891SOL    HW118572   3.735   3.043   6.245
 5891SOL    HW218573   3.683   2.918   6.337
 5892SOL     OW18574   0.966   5.244   1.384
 5892SOL    HW118575   1.005   5.212   1.297
 5892SOL    HW218576   0.906   5.322   1.367
 5893SOL     OW18577   2.187   3.884   4.004
 5893SOL    HW118578   2.200   3.793   4.044
 5893SOL    HW218579   2.171   3.875   3.906
 5894SOL     OW18580   6.765   5.129   4.314
 5894SOL    HW118581   6.815   5.197   4.367
 5894SOL    HW218582   6.829   5.062   4.277
 5895SOL     OW18583   5.576   4.277   3.967
 5895SOL    HW118584   5.505   4.346   3.977
 5895SOL    HW218585   5.622   4.262   4.054
 5896SOL     OW18586   3.648   0.745   0.592
 5896SOL    HW118587   3.637   0.845   0.586
 5896SOL    HW218588   3.696   0.722   0.676
 5897SOL     OW18589   4.030   0.559   1.339
 5897SOL    HW118590   4.057   0.582   1.246
 5897SOL    HW218591   3.993   0.466   1.341
 5898SOL     OW18592   2.172   6.811   3.435
 5898SOL    HW118593   2.123   6.883   3.385
 5898SOL    HW218594   2.123   6.790   3.519
 5899SOL     OW18595   5.264   6.027   6.031
 5899SOL    HW118596   5.362   6.025   6.014
 5899SOL    HW218597   5.242   6.104   6.092
 5900SOL     OW18598   5.854   5.161   3.388
 5900SOL    HW118599   5.759   5.172   3.360
 5900SOL    HW218600   5.905   5.245   3.369
 5901SOL     OW18601   2.285   0.630   0.430
 5901SOL    HW118602   2.347   0.558   0.401
 5901SOL    HW218603   2.252   0.680   0.349
 5902SOL     OW18604   6.656   2.457   5.716
 5902SOL    HW118605   6.625   2.552   5.715
 5902SOL    HW218606   6.591   2.401   5.768
 5903SOL     OW18607   4.739   5.000   6.873
 5903SOL    HW118608   4.814   4.943   6.841
 5903SOL    HW218609   4.663   4.942   6.902
 5904SOL     OW18610   1.345   4.541   1.630
 5904SOL    HW118611   1.388   4.615   1.682
 5904SOL    HW218612   1.380   4.541   1.537
 5905SOL     OW18613   5.861   6.392   3.635
 5905SOL    HW118614   5.955   6.418   3.656
 5905SOL    HW218615   5.801   6.423   3.709
 5906SOL     OW18616   3.551   2.115   3.714
 5906SOL    HW118617   3.535   2.119   3.812
 5906SOL    HW218618   3.641   2.153   3.694
 5907SOL     OW18619   0.832   5.399   0.639
 5907SOL    HW118620   0.764   5.444   0.580
 5907SOL    HW218621   0.830   5.301   0.622
 5908SOL     OW18622   0.176   2.563   6.708
 5908SOL    HW118623   0.143   2.533   6.618
 5908SOL    HW218624   0.227   2.648   6.697
 5909SOL     OW18625   6.329   5.610   0.780
 5909SOL    HW118626   6.337   5.635   0.683
 5909SOL    HW218627   6.261   5.537   0.789
 5910SOL     OW18628   6.957   3.553   3.977
 5910SOL    HW118629   6.966   3.597   4.067
 5910SOL    HW218630   6.873   3.500   3.974
 5911SOL     OW18631   6.661   6.321   6.766
 5911SOL    HW118632   6.596   6.342   6.692
 5911SOL    HW218633   6.611   6.307   6.851
 5912SOL     OW18634   6.543   1.375   5.693
 5912SOL    HW118635   6.632   1.414   5.718
 5912SOL    HW218636   6.484   1.448   5.657
 5913SOL     OW18637   4.965   3.028   6.136
 5913SOL    HW118638   4.998   2.952   6.079
 5913SOL    HW218639   4.981   3.114   6.089
 5914SOL     OW18640   1.408   4.612   5.925
 5914SOL    HW118641   1.500   4.627   5.962
 5914SOL    HW218642   1.341   4.656   5.984
 5915SOL     OW18643   4.573   5.661   1.227
 5915SOL    HW118644   4.635   5.655   1.305
 5915SOL    HW218645   4.479   5.672   1.259
 5916SOL     OW18646   5.616   6.618   4.138
 5916SOL    HW118647   5.673   6.694   4.109
 5916SOL    HW218648   5.645   6.535   4.090
 5917SOL     OW18649   2.967   3.661   4.115
 5917SOL    HW118650   2.889   3.628   4.167
 5917SOL    HW218651   3.052   3.626   4.154
 5918SOL     OW18652   1.442   3.775   5.802
 5918SOL    HW118653   1.483   3.691   5.765
 5918SOL    HW218654   1.454   3.776   5.902
 5919SOL     OW18655   3.512   3.326   3.307
 5919SOL    HW118656   3.482   3.271   3.385
 5919SOL    HW218657   3.560   3.268   3.242
 5920SOL     OW18658   4.746   1.087   6.498
 5920SOL    HW118659   4.811   1.139   6.553
 5920SOL    HW218660   4.772   1.090   6.402
 5921SOL     OW18661   3.522   5.661   6.487
 5921SOL    HW118662   3.517   5.591   6.415
 5921SOL    HW218663   3.523   5.618   6.576
 5922SOL     OW18664   5.203   4.612   2.832
 5922SOL    HW118665   5.181   4.518   2.804
 5922SOL    HW218666   5.277   4.610   2.900
 5923SOL     OW18667   6.544   1.249   1.975
 5923SOL    HW118668   6.513   1.162   1.935
 5923SOL    HW218669   6.612   1.291   1.915
 5924SOL     OW18670   6.042   0.051   2.919
 5924SOL    HW118671   6.042   0.151   2.911
 5924SOL    HW218672   6.122   0.023   2.972
 5925SOL     OW18673   4.017   0.090   2.205
 5925SOL    HW118674   3.929   0.130   2.231
 5925SOL    HW218675   4.076   0.085   2.286
 5926SOL     OW18676   3.867   5.296   1.776
 5926SOL    HW118677   3.831   5.315   1.868
 5926SOL    HW218678   3.874   5.381   1.725
 5927SOL     OW18679   1.538   4.299   2.386
 5927SOL    HW118680   1.506   4.266   2.475
 5927SOL    HW218681   1.548   4.398   2.389
 5928SOL     OW18682   4.023   0.364   1.033
 5928SOL    HW118683   3.936   0.400   1.067
 5928SOL    HW218684   4.035   0.269   1.063
 5929SOL     OW18685   6.899   0.102   6.626
 5929SOL    HW118686   6.826   0.037   6.649
 5929SOL    HW218687   6.887   0.185   6.681
 5930SOL     OW18688   6.356   4.037   2.794
 5930SOL    HW118689   6.384   3.946   2.766
 5930SOL    HW218690   6.407   4.105   2.742
 5931SOL     OW18691   0.671   5.546   2.937
 5931SOL    HW118692   0.582   5.562   2.980
 5931SOL    HW218693   0.657   5.531   2.839
 5932SOL     OW18694   3.121   0.396   0.583
 5932SOL    HW118695   3.200   0.413   0.524
 5932SOL    HW218696   3.147   0.413   0.678
 5933SOL     OW18697   0.112   5.175   3.088
 5933SOL    HW118698   0.155   5.202   3.175
 5933SOL    HW218699   0.021   5.216   3.082
 5934SOL     OW18700   3.623   3.181   5.164
 5934SOL    HW118701   3.569   3.156   5.245
 5934SOL    HW218702   3.561   3.207   5.090
 5935SOL     OW18703   5.723   5.032   6.453
 5935SOL    HW118704   5.777   4.953   6.484
 5935SOL    HW218705   5.747   5.053   6.358
 5936SOL     OW18706   3.225   2.272   1.314
 5936SOL    HW118707   3.262   2.309   1.399
 5936SOL    HW218708   3.125   2.274   1.318
 5937SOL     OW18709   6.350   3.738   2.307
 5937SOL    HW118710   6.384   3.668   2.244
 5937SOL    HW218711   6.308   3.812   2.254
 5938SOL     OW18712   6.753   5.690   3.005
 5938SOL    HW118713   6.788   5.693   3.099
 5938SOL    HW218714   6.685   5.618   2.997
 5939SOL     OW18715   2.422   6.666   2.966
 5939SOL    HW118716   2.519   6.655   2.990
 5939SOL    HW218717   2.370   6.682   3.050
 5940SOL     OW18718   4.438   5.587   1.949
 5940SOL    HW118719   4.376   5.554   2.020
 5940SOL    HW218720   4.426   5.532   1.867
 5941SOL     OW18721   5.819   3.080   2.501
 5941SOL    HW118722   5.862   3.069   2.591
 5941SOL    HW218723   5.720   3.070   2.509
 5942SOL     OW18724   5.793   3.877   0.292
 5942SOL    HW118725   5.802   3.948   0.222
 5942SOL    HW218726   5.783   3.920   0.381
 5943SOL     OW18727   3.129   4.541   5.831
 5943SOL    HW118728   3.036   4.550   5.867
 5943SOL    HW218729   3.149   4.618   5.771
 5944SOL     OW18730   0.044   2.710   1.271
 5944SOL    HW118731   0.085   2.622   1.298
 5944SOL    HW218732   7.012   2.697   1.190
 5945SOL     OW18733   6.651   5.178   5.163
 5945SOL    HW118734   6.607   5.091   5.137
 5945SOL    HW218735   6.596   5.254   5.128
 5946SOL     OW18736   3.710   3.491   5.919
 5946SOL    HW118737   3.695   3.475   5.821
 5946SOL    HW218738   3.777   3.425   5.953
 5947SOL     OW18739   3.221   3.251   2.101
 5947SOL    HW118740   3.298   3.204   2.143
 5947SOL    HW218741   3.155   3.277   2.171
 5948SOL     OW18742   3.971   4.897   3.057
 5948SOL    HW118743   3.904   4.926   2.989
 5948SOL    HW218744   4.007   4.978   3.104
 5949SOL     OW18745   4.994   3.880   1.619
 5949SOL    HW118746   5.018   3.977   1.617
 5949SOL    HW218747   4.937   3.857   1.540
 5950SOL     OW18748   5.023   1.054   5.583
 5950SOL    HW118749   5.094   0.999   5.540
 5950SOL    HW218750   4.979   1.112   5.513
 5951SOL     OW18751   1.281   5.676   3.697
 5951SOL    HW118752   1.338   5.699   3.776
 5951SOL    HW218753   1.198   5.630   3.728
 5952SOL     OW18754   5.620   4.619   3.408
 5952SOL    HW118755   5.671   4.699   3.440
 5952SOL    HW218756   5.551   4.648   3.341
 5953SOL     OW18757   6.007   3.175   5.620
 5953SOL    HW118758   5.973   3.217   5.703
 5953SOL    HW218759   6.080   3.233   5.581
 5954SOL     OW18760   6.331   5.133   5.251
 5954SOL    HW118761   6.291   5.084   5.329
 5954SOL    HW218762   6.263   5.140   5.177
 5955SOL     OW18763   4.681   5.653   2.328
 5955SOL    HW118764   4.738   5.689   2.403
 5955SOL    HW218765   4.614   5.722   2.302
 5956SOL     OW18766   4.846   2.039   4.873
 5956SOL    HW118767   4.806   1.948   4.862
 5956SOL    HW218768   4.861   2.081   4.784
 5957SOL     OW18769   3.953   1.287   5.185
 5957SOL    HW118770   3.961   1.263   5.088
 5957SOL    HW218771   4.036   1.257   5.233
 5958SOL     OW18772   5.542   6.090   2.658
 5958SOL    HW118773   5.522   6.131   2.747
 5958SOL    HW218774   5.591   6.156   2.601
 5959SOL     OW18775   4.423   3.077   5.329
 5959SOL    HW118776   4.351   3.146   5.320
 5959SOL    HW218777   4.413   3.029   5.416
 5960SOL     OW18778   4.007   5.435   5.262
 5960SOL    HW118779   3.975   5.360   5.320
 5960SOL    HW218780   3.931   5.472   5.209
 5961SOL     OW18781   4.741   1.584   2.766
 5961SOL    HW118782   4.692   1.638   2.834
 5961SOL    HW218783   4.759   1.641   2.685
 5962SOL     OW18784   5.726   6.553   0.410
 5962SOL    HW118785   5.664   6.507   0.346
 5962SOL    HW218786   5.789   6.486   0.448
 5963SOL     OW18787   4.157   3.557   6.531
 5963SOL    HW118788   4.255   3.546   6.520
 5963SOL    HW218789   4.129   3.519   6.619
 5964SOL     OW18790   0.726   5.722   5.441
 5964SOL    HW118791   0.667   5.669   5.381
 5964SOL    HW218792   0.675   5.799   5.479
 5965SOL     OW18793   1.883   1.536   6.991
 5965SOL    HW118794   1.839   1.576   6.911
 5965SOL    HW218795   1.981   1.559   6.991
 5966SOL     OW18796   1.957   6.085   5.213
 5966SOL    HW118797   1.975   6.005   5.157
 5966SOL    HW218798   2.038   6.108   5.268
 5967SOL     OW18799   3.764   6.677   6.261
 5967SOL    HW118800   3.849   6.624   6.262
 5967SOL    HW218801   3.778   6.762   6.311
 5968SOL     OW18802   5.276   2.563   0.312
 5968SOL    HW118803   5.294   2.634   0.380
 5968SOL    HW218804   5.224   2.489   0.354
 5969SOL     OW18805   6.540   6.975   6.914
 5969SOL    HW118806   6.512   6.880   6.928
 5969SOL    HW218807   6.534   7.024   7.001
 5970SOL     OW18808   0.135   4.056   2.727
 5970SOL    HW118809   0.083   4.140   2.746
 5970SOL    HW218810   0.128   4.034   2.630
 5971SOL     OW18811   0.338   1.317   2.581
 5971SOL    HW118812   0.404   1.261   2.631
 5971SOL    HW218813   0.275   1.258   2.532
 5972SOL     OW18814   5.651   5.619   6.376
 5972SOL    HW118815   5.590   5.680   6.427
 5972SOL    HW218816   5.683   5.665   6.294
 5973SOL     OW18817   1.555   3.484   2.697
 5973SOL    HW118818   1.523   3.390   2.694
 5973SOL    HW218819   1.499   3.537   2.760
 5974SOL     OW18820   5.788   6.037   6.856
 5974SOL    HW118821   5.806   5.964   6.923
 5974SOL    HW218822   5.820   6.008   6.766
 5975SOL     OW18823   4.315   0.039   0.592
 5975SOL    HW118824   4.222   0.071   0.575
 5975SOL    HW218825   4.347   0.074   0.680
 5976SOL     OW18826   3.859   2.647   6.244
 5976SOL    HW118827   3.838   2.733   6.199
 5976SOL    HW218828   3.786   2.581   6.227
 5977SOL     OW18829   1.315   5.634   6.516
 5977SOL    HW118830   1.288   5.630   6.420
 5977SOL    HW218831   1.369   5.716   6.532
 5978SOL     OW18832   4.193   5.544   1.714
 5978SOL    HW118833   4.258   5.469   1.718
 5978SOL    HW218834   4.218   5.607   1.640
 5979SOL     OW18835   5.047   0.357   3.292
 5979SOL    HW118836   5.041   0.417   3.212
 5979SOL    HW218837   5.142   0.354   3.323
 5980SOL     OW18838   3.338   3.820   1.019
 5980SOL    HW118839   3.431   3.807   0.985
 5980SOL    HW218840   3.292   3.889   0.963
 5981SOL     OW18841   5.491   2.010   1.449
 5981SOL    HW118842   5.426   2.045   1.516
 5981SOL    HW218843   5.557   1.950   1.495
 5982SOL     OW18844   5.954   3.048   1.979
 5982SOL    HW118845   5.890   3.089   2.044
 5982SOL    HW218846   6.042   3.033   2.023
 5983SOL     OW18847   1.787   1.759   3.817
 5983SOL    HW118848   1.878   1.794   3.841
 5983SOL    HW218849   1.756   1.802   3.732
 5984SOL     OW18850   6.574   5.541   3.803
 5984SOL    HW118851   6.574   5.599   3.884
 5984SOL    HW218852   6.501   5.569   3.741
 5985SOL     OW18853   6.474   3.029   4.112
 5985SOL    HW118854   6.539   2.954   4.098
 5985SOL    HW218855   6.486   3.097   4.040
 5986SOL     OW18856   3.562   4.129   4.322
 5986SOL    HW118857   3.628   4.104   4.393
 5986SOL    HW218858   3.476   4.155   4.365
 5987SOL     OW18859   5.644   0.222   3.983
 5987SOL    HW118860   5.732   0.173   3.982
 5987SOL    HW218861   5.595   0.199   4.067
 5988SOL     OW18862   4.667   0.447   6.146
 5988SOL    HW118863   4.662   0.468   6.049
 5988SOL    HW218864   4.647   0.530   6.199
 5989SOL     OW18865   2.190   5.712   6.545
 5989SOL    HW118866   2.246   5.785   6.506
 5989SOL    HW218867   2.178   5.638   6.479
 5990SOL     OW18868   3.774   3.606   0.675
 5990SOL    HW118869   3.870   3.591   0.698
 5990SOL    HW218870   3.732   3.519   0.649
 5991SOL     OW18871   3.736   5.374   6.664
 5991SOL    HW118872   3.755   5.288   6.616
 5991SOL    HW218873   3.820   5.406   6.708
 5992SOL     OW18874   3.739   0.449   2.115
 5992SOL    HW118875   3.826   0.484   2.080
 5992SOL    HW218876   3.675   0.437   2.039
 5993SOL     OW18877   3.918   5.088   6.117
 5993SOL    HW118878   3.920   5.188   6.125
 5993SOL    HW218879   4.005   5.056   6.081
 5994SOL     OW18880   5.813   2.673   2.177
 5994SOL    HW118881   5.725   2.639   2.143
 5994SOL    HW218882   5.796   2.741   2.248
 5995SOL     OW18883   5.045   3.528   2.303
 5995SOL    HW118884   5.084   3.615   2.332
 5995SOL    HW218885   4.961   3.544   2.251
 5996SOL     OW18886   1.188   5.974   1.519
 5996SOL    HW118887   1.243   5.894   1.540
 5996SOL    HW218888   1.131   5.955   1.439
 5997SOL     OW18889   0.323   5.502   2.655
 5997SOL    HW118890   0.264   5.536   2.728
 5997SOL    HW218891   0.268   5.457   2.585
 5998SOL     OW18892   6.039   1.209   3.332
 5998SOL    HW118893   5.951   1.179   3.293
 5998SOL    HW218894   6.039   1.192   3.430
 5999SOL     OW18895   2.074   2.582   1.337
 5999SOL    HW118896   2.063   2.485   1.357
 5999SOL    HW218897   2.144   2.622   1.397
 6000SOL     OW18898   2.759   7.013   0.837
 6000SOL    HW118899   2.789   0.082   0.820
 6000SOL    HW218900   2.817   6.950   0.786
 6001SOL     OW18901   0.516   4.357   6.736
 6001SOL    HW118902   0.537   4.271   6.783
 6001SOL    HW218903   0.438   4.343   6.674
 6002SOL     OW18904   6.166   1.289   0.822
 6002SOL    HW118905   6.091   1.352   0.839
 6002SOL    HW218906   6.245   1.340   0.788
 6003SOL     OW18907   6.190   1.938   4.474
 6003SOL    HW118908   6.285   1.921   4.499
 6003SOL    HW218909   6.176   2.037   4.467
 6004SOL     OW18910   0.013   3.787   2.933
 6004SOL    HW118911   0.084   3.718   2.924
 6004SOL    HW218912   0.055   3.877   2.946
 6005SOL     OW18913   4.684   5.130   3.905
 6005SOL    HW118914   4.734   5.138   3.992
 6005SOL    HW218915   4.690   5.036   3.872
 6006SOL     OW18916   2.614   1.173   5.345
 6006SOL    HW118917   2.572   1.091   5.307
 6006SOL    HW218918   2.552   1.217   5.410
 6007SOL     OW18919   5.301   4.179   5.409
 6007SOL    HW118920   5.378   4.185   5.472
 6007SOL    HW218921   5.315   4.102   5.347
 6008SOL     OW18922   2.287   4.474   5.162
 6008SOL    HW118923   2.297   4.454   5.065
 6008SOL    HW218924   2.361   4.430   5.213
 6009SOL     OW18925   2.277   1.328   3.227
 6009SOL    HW118926   2.289   1.412   3.174
 6009SOL    HW218927   2.185   1.327   3.267
 6010SOL     OW18928   1.244   4.852   4.161
 6010SOL    HW118929   1.151   4.865   4.197
 6010SOL    HW218930   1.296   4.936   4.172
 6011SOL     OW18931   5.180   2.778   3.416
 6011SOL    HW118932   5.175   2.792   3.514
 6011SOL    HW218933   5.087   2.774   3.378
 6012SOL     OW18934   5.824   1.308   0.345
 6012SOL    HW118935   5.873   1.268   0.268
 6012SOL    HW218936   5.759   1.241   0.382
 6013SOL     OW18937   4.992   1.976   2.647
 6013SOL    HW118938   5.084   2.015   2.659
 6013SOL    HW218939   4.929   2.048   2.619
 6014SOL     OW18940   4.093   3.388   2.865
 6014SOL    HW118941   4.112   3.393   2.767
 6014SOL    HW218942   4.087   3.292   2.893
 6015SOL     OW18943   6.362   3.718   4.183
 6015SOL    HW118944   6.273   3.762   4.196
 6015SOL    HW218945   6.401   3.694   4.272
 6016SOL     OW18946   6.752   1.758   5.270
 6016SOL    HW118947   6.820   1.749   5.197
 6016SOL    HW218948   6.684   1.686   5.261
 6017SOL     OW18949   6.819   4.736   3.578
 6017SOL    HW118950   6.891   4.713   3.644
 6017SOL    HW218951   6.746   4.668   3.582
 6018SOL     OW18952   4.476   0.326   6.464
 6018SOL    HW118953   4.519   0.249   6.511
 6018SOL    HW218954   4.405   0.365   6.521
 6019SOL     OW18955   0.021   2.505   4.075
 6019SOL    HW118956   0.060   2.575   4.135
 6019SOL    HW218957   0.043   2.527   3.980
 6020SOL     OW18958   1.075   5.445   0.727
 6020SOL    HW118959   1.152   5.444   0.663
 6020SOL    HW218960   0.993   5.411   0.680
 6021SOL     OW18961   4.400   0.527   3.047
 6021SOL    HW118962   4.316   0.512   2.995
 6021SOL    HW218963   4.473   0.555   2.985
 6022SOL     OW18964   5.451   1.541   4.000
 6022SOL    HW118965   5.400   1.624   4.025
 6022SOL    HW218966   5.548   1.555   4.019
 6023SOL     OW18967   5.809   1.016   1.472
 6023SOL    HW118968   5.798   0.957   1.392
 6023SOL    HW218969   5.720   1.032   1.514
 6024SOL     OW18970   1.680   4.727   2.748
 6024SOL    HW118971   1.688   4.745   2.650
 6024SOL    HW218972   1.768   4.743   2.792
 6025SOL     OW18973   3.655   1.725   3.270
 6025SOL    HW118974   3.562   1.756   3.288
 6025SOL    HW218975   3.720   1.793   3.302
 6026SOL     OW18976   0.104   4.355   5.114
 6026SOL    HW118977   0.154   4.290   5.057
 6026SOL    HW218978   0.035   4.401   5.058
 6027SOL     OW18979   0.332   3.384   5.690
 6027SOL    HW118980   0.249   3.400   5.637
 6027SOL    HW218981   0.320   3.420   5.783
 6028SOL     OW18982   6.566   5.230   0.299
 6028SOL    HW118983   6.631   5.257   0.370
 6028SOL    HW218984   6.493   5.175   0.340
 6029SOL     OW18985   2.480   6.870   4.908
 6029SOL    HW118986   2.479   6.919   4.995
 6029SOL    HW218987   2.396   6.889   4.858
 6030SOL     OW18988   3.964   5.057   2.397
 6030SOL    HW118989   3.866   5.060   2.377
 6030SOL    HW218990   4.010   5.135   2.353
 6031SOL     OW18991   3.033   5.287   3.816
 6031SOL    HW118992   3.113   5.340   3.845
 6031SOL    HW218993   2.951   5.342   3.829
 6032SOL     OW18994   2.192   4.601   2.557
 6032SOL    HW118995   2.094   4.615   2.542
 6032SOL    HW218996   2.212   4.503   2.555
 6033SOL     OW18997   2.752   2.258   2.502
 6033SOL    HW118998   2.681   2.208   2.551
 6033SOL    HW218999   2.724   2.353   2.491
 6034SOL     OW19000   1.404   6.615   5.402
 6034SOL    HW119001   1.383   6.582   5.310
 6034SOL    HW219002   1.451   6.543   5.454
 6035SOL     OW19003   0.158   1.105   2.515
 6035SOL    HW119004   0.187   1.027   2.460
 6035SOL    HW219005   0.073   1.142   2.479
 6036SOL     OW19006   5.259   4.381   3.220
 6036SOL    HW119007   5.333   4.398   3.285
 6036SOL    HW219008   5.181   4.439   3.242
 6037SOL     OW19009   4.459   5.913   0.222
 6037SOL    HW119010   4.420   6.005   0.215
 6037SOL    HW219011   4.396   5.853   0.271
 6038SOL     OW19012   1.819   2.782   5.641
 6038SOL    HW119013   1.733   2.798   5.689
 6038SOL    HW219014   1.801   2.775   5.543
 6039SOL     OW19015   3.098   3.301   2.518
 6039SOL    HW119016   3.118   3.203   2.527
 6039SOL    HW219017   3.064   3.336   2.605
 6040SOL     OW19018   1.043   1.544   0.613
 6040SOL    HW119019   0.983   1.503   0.544
 6040SOL    HW219020   1.125   1.488   0.624
 6041SOL     OW19021   2.934   0.339   4.744
 6041SOL    HW119022   2.952   0.353   4.646
 6041SOL    HW219023   2.876   0.258   4.756
 6042SOL     OW19024   4.421   6.491   2.327
 6042SOL    HW119025   4.515   6.521   2.315
 6042SOL    HW219026   4.420   6.403   2.375
 6043SOL     OW19027   0.944   5.008   5.733
 6043SOL    HW119028   0.923   4.950   5.812
 6043SOL    HW219029   0.860   5.048   5.697
 6044SOL     OW19030   1.311   2.391   1.586
 6044SOL    HW119031   1.340   2.322   1.653
 6044SOL    HW219032   1.370   2.386   1.506
 6045SOL     OW19033   5.747   4.239   2.422
 6045SOL    HW119034   5.698   4.316   2.461
 6045SOL    HW219035   5.682   4.176   2.379
 6046SOL     OW19036   3.689   2.020   6.988
 6046SOL    HW119037   3.758   2.027   6.916
 6046SOL    HW219038   3.663   1.924   7.000
 6047SOL     OW19039   4.927   1.681   1.920
 6047SOL    HW119040   4.877   1.598   1.945
 6047SOL    HW219041   4.864   1.759   1.921
 6048SOL     OW19042   4.778   5.629   5.500
 6048SOL    HW119043   4.777   5.549   5.440
 6048SOL    HW219044   4.709   5.694   5.470
 6049SOL     OW19045   4.944   3.254   0.198
 6049SOL    HW119046   4.970   3.312   0.275
 6049SOL    HW219047   4.872   3.190   0.227
 6050SOL     OW19048   3.966   5.584   5.531
 6050SOL    HW119049   3.994   5.566   5.436
 6050SOL    HW219050   3.940   5.680   5.540
 6051SOL     OW19051   2.272   6.773   3.835
 6051SOL    HW119052   2.362   6.755   3.795
 6051SOL    HW219053   2.237   6.860   3.800
 6052SOL     OW19054   6.266   1.109   0.154
 6052SOL    HW119055   6.272   1.039   0.082
 6052SOL    HW219056   6.358   1.135   0.183
 6053SOL     OW19057   3.684   1.777   6.837
 6053SOL    HW119058   3.723   1.726   6.914
 6053SOL    HW219059   3.758   1.815   6.782
 6054SOL     OW19060   2.248   3.078   0.229
 6054SOL    HW119061   2.301   3.059   0.311
 6054SOL    HW219062   2.155   3.103   0.254
 6055SOL     OW19063   4.821   0.080   4.758
 6055SOL    HW119064   4.771   0.136   4.824
 6055SOL    HW219065   4.899   0.132   4.724
 6056SOL     OW19066   4.895   3.125   4.260
 6056SOL    HW119067   4.935   3.215   4.242
 6056SOL    HW219068   4.852   3.090   4.177
 6057SOL     OW19069   5.957   2.072   3.409
 6057SOL    HW119070   5.945   2.164   3.448
 6057SOL    HW219071   6.047   2.037   3.436
 6058SOL     OW19072   4.628   3.729   1.636
 6058SOL    HW119073   4.647   3.631   1.637
 6058SOL    HW219074   4.666   3.770   1.554
 6059SOL     OW19075   4.855   4.930   5.385
 6059SOL    HW119076   4.793   4.991   5.336
 6059SOL    HW219077   4.926   4.984   5.431
 6060SOL     OW19078   3.036   3.845   6.786
 6060SOL    HW119079   3.062   3.776   6.719
 6060SOL    HW219080   3.105   3.917   6.789
 6061SOL     OW19081   3.474   2.695   0.871
 6061SOL    HW119082   3.476   2.692   0.971
 6061SOL    HW219083   3.501   2.785   0.839
 6062SOL     OW19084   2.644   0.664   5.023
 6062SOL    HW119085   2.662   0.601   4.947
 6062SOL    HW219086   2.691   0.751   5.006
 6063SOL     OW19087   4.169   3.088   5.871
 6063SOL    HW119088   4.135   3.078   5.778
 6063SOL    HW219089   4.098   3.127   5.929
 6064SOL     OW19090   1.645   6.164   0.994
 6064SOL    HW119091   1.553   6.124   0.995
 6064SOL    HW219092   1.713   6.091   0.985
 6065SOL     OW19093   0.109   6.831   2.473
 6065SOL    HW119094   0.077   6.833   2.378
 6065SOL    HW219095   0.072   6.909   2.522
 6066SOL     OW19096   4.866   1.530   5.818
 6066SOL    HW119097   4.944   1.574   5.772
 6066SOL    HW219098   4.883   1.530   5.917
 6067SOL     OW19099   5.751   0.762   5.419
 6067SOL    HW119100   5.747   0.818   5.502
 6067SOL    HW219101   5.681   0.792   5.355
 6068SOL     OW19102   5.206   3.192   4.527
 6068SOL    HW119103   5.150   3.132   4.472
 6068SOL    HW219104   5.185   3.287   4.505
 6069SOL     OW19105   6.256   3.580   5.500
 6069SOL    HW119106   6.197   3.533   5.566
 6069SOL    HW219107   6.241   3.542   5.409
 6070SOL     OW19108   3.106   2.173   0.906
 6070SOL    HW119109   3.032   2.114   0.873
 6070SOL    HW219110   3.127   2.149   1.001
 6071SOL     OW19111   5.314   5.563   3.991
 6071SOL    HW119112   5.323   5.487   3.927
 6071SOL    HW219113   5.405   5.600   4.011
 6072SOL     OW19114   6.938   0.421   1.542
 6072SOL    HW119115   6.917   0.444   1.447
 6072SOL    HW219116   6.935   0.321   1.553
 6073SOL     OW19117   6.103   2.984   6.834
 6073SOL    HW119118   6.020   2.944   6.875
 6073SOL    HW219119   6.127   2.934   6.751
 6074SOL     OW19120   0.796   6.350   3.037
 6074SOL    HW119121   0.766   6.382   2.947
 6074SOL    HW219122   0.863   6.276   3.026
 6075SOL     OW19123   6.304   0.938   6.019
 6075SOL    HW119124   6.279   0.844   6.042
 6075SOL    HW219125   6.341   0.941   5.926
 6076SOL     OW19126   3.585   5.552   4.112
 6076SOL    HW119127   3.610   5.461   4.145
 6076SOL    HW219128   3.648   5.620   4.151
 6077SOL     OW19129   5.973   5.878   0.913
 6077SOL    HW119130   6.073   5.883   0.915
 6077SOL    HW219131   5.936   5.965   0.947
 6078SOL     OW19132   4.793   4.884   0.354
 6078SOL    HW119133   4.712   4.870   0.412
 6078SOL    HW219134   4.868   4.827   0.388
 6079SOL     OW19135   4.286   3.955   5.904
 6079SOL    HW119136   4.221   3.880   5.901
 6079SOL    HW219137   4.275   4.006   5.990
 6080SOL     OW19138   0.467   6.908   1.524
 6080SOL    HW119139   0.447   6.948   1.613
 6080SOL    HW219140   0.383   6.875   1.482
 6081SOL     OW19141   6.813   2.913   5.381
 6081SOL    HW119142   6.907   2.888   5.404
 6081SOL    HW219143   6.779   2.981   5.446
 6082SOL     OW19144   2.079   1.096   3.876
 6082SOL    HW119145   2.094   1.020   3.813
 6082SOL    HW219146   1.981   1.110   3.888
 6083SOL     OW19147   6.280   5.557   6.664
 6083SOL    HW119148   6.224   5.598   6.736
 6083SOL    HW219149   6.278   5.457   6.674
 6084SOL     OW19150   0.782   6.738   3.777
 6084SOL    HW119151   0.781   6.797   3.696
 6084SOL    HW219152   0.738   6.786   3.853
 6085SOL     OW19153   0.228   5.586   0.403
 6085SOL    HW119154   0.305   5.529   0.433
 6085SOL    HW219155   0.259   5.679   0.387
 6086SOL     OW19156   3.953   0.695   5.965
 6086SOL    HW119157   3.961   0.726   5.870
 6086SOL    HW219158   4.017   0.746   6.023
 6087SOL     OW19159   3.584   5.343   0.991
 6087SOL    HW119160   3.558   5.300   1.077
 6087SOL    HW219161   3.504   5.388   0.951
 6088SOL     OW19162   5.128   5.793   3.964
 6088SOL    HW119163   5.194   5.720   3.949
 6088SOL    HW219164   5.171   5.882   3.948
 6089SOL     OW19165   5.033   3.207   1.682
 6089SOL    HW119166   5.041   3.258   1.596
 6089SOL    HW219167   5.032   3.109   1.663
 6090SOL     OW19168   1.818   5.745   5.188
 6090SOL    HW119169   1.773   5.682   5.250
 6090SOL    HW219170   1.917   5.742   5.202
 6091SOL     OW19171   1.953   1.150   0.141
 6091SOL    HW119172   1.928   1.101   0.225
 6091SOL    HW219173   2.035   1.107   0.101
 6092SOL     OW19174   4.286   6.860   2.750
 6092SOL    HW119175   4.276   6.955   2.780
 6092SOL    HW219176   4.383   6.837   2.745
 6093SOL     OW19177   1.855   3.493   2.069
 6093SOL    HW119178   1.847   3.393   2.065
 6093SOL    HW219179   1.948   3.520   2.043
 6094SOL     OW19180   2.438   6.916   1.816
 6094SOL    HW119181   2.435   6.993   1.880
 6094SOL    HW219182   2.400   6.835   1.861
 6095SOL     OW19183   5.281   3.886   0.259
 6095SOL    HW119184   5.318   3.812   0.202
 6095SOL    HW219185   5.242   3.957   0.200
 6096SOL     OW19186   6.218   6.579   4.060
 6096SOL    HW119187   6.122   6.555   4.076
 6096SOL    HW219188   6.264   6.505   4.012
 6097SOL     OW19189   2.192   6.237   2.190
 6097SOL    HW119190   2.182   6.216   2.288
 6097SOL    HW219191   2.266   6.303   2.178
 6098SOL     OW19192   1.846   1.913   5.382
 6098SOL    HW119193   1.929   1.969   5.383
 6098SOL    HW219194   1.767   1.973   5.369
 6099SOL     OW19195   5.924   6.497   0.104
 6099SOL    HW119196   6.008   6.548   0.116
 6099SOL    HW219197   5.857   6.553   0.056
 6100SOL     OW19198   5.327   5.714   0.613
 6100SOL    HW119199   5.319   5.784   0.684
 6100SOL    HW219200   5.307   5.754   0.524
 6101SOL     OW19201   6.527   2.867   3.715
 6101SOL    HW119202   6.459   2.887   3.644
 6101SOL    HW219203   6.517   2.932   3.791
 6102SOL     OW19204   3.456   6.551   3.105
 6102SOL    HW119205   3.481   6.469   3.054
 6102SOL    HW219206   3.529   6.619   3.097
 6103SOL     OW19207   6.527   1.814   1.976
 6103SOL    HW119208   6.596   1.758   1.931
 6103SOL    HW219209   6.436   1.779   1.955
 6104SOL     OW19210   6.481   0.646   5.301
 6104SOL    HW119211   6.432   0.705   5.364
 6104SOL    HW219212   6.442   0.654   5.210
 6105SOL     OW19213   3.144   6.566   6.452
 6105SOL    HW119214   3.184   6.651   6.416
 6105SOL    HW219215   3.203   6.529   6.523
 6106SOL     OW19216   1.490   4.115   6.715
 6106SOL    HW119217   1.440   4.036   6.679
 6106SOL    HW219218   1.583   4.087   6.739
 6107SOL     OW19219   3.841   5.435   4.325
 6107SOL    HW119220   3.817   5.338   4.336
 6107SOL    HW219221   3.812   5.485   4.407
 6108SOL     OW19222   1.832   3.212   2.093
 6108SOL    HW119223   1.836   3.171   2.184
 6108SOL    HW219224   1.780   3.151   2.032
 6109SOL     OW19225   5.811   2.308   4.980
 6109SOL    HW119226   5.712   2.307   4.997
 6109SOL    HW219227   5.831   2.261   4.894
 6110SOL     OW19228   4.012   4.179   0.739
 6110SOL    HW119229   3.953   4.167   0.659
 6110SOL    HW219230   4.107   4.182   0.710
 6111SOL     OW19231   1.923   4.064   2.308
 6111SOL    HW119232   1.951   3.974   2.342
 6111SOL    HW219233   1.885   4.118   2.383
 6112SOL     OW19234   4.102   0.189   2.611
 6112SOL    HW119235   4.047   0.203   2.693
 6112SOL    HW219236   4.112   0.091   2.593
 6113SOL     OW19237   2.503   0.994   6.692
 6113SOL    HW119238   2.454   0.917   6.732
 6113SOL    HW219239   2.442   1.073   6.689
 6114SOL     OW19240   4.852   5.464   1.241
 6114SOL    HW119241   4.791   5.456   1.163
 6114SOL    HW219242   4.945   5.484   1.209
 6115SOL     OW19243   5.351   6.655   4.171
 6115SOL    HW119244   5.304   6.703   4.097
 6115SOL    HW219245   5.443   6.630   4.141
 6116SOL     OW19246   3.598   1.052   6.199
 6116SOL    HW119247   3.530   1.060   6.272
 6116SOL    HW219248   3.670   0.988   6.226
 6117SOL     OW19249   1.598   1.263   3.917
 6117SOL    HW119250   1.517   1.210   3.891
 6117SOL    HW219251   1.570   1.352   3.951
 6118SOL     OW19252   6.818   0.960   2.351
 6118SOL    HW119253   6.845   0.934   2.259
 6118SOL    HW219254   6.854   0.894   2.417
 6119SOL     OW19255   0.703   3.941   6.221
 6119SOL    HW119256   0.616   3.922   6.267
 6119SOL    HW219257   0.749   4.016   6.267
 6120SOL     OW19258   3.534   6.492   4.975
 6120SOL    HW119259   3.440   6.457   4.983
 6120SOL    HW219260   3.553   6.555   5.051
 6121SOL     OW19261   0.584   3.450   5.410
 6121SOL    HW119262   0.668   3.402   5.387
 6121SOL    HW219263   0.604   3.546   5.430
 6122SOL     OW19264   3.902   5.110   0.764
 6122SOL    HW119265   3.817   5.060   0.748
 6122SOL    HW219266   3.978   5.046   0.769
 6123SOL     OW19267   5.452   0.041   6.896
 6123SOL    HW119268   5.399   6.985   6.871
 6123SOL    HW219269   5.546   0.030   6.866
 6124SOL     OW19270   2.329   7.019   6.335
 6124SOL    HW119271   2.367   6.932   6.304
 6124SOL    HW219272   2.246   7.003   6.389
 6125SOL     OW19273   1.717   5.065   0.508
 6125SOL    HW119274   1.740   5.016   0.592
 6125SOL    HW219275   1.676   5.153   0.532
 6126SOL     OW19276   1.074   6.910   4.573
 6126SOL    HW119277   1.087   6.858   4.658
 6126SOL    HW219278   1.022   6.993   4.592
 6127SOL     OW19279   3.484   0.120   0.820
 6127SOL    HW119280   3.470   0.191   0.889
 6127SOL    HW219281   3.462   0.031   0.859
 6128SOL     OW19282   5.909   4.002   0.881
 6128SOL    HW119283   6.000   4.031   0.911
 6128SOL    HW219284   5.918   3.952   0.794
 6129SOL     OW19285   6.915   3.338   3.153
 6129SOL    HW119286   6.875   3.268   3.212
 6129SOL    HW219287   6.858   3.420   3.153
 6130SOL     OW19288   6.173   2.469   3.693
 6130SOL    HW119289   6.174   2.569   3.704
 6130SOL    HW219290   6.261   2.431   3.719
 6131SOL     OW19291   0.497   1.403   5.240
 6131SOL    HW119292   0.519   1.418   5.336
 6131SOL    HW219293   0.460   1.311   5.228
 6132SOL     OW19294   4.906   2.608   6.815
 6132SOL    HW119295   5.000   2.630   6.792
 6132SOL    HW219296   4.859   2.572   6.734
 6133SOL     OW19297   1.816   3.022   1.884
 6133SOL    HW119298   1.803   3.097   1.819
 6133SOL    HW219299   1.729   2.977   1.901
 6134SOL     OW19300   3.849   4.508   6.601
 6134SOL    HW119301   3.919   4.553   6.656
 6134SOL    HW219302   3.874   4.412   6.587
 6135SOL     OW19303   0.621   0.746   1.808
 6135SOL    HW119304   0.637   0.707   1.898
 6135SOL    HW219305   0.683   0.703   1.742
 6136SOL     OW19306   1.053   2.787   2.282
 6136SOL    HW119307   0.959   2.751   2.280
 6136SOL    HW219308   1.112   2.728   2.226
 6137SOL     OW19309   6.365   2.947   2.569
 6137SOL    HW119310   6.417   2.901   2.641
 6137SOL    HW219311   6.427   2.977   2.497
 6138SOL     OW19312   3.608   6.289   2.963
 6138SOL    HW119313   3.565   6.202   2.990
 6138SOL    HW219314   3.702   6.272   2.934
 6139SOL     OW19315   1.214   6.969   5.898
 6139SOL    HW119316   1.267   6.890   5.928
 6139SOL    HW219317   1.179   6.953   5.806
 6140SOL     OW19318   0.496   6.052   1.604
 6140SOL    HW119319   0.433   6.015   1.673
 6140SOL    HW219320   0.513   6.149   1.625
 6141SOL     OW19321   0.242   6.737   6.579
 6141SOL    HW119322   0.213   6.664   6.642
 6141SOL    HW219323   0.185   6.735   6.497
 6142SOL     OW19324   1.187   6.317   0.094
 6142SOL    HW119325   1.211   6.259   0.016
 6142SOL    HW219326   1.194   6.413   0.068
 6143SOL     OW19327   6.740   3.589   1.372
 6143SOL    HW119328   6.671   3.528   1.333
 6143SOL    HW219329   6.830   3.548   1.362
 6144SOL     OW19330   5.776   4.743   3.154
 6144SOL    HW119331   5.774   4.652   3.196
 6144SOL    HW219332   5.862   4.754   3.104
 6145SOL     OW19333   4.852   4.972   3.022
 6145SOL    HW119334   4.821   5.032   3.095
 6145SOL    HW219335   4.822   4.878   3.040
 6146SOL     OW19336   3.198   5.699   3.774
 6146SOL    HW119337   3.214   5.619   3.716
 6146SOL    HW219338   3.242   5.684   3.863
 6147SOL     OW19339   2.280   2.133   4.640
 6147SOL    HW119340   2.224   2.050   4.640
 6147SOL    HW219341   2.373   2.109   4.669
 6148SOL     OW19342   5.748   6.517   4.395
 6148SOL    HW119343   5.707   6.562   4.475
 6148SOL    HW219344   5.696   6.541   4.313
 6149SOL     OW19345   2.585   5.779   0.771
 6149SOL    HW119346   2.636   5.783   0.857
 6149SOL    HW219347   2.529   5.696   0.769
 6150SOL     OW19348   4.414   5.834   6.975
 6150SOL    HW119349   4.494   5.808   6.922
 6150SOL    HW219350   4.442   5.865   0.041
 6151SOL     OW19351   5.777   4.246   6.216
 6151SOL    HW119352   5.809   4.331   6.174
 6151SOL    HW219353   5.768   4.175   6.145
 6152SOL     OW19354   6.168   5.199   4.461
 6152SOL    HW119355   6.171   5.253   4.377
 6152SOL    HW219356   6.257   5.154   4.475
 6153SOL     OW19357   5.085   4.771   1.406
 6153SOL    HW119358   5.011   4.786   1.340
 6153SOL    HW219359   5.069   4.827   1.487
 6154SOL     OW19360   5.952   1.992   2.557
 6154SOL    HW119361   5.939   2.091   2.558
 6154SOL    HW219362   5.875   1.949   2.509
 6155SOL     OW19363   1.708   1.650   4.043
 6155SOL    HW119364   1.639   1.579   4.031
 6155SOL    HW219365   1.731   1.689   3.953
 6156SOL     OW19366   4.018   4.537   1.125
 6156SOL    HW119367   4.025   4.453   1.180
 6156SOL    HW219368   3.938   4.589   1.155
 6157SOL     OW19369   0.231   0.638   4.999
 6157SOL    HW119370   0.299   0.602   4.935
 6157SOL    HW219371   0.140   0.633   4.957
 6158SOL     OW19372   3.433   1.857   5.630
 6158SOL    HW119373   3.530   1.848   5.652
 6158SOL    HW219374   3.421   1.929   5.562
 6159SOL     OW19375   5.126   2.780   2.213
 6159SOL    HW119376   5.067   2.848   2.169
 6159SOL    HW219377   5.148   2.809   2.306
 6160SOL     OW19378   4.875   1.538   6.098
 6160SOL    HW119379   4.912   1.630   6.114
 6160SOL    HW219380   4.795   1.524   6.156
 6161SOL     OW19381   4.560   1.747   5.415
 6161SOL    HW119382   4.564   1.765   5.317
 6161SOL    HW219383   4.479   1.790   5.454
 6162SOL     OW19384   1.061   6.148   3.525
 6162SOL    HW119385   0.979   6.116   3.572
 6162SOL    HW219386   1.062   6.113   3.432
 6163SOL     OW19387   5.999   0.015   0.880
 6163SOL    HW119388   6.046   0.075   0.946
 6163SOL    HW219389   5.981   0.066   0.796
 6164SOL     OW19390   3.978   3.539   2.192
 6164SOL    HW119391   3.954   3.444   2.210
 6164SOL    HW219392   4.030   3.575   2.269
 6165SOL     OW19393   4.549   1.365   0.067
 6165SOL    HW119394   4.578   1.304   7.018
 6165SOL    HW219395   4.535   1.312   0.150
 6166SOL     OW19396   5.182   1.217   6.265
 6166SOL    HW119397   5.167   1.127   6.225
 6166SOL    HW219398   5.264   1.214   6.322
 6167SOL     OW19399   1.292   5.158   3.583
 6167SOL    HW119400   1.388   5.132   3.568
 6167SOL    HW219401   1.260   5.213   3.505
 6168SOL     OW19402   1.072   4.699   1.791
 6168SOL    HW119403   1.155   4.754   1.790
 6168SOL    HW219404   1.055   4.662   1.700
 6169SOL     OW19405   1.109   1.990   1.119
 6169SOL    HW119406   1.145   1.918   1.179
 6169SOL    HW219407   1.075   2.065   1.175
 6170SOL     OW19408   0.698   4.046   5.879
 6170SOL    HW119409   0.678   4.024   5.974
 6170SOL    HW219410   0.708   3.962   5.827
 6171SOL     OW19411   0.788   2.883   0.914
 6171SOL    HW119412   0.762   2.851   1.005
 6171SOL    HW219413   0.822   2.805   0.860
 6172SOL     OW19414   1.909   2.839   2.693
 6172SOL    HW119415   1.951   2.779   2.761
 6172SOL    HW219416   1.813   2.813   2.680
 6173SOL     OW19417   6.594   5.638   1.341
 6173SOL    HW119418   6.553   5.671   1.426
 6173SOL    HW219419   6.595   5.538   1.340
 6174SOL     OW19420   5.521   5.093   2.817
 6174SOL    HW119421   5.453   5.028   2.783
 6174SOL    HW219422   5.579   5.048   2.885
 6175SOL     OW19423   4.379   0.553   3.593
 6175SOL    HW119424   4.407   0.547   3.497
 6175SOL    HW219425   4.425   0.482   3.646
 6176SOL     OW19426   4.990   4.079   6.153
 6176SOL    HW119427   4.993   4.061   6.055
 6176SOL    HW219428   4.916   4.026   6.195
 6177SOL     OW19429   5.811   1.370   0.771
 6177SOL    HW119430   5.851   1.436   0.834
 6177SOL    HW219431   5.870   1.360   0.691
 6178SOL     OW19432   4.743   4.829   2.418
 6178SOL    HW119433   4.793   4.863   2.498
 6178SOL    HW219434   4.649   4.807   2.444
 6179SOL     OW19435   6.186   4.633   2.865
 6179SOL    HW119436   6.127   4.556   2.886
 6179SOL    HW219437   6.142   4.692   2.798
 6180SOL     OW19438   3.283   4.149   0.258
 6180SOL    HW119439   3.269   4.067   0.202
 6180SOL    HW219440   3.200   4.169   0.309
 6181SOL     OW19441   4.180   6.601   1.067
 6181SOL    HW119442   4.175   6.577   0.970
 6181SOL    HW219443   4.190   6.700   1.076
 6182SOL     OW19444   5.468   3.769   5.462
 6182SOL    HW119445   5.419   3.825   5.395
 6182SOL    HW219446   5.440   3.796   5.554
 6183SOL     OW19447   1.108   2.267   3.167
 6183SOL    HW119448   1.065   2.349   3.206
 6183SOL    HW219449   1.147   2.212   3.241
 6184SOL     OW19450   2.430   0.185   6.626
 6184SOL    HW119451   2.417   0.116   6.554
 6184SOL    HW219452   2.365   0.260   6.612
 6185SOL     OW19453   0.796   3.531   5.672
 6185SOL    HW119454   0.870   3.523   5.740
 6185SOL    HW219455   0.733   3.454   5.684
 6186SOL     OW19456   0.284   0.127   0.194
 6186SOL    HW119457   0.196   0.096   0.157
 6186SOL    HW219458   0.352   0.126   0.122
 6187SOL     OW19459   5.000   4.243   3.772
 6187SOL    HW119460   5.065   4.263   3.845
 6187SOL    HW219461   4.912   4.217   3.812
 6188SOL     OW19462   2.200   1.029   0.095
 6188SOL    HW119463   2.240   1.115   0.126
 6188SOL    HW219464   2.221   1.015   7.023
 6189SOL     OW19465   4.573   4.478   2.868
 6189SOL    HW119466   4.588   4.439   2.777
 6189SOL    HW219467   4.572   4.405   2.936
 6190SOL     OW19468   0.959   4.240   5.140
 6190SOL    HW119469   0.981   4.147   5.171
 6190SOL    HW219470   0.912   4.290   5.213
 6191SOL     OW19471   3.014   1.854   0.020
 6191SOL    HW119472   3.001   1.932   0.082
 6191SOL    HW219473   2.937   1.792   0.030
 6192SOL     OW19474   3.248   2.792   5.541
 6192SOL    HW119475   3.203   2.734   5.609
 6192SOL    HW219476   3.211   2.774   5.451
 6193SOL     OW19477   4.759   0.262   1.813
 6193SOL    HW119478   4.801   0.339   1.861
 6193SOL    HW219479   4.747   0.284   1.717
 6194SOL     OW19480   1.735   0.255   1.227
 6194SOL    HW119481   1.684   0.281   1.145
 6194SOL    HW219482   1.740   0.156   1.234
 6195SOL     OW19483   4.144   6.021   5.470
 6195SOL    HW119484   4.214   6.027   5.541
 6195SOL    HW219485   4.054   6.032   5.511
 6196SOL     OW19486   5.405   3.231   1.580
 6196SOL    HW119487   5.355   3.206   1.662
 6196SOL    HW219488   5.411   3.152   1.519
 6197SOL     OW19489   3.476   4.591   0.766
 6197SOL    HW119490   3.549   4.559   0.827
 6197SOL    HW219491   3.491   4.555   0.674
 6198SOL     OW19492   4.060   6.810   1.355
 6198SOL    HW119493   4.152   6.772   1.356
 6198SOL    HW219494   4.057   6.889   1.293
 6199SOL     OW19495   0.658   1.277   0.611
 6199SOL    HW119496   0.736   1.216   0.592
 6199SOL    HW219497   0.613   1.300   0.525
 6200SOL     OW19498   1.092   1.252   5.563
 6200SOL    HW119499   1.170   1.311   5.543
 6200SOL    HW219500   1.117   1.185   5.632
 6201SOL     OW19501   0.211   4.126   4.973
 6201SOL    HW119502   0.144   4.058   4.947
 6201SOL    HW219503   0.259   4.160   4.892
 6202SOL     OW19504   4.088   1.195   2.255
 6202SOL    HW119505   3.993   1.198   2.285
 6202SOL    HW219506   4.098   1.249   2.171
 6203SOL     OW19507   6.815   5.549   2.380
 6203SOL    HW119508   6.908   5.532   2.412
 6203SOL    HW219509   6.768   5.607   2.446
 6204SOL     OW19510   0.067   5.192   4.188
 6204SOL    HW119511   0.153   5.142   4.197
 6204SOL    HW219512   0.046   5.239   4.275
 6205SOL     OW19513   6.358   5.473   6.977
 6205SOL    HW119514   6.347   5.400   6.910
 6205SOL    HW219515   6.435   5.531   6.951
 6206SOL     OW19516   5.388   1.704   3.349
 6206SOL    HW119517   5.447   1.683   3.271
 6206SOL    HW219518   5.371   1.802   3.353
 6207SOL     OW19519   0.637   5.082   5.144
 6207SOL    HW119520   0.664   5.179   5.143
 6207SOL    HW219521   0.690   5.034   5.214
 6208SOL     OW19522   5.182   2.216   5.478
 6208SOL    HW119523   5.158   2.295   5.422
 6208SOL    HW219524   5.221   2.144   5.421
 6209SOL     OW19525   3.998   5.973   6.772
 6209SOL    HW119526   4.094   5.949   6.761
 6209SOL    HW219527   3.966   6.021   6.691
 6210SOL     OW19528   5.590   3.752   4.123
 6210SOL    HW119529   5.600   3.657   4.153
 6210SOL    HW219530   5.607   3.813   4.201
 6211SOL     OW19531   2.955   6.426   5.702
 6211SOL    HW119532   2.999   6.488   5.767
 6211SOL    HW219533   3.004   6.428   5.615
 6212SOL     OW19534   2.500   5.045   4.516
 6212SOL    HW119535   2.524   5.035   4.419
 6212SOL    HW219536   2.406   5.013   4.531
 6213SOL     OW19537   6.622   0.841   0.592
 6213SOL    HW119538   6.579   0.923   0.631
 6213SOL    HW219539   6.674   0.867   0.511
 6214SOL     OW19540   4.395   5.390   3.922
 6214SOL    HW119541   4.448   5.372   4.005
 6214SOL    HW219542   4.407   5.315   3.858
 6215SOL     OW19543   4.415   2.236   0.002
 6215SOL    HW119544   4.321   2.203   7.024
 6215SOL    HW219545   4.426   2.313   6.965
 6216SOL     OW19546   6.434   1.180   2.244
 6216SOL    HW119547   6.385   1.235   2.177
 6216SOL    HW219548   6.473   1.239   2.314
 6217SOL     OW19549   0.651   3.588   2.498
 6217SOL    HW119550   0.571   3.529   2.503
 6217SOL    HW219551   0.631   3.675   2.543
 6218SOL     OW19552   3.865   6.195   6.872
 6218SOL    HW119553   3.770   6.201   6.841
 6218SOL    HW219554   3.905   6.109   6.840
 6219SOL     OW19555   1.652   1.988   4.698
 6219SOL    HW119556   1.672   2.061   4.633
 6219SOL    HW219557   1.720   1.990   4.771
 6220SOL     OW19558   2.646   1.358   4.521
 6220SOL    HW119559   2.667   1.343   4.424
 6220SOL    HW219560   2.727   1.338   4.575
 6221SOL     OW19561   5.677   5.928   0.429
 6221SOL    HW119562   5.715   5.961   0.343
 6221SOL    HW219563   5.741   5.948   0.504
 6222SOL     OW19564   1.148   6.474   1.719
 6222SOL    HW119565   1.107   6.388   1.689
 6222SOL    HW219566   1.245   6.461   1.736
 6223SOL     OW19567   1.767   4.986   3.722
 6223SOL    HW119568   1.830   4.923   3.676
 6223SOL    HW219569   1.812   5.025   3.802
 6224SOL     OW19570   3.352   1.357   5.926
 6224SOL    HW119571   3.343   1.266   5.968
 6224SOL    HW219572   3.323   1.427   5.991
 6225SOL     OW19573   4.218   3.285   6.138
 6225SOL    HW119574   4.298   3.237   6.174
 6225SOL    HW219575   4.248   3.363   6.083
 6226SOL     OW19576   0.059   1.746   5.441
 6226SOL    HW119577   0.132   1.722   5.505
 6226SOL    HW219578   7.012   1.677   5.447
 6227SOL     OW19579   3.382   5.402   5.190
 6227SOL    HW119580   3.333   5.324   5.227
 6227SOL    HW219581   3.471   5.410   5.234
 6228SOL     OW19582   0.825   3.599   2.170
 6228SOL    HW119583   0.858   3.557   2.085
 6228SOL    HW219584   0.787   3.529   2.230
 6229SOL     OW19585   1.187   1.774   3.967
 6229SOL    HW119586   1.127   1.854   3.958
 6229SOL    HW219587   1.237   1.762   3.881
 6230SOL     OW19588   1.011   1.999   4.001
 6230SOL    HW119589   1.038   2.079   3.948
 6230SOL    HW219590   1.014   2.020   4.098
 6231SOL     OW19591   6.415   6.496   0.542
 6231SOL    HW119592   6.346   6.459   0.480
 6231SOL    HW219593   6.371   6.552   0.612
 6232SOL     OW19594   6.386   1.277   1.012
 6232SOL    HW119595   6.422   1.197   1.060
 6232SOL    HW219596   6.304   1.251   0.961
 6233SOL     OW19597   6.516   1.810   1.343
 6233SOL    HW119598   6.590   1.760   1.297
 6233SOL    HW219599   6.509   1.779   1.438
 6234SOL     OW19600   0.039   0.809   5.262
 6234SOL    HW119601   0.117   0.749   5.279
 6234SOL    HW219602   0.069   0.887   5.207
 6235SOL     OW19603   0.347   6.917   1.152
 6235SOL    HW119604   0.311   6.824   1.157
 6235SOL    HW219605   0.299   6.975   1.218
 6236SOL     OW19606   0.814   4.169   1.303
 6236SOL    HW119607   0.841   4.116   1.383
 6236SOL    HW219608   0.833   4.116   1.220
 6237SOL     OW19609   3.992   0.411   6.310
 6237SOL    HW119610   3.998   0.413   6.210
 6237SOL    HW219611   3.925   0.479   6.341
 6238SOL     OW19612   4.226   5.262   2.855
 6238SOL    HW119613   4.130   5.285   2.871
 6238SOL    HW219614   4.264   5.218   2.936
 6239SOL     OW19615   3.112   0.868   1.592
 6239SOL    HW119616   3.145   0.781   1.629
 6239SOL    HW219617   3.170   0.896   1.515
 6240SOL     OW19618   2.400   3.960   5.576
 6240SOL    HW119619   2.329   3.889   5.571
 6240SOL    HW219620   2.440   3.973   5.486
 6241SOL     OW19621   2.931   0.328   1.516
 6241SOL    HW119622   2.974   0.246   1.552
 6241SOL    HW219623   2.913   0.315   1.418
 6242SOL     OW19624   4.026   0.499   3.943
 6242SOL    HW119625   4.121   0.530   3.950
 6242SOL    HW219626   4.022   0.399   3.949
 6243SOL     OW19627   6.662   6.673   5.193
 6243SOL    HW119628   6.753   6.702   5.163
 6243SOL    HW219629   6.607   6.754   5.216
 6244SOL     OW19630   5.874   2.417   2.805
 6244SOL    HW119631   5.811   2.342   2.782
 6244SOL    HW219632   5.958   2.406   2.753
 6245SOL     OW19633   1.730   3.687   0.383
 6245SOL    HW119634   1.814   3.638   0.404
 6245SOL    HW219635   1.737   3.729   0.293
 6246SOL     OW19636   1.273   2.261   5.682
 6246SOL    HW119637   1.249   2.170   5.716
 6246SOL    HW219638   1.289   2.257   5.584
 6247SOL     OW19639   0.611   5.582   3.988
 6247SOL    HW119640   0.528   5.573   3.933
 6247SOL    HW219641   0.621   5.503   4.048
 6248SOL     OW19642   3.372   3.327   0.045
 6248SOL    HW119643   3.278   3.293   0.048
 6248SOL    HW219644   3.436   3.252   0.063
 6249SOL     OW19645   7.006   4.217   0.495
 6249SOL    HW119646   0.068   4.223   0.544
 6249SOL    HW219647   7.019   4.167   0.410
 6250SOL     OW19648   6.733   0.680   0.859
 6250SOL    HW119649   6.716   0.729   0.773
 6250SOL    HW219650   6.831   0.681   0.879
 6251SOL     OW19651   3.895   6.084   5.619
 6251SOL    HW119652   3.891   6.166   5.676
 6251SOL    HW219653   3.813   6.079   5.561
 6252SOL     OW19654   2.252   5.945   5.466
 6252SOL    HW119655   2.257   6.034   5.421
 6252SOL    HW219656   2.277   5.954   5.562
 6253SOL     OW19657   2.831   5.132   4.132
 6253SOL    HW119658   2.905   5.136   4.199
 6253SOL    HW219659   2.754   5.081   4.170
 6254SOL     OW19660   5.548   1.479   1.671
 6254SOL    HW119661   5.528   1.544   1.598
 6254SOL    HW219662   5.521   1.387   1.642
 6255SOL     OW19663   2.715   0.698   0.407
 6255SOL    HW119664   2.692   0.662   0.498
 6255SOL    HW219665   2.810   0.727   0.405
 6256SOL     OW19666   3.474   5.203   1.480
 6256SOL    HW119667   3.496   5.298   1.502
 6256SOL    HW219668   3.508   5.143   1.552
 6257SOL     OW19669   4.786   2.458   0.871
 6257SOL    HW119670   4.689   2.435   0.877
 6257SOL    HW219671   4.836   2.381   0.831
 6258SOL     OW19672   2.837   0.900   3.533
 6258SOL    HW119673   2.920   0.914   3.480
 6258SOL    HW219674   2.782   0.984   3.532
 6259SOL     OW19675   1.782   2.738   7.006
 6259SOL    HW119676   1.878   2.751   6.983
 6259SOL    HW219677   1.746   2.822   0.021
 6260SOL     OW19678   3.725   5.973   0.681
 6260SOL    HW119679   3.743   6.031   0.601
 6260SOL    HW219680   3.665   6.022   0.744
 6261SOL     OW19681   4.017   1.445   6.842
 6261SOL    HW119682   3.937   1.445   6.901
 6261SOL    HW219683   4.060   1.536   6.843
 6262SOL     OW19684   2.446   6.153   1.612
 6262SOL    HW119685   2.367   6.210   1.593
 6262SOL    HW219686   2.480   6.171   1.704
 6263SOL     OW19687   0.116   6.772   4.042
 6263SOL    HW119688   0.125   6.792   4.140
 6263SOL    HW219689   0.175   6.695   4.019
 6264SOL     OW19690   1.907   0.426   1.872
 6264SOL    HW119691   2.005   0.445   1.880
 6264SOL    HW219692   1.856   0.512   1.865
 6265SOL     OW19693   3.695   3.674   0.188
 6265SOL    HW119694   3.692   3.574   0.184
 6265SOL    HW219695   3.725   3.709   0.099
 6266SOL     OW19696   4.179   1.195   3.722
 6266SOL    HW119697   4.197   1.118   3.784
 6266SOL    HW219698   4.266   1.239   3.698
 6267SOL     OW19699   2.304   6.957   5.585
 6267SOL    HW119700   2.289   0.008   5.522
 6267SOL    HW219701   2.302   6.991   5.679
 6268SOL     OW19702   2.753   0.547   3.120
 6268SOL    HW119703   2.667   0.535   3.071
 6268SOL    HW219704   2.742   0.617   3.190
 6269SOL     OW19705   0.282   6.862   2.048
 6269SOL    HW119706   0.235   6.867   1.960
 6269SOL    HW219707   0.260   6.942   2.103
 6270SOL     OW19708   1.443   0.541   6.399
 6270SOL    HW119709   1.469   0.444   6.393
 6270SOL    HW219710   1.368   0.559   6.336
 6271SOL     OW19711   6.110   2.828   6.199
 6271SOL    HW119712   6.047   2.819   6.276
 6271SOL    HW219713   6.070   2.784   6.118
 6272SOL     OW19714   0.623   2.749   0.250
 6272SOL    HW119715   0.716   2.713   0.256
 6272SOL    HW219716   0.609   2.789   0.160
 6273SOL     OW19717   0.839   6.278   2.644
 6273SOL    HW119718   0.816   6.281   2.547
 6273SOL    HW219719   0.829   6.370   2.683
 6274SOL     OW19720   3.356   6.116   5.510
 6274SOL    HW119721   3.273   6.128   5.564
 6274SOL    HW219722   3.334   6.126   5.413
 6275SOL     OW19723   2.207   6.725   6.536
 6275SOL    HW119724   2.147   6.803   6.514
 6275SOL    HW219725   2.301   6.757   6.543
 6276SOL     OW19726   2.119   4.713   3.853
 6276SOL    HW119727   2.182   4.684   3.925
 6276SOL    HW219728   2.138   4.662   3.769
 6277SOL     OW19729   5.039   3.030   0.988
 6277SOL    HW119730   5.023   3.013   0.890
 6277SOL    HW219731   4.952   3.022   1.038
 6278SOL     OW19732   5.330   6.927   4.563
 6278SOL    HW119733   5.274   6.895   4.639
 6278SOL    HW219734   5.272   6.971   4.495
 6279SOL     OW19735   3.829   6.581   0.096
 6279SOL    HW119736   3.849   6.486   0.071
 6279SOL    HW219737   3.814   6.586   0.195
 6280SOL     OW19738   0.878   1.409   6.100
 6280SOL    HW119739   0.819   1.333   6.127
 6280SOL    HW219740   0.917   1.391   6.010
 6281SOL     OW19741   0.290   5.042   4.207
 6281SOL    HW119742   0.350   4.966   4.181
 6281SOL    HW219743   0.340   5.106   4.265
 6282SOL     OW19744   6.992   5.334   5.834
 6282SOL    HW119745   6.950   5.363   5.920
 6282SOL    HW219746   6.920   5.309   5.769
 6283SOL     OW19747   6.903   3.783   4.635
 6283SOL    HW119748   6.922   3.812   4.542
 6283SOL    HW219749   6.985   3.742   4.675
 6284SOL     OW19750   1.423   4.912   5.025
 6284SOL    HW119751   1.485   4.839   4.995
 6284SOL    HW219752   1.468   5.000   5.013
 6285SOL     OW19753   0.116   3.399   4.255
 6285SOL    HW119754   0.171   3.360   4.329
 6285SOL    HW219755   0.059   3.328   4.214
 6286SOL     OW19756   6.236   2.109   4.106
 6286SOL    HW119757   6.312   2.075   4.163
 6286SOL    HW219758   6.161   2.138   4.165
 6287SOL     OW19759   3.432   4.958   4.756
 6287SOL    HW119760   3.420   5.057   4.755
 6287SOL    HW219761   3.442   4.924   4.662
 6288SOL     OW19762   4.904   4.648   2.208
 6288SOL    HW119763   4.859   4.608   2.129
 6288SOL    HW219764   4.876   4.743   2.218
 6289SOL     OW19765   2.469   4.732   0.323
 6289SOL    HW119766   2.460   4.824   0.361
 6289SOL    HW219767   2.471   4.666   0.398
 6290SOL     OW19768   6.357   5.039   5.637
 6290SOL    HW119769   6.435   5.097   5.660
 6290SOL    HW219770   6.305   5.018   5.720
 6291SOL     OW19771   4.057   3.542   4.014
 6291SOL    HW119772   4.072   3.571   3.919
 6291SOL    HW219773   3.958   3.539   4.031
 6292SOL     OW19774   1.822   1.624   4.752
 6292SOL    HW119775   1.740   1.667   4.712
 6292SOL    HW219776   1.849   1.674   4.834
 6293SOL     OW19777   4.534   1.283   0.965
 6293SOL    HW119778   4.525   1.186   0.942
 6293SOL    HW219779   4.444   1.326   0.963
 6294SOL     OW19780   3.671   6.789   4.302
 6294SOL    HW119781   3.698   6.873   4.255
 6294SOL    HW219782   3.674   6.713   4.237
 6295SOL     OW19783   5.363   4.576   4.820
 6295SOL    HW119784   5.418   4.493   4.810
 6295SOL    HW219785   5.293   4.578   4.749
 6296SOL     OW19786   0.077   5.921   5.934
 6296SOL    HW119787   7.011   5.926   5.893
 6296SOL    HW219788   0.146   5.934   5.863
 6297SOL     OW19789   5.446   0.573   5.172
 6297SOL    HW119790   5.501   0.649   5.137
 6297SOL    HW219791   5.359   0.570   5.122
 6298SOL     OW19792   1.243   3.514   0.220
 6298SOL    HW119793   1.165   3.492   0.277
 6298SOL    HW219794   1.272   3.608   0.236
 6299SOL     OW19795   6.448   2.203   1.900
 6299SOL    HW119796   6.357   2.167   1.923
 6299SOL    HW219797   6.507   2.127   1.871
 6300SOL     OW19798   0.077   1.627   0.037
 6300SOL    HW119799   0.080   1.693   0.112
 6300SOL    HW219800   0.170   1.613   0.002
 6301SOL     OW19801   3.836   0.258   0.005
 6301SOL    HW119802   3.762   0.276   6.966
 6301SOL    HW219803   3.920   0.238   6.981
 6302SOL     OW19804   1.524   0.786   3.769
 6302SOL    HW119805   1.517   0.728   3.851
 6302SOL    HW219806   1.598   0.852   3.781
 6303SOL     OW19807   1.266   0.860   4.361
 6303SOL    HW119808   1.296   0.948   4.399
 6303SOL    HW219809   1.168   0.865   4.339
 6304SOL     OW19810   2.501   0.899   1.232
 6304SOL    HW119811   2.503   0.986   1.281
 6304SOL    HW219812   2.413   0.890   1.185
 6305SOL     OW19813   5.910   6.777   0.776
 6305SOL    HW119814   5.952   6.860   0.813
 6305SOL    HW219815   5.976   6.729   0.718
 6306SOL     OW19816   0.173   4.249   4.565
 6306SOL    HW119817   0.168   4.289   4.657
 6306SOL    HW219818   0.241   4.299   4.511
 6307SOL     OW19819   3.608   4.085   4.654
 6307SOL    HW119820   3.693   4.070   4.602
 6307SOL    HW219821   3.547   4.143   4.600
 6308SOL     OW19822   2.193   2.171   4.390
 6308SOL    HW119823   2.272   2.206   4.340
 6308SOL    HW219824   2.220   2.147   4.483
 6309SOL     OW19825   6.224   5.056   4.712
 6309SOL    HW119826   6.205   5.153   4.700
 6309SOL    HW219827   6.252   5.016   4.624
 6310SOL     OW19828   2.052   5.771   2.762
 6310SOL    HW119829   2.059   5.747   2.858
 6310SOL    HW219830   1.987   5.847   2.751
 6311SOL     OW19831   5.570   1.494   5.615
 6311SOL    HW119832   5.585   1.523   5.709
 6311SOL    HW219833   5.647   1.436   5.585
 6312SOL     OW19834   0.035   6.515   5.478
 6312SOL    HW119835   0.038   6.611   5.449
 6312SOL    HW219836   7.016   6.460   5.408
 6313SOL     OW19837   0.182   6.109   3.837
 6313SOL    HW119838   0.182   6.134   3.934
 6313SOL    HW219839   0.255   6.043   3.820
 6314SOL     OW19840   4.140   0.241   1.442
 6314SOL    HW119841   4.064   0.304   1.428
 6314SOL    HW219842   4.120   0.180   1.519
 6315SOL     OW19843   2.652   2.370   5.483
 6315SOL    HW119844   2.635   2.378   5.581
 6315SOL    HW219845   2.731   2.311   5.468
 6316SOL     OW19846   5.179   1.924   6.550
 6316SOL    HW119847   5.144   2.017   6.560
 6316SOL    HW219848   5.234   1.918   6.467
 6317SOL     OW19849   4.834   5.124   1.556
 6317SOL    HW119850   4.747   5.087   1.521
 6317SOL    HW219851   4.856   5.209   1.508
 6318SOL     OW19852   4.469   6.974   5.832
 6318SOL    HW119853   4.486   6.949   5.927
 6318SOL    HW219854   4.466   0.048   5.823
 6319SOL     OW19855   6.503   2.028   5.028
 6319SOL    HW119856   6.538   2.079   5.106
 6319SOL    HW219857   6.491   1.932   5.053
 6320SOL     OW19858   6.364   6.369   5.167
 6320SOL    HW119859   6.380   6.283   5.119
 6320SOL    HW219860   6.343   6.441   5.101
 6321SOL     OW19861   4.064   3.948   0.862
 6321SOL    HW119862   4.151   3.900   0.868
 6321SOL    HW219863   4.078   4.037   0.818
 6322SOL     OW19864   1.390   2.770   0.728
 6322SOL    HW119865   1.486   2.770   0.753
 6322SOL    HW219866   1.334   2.775   0.811
 6323SOL     OW19867   2.380   2.213   1.379
 6323SOL    HW119868   2.472   2.252   1.368
 6323SOL    HW219869   2.379   2.153   1.460
 6324SOL     OW19870   4.873   1.234   0.812
 6324SOL    HW119871   4.866   1.231   0.911
 6324SOL    HW219872   4.929   1.312   0.784
 6325SOL     OW19873   1.631   3.194   2.588
 6325SOL    HW119874   1.590   3.177   2.499
 6325SOL    HW219875   1.570   3.159   2.660
 6326SOL     OW19876   5.329   5.115   1.434
 6326SOL    HW119877   5.332   5.171   1.351
 6326SOL    HW219878   5.331   5.018   1.409
 6327SOL     OW19879   0.815   1.258   5.147
 6327SOL    HW119880   0.836   1.217   5.059
 6327SOL    HW219881   0.850   1.200   5.220
 6328SOL     OW19882   3.377   3.385   0.346
 6328SOL    HW119883   3.416   3.386   0.253
 6328SOL    HW219884   3.334   3.473   0.365
 6329SOL     OW19885   1.799   2.771   3.045
 6329SOL    HW119886   1.861   2.770   3.123
 6329SOL    HW219887   1.748   2.857   3.043
 6330SOL     OW19888   5.892   0.195   1.609
 6330SOL    HW119889   5.967   0.132   1.627
 6330SOL    HW219890   5.842   0.166   1.528
 6331SOL     OW19891   6.333   2.766   5.130
 6331SOL    HW119892   6.407   2.802   5.073
 6331SOL    HW219893   6.255   2.742   5.073
 6332SOL     OW19894   0.368   2.762   0.946
 6332SOL    HW119895   0.293   2.746   0.883
 6332SOL    HW219896   0.332   2.801   1.031
 6333SOL     OW19897   4.695   6.695   5.194
 6333SOL    HW119898   4.695   6.598   5.220
 6333SOL    HW219899   4.602   6.722   5.169
 6334SOL     OW19900   2.510   1.269   2.376
 6334SOL    HW119901   2.576   1.309   2.439
 6334SOL    HW219902   2.426   1.324   2.376
 6335SOL     OW19903   4.306   0.841   0.492
 6335SOL    HW119904   4.226   0.879   0.445
 6335SOL    HW219905   4.281   0.754   0.535
 6336SOL     OW19906   1.533   2.509   6.978
 6336SOL    HW119907   1.484   2.564   0.021
 6336SOL    HW219908   1.618   2.555   6.953
 6337SOL     OW19909   4.633   5.166   5.002
 6337SOL    HW119910   4.635   5.073   4.965
 6337SOL    HW219911   4.556   5.217   4.963
 6338SOL     OW19912   3.034   2.158   3.788
 6338SOL    HW119913   3.114   2.157   3.848
 6338SOL    HW219914   2.963   2.216   3.828
 6339SOL     OW19915   0.972   4.139   3.606
 6339SOL    HW119916   1.031   4.173   3.532
 6339SOL    HW219917   0.878   4.129   3.572
 6340SOL     OW19918   1.475   5.034   1.586
 6340SOL    HW119919   1.483   5.067   1.492
 6340SOL    HW219920   1.379   5.016   1.606
 6341SOL     OW19921   6.670   4.070   4.514
 6341SOL    HW119922   6.578   4.036   4.491
 6341SOL    HW219923   6.686   4.058   4.612
 6342SOL     OW19924   2.734   0.849   1.891
 6342SOL    HW119925   2.710   0.938   1.929
 6342SOL    HW219926   2.779   0.861   1.802
 6343SOL     OW19927   4.582   1.408   5.952
 6343SOL    HW119928   4.678   1.417   5.924
 6343SOL    HW219929   4.527   1.381   5.873
 6344SOL     OW19930   4.799   2.054   4.572
 6344SOL    HW119931   4.728   2.107   4.620
 6344SOL    HW219932   4.793   2.075   4.474
 6345SOL     OW19933   5.566   2.987   2.723
 6345SOL    HW119934   5.638   2.945   2.780
 6345SOL    HW219935   5.485   2.929   2.723
 6346SOL     OW19936   6.878   5.639   4.073
 6346SOL    HW119937   6.939   5.702   4.120
 6346SOL    HW219938   6.914   5.619   3.982
 6347SOL     OW19939   2.206   0.815   1.224
 6347SOL    HW119940   2.277   0.775   1.166
 6347SOL    HW219941   2.125   0.836   1.169
 6348SOL     OW19942   1.527   2.873   5.830
 6348SOL    HW119943   1.441   2.824   5.844
 6348SOL    HW219944   1.597   2.835   5.891
 6349SOL     OW19945   2.137   0.521   1.245
 6349SOL    HW119946   2.192   0.561   1.319
 6349SOL    HW219947   2.108   0.429   1.271
 6350SOL     OW19948   0.721   4.991   4.139
 6350SOL    HW119949   0.716   5.069   4.076
 6350SOL    HW219950   0.812   4.987   4.179
 6351SOL     OW19951   5.881   3.248   3.656
 6351SOL    HW119952   5.884   3.179   3.583
 6351SOL    HW219953   5.952   3.228   3.724
 6352SOL     OW19954   3.179   6.757   4.817
 6352SOL    HW119955   3.138   6.848   4.829
 6352SOL    HW219956   3.249   6.761   4.746
 6353SOL     OW19957   1.127   6.526   6.049
 6353SOL    HW119958   1.183   6.446   6.066
 6353SOL    HW219959   1.125   6.584   6.131
 6354SOL     OW19960   3.036   5.088   3.396
 6354SOL    HW119961   3.052   5.002   3.347
 6354SOL    HW219962   3.089   5.089   3.480
 6355SOL     OW19963   1.658   5.305   6.925
 6355SOL    HW119964   1.709   5.387   6.896
 6355SOL    HW219965   1.564   5.312   6.894
 6356SOL     OW19966   4.667   6.030   1.649
 6356SOL    HW119967   4.610   5.954   1.681
 6356SOL    HW219968   4.695   6.013   1.554
 6357SOL     OW19969   6.486   3.791   2.689
 6357SOL    HW119970   6.576   3.780   2.646
 6357SOL    HW219971   6.466   3.710   2.745
 6358SOL     OW19972   0.365   1.954   6.796
 6358SOL    HW119973   0.449   1.959   6.741
 6358SOL    HW219974   0.292   1.914   6.741
 6359SOL     OW19975   6.412   0.627   0.468
 6359SOL    HW119976   6.503   0.634   0.508
 6359SOL    HW219977   6.409   0.679   0.383
 6360SOL     OW19978   1.259   4.196   4.844
 6360SOL    HW119979   1.247   4.253   4.763
 6360SOL    HW219980   1.356   4.191   4.868
 6361SOL     OW19981   1.445   6.764   0.870
 6361SOL    HW119982   1.363   6.783   0.817
 6361SOL    HW219983   1.419   6.720   0.956
 6362SOL     OW19984   0.211   5.759   6.991
 6362SOL    HW119985   0.172   5.850   6.974
 6362SOL    HW219986   0.157   5.691   6.943
 6363SOL     OW19987   2.373   5.331   3.658
 6363SOL    HW119988   2.382   5.245   3.708
 6363SOL    HW219989   2.297   5.384   3.695
 6364SOL     OW19990   2.433   1.794   5.616
 6364SOL    HW119991   2.419   1.872   5.555
 6364SOL    HW219992   2.419   1.823   5.710
 6365SOL     OW19993   5.458   6.964   4.028
 6365SOL    HW119994   5.365   6.980   3.997
 6365SOL    HW219995   5.480   0.002   4.102
 6366SOL     OW19996   0.563   5.551   5.250
 6366SOL    HW119997   0.533   5.606   5.172
 6366SOL    HW219998   0.489   5.490   5.279
 6367SOL     OW19999   4.128   1.200   4.584
 6367SOL    HW120000   4.189   1.268   4.544
 6367SOL    HW220001   4.052   1.246   4.630
 6368SOL     OW20002   3.630   4.918   3.588
 6368SOL    HW120003   3.594   5.004   3.553
 6368SOL    HW220004   3.611   4.845   3.522
 6369SOL     OW20005   2.626   6.948   4.291
 6369SOL    HW120006   2.681   7.012   4.237
 6369SOL    HW220007   2.562   7.000   4.348
 6370SOL     OW20008   0.211   2.724   3.336
 6370SOL    HW120009   0.278   2.797   3.351
 6370SOL    HW220010   0.120   2.763   3.332
 6371SOL     OW20011   5.080   4.769   3.062
 6371SOL    HW120012   5.123   4.710   2.994
 6371SOL    HW220013   5.026   4.840   3.017
 6372SOL     OW20014   1.909   1.300   1.363
 6372SOL    HW120015   1.854   1.379   1.391
 6372SOL    HW220016   1.952   1.319   1.275
 6373SOL     OW20017   4.286   4.746   2.418
 6373SOL    HW120018   4.192   4.776   2.435
 6373SOL    HW220019   4.284   4.651   2.385
 6374SOL     OW20020   3.853   3.543   2.883
 6374SOL    HW120021   3.930   3.480   2.872
 6374SOL    HW220022   3.887   3.637   2.877
 6375SOL     OW20023   0.140   1.638   3.103
 6375SOL    HW120024   0.090   1.704   3.047
 6375SOL    HW220025   0.140   1.670   3.198
 6376SOL     OW20026   5.166   2.440   5.297
 6376SOL    HW120027   5.225   2.506   5.343
 6376SOL    HW220028   5.083   2.486   5.265
 6377SOL     OW20029   0.395   1.169   5.147
 6377SOL    HW120030   0.402   1.151   5.049
 6377SOL    HW220031   0.389   1.082   5.197
 6378SOL     OW20032   4.657   4.231   3.653
 6378SOL    HW120033   4.646   4.241   3.752
 6378SOL    HW220034   4.574   4.262   3.607
 6379SOL     OW20035   1.644   4.117   4.716
 6379SOL    HW120036   1.646   4.017   4.712
 6379SOL    HW220037   1.737   4.151   4.732
 6380SOL     OW20038   0.640   1.651   4.981
 6380SOL    HW120039   0.735   1.643   4.951
 6380SOL    HW220040   0.599   1.560   4.986
 6381SOL     OW20041   3.904   2.965   1.446
 6381SOL    HW120042   3.925   2.868   1.438
 6381SOL    HW220043   3.807   2.978   1.464
 6382SOL     OW20044   2.843   1.604   0.661
 6382SOL    HW120045   2.902   1.669   0.614
 6382SOL    HW220046   2.830   1.523   0.604
 6383SOL     OW20047   2.274   2.434   3.041
 6383SOL    HW120048   2.315   2.459   2.953
 6383SOL    HW220049   2.327   2.475   3.115
 6384SOL     OW20050   6.036   3.823   3.123
 6384SOL    HW120051   6.131   3.832   3.094
 6384SOL    HW220052   6.016   3.889   3.196
 6385SOL     OW20053   6.975   3.991   3.361
 6385SOL    HW120054   6.952   3.916   3.424
 6385SOL    HW220055   0.033   4.036   3.392
 6386SOL     OW20056   1.904   3.603   6.476
 6386SOL    HW120057   1.946   3.516   6.503
 6386SOL    HW220058   1.975   3.674   6.472
 6387SOL     OW20059   6.423   1.786   6.264
 6387SOL    HW120060   6.510   1.824   6.233
 6387SOL    HW220061   6.425   1.776   6.363
 6388SOL     OW20062   4.126   6.815   1.899
 6388SOL    HW120063   4.133   6.915   1.908
 6388SOL    HW220064   4.217   6.775   1.898
 6389SOL     OW20065   0.025   5.732   1.965
 6389SOL    HW120066   6.986   5.681   2.023
 6389SOL    HW220067   7.000   5.789   1.901
 6390SOL     OW20068   0.713   0.828   5.868
 6390SOL    HW120069   0.624   0.794   5.837
 6390SOL    HW220070   0.700   0.913   5.919
 6391SOL     OW20071   2.238   0.158   5.786
 6391SOL    HW120072   2.290   0.243   5.792
 6391SOL    HW220073   2.149   0.176   5.744
 6392SOL     OW20074   2.513   5.697   2.858
 6392SOL    HW120075   2.593   5.745   2.894
 6392SOL    HW220076   2.469   5.752   2.787
 6393SOL     OW20077   0.390   5.929   1.816
 6393SOL    HW120078   0.371   5.939   1.914
 6393SOL    HW220079   0.344   5.848   1.781
 6394SOL     OW20080   2.483   5.274   0.475
 6394SOL    HW120081   2.464   5.369   0.449
 6394SOL    HW220082   2.409   5.215   0.443
 6395SOL     OW20083   0.064   2.683   1.560
 6395SOL    HW120084   0.018   2.648   1.478
 6395SOL    HW220085   0.080   2.781   1.548
 6396SOL     OW20086   5.343   3.390   6.769
 6396SOL    HW120087   5.438   3.410   6.747
 6396SOL    HW220088   5.292   3.476   6.778
 6397SOL     OW20089   5.778   1.295   1.333
 6397SOL    HW120090   5.782   1.201   1.367
 6397SOL    HW220091   5.843   1.352   1.385
 6398SOL     OW20092   2.918   6.831   1.577
 6398SOL    HW120093   2.921   6.767   1.653
 6398SOL    HW220094   2.939   6.783   1.492
 6399SOL     OW20095   1.800   6.735   6.706
 6399SOL    HW120096   1.785   6.832   6.686
 6399SOL    HW220097   1.785   6.681   6.623
 6400SOL     OW20098   2.765   5.364   1.879
 6400SOL    HW120099   2.694   5.344   1.811
 6400SOL    HW220100   2.824   5.283   1.890
 6401SOL     OW20101   5.428   6.008   3.574
 6401SOL    HW120102   5.332   5.981   3.569
 6401SOL    HW220103   5.443   6.089   3.517
 6402SOL     OW20104   2.698   2.372   2.921
 6402SOL    HW120105   2.653   2.450   2.877
 6402SOL    HW220106   2.631   2.299   2.936
 6403SOL     OW20107   0.089   5.143   6.410
 6403SOL    HW120108   7.024   5.124   6.373
 6403SOL    HW220109   0.128   5.223   6.364
 6404SOL     OW20110   4.184   0.644   2.648
 6404SOL    HW120111   4.228   0.569   2.696
 6404SOL    HW220112   4.089   0.620   2.627
 6405SOL     OW20113   3.362   0.146   4.072
 6405SOL    HW120114   3.299   0.156   3.995
 6405SOL    HW220115   3.413   0.061   4.062
 6406SOL     OW20116   0.553   2.925   2.776
 6406SOL    HW120117   0.464   2.968   2.791
 6406SOL    HW220118   0.610   2.935   2.858
 6407SOL     OW20119   2.738   6.858   3.801
 6407SOL    HW120120   2.809   6.872   3.731
 6407SOL    HW220121   2.781   6.820   3.883
 6408SOL     OW20122   5.416   1.348   0.484
 6408SOL    HW120123   5.423   1.365   0.385
 6408SOL    HW220124   5.388   1.253   0.499
 6409SOL     OW20125   6.312   4.383   3.584
 6409SOL    HW120126   6.272   4.449   3.647
 6409SOL    HW220127   6.276   4.398   3.492
 6410SOL     OW20128   1.954   1.418   6.335
 6410SOL    HW120129   1.906   1.397   6.420
 6410SOL    HW220130   2.025   1.487   6.354
 6411SOL     OW20131   0.725   2.898   3.268
 6411SOL    HW120132   0.678   2.945   3.193
 6411SOL    HW220133   0.662   2.832   3.310
 6412SOL     OW20134   1.250   2.215   4.590
 6412SOL    HW120135   1.249   2.136   4.652
 6412SOL    HW220136   1.213   2.295   4.638
 6413SOL     OW20137   3.950   4.888   3.655
 6413SOL    HW120138   3.884   4.853   3.722
 6413SOL    HW220139   3.918   4.867   3.563
 6414SOL     OW20140   6.035   1.237   0.080
 6414SOL    HW120141   6.105   1.171   0.108
 6414SOL    HW220142   6.063   1.329   0.109
 6415SOL     OW20143   2.163   3.207   3.046
 6415SOL    HW120144   2.086   3.222   3.108
 6415SOL    HW220145   2.192   3.295   3.006
 6416SOL     OW20146   1.084   0.941   6.797
 6416SOL    HW120147   1.159   0.878   6.818
 6416SOL    HW220148   1.076   1.008   6.871
 6417SOL     OW20149   5.680   5.110   0.755
 6417SOL    HW120150   5.706   5.066   0.669
 6417SOL    HW220151   5.642   5.041   0.817
 6418SOL     OW20152   4.883   3.584   2.094
 6418SOL    HW120153   4.829   3.545   2.020
 6418SOL    HW220154   4.959   3.637   2.057
 6419SOL     OW20155   1.308   4.645   3.038
 6419SOL    HW120156   1.343   4.585   3.109
 6419SOL    HW220157   1.209   4.642   3.037
 6420SOL     OW20158   2.630   6.076   4.028
 6420SOL    HW120159   2.647   5.979   4.015
 6420SOL    HW220160   2.575   6.110   3.951
 6421SOL     OW20161   4.920   0.003   2.700
 6421SOL    HW120162   5.007   0.051   2.702
 6421SOL    HW220163   4.924   6.955   2.632
 6422SOL     OW20164   0.023   1.215   4.727
 6422SOL    HW120165   0.014   1.302   4.678
 6422SOL    HW220166   6.986   1.214   4.805
 6423SOL     OW20167   5.043   5.181   3.270
 6423SOL    HW120168   4.944   5.165   3.274
 6423SOL    HW220169   5.071   5.188   3.174
 6424SOL     OW20170   6.996   4.973   5.486
 6424SOL    HW120171   6.949   4.887   5.506
 6424SOL    HW220172   7.007   4.982   5.387
 6425SOL     OW20173   6.494   5.801   3.293
 6425SOL    HW120174   6.480   5.797   3.194
 6425SOL    HW220175   6.406   5.802   3.339
 6426SOL     OW20176   1.325   5.021   3.232
 6426SOL    HW120177   1.367   5.088   3.293
 6426SOL    HW220178   1.254   4.971   3.282
 6427SOL     OW20179   3.369   4.179   4.500
 6427SOL    HW120180   3.371   4.173   4.600
 6427SOL    HW220181   3.275   4.166   4.468
 6428SOL     OW20182   5.948   3.653   5.982
 6428SOL    HW120183   5.854   3.638   5.953
 6428SOL    HW220184   5.952   3.657   6.082
 6429SOL     OW20185   0.705   2.060   5.803
 6429SOL    HW120186   0.610   2.076   5.776
 6429SOL    HW220187   0.755   2.018   5.728
 6430SOL     OW20188   5.923   1.157   3.609
 6430SOL    HW120189   5.848   1.093   3.621
 6430SOL    HW220190   5.891   1.250   3.624
 6431SOL     OW20191   4.892   6.635   4.011
 6431SOL    HW120192   4.891   6.644   4.111
 6431SOL    HW220193   4.809   6.677   3.973
 6432SOL     OW20194   4.555   4.674   6.006
 6432SOL    HW120195   4.460   4.649   6.024
 6432SOL    HW220196   4.616   4.613   6.056
 6433SOL     OW20197   1.549   5.453   5.730
 6433SOL    HW120198   1.602   5.374   5.763
 6433SOL    HW220199   1.529   5.513   5.807
 6434SOL     OW20200   2.521   5.175   6.280
 6434SOL    HW120201   2.505   5.077   6.267
 6434SOL    HW220202   2.476   5.225   6.206
 6435SOL     OW20203   5.197   6.493   0.955
 6435SOL    HW120204   5.243   6.575   0.922
 6435SOL    HW220205   5.197   6.424   0.883
 6436SOL     OW20206   1.274   2.888   2.836
 6436SOL    HW120207   1.189   2.852   2.798
 6436SOL    HW220208   1.316   2.950   2.770
 6437SOL     OW20209   2.369   1.212   0.520
 6437SOL    HW120210   2.301   1.139   0.512
 6437SOL    HW220211   2.457   1.172   0.546
 6438SOL     OW20212   6.353   4.379   5.457
 6438SOL    HW120213   6.429   4.415   5.404
 6438SOL    HW220214   6.269   4.383   5.403
 6439SOL     OW20215   5.631   1.395   2.008
 6439SOL    HW120216   5.649   1.482   1.962
 6439SOL    HW220217   5.566   1.342   1.953
 6440SOL     OW20218   2.247   1.542   6.339
 6440SOL    HW120219   2.160   1.587   6.360
 6440SOL    HW220220   2.302   1.601   6.281
 6441SOL     OW20221   0.002   6.825   2.219
 6441SOL    HW120222   6.963   6.749   2.226
 6441SOL    HW220223   7.004   6.882   2.141
 6442SOL     OW20224   2.635   1.334   4.248
 6442SOL    HW120225   2.685   1.260   4.203
 6442SOL    HW220226   2.537   1.320   4.238
 6443SOL     OW20227   3.841   2.325   5.492
 6443SOL    HW120228   3.824   2.235   5.532
 6443SOL    HW220229   3.768   2.346   5.427
 6444SOL     OW20230   5.196   3.136   4.872
 6444SOL    HW120231   5.149   3.080   4.802
 6444SOL    HW220232   5.130   3.198   4.914
 6445SOL     OW20233   3.703   2.946   5.049
 6445SOL    HW120234   3.635   2.904   4.989
 6445SOL    HW220235   3.664   3.027   5.092
 6446SOL     OW20236   1.156   1.148   6.990
 6446SOL    HW120237   1.213   1.076   0.005
 6446SOL    HW220238   1.174   1.235   0.011
 6447SOL     OW20239   5.507   4.805   3.920
 6447SOL    HW120240   5.554   4.894   3.923
 6447SOL    HW220241   5.414   4.818   3.886
 6448SOL     OW20242   4.324   5.832   1.895
 6448SOL    HW120243   4.232   5.852   1.929
 6448SOL    HW220244   4.350   5.739   1.922
 6449SOL     OW20245   3.386   6.138   1.157
 6449SOL    HW120246   3.449   6.065   1.184
 6449SOL    HW220247   3.438   6.219   1.131
 6450SOL     OW20248   0.922   3.959   1.478
 6450SOL    HW120249   0.848   3.917   1.425
 6450SOL    HW220250   1.003   3.900   1.474
 6451SOL     OW20251   2.365   0.533   5.014
 6451SOL    HW120252   2.322   0.457   4.965
 6451SOL    HW220253   2.390   0.503   5.106
 6452SOL     OW20254   4.582   5.359   3.280
 6452SOL    HW120255   4.619   5.387   3.369
 6452SOL    HW220256   4.487   5.390   3.273
 6453SOL     OW20257   2.565   6.631   1.809
 6453SOL    HW120258   2.479   6.624   1.859
 6453SOL    HW220259   2.564   6.569   1.731
 6454SOL     OW20260   0.749   2.350   3.129
 6454SOL    HW120261   0.816   2.423   3.139
 6454SOL    HW220262   0.713   2.325   3.219
 6455SOL     OW20263   6.802   3.395   4.178
 6455SOL    HW120264   6.848   3.349   4.102
 6455SOL    HW220265   6.703   3.393   4.164
 6456SOL     OW20266   1.501   0.784   3.479
 6456SOL    HW120267   1.496   0.884   3.481
 6456SOL    HW220268   1.501   0.749   3.572
 6457SOL     OW20269   4.976   1.712   1.482
 6457SOL    HW120270   4.917   1.764   1.421
 6457SOL    HW220271   5.034   1.774   1.535
 6458SOL     OW20272   1.071   5.963   4.629
 6458SOL    HW120273   0.983   5.957   4.580
 6458SOL    HW220274   1.128   6.032   4.585
 6459SOL     OW20275   6.440   2.837   1.225
 6459SOL    HW120276   6.431   2.861   1.128
 6459SOL    HW220277   6.369   2.770   1.249
 6460SOL     OW20278   5.544   6.239   6.285
 6460SOL    HW120279   5.447   6.263   6.288
 6460SOL    HW220280   5.580   6.256   6.193
 6461SOL     OW20281   2.226   4.092   6.340
 6461SOL    HW120282   2.218   4.182   6.299
 6461SOL    HW220283   2.175   4.090   6.426
 6462SOL     OW20284   2.465   2.628   4.382
 6462SOL    HW120285   2.481   2.572   4.300
 6462SOL    HW220286   2.500   2.579   4.462
 6463SOL     OW20287   6.147   2.442   0.091
 6463SOL    HW120288   6.175   2.437   0.187
 6463SOL    HW220289   6.098   2.527   0.075
 6464SOL     OW20290   1.146   5.216   4.923
 6464SOL    HW120291   1.052   5.219   4.888
 6464SOL    HW220292   1.153   5.145   4.993
 6465SOL     OW20293   6.891   2.956   2.795
 6465SOL    HW120294   6.907   3.054   2.796
 6465SOL    HW220295   6.849   2.927   2.881
 6466SOL     OW20296   0.658   0.969   6.099
 6466SOL    HW120297   0.711   1.047   6.133
 6466SOL    HW220298   0.565   0.974   6.136
 6467SOL     OW20299   3.894   1.624   0.258
 6467SOL    HW120300   3.930   1.694   0.319
 6467SOL    HW220301   3.953   1.544   0.260
 6468SOL     OW20302   2.840   6.780   0.707
 6468SOL    HW120303   2.908   6.712   0.733
 6468SOL    HW220304   2.873   6.831   0.628
 6469SOL     OW20305   4.243   1.736   3.873
 6469SOL    HW120306   4.188   1.666   3.827
 6469SOL    HW220307   4.250   1.817   3.814
 6470SOL     OW20308   6.103   2.887   1.016
 6470SOL    HW120309   6.100   2.789   0.995
 6470SOL    HW220310   6.080   2.939   0.934
 6471SOL     OW20311   6.797   6.562   6.166
 6471SOL    HW120312   6.818   6.648   6.213
 6471SOL    HW220313   6.854   6.555   6.083
 6472SOL     OW20314   0.233   5.770   2.133
 6472SOL    HW120315   0.161   5.758   2.065
 6472SOL    HW220316   0.264   5.680   2.165
 6473SOL     OW20317   3.186   1.863   4.455
 6473SOL    HW120318   3.268   1.918   4.438
 6473SOL    HW220319   3.189   1.825   4.547
 6474SOL     OW20320   3.006   4.926   5.938
 6474SOL    HW120321   3.099   4.925   5.973
 6474SOL    HW220322   2.992   5.009   5.884
 6475SOL     OW20323   5.635   5.031   3.868
 6475SOL    HW120324   5.616   5.006   3.773
 6475SOL    HW220325   5.697   5.110   3.869
 6476SOL     OW20326   4.578   3.598   0.943
 6476SOL    HW120327   4.582   3.510   0.989
 6476SOL    HW220328   4.551   3.584   0.847
 6477SOL     OW20329   5.939   4.606   0.955
 6477SOL    HW120330   5.926   4.546   1.034
 6477SOL    HW220331   5.857   4.660   0.940
 6478SOL     OW20332   3.498   0.482   1.966
 6478SOL    HW120333   3.514   0.519   1.874
 6478SOL    HW220334   3.437   0.403   1.960
 6479SOL     OW20335   4.540   5.107   3.465
 6479SOL    HW120336   4.532   5.194   3.416
 6479SOL    HW220337   4.542   5.032   3.399
 6480SOL     OW20338   2.962   0.942   6.866
 6480SOL    HW120339   2.930   0.989   6.948
 6480SOL    HW220340   3.030   0.873   6.892
 6481SOL     OW20341   3.783   2.010   2.198
 6481SOL    HW120342   3.726   1.928   2.186
 6481SOL    HW220343   3.742   2.085   2.147
 6482SOL     OW20344   6.665   1.149   5.670
 6482SOL    HW120345   6.601   1.217   5.706
 6482SOL    HW220346   6.664   1.068   5.728
 6483SOL     OW20347   1.048   6.495   2.826
 6483SOL    HW120348   1.063   6.454   2.735
 6483SOL    HW220349   0.991   6.577   2.816
 6484SOL     OW20350   3.189   0.168   0.962
 6484SOL    HW120351   3.177   0.250   0.907
 6484SOL    HW220352   3.105   0.148   1.012
 6485SOL     OW20353   2.354   5.049   3.700
 6485SOL    HW120354   2.296   4.997   3.762
 6485SOL    HW220355   2.442   5.068   3.744
 6486SOL     OW20356   1.706   4.185   3.444
 6486SOL    HW120357   1.712   4.200   3.345
 6486SOL    HW220358   1.724   4.271   3.492
 6487SOL     OW20359   0.504   6.696   5.073
 6487SOL    HW120360   0.578   6.750   5.035
 6487SOL    HW220361   0.531   6.599   5.075
 6488SOL     OW20362   3.727   5.898   4.617
 6488SOL    HW120363   3.779   5.817   4.644
 6488SOL    HW220364   3.634   5.871   4.591
 6489SOL     OW20365   2.954   3.098   5.969
 6489SOL    HW120366   3.023   3.034   6.003
 6489SOL    HW220367   2.947   3.176   6.032
 6490SOL     OW20368   3.799   1.177   7.020
 6490SOL    HW120369   3.851   1.124   6.952
 6490SOL    HW220370   3.739   1.242   6.973
 6491SOL     OW20371   4.108   0.956   0.737
 6491SOL    HW120372   4.206   0.974   0.729
 6491SOL    HW220373   4.061   0.998   0.659
 6492SOL     OW20374   4.068   4.555   6.779
 6492SOL    HW120375   3.996   4.574   6.846
 6492SOL    HW220376   4.133   4.489   6.817
 6493SOL     OW20377   1.634   4.155   5.105
 6493SOL    HW120378   1.718   4.148   5.159
 6493SOL    HW220379   1.561   4.193   5.162
 6494SOL     OW20380   6.687   0.398   3.690
 6494SOL    HW120381   6.773   0.370   3.648
 6494SOL    HW220382   6.704   0.478   3.748
 6495SOL     OW20383   6.358   0.453   4.646
 6495SOL    HW120384   6.424   0.495   4.583
 6495SOL    HW220385   6.286   0.408   4.593
 6496SOL     OW20386   6.242   1.096   3.195
 6496SOL    HW120387   6.173   1.120   3.263
 6496SOL    HW220388   6.199   1.050   3.118
 6497SOL     OW20389   0.938   1.493   1.068
 6497SOL    HW120390   0.937   1.393   1.059
 6497SOL    HW220391   1.029   1.527   1.044
 6498SOL     OW20392   1.612   3.603   4.003
 6498SOL    HW120393   1.683   3.618   3.935
 6498SOL    HW220394   1.607   3.682   4.064
 6499SOL     OW20395   5.671   3.331   5.406
 6499SOL    HW120396   5.759   3.374   5.426
 6499SOL    HW220397   5.674   3.291   5.315
 6500SOL     OW20398   6.458   3.628   4.447
 6500SOL    HW120399   6.517   3.630   4.527
 6500SOL    HW220400   6.365   3.654   4.473
 6501SOL     OW20401   0.157   1.807   6.639
 6501SOL    HW120402   0.193   1.748   6.566
 6501SOL    HW220403   0.104   1.752   6.703
 6502SOL     OW20404   6.570   2.050   2.450
 6502SOL    HW120405   6.639   2.022   2.383
 6502SOL    HW220406   6.500   2.105   2.404
 6503SOL     OW20407   5.237   0.607   3.498
 6503SOL    HW120408   5.207   0.640   3.409
 6503SOL    HW220409   5.161   0.561   3.545
 6504SOL     OW20410   4.319   6.499   5.406
 6504SOL    HW120411   4.330   6.561   5.329
 6504SOL    HW220412   4.407   6.457   5.429
 6505SOL     OW20413   5.533   6.062   6.716
 6505SOL    HW120414   5.610   6.093   6.771
 6505SOL    HW220415   5.507   5.970   6.744
 6506SOL     OW20416   6.561   2.815   2.717
 6506SOL    HW120417   6.593   2.858   2.801
 6506SOL    HW220418   6.627   2.832   2.644
 6507SOL     OW20419   1.352   5.286   5.569
 6507SOL    HW120420   1.255   5.310   5.561
 6507SOL    HW220421   1.390   5.330   5.650
 6508SOL     OW20422   1.641   0.460   2.625
 6508SOL    HW120423   1.733   0.479   2.591
 6508SOL    HW220424   1.602   0.543   2.665
 6509SOL     OW20425   3.640   1.674   4.779
 6509SOL    HW120426   3.668   1.592   4.829
 6509SOL    HW220427   3.722   1.729   4.757
 6510SOL     OW20428   6.294   5.418   0.243
 6510SOL    HW120429   6.338   5.392   0.330
 6510SOL    HW220430   6.307   5.344   0.177
 6511SOL     OW20431   4.185   1.945   4.528
 6511SOL    HW120432   4.119   1.910   4.461
 6511SOL    HW220433   4.136   1.997   4.599
 6512SOL     OW20434   4.032   6.768   2.239
 6512SOL    HW120435   4.049   6.669   2.244
 6512SOL    HW220436   4.031   6.796   2.143
 6513SOL     OW20437   2.367   4.759   2.884
 6513SOL    HW120438   2.360   4.845   2.934
 6513SOL    HW220439   2.371   4.778   2.786
 6514SOL     OW20440   6.463   1.008   3.965
 6514SOL    HW120441   6.514   1.088   3.933
 6514SOL    HW220442   6.365   1.026   3.958
 6515SOL     OW20443   0.494   4.854   4.186
 6515SOL    HW120444   0.577   4.894   4.148
 6515SOL    HW220445   0.508   4.756   4.201
 6516SOL     OW20446   0.344   3.556   1.508
 6516SOL    HW120447   0.423   3.605   1.472
 6516SOL    HW220448   0.260   3.603   1.481
 6517SOL     OW20449   6.316   1.045   1.577
 6517SOL    HW120450   6.318   1.111   1.502
 6517SOL    HW220451   6.225   1.004   1.583
 6518SOL     OW20452   0.358   0.808   0.251
 6518SOL    HW120453   0.270   0.800   0.299
 6518SOL    HW220454   0.386   0.904   0.248
 6519SOL     OW20455   0.998   2.523   3.265
 6519SOL    HW120456   1.062   2.536   3.340
 6519SOL    HW220457   0.990   2.607   3.213
 6520SOL     OW20458   5.675   5.546   1.483
 6520SOL    HW120459   5.740   5.607   1.527
 6520SOL    HW220460   5.586   5.592   1.474
 6521SOL     OW20461   1.930   2.425   3.827
 6521SOL    HW120462   1.973   2.408   3.739
 6521SOL    HW220463   1.835   2.394   3.825
 6522SOL     OW20464   3.122   5.451   6.408
 6522SOL    HW120465   3.078   5.367   6.438
 6522SOL    HW220466   3.204   5.429   6.356
 6523SOL     OW20467   3.521   1.529   6.508
 6523SOL    HW120468   3.541   1.488   6.419
 6523SOL    HW220469   3.524   1.628   6.501
 6524SOL     OW20470   3.935   3.532   1.563
 6524SOL    HW120471   4.004   3.571   1.502
 6524SOL    HW220472   3.875   3.471   1.511
 6525SOL     OW20473   2.556   5.105   2.662
 6525SOL    HW120474   2.481   5.083   2.599
 6525SOL    HW220475   2.543   5.055   2.748
 6526SOL     OW20476   1.991   0.195   6.578
 6526SOL    HW120477   2.076   0.247   6.586
 6526SOL    HW220478   1.966   0.157   6.668
 6527SOL     OW20479   0.690   1.606   4.636
 6527SOL    HW120480   0.768   1.544   4.632
 6527SOL    HW220481   0.715   1.694   4.596
 6528SOL     OW20482   0.060   0.988   5.499
 6528SOL    HW120483   0.012   0.915   5.548
 6528SOL    HW220484   0.077   0.959   5.405
 6529SOL     OW20485   1.834   0.484   2.884
 6529SOL    HW120486   1.934   0.485   2.896
 6529SOL    HW220487   1.812   0.463   2.789
 6530SOL     OW20488   6.981   2.804   0.667
 6530SOL    HW120489   0.012   2.750   0.729
 6530SOL    HW220490   6.893   2.825   0.711
 6531SOL     OW20491   5.303   3.039   5.380
 6531SOL    HW120492   5.358   3.049   5.298
 6531SOL    HW220493   5.314   3.120   5.438
 6532SOL     OW20494   6.731   1.236   1.065
 6532SOL    HW120495   6.802   1.170   1.091
 6532SOL    HW220496   6.644   1.211   1.109
 6533SOL     OW20497   4.527   6.857   0.957
 6533SOL    HW120498   4.462   6.932   0.942
 6533SOL    HW220499   4.615   6.880   0.916
 6534SOL     OW20500   4.182   4.632   1.426
 6534SOL    HW120501   4.238   4.702   1.382
 6534SOL    HW220502   4.219   4.542   1.404
 6535SOL     OW20503   6.091   3.366   4.380
 6535SOL    HW120504   6.051   3.423   4.309
 6535SOL    HW220505   6.050   3.275   4.377
 6536SOL     OW20506   0.958   1.088   5.935
 6536SOL    HW120507   0.983   1.087   6.032
 6536SOL    HW220508   0.977   1.178   5.896
 6537SOL     OW20509   6.657   5.396   0.060
 6537SOL    HW120510   6.595   5.320   0.080
 6537SOL    HW220511   6.606   5.471   0.019
 6538SOL     OW20512   2.570   3.841   6.464
 6538SOL    HW120513   2.538   3.924   6.420
 6538SOL    HW220514   2.592   3.773   6.394
 6539SOL     OW20515   4.240   0.636   6.085
 6539SOL    HW120516   4.234   0.539   6.062
 6539SOL    HW220517   4.335   0.667   6.076
 6540SOL     OW20518   4.533   2.379   5.665
 6540SOL    HW120519   4.528   2.290   5.710
 6540SOL    HW220520   4.622   2.421   5.685
 6541SOL     OW20521   4.333   2.365   4.758
 6541SOL    HW120522   4.367   2.274   4.783
 6541SOL    HW220523   4.291   2.408   4.837
 6542SOL     OW20524   6.486   3.433   4.103
 6542SOL    HW120525   6.465   3.429   4.201
 6542SOL    HW220526   6.468   3.525   4.069
 6543SOL     OW20527   5.066   2.661   5.948
 6543SOL    HW120528   5.105   2.614   5.868
 6543SOL    HW220529   4.968   2.676   5.933
 6544SOL     OW20530   1.186   5.953   3.094
 6544SOL    HW120531   1.226   5.868   3.127
 6544SOL    HW220532   1.189   5.955   2.994
 6545SOL     OW20533   4.143   2.052   0.044
 6545SOL    HW120534   4.077   1.978   0.037
 6545SOL    HW220535   4.163   2.070   0.141
 6546SOL     OW20536   2.952   4.151   6.965
 6546SOL    HW120537   2.965   4.053   6.974
 6546SOL    HW220538   3.012   4.186   6.893
 6547SOL     OW20539   4.726   1.127   5.755
 6547SOL    HW120540   4.652   1.089   5.699
 6547SOL    HW220541   4.697   1.132   5.850
 6548SOL     OW20542   0.654   4.288   0.699
 6548SOL    HW120543   0.730   4.224   0.698
 6548SOL    HW220544   0.644   4.326   0.791
 6549SOL     OW20545   5.104   0.917   1.464
 6549SOL    HW120546   5.152   0.880   1.385
 6549SOL    HW220547   5.077   1.012   1.445
 6550SOL     OW20548   0.238   6.547   3.930
 6550SOL    HW120549   0.164   6.500   3.978
 6550SOL    HW220550   0.252   6.503   3.841
 6551SOL     OW20551   1.931   4.680   2.240
 6551SOL    HW120552   1.894   4.736   2.166
 6551SOL    HW220553   1.877   4.694   2.323
 6552SOL     OW20554   1.655   6.944   6.837
 6552SOL    HW120555   1.665   7.006   6.759
 6552SOL    HW220556   1.563   6.906   6.839
 6553SOL     OW20557   0.129   1.758   3.343
 6553SOL    HW120558   0.038   1.788   3.373
 6553SOL    HW220559   0.192   1.836   3.344
 6554SOL     OW20560   0.454   0.431   4.524
 6554SOL    HW120561   0.526   0.456   4.588
 6554SOL    HW220562   0.488   0.441   4.430
 6555SOL     OW20563   5.928   1.695   3.063
 6555SOL    HW120564   5.853   1.757   3.084
 6555SOL    HW220565   5.941   1.630   3.139
 6556SOL     OW20566   5.186   4.767   4.246
 6556SOL    HW120567   5.227   4.709   4.316
 6556SOL    HW220568   5.247   4.845   4.227
 6557SOL     OW20569   3.404   6.649   2.678
 6557SOL    HW120570   3.425   6.691   2.591
 6557SOL    HW220571   3.465   6.571   2.693
 6558SOL     OW20572   6.862   5.208   0.153
 6558SOL    HW120573   6.792   5.137   0.157
 6558SOL    HW220574   6.821   5.294   0.122
 6559SOL     OW20575   0.698   3.251   6.511
 6559SOL    HW120576   0.774   3.188   6.529
 6559SOL    HW220577   0.616   3.197   6.489
 6560SOL     OW20578   4.563   5.359   1.526
 6560SOL    HW120579   4.643   5.406   1.488
 6560SOL    HW220580   4.565   5.262   1.502
 6561SOL     OW20581   3.238   3.796   1.274
 6561SOL    HW120582   3.140   3.779   1.265
 6561SOL    HW220583   3.280   3.798   1.183
 6562SOL     OW20584   5.938   3.640   0.933
 6562SOL    HW120585   6.019   3.581   0.925
 6562SOL    HW220586   5.907   3.666   0.842
 6563SOL     OW20587   5.539   6.432   6.879
 6563SOL    HW120588   5.469   6.488   6.922
 6563SOL    HW220589   5.577   6.368   6.946
 6564SOL     OW20590   6.919   4.642   3.085
 6564SOL    HW120591   6.866   4.593   3.015
 6564SOL    HW220592   6.867   4.645   3.170
 6565SOL     OW20593   5.351   1.633   3.622
 6565SOL    HW120594   5.282   1.566   3.652
 6565SOL    HW220595   5.313   1.689   3.549
 6566SOL     OW20596   3.661   6.214   2.349
 6566SOL    HW120597   3.718   6.204   2.430
 6566SOL    HW220598   3.657   6.127   2.300
 6567SOL     OW20599   4.234   0.858   2.819
 6567SOL    HW120600   4.298   0.923   2.777
 6567SOL    HW220601   4.214   0.785   2.754
 6568SOL     OW20602   3.218   0.856   3.626
 6568SOL    HW120603   3.261   0.775   3.585
 6568SOL    HW220604   3.284   0.931   3.631
 6569SOL     OW20605   3.111   3.344   6.699
 6569SOL    HW120606   3.199   3.391   6.692
 6569SOL    HW220607   3.126   3.247   6.714
 6570SOL     OW20608   4.066   0.682   2.261
 6570SOL    HW120609   4.013   0.679   2.346
 6570SOL    HW220610   4.088   0.588   2.233
 6571SOL     OW20611   3.125   5.108   1.272
 6571SOL    HW120612   3.103   5.183   1.210
 6571SOL    HW220613   3.162   5.031   1.220
 6572SOL     OW20614   6.393   4.795   5.562
 6572SOL    HW120615   6.365   4.889   5.579
 6572SOL    HW220616   6.408   4.781   5.464
 6573SOL     OW20617   1.815   1.715   2.093
 6573SOL    HW120618   1.908   1.681   2.103
 6573SOL    HW220619   1.762   1.691   2.175
 6574SOL     OW20620   3.029   5.744   2.044
 6574SOL    HW120621   2.998   5.693   1.963
 6574SOL    HW220622   2.969   5.823   2.059
 6575SOL     OW20623   1.140   6.805   3.083
 6575SOL    HW120624   1.214   6.828   3.020
 6575SOL    HW220625   1.094   6.889   3.111
 6576SOL     OW20626   2.046   6.040   6.356
 6576SOL    HW120627   2.074   6.134   6.372
 6576SOL    HW220628   2.126   5.981   6.352
 6577SOL     OW20629   0.771   1.001   4.347
 6577SOL    HW120630   0.816   0.912   4.342
 6577SOL    HW220631   0.672   0.989   4.355
 6578SOL     OW20632   1.232   5.385   3.412
 6578SOL    HW120633   1.230   5.354   3.317
 6578SOL    HW220634   1.139   5.404   3.443
 6579SOL     OW20635   6.690   3.578   4.625
 6579SOL    HW120636   6.732   3.522   4.554
 6579SOL    HW220637   6.746   3.660   4.640
 6580SOL     OW20638   0.761   2.843   1.189
 6580SOL    HW120639   0.712   2.763   1.224
 6580SOL    HW220640   0.856   2.818   1.168
 6581SOL     OW20641   3.113   0.495   6.829
 6581SOL    HW120642   3.077   0.411   6.789
 6581SOL    HW220643   3.110   0.488   6.929
 6582SOL     OW20644   0.936   1.418   2.046
 6582SOL    HW120645   0.958   1.392   2.140
 6582SOL    HW220646   0.900   1.339   1.997
 6583SOL     OW20647   4.707   0.971   5.203
 6583SOL    HW120648   4.636   1.032   5.239
 6583SOL    HW220649   4.741   1.006   5.116
 6584SOL     OW20650   4.394   3.047   1.373
 6584SOL    HW120651   4.450   3.056   1.456
 6584SOL    HW220652   4.427   2.969   1.319
 6585SOL     OW20653   5.813   0.015   0.154
 6585SOL    HW120654   5.854   0.088   0.100
 6585SOL    HW220655   5.785   6.965   0.093
 6586SOL     OW20656   0.384   1.749   5.007
 6586SOL    HW120657   0.350   1.767   5.099
 6586SOL    HW220658   0.482   1.728   5.010
 6587SOL     OW20659   2.201   6.590   5.037
 6587SOL    HW120660   2.293   6.625   5.021
 6587SOL    HW220661   2.186   6.509   4.980
 6588SOL     OW20662   0.820   3.778   1.643
 6588SOL    HW120663   0.853   3.868   1.614
 6588SOL    HW220664   0.897   3.716   1.657
 6589SOL     OW20665   5.427   1.443   0.220
 6589SOL    HW120666   5.493   1.489   0.161
 6589SOL    HW220667   5.409   1.351   0.185
 6590SOL     OW20668   0.999   1.109   6.208
 6590SOL    HW120669   0.912   1.128   6.253
 6590SOL    HW220670   1.074   1.145   6.264
 6591SOL     OW20671   5.393   5.508   2.519
 6591SOL    HW120672   5.492   5.509   2.531
 6591SOL    HW220673   5.358   5.416   2.537
 6592SOL     OW20674   5.467   6.851   3.769
 6592SOL    HW120675   5.502   6.759   3.749
 6592SOL    HW220676   5.473   6.868   3.867
 6593SOL     OW20677   2.105   2.136   2.205
 6593SOL    HW120678   2.141   2.229   2.205
 6593SOL    HW220679   2.151   2.081   2.275
 6594SOL     OW20680   3.570   1.809   0.098
 6594SOL    HW120681   3.593   1.714   0.121
 6594SOL    HW220682   3.471   1.816   0.083
 6595SOL     OW20683   0.588   3.687   6.581
 6595SOL    HW120684   0.632   3.702   6.670
 6595SOL    HW220685   0.545   3.597   6.580
 6596SOL     OW20686   3.428   6.291   4.570
 6596SOL    HW120687   3.463   6.374   4.614
 6596SOL    HW220688   3.336   6.309   4.535
 6597SOL     OW20689   1.660   5.212   1.712
 6597SOL    HW120690   1.648   5.210   1.811
 6597SOL    HW220691   1.591   5.153   1.670
 6598SOL     OW20692   1.742   6.180   4.439
 6598SOL    HW120693   1.793   6.160   4.356
 6598SOL    HW220694   1.788   6.138   4.517
 6599SOL     OW20695   4.869   6.800   6.418
 6599SOL    HW120696   4.793   6.769   6.474
 6599SOL    HW220697   4.933   6.854   6.474
 6600SOL     OW20698   5.059   4.870   4.896
 6600SOL    HW120699   5.012   4.918   4.822
 6600SOL    HW220700   5.156   4.861   4.874
 6601SOL     OW20701   1.660   2.099   5.395
 6601SOL    HW120702   1.628   2.177   5.341
 6601SOL    HW220703   1.712   2.133   5.474
 6602SOL     OW20704   1.230   0.839   2.047
 6602SOL    HW120705   1.189   0.929   2.029
 6602SOL    HW220706   1.330   0.847   2.046
 6603SOL     OW20707   6.747   2.464   3.639
 6603SOL    HW120708   6.760   2.483   3.542
 6603SOL    HW220709   6.733   2.549   3.689
 6604SOL     OW20710   1.964   0.284   0.593
 6604SOL    HW120711   1.971   0.186   0.613
 6604SOL    HW220712   1.968   0.336   0.678
 6605SOL     OW20713   5.183   4.121   1.888
 6605SOL    HW120714   5.263   4.181   1.882
 6605SOL    HW220715   5.197   4.056   1.962
 6606SOL     OW20716   6.972   6.408   1.649
 6606SOL    HW120717   6.922   6.410   1.736
 6606SOL    HW220718   0.035   6.364   1.662
 6607SOL     OW20719   1.701   3.419   2.298
 6607SOL    HW120720   1.776   3.458   2.245
 6607SOL    HW220721   1.626   3.394   2.237
 6608SOL     OW20722   5.825   6.507   1.111
 6608SOL    HW120723   5.857   6.463   1.195
 6608SOL    HW220724   5.786   6.596   1.133
 6609SOL     OW20725   4.522   0.775   6.057
 6609SOL    HW120726   4.603   0.753   6.003
 6609SOL    HW220727   4.528   0.729   6.146
 6610SOL     OW20728   3.075   6.993   6.616
 6610SOL    HW120729   3.054   6.908   6.567
 6610SOL    HW220730   3.007   7.007   6.688
 6611SOL     OW20731   4.888   2.355   3.689
 6611SOL    HW120732   4.919   2.341   3.783
 6611SOL    HW220733   4.816   2.289   3.667
 6612SOL     OW20734   5.568   2.398   5.621
 6612SOL    HW120735   5.638   2.469   5.635
 6612SOL    HW220736   5.504   2.399   5.697
 6613SOL     OW20737   6.560   6.458   5.348
 6613SOL    HW120738   6.597   6.533   5.294
 6613SOL    HW220739   6.495   6.406   5.293
 6614SOL     OW20740   5.450   6.326   0.761
 6614SOL    HW120741   5.475   6.395   0.830
 6614SOL    HW220742   5.362   6.285   0.786
 6615SOL     OW20743   1.362   5.210   2.575
 6615SOL    HW120744   1.434   5.174   2.633
 6615SOL    HW220745   1.280   5.228   2.629
 6616SOL     OW20746   4.365   1.054   6.244
 6616SOL    HW120747   4.378   1.109   6.161
 6616SOL    HW220748   4.269   1.026   6.251
 6617SOL     OW20749   4.483   4.839   3.322
 6617SOL    HW120750   4.431   4.871   3.243
 6617SOL    HW220751   4.425   4.840   3.403
 6618SOL     OW20752   1.138   2.644   2.504
 6618SOL    HW120753   1.112   2.703   2.428
 6618SOL    HW220754   1.125   2.548   2.478
 6619SOL     OW20755   6.150   6.644   3.579
 6619SOL    HW120756   6.080   6.690   3.524
 6619SOL    HW220757   6.191   6.570   3.526
 6620SOL     OW20758   2.000   3.016   5.192
 6620SOL    HW120759   2.027   2.934   5.143
 6620SOL    HW220760   2.048   3.021   5.280
 6621SOL     OW20761   3.082   3.102   5.698
 6621SOL    HW120762   3.027   3.093   5.781
 6621SOL    HW220763   3.174   3.067   5.716
 6622SOL     OW20764   5.863   6.988   1.099
 6622SOL    HW120765   5.918   0.018   1.162
 6622SOL    HW220766   5.909   6.986   1.010
 6623SOL     OW20767   2.998   3.024   5.452
 6623SOL    HW120768   2.922   3.084   5.427
 6623SOL    HW220769   3.022   3.040   5.548
 6624SOL     OW20770   0.341   5.085   6.284
 6624SOL    HW120771   0.307   5.120   6.372
 6624SOL    HW220772   0.287   5.123   6.210
 6625SOL     OW20773   5.365   1.956   5.513
 6625SOL    HW120774   5.277   1.911   5.500
 6625SOL    HW220775   5.353   2.035   5.574
 6626SOL     OW20776   4.362   5.022   5.036
 6626SOL    HW120777   4.329   5.054   5.125
 6626SOL    HW220778   4.393   4.927   5.044
 6627SOL     OW20779   2.345   6.150   4.684
 6627SOL    HW120780   2.298   6.238   4.698
 6627SOL    HW220781   2.435   6.166   4.643
 6628SOL     OW20782   4.608   4.943   4.868
 6628SOL    HW120783   4.644   4.853   4.890
 6628SOL    HW220784   4.508   4.939   4.866
 6629SOL     OW20785   4.718   6.148   6.940
 6629SOL    HW120786   4.727   6.049   6.942
 6629SOL    HW220787   4.697   6.177   6.847
 6630SOL     OW20788   4.044   1.117   1.637
 6630SOL    HW120789   4.027   1.214   1.649
 6630SOL    HW220790   3.978   1.065   1.692
 6631SOL     OW20791   2.703   5.391   3.378
 6631SOL    HW120792   2.633   5.425   3.316
 6631SOL    HW220793   2.759   5.323   3.330
 6632SOL     OW20794   0.492   0.139   1.427
 6632SOL    HW120795   0.487   0.196   1.508
 6632SOL    HW220796   0.489   0.042   1.453
 6633SOL     OW20797   0.908   4.650   6.161
 6633SOL    HW120798   0.980   4.636   6.229
 6633SOL    HW220799   0.929   4.596   6.080
 6634SOL     OW20800   5.323   2.129   4.322
 6634SOL    HW120801   5.292   2.061   4.256
 6634SOL    HW220802   5.246   2.186   4.351
 6635SOL     OW20803   4.672   4.757   3.116
 6635SOL    HW120804   4.624   4.799   3.193
 6635SOL    HW220805   4.632   4.789   3.030
 6636SOL     OW20806   5.155   2.006   5.975
 6636SOL    HW120807   5.224   1.946   5.934
 6636SOL    HW220808   5.130   2.078   5.910
 6637SOL     OW20809   1.397   6.875   6.841
 6637SOL    HW120810   1.381   6.785   6.882
 6637SOL    HW220811   1.362   6.876   6.748
 6638SOL     OW20812   3.089   3.918   3.712
 6638SOL    HW120813   3.078   3.919   3.811
 6638SOL    HW220814   3.168   3.974   3.686
 6639SOL     OW20815   5.189   5.071   6.296
 6639SOL    HW120816   5.177   5.159   6.250
 6639SOL    HW220817   5.261   5.019   6.250
 6640SOL     OW20818   1.397   1.820   4.873
 6640SOL    HW120819   1.493   1.844   4.858
 6640SOL    HW220820   1.378   1.732   4.831
 6641SOL     OW20821   1.789   2.141   6.411
 6641SOL    HW120822   1.731   2.147   6.492
 6641SOL    HW220823   1.780   2.226   6.359
 6642SOL     OW20824   2.164   5.578   6.811
 6642SOL    HW120825   2.159   5.617   6.719
 6642SOL    HW220826   2.207   5.488   6.807
 6643SOL     OW20827   6.085   4.810   0.381
 6643SOL    HW120828   6.128   4.733   0.430
 6643SOL    HW220829   6.079   4.889   0.442
 6644SOL     OW20830   2.405   5.610   1.646
 6644SOL    HW120831   2.465   5.534   1.671
 6644SOL    HW220832   2.407   5.679   1.718
 6645SOL     OW20833   6.339   5.102   0.412
 6645SOL    HW120834   6.325   5.018   0.464
 6645SOL    HW220835   6.315   5.181   0.468
 6646SOL     OW20836   4.627   1.011   4.504
 6646SOL    HW120837   4.595   1.011   4.599
 6646SOL    HW220838   4.718   1.050   4.500
 6647SOL     OW20839   4.930   1.170   1.259
 6647SOL    HW120840   4.990   1.249   1.244
 6647SOL    HW220841   4.981   1.086   1.240
 6648SOL     OW20842   4.557   6.416   3.570
 6648SOL    HW120843   4.653   6.391   3.566
 6648SOL    HW220844   4.529   6.427   3.665
 6649SOL     OW20845   4.978   1.131   6.627
 6649SOL    HW120846   5.006   1.054   6.569
 6649SOL    HW220847   5.052   1.199   6.629
 6650SOL     OW20848   4.007   1.514   5.327
 6650SOL    HW120849   3.953   1.523   5.411
 6650SOL    HW220850   3.969   1.440   5.271
 6651SOL     OW20851   1.988   1.601   5.445
 6651SOL    HW120852   1.936   1.593   5.530
 6651SOL    HW220853   1.959   1.529   5.382
 6652SOL     OW20854   0.982   4.135   0.920
 6652SOL    HW120855   0.994   4.233   0.906
 6652SOL    HW220856   1.069   4.095   0.949
 6653SOL     OW20857   3.086   3.867   2.605
 6653SOL    HW120858   3.140   3.944   2.642
 6653SOL    HW220859   3.052   3.892   2.515
 6654SOL     OW20860   1.539   4.936   1.141
 6654SOL    HW120861   1.452   4.936   1.191
 6654SOL    HW220862   1.542   4.857   1.080
 6655SOL     OW20863   1.033   6.750   3.911
 6655SOL    HW120864   1.099   6.691   3.865
 6655SOL    HW220865   0.941   6.732   3.875
 6656SOL     OW20866   6.041   1.555   4.192
 6656SOL    HW120867   6.105   1.593   4.259
 6656SOL    HW220868   6.014   1.627   4.127
 6657SOL     OW20869   5.876   5.403   6.014
 6657SOL    HW120870   5.953   5.426   6.074
 6657SOL    HW220871   5.879   5.305   5.992
 6658SOL     OW20872   6.872   1.359   4.466
 6658SOL    HW120873   6.821   1.419   4.404
 6658SOL    HW220874   6.958   1.403   4.492
 6659SOL     OW20875   1.813   2.679   0.630
 6659SOL    HW120876   1.899   2.716   0.597
 6659SOL    HW220877   1.745   2.683   0.556
 6660SOL     OW20878   1.009   4.637   1.345
 6660SOL    HW120879   1.065   4.708   1.388
 6660SOL    HW220880   0.988   4.663   1.251
 6661SOL     OW20881   1.117   6.390   4.969
 6661SOL    HW120882   1.048   6.328   4.931
 6661SOL    HW220883   1.207   6.366   4.933
 6662SOL     OW20884   1.319   0.140   6.651
 6662SOL    HW120885   1.322   0.046   6.686
 6662SOL    HW220886   1.410   0.181   6.656
 6663SOL     OW20887   6.344   4.572   4.012
 6663SOL    HW120888   6.416   4.628   4.052
 6663SOL    HW220889   6.384   4.506   3.948
 6664SOL     OW20890   2.100   6.141   0.445
 6664SOL    HW120891   2.015   6.153   0.495
 6664SOL    HW220892   2.089   6.175   0.351
 6665SOL     OW20893   2.050   5.942   4.434
 6665SOL    HW120894   2.008   5.903   4.516
 6665SOL    HW220895   2.149   5.924   4.437
 6666SOL     OW20896   6.230   0.122   5.704
 6666SOL    HW120897   6.130   0.125   5.709
 6666SOL    HW220898   6.260   0.142   5.610
 6667SOL     OW20899   6.637   6.019   6.633
 6667SOL    HW120900   6.629   6.100   6.576
 6667SOL    HW220901   6.727   6.018   6.677
 6668SOL     OW20902   6.956   5.298   1.111
 6668SOL    HW120903   7.003   5.246   1.183
 6668SOL    HW220904   6.861   5.311   1.137
 6669SOL     OW20905   1.756   2.586   2.805
 6669SOL    HW120906   1.747   2.639   2.890
 6669SOL    HW220907   1.738   2.645   2.727
 6670SOL     OW20908   3.450   1.714   5.372
 6670SOL    HW120909   3.505   1.797   5.378
 6670SOL    HW220910   3.381   1.714   5.445
 6671SOL     OW20911   5.917   6.347   0.544
 6671SOL    HW120912   5.977   6.286   0.595
 6671SOL    HW220913   5.823   6.316   0.552
 6672SOL     OW20914   6.385   2.320   6.526
 6672SOL    HW120915   6.306   2.269   6.559
 6672SOL    HW220916   6.354   2.390   6.461
 6673SOL     OW20917   4.838   5.212   4.139
 6673SOL    HW120918   4.860   5.139   4.203
 6673SOL    HW220919   4.901   5.288   4.152
 6674SOL     OW20920   0.577   4.398   6.192
 6674SOL    HW120921   0.524   4.314   6.207
 6674SOL    HW220922   0.538   4.448   6.115
 6675SOL     OW20923   4.651   3.269   1.317
 6675SOL    HW120924   4.611   3.186   1.278
 6675SOL    HW220925   4.593   3.304   1.390
 6676SOL     OW20926   0.188   3.879   5.327
 6676SOL    HW120927   0.180   3.889   5.228
 6676SOL    HW220928   0.107   3.917   5.372
 6677SOL     OW20929   1.661   1.238   6.195
 6677SOL    HW120930   1.625   1.276   6.280
 6677SOL    HW220931   1.718   1.306   6.149
 6678SOL     OW20932   3.354   3.330   6.428
 6678SOL    HW120933   3.304   3.395   6.372
 6678SOL    HW220934   3.370   3.369   6.518
 6679SOL     OW20935   3.368   0.952   4.099
 6679SOL    HW120936   3.384   1.021   4.029
 6679SOL    HW220937   3.425   0.970   4.179
 6680SOL     OW20938   4.939   6.634   6.864
 6680SOL    HW120939   5.038   6.620   6.868
 6680SOL    HW220940   4.900   6.631   6.956
 6681SOL     OW20941   3.607   6.342   1.473
 6681SOL    HW120942   3.705   6.350   1.490
 6681SOL    HW220943   3.580   6.406   1.401
 6682SOL     OW20944   0.391   4.700   2.524
 6682SOL    HW120945   0.394   4.752   2.609
 6682SOL    HW220946   0.464   4.632   2.524
 6683SOL     OW20947   5.704   3.190   5.188
 6683SOL    HW120948   5.619   3.171   5.139
 6683SOL    HW220949   5.745   3.103   5.218
 6684SOL     OW20950   2.943   0.358   1.246
 6684SOL    HW120951   2.849   0.388   1.229
 6684SOL    HW220952   2.960   0.272   1.198
 6685SOL     OW20953   6.816   3.473   5.911
 6685SOL    HW120954   6.741   3.512   5.856
 6685SOL    HW220955   6.881   3.546   5.934
 6686SOL     OW20956   5.528   6.046   4.500
 6686SOL    HW120957   5.459   6.040   4.572
 6686SOL    HW220958   5.487   6.022   4.412
 6687SOL     OW20959   1.038   3.454   0.387
 6687SOL    HW120960   0.999   3.535   0.431
 6687SOL    HW220961   0.979   3.376   0.403
 6688SOL     OW20962   6.784   4.004   2.489
 6688SOL    HW120963   6.751   4.079   2.546
 6688SOL    HW220964   6.851   3.951   2.541
 6689SOL     OW20965   4.303   2.942   0.562
 6689SOL    HW120966   4.212   2.900   0.571
 6689SOL    HW220967   4.307   3.025   0.616
 6690SOL     OW20968   1.909   1.744   0.678
 6690SOL    HW120969   1.872   1.785   0.595
 6690SOL    HW220970   1.844   1.757   0.753
 6691SOL     OW20971   2.742   6.535   1.999
 6691SOL    HW120972   2.755   6.436   2.011
 6691SOL    HW220973   2.683   6.551   1.919
 6692SOL     OW20974   3.814   3.792   5.056
 6692SOL    HW120975   3.882   3.864   5.047
 6692SOL    HW220976   3.845   3.710   5.009
 6693SOL     OW20977   4.230   3.537   5.101
 6693SOL    HW120978   4.298   3.513   5.170
 6693SOL    HW220979   4.158   3.467   5.099
 6694SOL     OW20980   3.551   5.675   1.267
 6694SOL    HW120981   3.593   5.612   1.332
 6694SOL    HW220982   3.489   5.624   1.207
 6695SOL     OW20983   3.017   1.952   0.436
 6695SOL    HW120984   2.928   1.974   0.476
 6695SOL    HW220985   3.063   1.884   0.493
 6696SOL     OW20986   2.673   3.190   5.638
 6696SOL    HW120987   2.626   3.243   5.709
 6696SOL    HW220988   2.751   3.242   5.604
 6697SOL     OW20989   4.505   2.524   2.841
 6697SOL    HW120990   4.579   2.466   2.806
 6697SOL    HW220991   4.544   2.607   2.881
 6698SOL     OW20992   2.665   2.493   1.596
 6698SOL    HW120993   2.610   2.541   1.528
 6698SOL    HW220994   2.606   2.465   1.672
 6699SOL     OW20995   2.496   5.681   5.997
 6699SOL    HW120996   2.461   5.739   6.071
 6699SOL    HW220997   2.485   5.585   6.022
 6700SOL     OW20998   6.977   6.501   1.400
 6700SOL    HW120999   6.991   6.597   1.422
 6700SOL    HW221000   6.968   6.448   1.485
 6701SOL     OW21001   5.344   3.550   2.091
 6701SOL    HW121002   5.379   3.558   2.185
 6701SOL    HW221003   5.324   3.454   2.071
 6702SOL     OW21004   3.554   1.855   2.013
 6702SOL    HW121005   3.603   1.913   1.948
 6702SOL    HW221006   3.474   1.905   2.048
 6703SOL     OW21007   5.863   2.019   6.800
 6703SOL    HW121008   5.900   2.090   6.860
 6703SOL    HW221009   5.792   2.059   6.741
 6704SOL     OW21010   3.106   1.588   3.164
 6704SOL    HW121011   3.185   1.610   3.221
 6704SOL    HW221012   3.097   1.657   3.092
 6705SOL     OW21013   6.670   2.981   1.820
 6705SOL    HW121014   6.603   2.947   1.753
 6705SOL    HW221015   6.704   2.904   1.874
 6706SOL     OW21016   1.334   3.632   2.338
 6706SOL    HW121017   1.325   3.533   2.348
 6706SOL    HW221018   1.374   3.653   2.249
 6707SOL     OW21019   6.887   5.982   3.176
 6707SOL    HW121020   6.960   5.959   3.240
 6707SOL    HW221021   6.809   6.019   3.225
 6708SOL     OW21022   6.607   5.584   2.037
 6708SOL    HW121023   6.522   5.594   1.985
 6708SOL    HW221024   6.614   5.492   2.074
 6709SOL     OW21025   2.950   6.233   3.254
 6709SOL    HW121026   2.954   6.196   3.347
 6709SOL    HW221027   2.957   6.159   3.188
 6710SOL     OW21028   3.723   0.942   5.733
 6710SOL    HW121029   3.662   0.971   5.805
 6710SOL    HW221030   3.736   0.843   5.738
 6711SOL     OW21031   4.497   5.545   6.125
 6711SOL    HW121032   4.536   5.458   6.093
 6711SOL    HW221033   4.532   5.620   6.069
 6712SOL     OW21034   5.548   3.986   6.963
 6712SOL    HW121035   5.593   3.897   6.958
 6712SOL    HW221036   5.540   4.014   0.034
 6713SOL     OW21037   2.099   0.070   2.512
 6713SOL    HW121038   2.054   7.022   2.564
 6713SOL    HW221039   2.192   0.082   2.547
 6714SOL     OW21040   5.747   0.755   5.912
 6714SOL    HW121041   5.650   0.733   5.923
 6714SOL    HW221042   5.761   0.852   5.929
 6715SOL     OW21043   0.621   6.979   0.190
 6715SOL    HW121044   0.672   0.009   0.257
 6715SOL    HW221045   0.533   6.953   0.228
 6716SOL     OW21046   0.571   5.744   1.612
 6716SOL    HW121047   0.514   5.731   1.530
 6716SOL    HW221048   0.527   5.811   1.672
 6717SOL     OW21049   4.197   3.151   0.124
 6717SOL    HW121050   4.138   3.185   0.198
 6717SOL    HW221051   4.253   3.075   0.158
 6718SOL     OW21052   5.010   0.589   0.361
 6718SOL    HW121053   4.945   0.540   0.302
 6718SOL    HW221054   4.960   0.638   0.432
 6719SOL     OW21055   2.742   0.410   6.532
 6719SOL    HW121056   2.715   0.502   6.502
 6719SOL    HW221057   2.694   0.386   6.615
 6720SOL     OW21058   1.403   6.767   4.262
 6720SOL    HW121059   1.502   6.759   4.273
 6720SOL    HW221060   1.373   6.709   4.186
 6721SOL     OW21061   6.839   0.304   6.805
 6721SOL    HW121062   6.926   0.280   6.847
 6721SOL    HW221063   6.848   0.393   6.760
 6722SOL     OW21064   6.657   2.661   1.411
 6722SOL    HW121065   6.586   2.722   1.445
 6722SOL    HW221066   6.630   2.622   1.323
 6723SOL     OW21067   2.769   6.530   3.279
 6723SOL    HW121068   2.857   6.492   3.248
 6723SOL    HW221069   2.780   6.570   3.370
 6724SOL     OW21070   1.539   3.257   5.467
 6724SOL    HW121071   1.478   3.217   5.398
 6724SOL    HW221072   1.561   3.188   5.536
 6725SOL     OW21073   0.228   3.967   1.463
 6725SOL    HW121074   0.181   4.006   1.542
 6725SOL    HW221075   0.327   3.979   1.474
 6726SOL     OW21076   0.754   1.940   5.032
 6726SOL    HW121077   0.693   2.019   5.029
 6726SOL    HW221078   0.701   1.856   5.021
 6727SOL     OW21079   6.814   4.369   5.175
 6727SOL    HW121080   6.753   4.297   5.141
 6727SOL    HW221081   6.872   4.401   5.100
 6728SOL     OW21082   3.753   1.764   2.982
 6728SOL    HW121083   3.751   1.733   3.077
 6728SOL    HW221084   3.729   1.687   2.922
 6729SOL     OW21085   6.925   0.862   3.062
 6729SOL    HW121086   6.909   0.903   2.973
 6729SOL    HW221087   6.856   0.792   3.080
 6730SOL     OW21088   2.708   6.833   0.198
 6730SOL    HW121089   2.764   6.895   0.253
 6730SOL    HW221090   2.649   6.886   0.138
 6731SOL     OW21091   0.651   6.023   1.883
 6731SOL    HW121092   0.668   5.981   1.972
 6731SOL    HW221093   0.560   5.998   1.851
 6732SOL     OW21094   5.666   4.964   5.208
 6732SOL    HW121095   5.664   4.988   5.112
 6732SOL    HW221096   5.577   4.926   5.235
 6733SOL     OW21097   4.100   5.226   0.100
 6733SOL    HW121098   4.195   5.222   0.072
 6733SOL    HW221099   4.087   5.298   0.168
 6734SOL     OW21100   6.235   2.091   4.955
 6734SOL    HW121101   6.173   2.030   4.905
 6734SOL    HW221102   6.322   2.044   4.972
 6735SOL     OW21103   6.747   4.357   4.729
 6735SOL    HW121104   6.727   4.344   4.632
 6735SOL    HW221105   6.662   4.354   4.782
 6736SOL     OW21106   3.464   3.513   6.882
 6736SOL    HW121107   3.399   3.458   6.934
 6736SOL    HW221108   3.556   3.474   6.890
 6737SOL     OW21109   2.052   2.436   0.671
 6737SOL    HW121110   2.105   2.512   0.707
 6737SOL    HW221111   1.960   2.468   0.647
 6738SOL     OW21112   1.784   5.317   2.610
 6738SOL    HW121113   1.822   5.407   2.589
 6738SOL    HW221114   1.701   5.327   2.664
 6739SOL     OW21115   3.584   6.082   5.314
 6739SOL    HW121116   3.512   6.072   5.245
 6739SOL    HW221117   3.546   6.128   5.395
 6740SOL     OW21118   1.813   0.315   4.490
 6740SOL    HW121119   1.806   0.415   4.494
 6740SOL    HW221120   1.738   0.278   4.437
 6741SOL     OW21121   4.484   1.092   5.568
 6741SOL    HW121122   4.447   1.005   5.536
 6741SOL    HW221123   4.561   1.118   5.511
 6742SOL     OW21124   6.562   6.008   3.009
 6742SOL    HW121125   6.632   5.937   3.016
 6742SOL    HW221126   6.494   5.982   2.941
 6743SOL     OW21127   3.683   4.589   0.458
 6743SOL    HW121128   3.609   4.651   0.484
 6743SOL    HW221129   3.737   4.566   0.539
 6744SOL     OW21130   5.825   4.066   6.503
 6744SOL    HW121131   5.725   4.062   6.496
 6744SOL    HW221132   5.860   4.126   6.431
 6745SOL     OW21133   7.004   0.404   2.935
 6745SOL    HW121134   6.968   0.314   2.960
 6745SOL    HW221135   6.955   0.474   2.986
 6746SOL     OW21136   1.216   0.831   3.184
 6746SOL    HW121137   1.175   0.913   3.224
 6746SOL    HW221138   1.315   0.831   3.202
 6747SOL     OW21139   5.821   1.198   5.080
 6747SOL    HW121140   5.890   1.193   5.009
 6747SOL    HW221141   5.759   1.274   5.061
 6748SOL     OW21142   1.809   0.814   3.657
 6748SOL    HW121143   1.769   0.906   3.663
 6748SOL    HW221144   1.884   0.815   3.592
 6749SOL     OW21145   2.770   6.569   0.052
 6749SOL    HW121146   2.756   6.645   0.117
 6749SOL    HW221147   2.709   6.494   0.077
 6750SOL     OW21148   4.048   2.246   5.269
 6750SOL    HW121149   4.022   2.213   5.178
 6750SOL    HW221150   4.069   2.343   5.264
 6751SOL     OW21151   4.233   0.157   3.727
 6751SOL    HW121152   4.321   0.201   3.708
 6751SOL    HW221153   4.159   0.219   3.698
 6752SOL     OW21154   0.267   2.428   2.690
 6752SOL    HW121155   0.351   2.452   2.642
 6752SOL    HW221156   0.239   2.336   2.663
 6753SOL     OW21157   4.130   1.360   6.498
 6753SOL    HW121158   4.063   1.430   6.476
 6753SOL    HW221159   4.084   1.272   6.511
 6754SOL     OW21160   0.257   1.742   0.281
 6754SOL    HW121161   0.205   1.662   0.311
 6754SOL    HW221162   0.351   1.715   0.261
 6755SOL     OW21163   3.649   0.620   3.608
 6755SOL    HW121164   3.663   0.598   3.511
 6755SOL    HW221165   3.669   0.717   3.623
 6756SOL     OW21166   3.947   5.183   5.412
 6756SOL    HW121167   3.923   5.208   5.506
 6756SOL    HW221168   3.868   5.142   5.367
 6757SOL     OW21169   4.278   0.691   2.024
 6757SOL    HW121170   4.331   0.645   2.095
 6757SOL    HW221171   4.189   0.719   2.060
 6758SOL     OW21172   6.574   2.251   1.594
 6758SOL    HW121173   6.558   2.345   1.624
 6758SOL    HW221174   6.521   2.188   1.651
 6759SOL     OW21175   0.954   4.633   4.327
 6759SOL    HW121176   1.015   4.636   4.405
 6759SOL    HW221177   0.912   4.542   4.320
 6760SOL     OW21178   6.282   4.573   3.192
 6760SOL    HW121179   6.228   4.638   3.246
 6760SOL    HW221180   6.227   4.539   3.116
 6761SOL     OW21181   6.257   2.262   6.089
 6761SOL    HW121182   6.321   2.312   6.147
 6761SOL    HW221183   6.239   2.172   6.129
 6762SOL     OW21184   0.188   5.377   3.637
 6762SOL    HW121185   0.150   5.286   3.622
 6762SOL    HW221186   0.143   5.442   3.576
 6763SOL     OW21187   0.504   4.611   3.015
 6763SOL    HW121188   0.579   4.546   3.006
 6763SOL    HW221189   0.526   4.680   3.084
 6764SOL     OW21190   2.222   5.107   6.692
 6764SOL    HW121191   2.274   5.024   6.671
 6764SOL    HW221192   2.286   5.180   6.719
 6765SOL     OW21193   5.364   4.403   3.704
 6765SOL    HW121194   5.373   4.463   3.784
 6765SOL    HW221195   5.448   4.350   3.693
 6766SOL     OW21196   5.194   6.783   6.203
 6766SOL    HW121197   5.265   6.735   6.151
 6766SOL    HW221198   5.226   6.875   6.226
 6767SOL     OW21199   1.317   2.096   0.503
 6767SOL    HW121200   1.285   2.050   0.420
 6767SOL    HW221201   1.355   2.028   0.565
 6768SOL     OW21202   1.292   6.275   3.546
 6768SOL    HW121203   1.202   6.252   3.509
 6768SOL    HW221204   1.363   6.249   3.481
 6769SOL     OW21205   2.495   0.044   5.875
 6769SOL    HW121206   2.485   6.992   5.938
 6769SOL    HW221207   2.405   0.070   5.841
 6770SOL     OW21208   5.123   1.938   3.788
 6770SOL    HW121209   5.151   1.862   3.847
 6770SOL    HW221210   5.106   1.904   3.696
 6771SOL     OW21211   3.685   1.080   2.138
 6771SOL    HW121212   3.590   1.051   2.147
 6771SOL    HW221213   3.743   1.000   2.124
 6772SOL     OW21214   4.582   2.243   2.720
 6772SOL    HW121215   4.562   2.166   2.660
 6772SOL    HW221216   4.630   2.211   2.801
 6773SOL     OW21217   0.023   6.630   1.841
 6773SOL    HW121218   0.055   6.598   1.931
 6773SOL    HW221219   0.084   6.702   1.808
 6774SOL     OW21220   1.558   3.118   4.334
 6774SOL    HW121221   1.549   3.161   4.423
 6774SOL    HW221222   1.500   3.166   4.267
 6775SOL     OW21223   0.804   2.238   3.507
 6775SOL    HW121224   0.893   2.279   3.530
 6775SOL    HW221225   0.811   2.139   3.513
 6776SOL     OW21226   4.161   4.282   0.956
 6776SOL    HW121227   4.108   4.239   0.883
 6776SOL    HW221228   4.213   4.212   1.005
 6777SOL     OW21229   4.411   5.498   0.817
 6777SOL    HW121230   4.427   5.584   0.768
 6777SOL    HW221231   4.365   5.518   0.904
 6778SOL     OW21232   5.931   3.855   2.038
 6778SOL    HW121233   5.893   3.819   1.953
 6778SOL    HW221234   6.030   3.863   2.031
 6779SOL     OW21235   5.312   4.629   6.042
 6779SOL    HW121236   5.310   4.584   5.953
 6779SOL    HW221237   5.229   4.604   6.094
 6780SOL     OW21238   0.571   3.054   3.094
 6780SOL    HW121239   0.574   3.145   3.053
 6780SOL    HW221240   0.512   2.995   3.040
 6781SOL     OW21241   0.003   2.072   4.282
 6781SOL    HW121242   0.073   2.019   4.236
 6781SOL    HW221243   6.945   2.018   4.291
 6782SOL     OW21244   0.879   1.234   3.245
 6782SOL    HW121245   0.852   1.318   3.294
 6782SOL    HW221246   0.830   1.228   3.159
 6783SOL     OW21247   0.878   2.560   6.433
 6783SOL    HW121248   0.925   2.472   6.428
 6783SOL    HW221249   0.915   2.622   6.363
 6784SOL     OW21250   2.467   3.633   0.767
 6784SOL    HW121251   2.381   3.596   0.732
 6784SOL    HW221252   2.536   3.561   0.768
 6785SOL     OW21253   5.688   4.967   4.899
 6785SOL    HW121254   5.756   4.913   4.850
 6785SOL    HW221255   5.606   4.912   4.913
 6786SOL     OW21256   0.901   2.662   0.067
 6786SOL    HW121257   0.920   2.641   0.163
 6786SOL    HW221258   0.913   2.761   0.052
 6787SOL     OW21259   3.535   2.378   1.136
 6787SOL    HW121260   3.470   2.450   1.162
 6787SOL    HW221261   3.536   2.307   1.206
 6788SOL     OW21262   0.177   4.535   1.860
 6788SOL    HW121263   0.212   4.573   1.774
 6788SOL    HW221264   0.236   4.461   1.890
 6789SOL     OW21265   0.363   4.182   3.917
 6789SOL    HW121266   0.343   4.266   3.967
 6789SOL    HW221267   0.277   4.138   3.890
 6790SOL     OW21268   0.905   4.123   6.883
 6790SOL    HW121269   0.991   4.088   6.920
 6790SOL    HW221270   0.900   4.221   6.901
 6791SOL     OW21271   3.987   2.187   2.517
 6791SOL    HW121272   4.001   2.158   2.612
 6791SOL    HW221273   4.068   2.238   2.486
 6792SOL     OW21274   5.582   0.086   5.879
 6792SOL    HW121275   5.582   0.040   5.790
 6792SOL    HW221276   5.540   0.026   5.947
 6793SOL     OW21277   3.827   0.976   6.838
 6793SOL    HW121278   3.802   0.914   6.912
 6793SOL    HW221279   3.829   0.926   6.751
 6794SOL     OW21280   5.640   1.409   5.026
 6794SOL    HW121281   5.584   1.446   5.100
 6794SOL    HW221282   5.637   1.471   4.948
 6795SOL     OW21283   1.158   5.868   0.715
 6795SOL    HW121284   1.202   5.949   0.675
 6795SOL    HW221285   1.174   5.789   0.655
 6796SOL     OW21286   6.252   0.133   2.352
 6796SOL    HW121287   6.175   0.081   2.316
 6796SOL    HW221288   6.338   0.085   2.331
 6797SOL     OW21289   6.375   1.777   1.610
 6797SOL    HW121290   6.330   1.698   1.568
 6797SOL    HW221291   6.306   1.837   1.650
 6798SOL     OW21292   6.488   7.011   1.834
 6798SOL    HW121293   6.392   0.010   1.847
 6798SOL    HW221294   6.496   6.912   1.823
 6799SOL     OW21295   6.041   7.005   2.290
 6799SOL    HW121296   5.990   0.020   2.214
 6799SOL    HW221297   6.029   6.906   2.288
 6800SOL     OW21298   2.515   2.500   2.183
 6800SOL    HW121299   2.494   2.524   2.089
 6800SOL    HW221300   2.594   2.438   2.185
 6801SOL     OW21301   1.139   6.836   4.162
 6801SOL    HW121302   1.109   6.808   4.071
 6801SOL    HW221303   1.231   6.801   4.180
 6802SOL     OW21304   3.308   6.173   1.418
 6802SOL    HW121305   3.330   6.185   1.321
 6802SOL    HW221306   3.241   6.242   1.446
 6803SOL     OW21307   4.160   4.285   6.780
 6803SOL    HW121308   4.211   4.200   6.768
 6803SOL    HW221309   4.074   4.265   6.828
 6804SOL     OW21310   4.268   5.131   3.109
 6804SOL    HW121311   4.295   5.037   3.088
 6804SOL    HW221312   4.186   5.130   3.167
 6805SOL     OW21313   0.420   5.259   6.556
 6805SOL    HW121314   0.441   5.312   6.474
 6805SOL    HW221315   0.472   5.296   6.633
 6806SOL     OW21316   6.589   1.018   4.493
 6806SOL    HW121317   6.559   1.005   4.399
 6806SOL    HW221318   6.677   0.973   4.507
 6807SOL     OW21319   3.452   3.748   2.640
 6807SOL    HW121320   3.467   3.818   2.710
 6807SOL    HW221321   3.516   3.673   2.655
 6808SOL     OW21322   6.917   1.541   5.498
 6808SOL    HW121323   6.832   1.562   5.546
 6808SOL    HW221324   6.933   1.442   5.500
 6809SOL     OW21325   6.366   2.926   0.969
 6809SOL    HW121326   6.387   3.009   0.916
 6809SOL    HW221327   6.267   2.921   0.984
 6810SOL     OW21328   2.789   1.109   1.995
 6810SOL    HW121329   2.846   1.159   1.931
 6810SOL    HW221330   2.708   1.163   2.018
 6811SOL     OW21331   6.264   3.555   2.485
 6811SOL    HW121332   6.325   3.490   2.531
 6811SOL    HW221333   6.319   3.626   2.440
 6812SOL     OW21334   3.798   4.103   4.872
 6812SOL    HW121335   3.885   4.126   4.829
 6812SOL    HW221336   3.728   4.090   4.801
 6813SOL     OW21337   5.918   3.168   2.774
 6813SOL    HW121338   5.910   3.266   2.786
 6813SOL    HW221339   6.014   3.143   2.761
 6814SOL     OW21340   4.916   1.955   6.344
 6814SOL    HW121341   4.932   2.048   6.312
 6814SOL    HW221342   4.900   1.957   6.443
 6815SOL     OW21343   2.436   6.773   6.328
 6815SOL    HW121344   2.505   6.834   6.368
 6815SOL    HW221345   2.476   6.683   6.310
 6816SOL     OW21346   6.987   1.352   5.799
 6816SOL    HW121347   6.968   1.312   5.710
 6816SOL    HW221348   6.922   1.318   5.867
 6817SOL     OW21349   2.168   2.901   3.860
 6817SOL    HW121350   2.098   2.965   3.892
 6817SOL    HW221351   2.146   2.809   3.892
 6818SOL     OW21352   2.064   6.734   0.519
 6818SOL    HW121353   1.970   6.762   0.503
 6818SOL    HW221354   2.074   6.637   0.500
 6819SOL     OW21355   4.294   1.512   3.060
 6819SOL    HW121356   4.294   1.497   2.961
 6819SOL    HW221357   4.218   1.461   3.101
 6820SOL     OW21358   1.516   5.918   1.746
 6820SOL    HW121359   1.434   5.867   1.771
 6820SOL    HW221360   1.504   5.957   1.654
 6821SOL     OW21361   4.126   2.817   5.348
 6821SOL    HW121362   4.151   2.721   5.358
 6821SOL    HW221363   4.035   2.823   5.306
 6822SOL     OW21364   5.860   2.562   5.629
 6822SOL    HW121365   5.894   2.524   5.544
 6822SOL    HW221366   5.866   2.492   5.701
 6823SOL     OW21367   5.846   4.484   6.057
 6823SOL    HW121368   5.779   4.552   6.028
 6823SOL    HW221369   5.938   4.518   6.037
 6824SOL     OW21370   1.344   1.368   0.626
 6824SOL    HW121371   1.427   1.320   0.654
 6824SOL    HW221372   1.366   1.463   0.602
 6825SOL     OW21373   6.164   0.557   0.476
 6825SOL    HW121374   6.253   0.597   0.500
 6825SOL    HW221375   6.127   0.508   0.555
 6826SOL     OW21376   1.829   3.607   3.808
 6826SOL    HW121377   1.896   3.533   3.818
 6826SOL    HW221378   1.874   3.689   3.772
 6827SOL     OW21379   5.539   5.486   6.641
 6827SOL    HW121380   5.625   5.466   6.686
 6827SOL    HW221381   5.473   5.413   6.659
 6828SOL     OW21382   3.909   1.632   2.285
 6828SOL    HW121383   3.929   1.644   2.382
 6828SOL    HW221384   3.988   1.661   2.231
 6829SOL     OW21385   5.619   6.500   5.132
 6829SOL    HW121386   5.673   6.500   5.048
 6829SOL    HW221387   5.656   6.568   5.195
 6830SOL     OW21388   4.748   0.580   3.587
 6830SOL    HW121389   4.713   0.541   3.502
 6830SOL    HW221390   4.708   0.531   3.665
 6831SOL     OW21391   1.734   1.096   5.630
 6831SOL    HW121392   1.635   1.104   5.639
 6831SOL    HW221393   1.778   1.155   5.697
 6832SOL     OW21394   2.181   4.268   0.713
 6832SOL    HW121395   2.158   4.363   0.692
 6832SOL    HW221396   2.202   4.219   0.628
 6833SOL     OW21397   2.331   4.570   5.991
 6833SOL    HW121398   2.332   4.484   6.043
 6833SOL    HW221399   2.388   4.638   6.037
 6834SOL     OW21400   6.642   6.887   0.676
 6834SOL    HW121401   6.660   6.800   0.631
 6834SOL    HW221402   6.625   6.958   0.607
 6835SOL     OW21403   3.751   1.199   4.520
 6835SOL    HW121404   3.838   1.184   4.473
 6835SOL    HW221405   3.759   1.170   4.616
 6836SOL     OW21406   2.621   4.239   6.389
 6836SOL    HW121407   2.540   4.260   6.445
 6836SOL    HW221408   2.704   4.262   6.441
 6837SOL     OW21409   0.636   1.936   3.345
 6837SOL    HW121410   0.706   1.947   3.416
 6837SOL    HW221411   0.678   1.945   3.255
 6838SOL     OW21412   2.636   4.826   6.663
 6838SOL    HW121413   2.683   4.900   6.711
 6838SOL    HW221414   2.669   4.738   6.697
 6839SOL     OW21415   5.281   1.171   4.988
 6839SOL    HW121416   5.277   1.088   5.043
 6839SOL    HW221417   5.205   1.173   4.924
 6840SOL     OW21418   2.996   6.459   5.434
 6840SOL    HW121419   2.901   6.428   5.441
 6840SOL    HW221420   3.017   6.481   5.339
 6841SOL     OW21421   3.744   4.951   0.615
 6841SOL    HW121422   3.731   4.882   0.544
 6841SOL    HW221423   3.722   4.911   0.704
 6842SOL     OW21424   2.433   2.991   0.042
 6842SOL    HW121425   2.388   3.039   0.117
 6842SOL    HW221426   2.368   2.929   7.024
 6843SOL     OW21427   5.599   0.108   1.749
 6843SOL    HW121428   5.676   0.157   1.788
 6843SOL    HW221429   5.629   0.057   1.669
 6844SOL     OW21430   5.843   6.820   3.828
 6844SOL    HW121431   5.878   6.903   3.785
 6844SOL    HW221432   5.919   6.764   3.859
 6845SOL     OW21433   5.365   4.354   2.394
 6845SOL    HW121434   5.348   4.278   2.456
 6845SOL    HW221435   5.409   4.321   2.311
 6846SOL     OW21436   4.194   3.245   1.407
 6846SOL    HW121437   4.254   3.166   1.402
 6846SOL    HW221438   4.218   3.310   1.335
 6847SOL     OW21439   6.860   4.773   2.780
 6847SOL    HW121440   6.958   4.754   2.790
 6847SOL    HW221441   6.807   4.695   2.812
 6848SOL     OW21442   3.274   6.335   3.157
 6848SOL    HW121443   3.356   6.298   3.203
 6848SOL    HW221444   3.195   6.324   3.217
 6849SOL     OW21445   3.272   5.575   4.983
 6849SOL    HW121446   3.272   5.558   4.884
 6849SOL    HW221447   3.272   5.488   5.032
 6850SOL     OW21448   5.726   3.356   2.131
 6850SOL    HW121449   5.738   3.454   2.145
 6850SOL    HW221450   5.728   3.335   2.033
 6851SOL     OW21451   1.367   2.944   3.735
 6851SOL    HW121452   1.406   2.960   3.644
 6851SOL    HW221453   1.413   2.867   3.778
 6852SOL     OW21454   1.914   4.606   0.894
 6852SOL    HW121455   1.984   4.570   0.955
 6852SOL    HW221456   1.852   4.666   0.945
 6853SOL     OW21457   0.217   3.886   7.002
 6853SOL    HW121458   0.255   3.836   6.924
 6853SOL    HW221459   0.284   3.953   0.009
 6854SOL     OW21460   5.963   2.032   6.056
 6854SOL    HW121461   6.007   2.022   5.966
 6854SOL    HW221462   6.029   2.011   6.128
 6855SOL     OW21463   3.047   5.815   2.759
 6855SOL    HW121464   2.959   5.796   2.717
 6855SOL    HW221465   3.062   5.751   2.835
 6856SOL     OW21466   5.343   4.691   5.580
 6856SOL    HW121467   5.258   4.702   5.527
 6856SOL    HW221468   5.331   4.617   5.646
 6857SOL     OW21469   3.150   1.607   0.339
 6857SOL    HW121470   3.065   1.653   0.365
 6857SOL    HW221471   3.220   1.676   0.319
 6858SOL     OW21472   3.803   3.618   4.057
 6858SOL    HW121473   3.713   3.588   4.024
 6858SOL    HW221474   3.791   3.677   4.137
 6859SOL     OW21475   1.404   0.126   1.096
 6859SOL    HW121476   1.431   0.222   1.105
 6859SOL    HW221477   1.469   0.078   1.037
 6860SOL     OW21478   5.867   5.452   1.217
 6860SOL    HW121479   5.810   5.534   1.226
 6860SOL    HW221480   5.847   5.389   1.293
 6861SOL     OW21481   5.903   4.388   1.126
 6861SOL    HW121482   5.892   4.292   1.151
 6861SOL    HW221483   5.838   4.443   1.178
 6862SOL     OW21484   1.976   4.983   4.770
 6862SOL    HW121485   1.906   4.982   4.842
 6862SOL    HW221486   2.055   4.929   4.800
 6863SOL     OW21487   6.168   1.416   5.031
 6863SOL    HW121488   6.117   1.492   4.991
 6863SOL    HW221489   6.220   1.448   5.110
 6864SOL     OW21490   3.508   6.025   4.074
 6864SOL    HW121491   3.443   6.101   4.070
 6864SOL    HW221492   3.530   5.995   3.981
 6865SOL     OW21493   0.162   5.584   2.849
 6865SOL    HW121494   0.158   5.683   2.867
 6865SOL    HW221495   0.071   5.545   2.856
 6866SOL     OW21496   6.791   4.860   2.537
 6866SOL    HW121497   6.873   4.915   2.550
 6866SOL    HW221498   6.763   4.820   2.624
 6867SOL     OW21499   1.569   5.127   1.359
 6867SOL    HW121500   1.541   5.218   1.329
 6867SOL    HW221501   1.583   5.068   1.280
 6868SOL     OW21502   1.119   5.261   5.870
 6868SOL    HW121503   1.070   5.213   5.943
 6868SOL    HW221504   1.164   5.194   5.811
 6869SOL     OW21505   5.779   0.931   4.988
 6869SOL    HW121506   5.796   1.000   5.058
 6869SOL    HW221507   5.862   0.920   4.932
 6870SOL     OW21508   6.843   5.150   2.023
 6870SOL    HW121509   6.781   5.120   2.096
 6870SOL    HW221510   6.936   5.121   2.045
 6871SOL     OW21511   5.938   4.281   2.774
 6871SOL    HW121512   5.990   4.228   2.707
 6871SOL    HW221513   5.842   4.253   2.772
 6872SOL     OW21514   0.754   3.528   1.073
 6872SOL    HW121515   0.837   3.486   1.110
 6872SOL    HW221516   0.689   3.456   1.048
 6873SOL     OW21517   6.447   4.004   5.068
 6873SOL    HW121518   6.536   4.050   5.074
 6873SOL    HW221519   6.447   3.925   5.129
 6874SOL     OW21520   0.898   4.911   2.570
 6874SOL    HW121521   0.943   4.895   2.483
 6874SOL    HW221522   0.964   4.898   2.644
 6875SOL     OW21523   1.183   2.569   3.501
 6875SOL    HW121524   1.281   2.591   3.502
 6875SOL    HW221525   1.130   2.653   3.508
 6876SOL     OW21526   4.104   6.471   5.029
 6876SOL    HW121527   4.159   6.389   5.011
 6876SOL    HW221528   4.160   6.539   5.075
 6877SOL     OW21529   2.552   4.341   6.919
 6877SOL    HW121530   2.489   4.328   6.995
 6877SOL    HW221531   2.506   4.393   6.847
 6878SOL     OW21532   2.893   2.233   5.406
 6878SOL    HW121533   2.931   2.326   5.399
 6878SOL    HW221534   2.943   2.172   5.344
 6879SOL     OW21535   1.018   2.251   0.294
 6879SOL    HW121536   1.062   2.311   0.227
 6879SOL    HW221537   1.053   2.271   0.385
 6880SOL     OW21538   1.873   3.376   4.955
 6880SOL    HW121539   1.964   3.417   4.960
 6880SOL    HW221540   1.875   3.299   4.891
 6881SOL     OW21541   0.809   3.993   2.442
 6881SOL    HW121542   0.795   4.058   2.368
 6881SOL    HW221543   0.858   3.913   2.408
 6882SOL     OW21544   3.390   0.178   6.387
 6882SOL    HW121545   3.342   0.167   6.301
 6882SOL    HW221546   3.457   0.104   6.398
 6883SOL     OW21547   4.002   1.767   0.448
 6883SOL    HW121548   4.066   1.837   0.480
 6883SOL    HW221549   4.008   1.686   0.506
 6884SOL     OW21550   1.803   3.905   4.613
 6884SOL    HW121551   1.894   3.867   4.632
 6884SOL    HW221552   1.812   3.987   4.557
 6885SOL     OW21553   4.240   6.186   4.716
 6885SOL    HW121554   4.229   6.171   4.814
 6885SOL    HW221555   4.159   6.152   4.668
 6886SOL     OW21556   6.766   0.457   4.266
 6886SOL    HW121557   6.740   0.372   4.312
 6886SOL    HW221558   6.686   0.494   4.219
 6887SOL     OW21559   5.199   6.648   5.277
 6887SOL    HW121560   5.165   6.729   5.324
 6887SOL    HW221561   5.297   6.658   5.258
 6888SOL     OW21562   5.446   6.434   6.620
 6888SOL    HW121563   5.467   6.339   6.600
 6888SOL    HW221564   5.505   6.466   6.695
 6889SOL     OW21565   1.520   2.675   5.044
 6889SOL    HW121566   1.497   2.598   4.984
 6889SOL    HW221567   1.613   2.664   5.078
 6890SOL     OW21568   3.641   0.014   1.094
 6890SOL    HW121569   3.634   7.012   1.190
 6890SOL    HW221570   3.596   6.971   1.037
 6891SOL     OW21571   2.412   4.794   4.299
 6891SOL    HW121572   2.460   4.736   4.233
 6891SOL    HW221573   2.356   4.738   4.360
 6892SOL     OW21574   3.360   1.577   3.297
 6892SOL    HW121575   3.416   1.507   3.343
 6892SOL    HW221576   3.377   1.666   3.339
 6893SOL     OW21577   5.324   5.326   6.730
 6893SOL    HW121578   5.369   5.294   6.813
 6893SOL    HW221579   5.241   5.273   6.714
 6894SOL     OW21580   6.275   4.604   0.447
 6894SOL    HW121581   6.325   4.549   0.514
 6894SOL    HW221582   6.301   4.577   0.355
 6895SOL     OW21583   2.147   5.564   6.322
 6895SOL    HW121584   2.180   5.475   6.292
 6895SOL    HW221585   2.095   5.607   6.249
 6896SOL     OW21586   1.517   6.898   3.844
 6896SOL    HW121587   1.424   6.935   3.848
 6896SOL    HW221588   1.574   6.941   3.914
 6897SOL     OW21589   2.672   3.356   0.002
 6897SOL    HW121590   2.715   3.439   6.992
 6897SOL    HW221591   2.742   3.293   0.034
 6898SOL     OW21592   3.832   1.279   2.301
 6898SOL    HW121593   3.830   1.377   2.282
 6898SOL    HW221594   3.774   1.231   2.235
 6899SOL     OW21595   5.066   6.620   1.158
 6899SOL    HW121596   5.079   6.571   1.072
 6899SOL    HW221597   5.155   6.647   1.194
 6900SOL     OW21598   6.683   0.285   5.629
 6900SOL    HW121599   6.621   0.337   5.571
 6900SOL    HW221600   6.684   0.189   5.598
 6901SOL     OW21601   0.504   6.939   5.917
 6901SOL    HW121602   0.429   6.950   5.852
 6901SOL    HW221603   0.523   6.842   5.930
 6902SOL     OW21604   5.588   6.744   0.511
 6902SOL    HW121605   5.643   6.674   0.468
 6902SOL    HW221606   5.647   6.809   0.560
 6903SOL     OW21607   4.135   5.672   4.549
 6903SOL    HW121608   4.207   5.669   4.480
 6903SOL    HW221609   4.080   5.589   4.544
 6904SOL     OW21610   5.990   1.806   4.077
 6904SOL    HW121611   6.058   1.858   4.026
 6904SOL    HW221612   5.899   1.843   4.058
 6905SOL     OW21613   6.180   6.649   0.032
 6905SOL    HW121614   6.203   6.601   6.973
 6905SOL    HW221615   6.172   6.747   0.013
 6906SOL     OW21616   4.668   1.004   4.142
 6906SOL    HW121617   4.626   1.014   4.052
 6906SOL    HW221618   4.613   0.943   4.199
 6907SOL     OW21619   5.123   2.298   1.012
 6907SOL    HW121620   5.042   2.243   1.034
 6907SOL    HW221621   5.192   2.239   0.969
 6908SOL     OW21622   1.162   5.995   6.512
 6908SOL    HW121623   1.175   5.947   6.425
 6908SOL    HW221624   1.096   6.069   6.499
 6909SOL     OW21625   6.250   4.141   1.666
 6909SOL    HW121626   6.184   4.078   1.707
 6909SOL    HW221627   6.328   4.152   1.728
 6910SOL     OW21628   0.323   2.279   3.876
 6910SOL    HW121629   0.352   2.225   3.955
 6910SOL    HW221630   0.399   2.289   3.812
 6911SOL     OW21631   4.818   6.344   3.647
 6911SOL    HW121632   4.786   6.251   3.663
 6911SOL    HW221633   4.918   6.347   3.650
 6912SOL     OW21634   3.498   4.793   0.464
 6912SOL    HW121635   3.516   4.891   0.469
 6912SOL    HW221636   3.400   4.776   0.467
 6913SOL     OW21637   5.293   4.843   5.147
 6913SOL    HW121638   5.195   4.849   5.166
 6913SOL    HW221639   5.342   4.827   5.233
 6914SOL     OW21640   5.443   4.475   6.967
 6914SOL    HW121641   5.446   4.415   6.887
 6914SOL    HW221642   5.397   4.560   6.943
 6915SOL     OW21643   6.040   3.967   1.776
 6915SOL    HW121644   6.060   3.870   1.760
 6915SOL    HW221645   5.946   3.987   1.746
 6916SOL     OW21646   6.401   3.932   6.863
 6916SOL    HW121647   6.318   3.985   6.847
 6916SOL    HW221648   6.442   3.907   6.775
 6917SOL     OW21649   3.076   5.471   1.153
 6917SOL    HW121650   3.067   5.510   1.245
 6917SOL    HW221651   3.171   5.444   1.138
 6918SOL     OW21652   0.823   3.183   4.281
 6918SOL    HW121653   0.835   3.132   4.196
 6918SOL    HW221654   0.912   3.216   4.313
 6919SOL     OW21655   0.696   6.517   2.803
 6919SOL    HW121656   0.757   6.565   2.866
 6919SOL    HW221657   0.616   6.483   2.854
 6920SOL     OW21658   4.544   5.797   5.470
 6920SOL    HW121659   4.514   5.791   5.375
 6920SOL    HW221660   4.513   5.715   5.519
 6921SOL     OW21661   5.439   6.245   3.451
 6921SOL    HW121662   5.401   6.337   3.440
 6921SOL    HW221663   5.497   6.223   3.373
 6922SOL     OW21664   1.937   5.822   6.493
 6922SOL    HW121665   2.012   5.776   6.540
 6922SOL    HW221666   1.956   5.920   6.487
 6923SOL     OW21667   4.779   5.130   3.268
 6923SOL    HW121668   4.780   5.090   3.360
 6923SOL    HW221669   4.705   5.196   3.261
 6924SOL     OW21670   1.049   4.378   6.749
 6924SOL    HW121671   0.955   4.352   6.725
 6924SOL    HW221672   1.099   4.297   6.778
 6925SOL     OW21673   3.944   6.048   5.043
 6925SOL    HW121674   3.901   5.992   5.114
 6925SOL    HW221675   3.918   6.014   4.953
 6926SOL     OW21676   2.813   3.520   2.229
 6926SOL    HW121677   2.794   3.581   2.152
 6926SOL    HW221678   2.737   3.457   2.241
 6927SOL     OW21679   5.426   3.179   6.416
 6927SOL    HW121680   5.339   3.133   6.396
 6927SOL    HW221681   5.414   3.278   6.410
 6928SOL     OW21682   6.131   6.491   0.452
 6928SOL    HW121683   6.132   6.563   0.521
 6928SOL    HW221684   6.046   6.439   0.459
 6929SOL     OW21685   4.915   5.402   0.908
 6929SOL    HW121686   4.841   5.441   0.853
 6929SOL    HW221687   4.964   5.476   0.956
 6930SOL     OW21688   6.918   0.338   2.666
 6930SOL    HW121689   6.919   0.398   2.746
 6930SOL    HW221690   6.974   0.378   2.593
 6931SOL     OW21691   2.002   0.564   2.577
 6931SOL    HW121692   2.068   0.565   2.501
 6931SOL    HW221693   1.955   0.476   2.578
 6932SOL     OW21694   3.806   6.801   0.393
 6932SOL    HW121695   3.768   6.872   0.452
 6932SOL    HW221696   3.861   6.738   0.448
 6933SOL     OW21697   3.070   6.072   5.084
 6933SOL    HW121698   3.081   6.098   5.181
 6933SOL    HW221699   3.035   6.151   5.033
 6934SOL     OW21700   5.064   4.066   5.865
 6934SOL    HW121701   5.003   4.144   5.853
 6934SOL    HW221702   5.100   4.037   5.777
 6935SOL     OW21703   4.386   6.038   3.400
 6935SOL    HW121704   4.395   6.135   3.380
 6935SOL    HW221705   4.348   6.027   3.492
 6936SOL     OW21706   6.789   2.454   3.344
 6936SOL    HW121707   6.849   2.397   3.288
 6936SOL    HW221708   6.755   2.530   3.289
 6937SOL     OW21709   0.040   6.164   0.713
 6937SOL    HW121710   0.013   6.185   0.807
 6937SOL    HW221711   6.987   6.174   0.652
 6938SOL     OW21712   5.154   3.672   5.905
 6938SOL    HW121713   5.122   3.651   5.813
 6938SOL    HW221714   5.081   3.652   5.971
 6939SOL     OW21715   6.886   4.380   1.522
 6939SOL    HW121716   6.899   4.407   1.427
 6939SOL    HW221717   6.804   4.323   1.530
 6940SOL     OW21718   4.772   1.427   0.598
 6940SOL    HW121719   4.699   1.371   0.637
 6940SOL    HW221720   4.857   1.374   0.598
 6941SOL     OW21721   3.337   3.122   3.118
 6941SOL    HW121722   3.291   3.047   3.071
 6941SOL    HW221723   3.409   3.086   3.177
 6942SOL     OW21724   6.218   2.517   1.256
 6942SOL    HW121725   6.223   2.617   1.263
 6942SOL    HW221726   6.173   2.480   1.338
 6943SOL     OW21727   4.719   6.121   6.640
 6943SOL    HW121728   4.766   6.063   6.574
 6943SOL    HW221729   4.757   6.214   6.636
 6944SOL     OW21730   1.664   3.721   6.556
 6944SOL    HW121731   1.646   3.798   6.495
 6944SOL    HW221732   1.748   3.675   6.528
 6945SOL     OW21733   6.515   2.988   6.207
 6945SOL    HW121734   6.549   3.050   6.277
 6945SOL    HW221735   6.580   2.983   6.132
 6946SOL     OW21736   6.254   6.612   1.332
 6946SOL    HW121737   6.263   6.700   1.284
 6946SOL    HW221738   6.173   6.615   1.391
 6947SOL     OW21739   3.289   6.477   5.495
 6947SOL    HW121740   3.198   6.457   5.457
 6947SOL    HW221741   3.357   6.476   5.422
 6948SOL     OW21742   6.195   0.283   6.643
 6948SOL    HW121743   6.226   0.199   6.686
 6948SOL    HW221744   6.205   0.276   6.543
 6949SOL     OW21745   5.080   6.918   3.693
 6949SOL    HW121746   5.020   6.987   3.734
 6949SOL    HW221747   5.115   6.952   3.605
 6950SOL     OW21748   2.383   0.363   3.824
 6950SOL    HW121749   2.383   0.267   3.795
 6950SOL    HW221750   2.454   0.377   3.892
 6951SOL     OW21751   6.299   6.418   5.728
 6951SOL    HW121752   6.262   6.362   5.654
 6951SOL    HW221753   6.397   6.432   5.712
 6952SOL     OW21754   0.184   5.729   3.847
 6952SOL    HW121755   0.248   5.653   3.835
 6952SOL    HW221756   0.221   5.793   3.914
 6953SOL     OW21757   4.883   0.558   6.707
 6953SOL    HW121758   4.944   0.553   6.786
 6953SOL    HW221759   4.793   0.592   6.736
 6954SOL     OW21760   0.096   3.388   3.830
 6954SOL    HW121761   0.066   3.453   3.900
 6954SOL    HW221762   0.161   3.323   3.871
 6955SOL     OW21763   6.114   0.666   1.649
 6955SOL    HW121764   6.142   0.570   1.657
 6955SOL    HW221765   6.185   0.717   1.600
 6956SOL     OW21766   4.657   6.677   3.392
 6956SOL    HW121767   4.562   6.674   3.421
 6956SOL    HW221768   4.717   6.671   3.472
 6957SOL     OW21769   6.158   5.088   0.779
 6957SOL    HW121770   6.083   5.075   0.843
 6957SOL    HW221771   6.243   5.105   0.830
 6958SOL     OW21772   3.053   4.071   5.042
 6958SOL    HW121773   3.107   4.114   5.114
 6958SOL    HW221774   3.048   4.131   4.963
 6959SOL     OW21775   2.190   1.421   4.762
 6959SOL    HW121776   2.243   1.370   4.694
 6959SOL    HW221777   2.093   1.419   4.739
 6960SOL     OW21778   1.513   5.740   1.234
 6960SOL    HW121779   1.495   5.834   1.263
 6960SOL    HW221780   1.459   5.719   1.152
 6961SOL     OW21781   6.242   2.463   4.202
 6961SOL    HW121782   6.311   2.408   4.249
 6961SOL    HW221783   6.160   2.407   4.186
 6962SOL     OW21784   5.581   6.075   1.878
 6962SOL    HW121785   5.528   6.014   1.936
 6962SOL    HW221786   5.677   6.047   1.879
 6963SOL     OW21787   6.213   5.315   1.070
 6963SOL    HW121788   6.265   5.285   0.991
 6963SOL    HW221789   6.262   5.388   1.117
 6964SOL     OW21790   3.464   6.917   4.974
 6964SOL    HW121791   3.407   6.889   4.896
 6964SOL    HW221792   3.466   7.017   4.981
 6965SOL     OW21793   0.339   3.202   0.071
 6965SOL    HW121794   0.414   3.174   0.011
 6965SOL    HW221795   0.345   3.300   0.089
 6966SOL     OW21796   6.923   1.889   3.382
 6966SOL    HW121797   6.843   1.832   3.365
 6966SOL    HW221798   6.935   1.953   3.306
 6967SOL     OW21799   1.734   0.253   5.575
 6967SOL    HW121800   1.765   0.337   5.530
 6967SOL    HW221801   1.637   0.261   5.598
 6968SOL     OW21802   4.882   6.461   2.484
 6968SOL    HW121803   4.821   6.476   2.405
 6968SOL    HW221804   4.906   6.365   2.490
 6969SOL     OW21805   2.516   2.486   1.105
 6969SOL    HW121806   2.594   2.530   1.060
 6969SOL    HW221807   2.544   2.396   1.139
 6970SOL     OW21808   3.144   3.960   6.459
 6970SOL    HW121809   3.150   4.045   6.511
 6970SOL    HW221810   3.049   3.929   6.455
 6971SOL     OW21811   6.080   4.657   1.435
 6971SOL    HW121812   6.035   4.719   1.499
 6971SOL    HW221813   6.136   4.591   1.486
 6972SOL     OW21814   5.577   4.953   3.085
 6972SOL    HW121815   5.477   4.941   3.085
 6972SOL    HW221816   5.621   4.865   3.102
 6973SOL     OW21817   0.340   3.316   5.307
 6973SOL    HW121818   0.410   3.387   5.300
 6973SOL    HW221819   0.348   3.270   5.395
 6974SOL     OW21820   3.280   2.960   2.879
 6974SOL    HW121821   3.333   3.015   2.814
 6974SOL    HW221822   3.199   2.924   2.833
 6975SOL     OW21823   2.000   5.711   6.133
 6975SOL    HW121824   1.931   5.692   6.202
 6975SOL    HW221825   1.963   5.693   6.042
 6976SOL     OW21826   4.476   5.630   4.934
 6976SOL    HW121827   4.511   5.691   4.862
 6976SOL    HW221828   4.380   5.609   4.915
 6977SOL     OW21829   4.392   2.360   1.761
 6977SOL    HW121830   4.462   2.345   1.691
 6977SOL    HW221831   4.428   2.421   1.831
 6978SOL     OW21832   4.472   1.649   2.670
 6978SOL    HW121833   4.481   1.550   2.657
 6978SOL    HW221834   4.388   1.681   2.627
 6979SOL     OW21835   1.408   4.360   1.064
 6979SOL    HW121836   1.382   4.272   1.104
 6979SOL    HW221837   1.383   4.363   0.968
 6980SOL     OW21838   1.395   1.107   3.859
 6980SOL    HW121839   1.378   1.056   3.943
 6980SOL    HW221840   1.384   1.047   3.780
 6981SOL     OW21841   3.954   2.872   5.634
 6981SOL    HW121842   3.974   2.779   5.601
 6981SOL    HW221843   4.005   2.938   5.581
 6982SOL     OW21844   1.196   0.661   4.789
 6982SOL    HW121845   1.105   0.664   4.748
 6982SOL    HW221846   1.265   0.652   4.717
 6983SOL     OW21847   4.437   2.273   4.022
 6983SOL    HW121848   4.438   2.366   4.059
 6983SOL    HW221849   4.525   2.253   3.980
 6984SOL     OW21850   2.392   1.494   4.100
 6984SOL    HW121851   2.320   1.464   4.038
 6984SOL    HW221852   2.473   1.523   4.048
 6985SOL     OW21853   4.155   5.458   1.349
 6985SOL    HW121854   4.167   5.377   1.406
 6985SOL    HW221855   4.078   5.512   1.383
 6986SOL     OW21856   2.166   6.379   6.090
 6986SOL    HW121857   2.085   6.339   6.132
 6986SOL    HW221858   2.179   6.472   6.125
 6987SOL     OW21859   0.364   1.852   6.221
 6987SOL    HW121860   0.342   1.772   6.166
 6987SOL    HW221861   0.454   1.887   6.196
 6988SOL     OW21862   6.799   1.266   6.005
 6988SOL    HW121863   6.829   1.234   6.095
 6988SOL    HW221864   6.713   1.316   6.015
 6989SOL     OW21865   0.244   3.805   3.461
 6989SOL    HW121866   0.216   3.759   3.546
 6989SOL    HW221867   0.202   3.896   3.457
 6990SOL     OW21868   5.081   2.410   1.555
 6990SOL    HW121869   5.058   2.361   1.471
 6990SOL    HW221870   5.174   2.388   1.582
 6991SOL     OW21871   3.681   4.893   3.859
 6991SOL    HW121872   3.583   4.912   3.864
 6991SOL    HW221873   3.712   4.908   3.765
 6992SOL     OW21874   5.359   6.474   5.644
 6992SOL    HW121875   5.394   6.392   5.600
 6992SOL    HW221876   5.399   6.484   5.735
 6993SOL     OW21877   6.486   0.852   3.592
 6993SOL    HW121878   6.551   0.786   3.554
 6993SOL    HW221879   6.513   0.945   3.566
 6994SOL     OW21880   0.416   2.218   4.506
 6994SOL    HW121881   0.328   2.241   4.465
 6994SOL    HW221882   0.469   2.162   4.442
 6995SOL     OW21883   6.810   4.551   6.042
 6995SOL    HW121884   6.728   4.589   6.000
 6995SOL    HW221885   6.869   4.513   5.971
 6996SOL     OW21886   2.362   0.820   6.828
 6996SOL    HW121887   2.378   0.796   6.924
 6996SOL    HW221888   2.364   0.737   6.772
 6997SOL     OW21889   5.961   6.059   5.328
 6997SOL    HW121890   5.989   6.023   5.417
 6997SOL    HW221891   5.998   6.151   5.316
 6998SOL     OW21892   1.778   1.772   1.273
 6998SOL    HW121893   1.756   1.822   1.189
 6998SOL    HW221894   1.817   1.834   1.340
 6999SOL     OW21895   2.504   2.867   6.002
 6999SOL    HW121896   2.592   2.869   5.955
 6999SOL    HW221897   2.445   2.940   5.965
 7000SOL     OW21898   6.209   6.138   1.612
 7000SOL    HW121899   6.227   6.073   1.687
 7000SOL    HW221900   6.293   6.187   1.590
 7001SOL     OW21901   2.343   3.003   5.393
 7001SOL    HW121902   2.410   3.006   5.318
 7001SOL    HW221903   2.324   2.907   5.416
 7002SOL     OW21904   2.456   5.078   3.334
 7002SOL    HW121905   2.463   5.174   3.307
 7002SOL    HW221906   2.538   5.050   3.383
 7003SOL     OW21907   3.286   5.671   0.011
 7003SOL    HW121908   3.296   5.701   0.105
 7003SOL    HW221909   3.284   5.571   0.008
 7004SOL     OW21910   1.199   4.766   2.319
 7004SOL    HW121911   1.264   4.726   2.254
 7004SOL    HW221912   1.163   4.695   2.379
 7005SOL     OW21913   1.219   6.846   0.286
 7005SOL    HW121914   1.279   6.804   0.355
 7005SOL    HW221915   1.127   6.855   0.324
 7006SOL     OW21916   4.500   4.879   4.006
 7006SOL    HW121917   4.559   4.877   4.086
 7006SOL    HW221918   4.418   4.933   4.026
 7007SOL     OW21919   4.698   7.019   3.901
 7007SOL    HW121920   4.673   6.932   3.857
 7007SOL    HW221921   4.776   0.033   3.853
 7008SOL     OW21922   0.928   4.648   4.701
 7008SOL    HW121923   0.969   4.638   4.792
 7008SOL    HW221924   0.987   4.606   4.633
 7009SOL     OW21925   6.090   6.117   2.005
 7009SOL    HW121926   6.024   6.077   1.941
 7009SOL    HW221927   6.084   6.071   2.093
 7010SOL     OW21928   5.484   4.778   4.956
 7010SOL    HW121929   5.453   4.697   4.907
 7010SOL    HW221930   5.423   4.795   5.034
 7011SOL     OW21931   4.045   6.625   6.240
 7011SOL    HW121932   4.130   6.576   6.222
 7011SOL    HW221933   4.066   6.716   6.274
 7012SOL     OW21934   1.799   1.786   1.687
 7012SOL    HW121935   1.839   1.697   1.668
 7012SOL    HW221936   1.810   1.845   1.606
 7013SOL     OW21937   0.630   0.561   0.940
 7013SOL    HW121938   0.613   0.631   0.870
 7013SOL    HW221939   0.644   0.473   0.895
 7014SOL     OW21940   4.274   3.359   1.160
 7014SOL    HW121941   4.187   3.385   1.119
 7014SOL    HW221942   4.293   3.263   1.139
 7015SOL     OW21943   5.685   4.557   2.107
 7015SOL    HW121944   5.735   4.471   2.101
 7015SOL    HW221945   5.727   4.625   2.047
 7016SOL     OW21946   3.509   4.540   1.484
 7016SOL    HW121947   3.604   4.523   1.460
 7016SOL    HW221948   3.504   4.618   1.546
 7017SOL     OW21949   2.846   5.952   2.088
 7017SOL    HW121950   2.820   5.945   2.184
 7017SOL    HW221951   2.783   5.897   2.032
 7018SOL     OW21952   5.980   4.213   3.686
 7018SOL    HW121953   6.038   4.132   3.675
 7018SOL    HW221954   5.885   4.188   3.667
 7019SOL     OW21955   2.419   4.254   6.548
 7019SOL    HW121956   2.468   4.190   6.607
 7019SOL    HW221957   2.321   4.242   6.561
 7020SOL     OW21958   5.778   6.887   6.933
 7020SOL    HW121959   5.737   6.800   6.962
 7020SOL    HW221960   5.874   6.873   6.911
 7021SOL     OW21961   1.379   1.155   6.103
 7021SOL    HW121962   1.295   1.154   6.159
 7021SOL    HW221963   1.458   1.162   6.163
 7022SOL     OW21964   4.436   6.358   0.332
 7022SOL    HW121965   4.456   6.322   0.241
 7022SOL    HW221966   4.349   6.407   0.330
 7023SOL     OW21967   0.645   1.800   3.671
 7023SOL    HW121968   0.585   1.783   3.593
 7023SOL    HW221969   0.591   1.828   3.750
 7024SOL     OW21970   1.904   3.956   5.046
 7024SOL    HW121971   1.901   3.932   4.949
 7024SOL    HW221972   1.970   4.030   5.061
 7025SOL     OW21973   2.665   0.702   0.026
 7025SOL    HW121974   2.725   0.632   7.012
 7025SOL    HW221975   2.648   0.774   6.985
 7026SOL     OW21976   3.414   2.246   1.773
 7026SOL    HW121977   3.508   2.243   1.806
 7026SOL    HW221978   3.353   2.209   1.842
 7027SOL     OW21979   2.992   5.149   4.373
 7027SOL    HW121980   3.010   5.055   4.400
 7027SOL    HW221981   2.908   5.181   4.416
 7028SOL     OW21982   4.262   0.593   4.061
 7028SOL    HW121983   4.270   0.674   4.118
 7028SOL    HW221984   4.251   0.512   4.119
 7029SOL     OW21985   5.211   4.880   5.789
 7029SOL    HW121986   5.273   4.958   5.791
 7029SOL    HW221987   5.260   4.799   5.754
 7030SOL     OW21988   1.138   1.411   5.320
 7030SOL    HW121989   1.155   1.494   5.267
 7030SOL    HW221990   1.225   1.373   5.350
 7031SOL     OW21991   2.468   6.607   5.065
 7031SOL    HW121992   2.559   6.568   5.056
 7031SOL    HW221993   2.474   6.697   5.107
 7032SOL     OW21994   3.592   0.701   2.876
 7032SOL    HW121995   3.516   0.642   2.848
 7032SOL    HW221996   3.590   0.786   2.824
 7033SOL     OW21997   1.675   2.458   3.295
 7033SOL    HW121998   1.626   2.531   3.247
 7033SOL    HW221999   1.618   2.376   3.299
 7034SOL     OW22000   5.988   0.563   3.007
 7034SOL    HW122001   5.951   0.643   2.961
 7034SOL    HW222002   6.053   0.592   3.077
 7035SOL     OW22003   1.982   6.619   1.480
 7035SOL    HW122004   2.082   6.618   1.482
 7035SOL    HW222005   1.948   6.525   1.485
 7036SOL     OW22006   0.409   0.421   2.522
 7036SOL    HW122007   0.384   0.511   2.485
 7036SOL    HW222008   0.329   0.380   2.565
 7037SOL     OW22009   2.012   0.847   6.173
 7037SOL    HW122010   1.946   0.772   6.169
 7037SOL    HW222011   2.027   0.884   6.081
 7038SOL     OW22012   1.857   3.435   4.598
 7038SOL    HW122013   1.886   3.418   4.504
 7038SOL    HW222014   1.930   3.408   4.661
 7039SOL     OW22015   2.712   4.679   1.340
 7039SOL    HW122016   2.789   4.723   1.293
 7039SOL    HW222017   2.710   4.707   1.436
 7040SOL     OW22018   6.530   2.101   4.714
 7040SOL    HW122019   6.569   2.090   4.805
 7040SOL    HW222020   6.532   2.198   4.688
 7041SOL     OW22021   0.259   2.043   1.998
 7041SOL    HW122022   0.181   1.984   1.979
 7041SOL    HW222023   0.301   2.016   2.085
 7042SOL     OW22024   5.433   4.833   5.369
 7042SOL    HW122025   5.426   4.775   5.450
 7042SOL    HW222026   5.401   4.925   5.391
 7043SOL     OW22027   2.152   3.418   2.848
 7043SOL    HW122028   2.203   3.504   2.852
 7043SOL    HW222029   2.089   3.420   2.771
 7044SOL     OW22030   4.491   4.444   3.491
 7044SOL    HW122031   4.458   4.437   3.397
 7044SOL    HW222032   4.574   4.500   3.492
 7045SOL     OW22033   5.351   5.203   3.241
 7045SOL    HW122034   5.309   5.260   3.312
 7045SOL    HW222035   5.361   5.256   3.158
 7046SOL     OW22036   3.420   1.794   2.917
 7046SOL    HW122037   3.465   1.782   2.829
 7046SOL    HW222038   3.416   1.892   2.939
 7047SOL     OW22039   0.428   2.749   2.411
 7047SOL    HW122040   0.480   2.692   2.475
 7047SOL    HW222041   0.408   2.697   2.328
 7048SOL     OW22042   6.328   6.135   2.683
 7048SOL    HW122043   6.393   6.210   2.691
 7048SOL    HW222044   6.235   6.170   2.694
 7049SOL     OW22045   3.710   1.696   1.227
 7049SOL    HW122046   3.657   1.705   1.143
 7049SOL    HW222047   3.775   1.771   1.233
 7050SOL     OW22048   3.927   3.965   1.814
 7050SOL    HW122049   3.883   4.042   1.860
 7050SOL    HW222050   3.883   3.880   1.845
 7051SOL     OW22051   6.848   0.261   1.986
 7051SOL    HW122052   6.768   0.235   1.932
 7051SOL    HW222053   6.905   0.324   1.932
 7052SOL     OW22054   5.323   2.484   4.303
 7052SOL    HW122055   5.309   2.574   4.263
 7052SOL    HW222056   5.418   2.456   4.290
 7053SOL     OW22057   0.555   3.655   4.775
 7053SOL    HW122058   0.545   3.653   4.874
 7053SOL    HW222059   0.651   3.668   4.751
 7054SOL     OW22060   0.508   6.793   0.435
 7054SOL    HW122061   0.451   6.838   0.504
 7054SOL    HW222062   0.453   6.774   0.354
 7055SOL     OW22063   3.042   6.801   5.594
 7055SOL    HW122064   3.023   6.721   5.537
 7055SOL    HW222065   2.973   6.871   5.576
 7056SOL     OW22066   6.872   5.553   2.091
 7056SOL    HW122067   6.782   5.565   2.051
 7056SOL    HW222068   6.863   5.540   2.190
 7057SOL     OW22069   1.410   5.755   3.935
 7057SOL    HW122070   1.390   5.817   4.012
 7057SOL    HW222071   1.410   5.661   3.968
 7058SOL     OW22072   6.210   5.332   5.891
 7058SOL    HW122073   6.290   5.387   5.915
 7058SOL    HW222074   6.155   5.380   5.823
 7059SOL     OW22075   6.776   0.981   4.009
 7059SOL    HW122076   6.737   1.020   3.926
 7059SOL    HW222077   6.863   1.025   4.029
 7060SOL     OW22078   4.071   0.069   1.653
 7060SOL    HW122079   4.164   0.039   1.629
 7060SOL    HW222080   4.050   0.039   1.746
 7061SOL     OW22081   1.646   2.999   3.942
 7061SOL    HW122082   1.633   3.094   3.973
 7061SOL    HW222083   1.586   2.980   3.865
 7062SOL     OW22084   4.363   1.274   5.369
 7062SOL    HW122085   4.426   1.253   5.443
 7062SOL    HW222086   4.308   1.354   5.395
 7063SOL     OW22087   1.146   0.564   1.997
 7063SOL    HW122088   1.226   0.620   1.975
 7063SOL    HW222089   1.177   0.477   2.037
 7064SOL     OW22090   3.719   2.265   1.593
 7064SOL    HW122091   3.717   2.170   1.560
 7064SOL    HW222092   3.711   2.266   1.692
 7065SOL     OW22093   3.948   3.848   6.169
 7065SOL    HW122094   3.895   3.764   6.179
 7065SOL    HW222095   4.002   3.864   6.251
 7066SOL     OW22096   4.809   0.502   0.627
 7066SOL    HW122097   4.846   0.593   0.647
 7066SOL    HW222098   4.877   0.433   0.650
 7067SOL     OW22099   2.180   1.477   5.242
 7067SOL    HW122100   2.213   1.566   5.271
 7067SOL    HW222101   2.232   1.446   5.162
 7068SOL     OW22102   0.310   3.923   4.070
 7068SOL    HW122103   0.258   3.942   3.987
 7068SOL    HW222104   0.403   3.958   4.060
 7069SOL     OW22105   5.575   1.463   4.459
 7069SOL    HW122106   5.477   1.466   4.481
 7069SOL    HW222107   5.592   1.393   4.390
 7070SOL     OW22108   6.917   5.979   5.115
 7070SOL    HW122109   6.926   5.941   5.023
 7070SOL    HW222110   6.823   5.969   5.146
 7071SOL     OW22111   2.382   6.097   6.680
 7071SOL    HW122112   2.291   6.057   6.678
 7071SOL    HW222113   2.420   6.100   6.588
 7072SOL     OW22114   1.404   5.941   6.938
 7072SOL    HW122115   1.453   5.866   6.892
 7072SOL    HW222116   1.436   6.029   6.900
 7073SOL     OW22117   5.202   0.037   4.379
 7073SOL    HW122118   5.150   0.003   4.301
 7073SOL    HW222119   5.245   0.124   4.355
 7074SOL     OW22120   4.494   2.425   2.530
 7074SOL    HW122121   4.509   2.363   2.607
 7074SOL    HW222122   4.506   2.520   2.561
 7075SOL     OW22123   1.844   4.666   4.806
 7075SOL    HW122124   1.828   4.636   4.711
 7075SOL    HW222125   1.912   4.606   4.848
 7076SOL     OW22126   5.537   1.644   6.524
 7076SOL    HW122127   5.610   1.694   6.478
 7076SOL    HW222128   5.462   1.708   6.546
 7077SOL     OW22129   2.553   4.554   4.217
 7077SOL    HW122130   2.543   4.518   4.310
 7077SOL    HW222131   2.547   4.478   4.151
 7078SOL     OW22132   7.000   6.970   1.759
 7078SOL    HW122133   6.939   6.908   1.710
 7078SOL    HW222134   0.069   6.953   1.731
 7079SOL     OW22135   6.672   6.468   4.625
 7079SOL    HW122136   6.764   6.468   4.584
 7079SOL    HW222137   6.655   6.555   4.670
 7080SOL     OW22138   2.785   1.890   4.605
 7080SOL    HW122139   2.726   1.822   4.648
 7080SOL    HW222140   2.736   1.935   4.531
 7081SOL     OW22141   3.187   0.151   0.136
 7081SOL    HW122142   3.204   0.066   0.087
 7081SOL    HW222143   3.126   0.209   0.082
 7082SOL     OW22144   6.513   4.261   6.852
 7082SOL    HW122145   6.441   4.253   6.784
 7082SOL    HW222146   6.567   4.343   6.835
 7083SOL     OW22147   2.835   0.275   0.812
 7083SOL    HW122148   2.747   0.279   0.859
 7083SOL    HW222149   2.825   0.312   0.720
 7084SOL     OW22150   0.251   5.910   6.121
 7084SOL    HW122151   0.208   5.884   6.207
 7084SOL    HW222152   0.181   5.914   6.049
 7085SOL     OW22153   0.802   1.939   2.037
 7085SOL    HW122154   0.891   1.894   2.040
 7085SOL    HW222155   0.737   1.890   2.095
 7086SOL     OW22156   5.332   0.504   5.435
 7086SOL    HW122157   5.395   0.483   5.510
 7086SOL    HW222158   5.383   0.541   5.358
 7087SOL     OW22159   6.017   2.942   3.969
 7087SOL    HW122160   5.982   2.958   4.061
 7087SOL    HW222161   5.944   2.905   3.912
 7088SOL     OW22162   5.881   2.749   3.830
 7088SOL    HW122163   5.903   2.668   3.884
 7088SOL    HW222164   5.795   2.735   3.782
 7089SOL     OW22165   3.283   2.171   4.586
 7089SOL    HW122166   3.318   2.213   4.503
 7089SOL    HW222167   3.188   2.198   4.600
 7090SOL     OW22168   2.349   0.353   0.006
 7090SOL    HW122169   2.354   0.287   0.081
 7090SOL    HW222170   2.255   0.359   6.998
 7091SOL     OW22171   0.642   1.516   7.012
 7091SOL    HW122172   0.657   1.460   6.931
 7091SOL    HW222173   0.619   1.609   6.985
 7092SOL     OW22174   4.764   2.807   5.728
 7092SOL    HW122175   4.811   2.841   5.647
 7092SOL    HW222176   4.698   2.874   5.760
 7093SOL     OW22177   2.959   3.773   3.123
 7093SOL    HW122178   2.973   3.753   3.220
 7093SOL    HW222179   3.014   3.853   3.098
 7094SOL     OW22180   6.645   6.240   5.996
 7094SOL    HW122181   6.690   6.170   6.052
 7094SOL    HW222182   6.634   6.206   5.903
 7095SOL     OW22183   3.523   3.989   5.732
 7095SOL    HW122184   3.574   3.987   5.646
 7095SOL    HW222185   3.559   4.062   5.790
 7096SOL     OW22186   6.264   0.522   3.837
 7096SOL    HW122187   6.329   0.447   3.821
 7096SOL    HW222188   6.315   0.607   3.851
 7097SOL     OW22189   6.051   1.696   1.141
 7097SOL    HW122190   5.998   1.771   1.100
 7097SOL    HW222191   6.149   1.715   1.130
 7098SOL     OW22192   1.710   6.502   5.224
 7098SOL    HW122193   1.749   6.412   5.240
 7098SOL    HW222194   1.611   6.496   5.214
 7099SOL     OW22195   3.411   1.009   5.195
 7099SOL    HW122196   3.410   1.079   5.266
 7099SOL    HW222197   3.505   0.977   5.181
 7100SOL     OW22198   5.068   2.732   1.239
 7100SOL    HW122199   5.016   2.662   1.190
 7100SOL    HW222200   5.143   2.764   1.181
 7101SOL     OW22201   2.131   0.658   4.671
 7101SOL    HW122202   2.125   0.755   4.648
 7101SOL    HW222203   2.225   0.635   4.696
 7102SOL     OW22204   5.369   0.022   0.782
 7102SOL    HW122205   5.372   6.952   0.751
 7102SOL    HW222206   5.448   0.040   0.841
 7103SOL     OW22207   4.825   4.648   1.747
 7103SOL    HW122208   4.831   4.572   1.683
 7103SOL    HW222209   4.793   4.614   1.836
 7104SOL     OW22210   0.122   2.480   3.790
 7104SOL    HW122211   0.204   2.423   3.800
 7104SOL    HW222212   0.045   2.422   3.764
 7105SOL     OW22213   2.836   2.751   5.485
 7105SOL    HW122214   2.761   2.781   5.544
 7105SOL    HW222215   2.905   2.823   5.480
 7106SOL     OW22216   3.931   3.921   2.840
 7106SOL    HW122217   3.993   3.844   2.829
 7106SOL    HW222218   3.897   3.950   2.750
 7107SOL     OW22219   4.322   1.496   0.441
 7107SOL    HW122220   4.335   1.579   0.386
 7107SOL    HW222221   4.226   1.489   0.468
 7108SOL     OW22222   4.643   5.741   3.063
 7108SOL    HW122223   4.584   5.767   3.140
 7108SOL    HW222224   4.662   5.643   3.067
 7109SOL     OW22225   2.982   0.768   5.989
 7109SOL    HW122226   2.943   0.751   6.079
 7109SOL    HW222227   2.921   0.829   5.938
 7110SOL     OW22228   3.003   5.870   4.238
 7110SOL    HW122229   3.015   5.774   4.264
 7110SOL    HW222230   2.935   5.876   4.165
 7111SOL     OW22231   1.180   2.453   4.921
 7111SOL    HW122232   1.107   2.519   4.935
 7111SOL    HW222233   1.164   2.373   4.979
 7112SOL     OW22234   1.597   5.084   4.680
 7112SOL    HW122235   1.677   5.074   4.620
 7112SOL    HW222236   1.520   5.121   4.627
 7113SOL     OW22237   4.103   3.596   4.861
 7113SOL    HW122238   4.164   3.566   4.788
 7113SOL    HW222239   4.142   3.570   4.949
 7114SOL     OW22240   3.871   6.914   1.571
 7114SOL    HW122241   3.927   6.857   1.510
 7114SOL    HW222242   3.924   6.993   1.601
 7115SOL     OW22243   5.470   2.796   1.277
 7115SOL    HW122244   5.548   2.843   1.236
 7115SOL    HW222245   5.496   2.704   1.304
 7116SOL     OW22246   6.279   4.069   3.423
 7116SOL    HW122247   6.333   4.140   3.467
 7116SOL    HW222248   6.208   4.037   3.487
 7117SOL     OW22249   0.541   6.411   5.189
 7117SOL    HW122250   0.474   6.362   5.247
 7117SOL    HW222251   0.633   6.387   5.218
 7118SOL     OW22252   2.549   4.141   1.089
 7118SOL    HW122253   2.623   4.097   1.038
 7118SOL    HW222254   2.471   4.158   1.028
 7119SOL     OW22255   5.090   1.912   3.362
 7119SOL    HW122256   5.117   1.884   3.270
 7119SOL    HW222257   5.100   1.835   3.424
 7120SOL     OW22258   3.550   1.407   2.439
 7120SOL    HW122259   3.612   1.412   2.360
 7120SOL    HW222260   3.574   1.478   2.504
 7121SOL     OW22261   1.306   6.911   3.562
 7121SOL    HW122262   1.339   6.817   3.565
 7121SOL    HW222263   1.348   6.958   3.484
 7122SOL     OW22264   0.594   0.171   5.943
 7122SOL    HW122265   0.681   0.189   5.896
 7122SOL    HW222266   0.579   0.073   5.949
 7123SOL     OW22267   1.615   4.439   3.269
 7123SOL    HW122268   1.515   4.437   3.272
 7123SOL    HW222269   1.650   4.474   3.356
 7124SOL     OW22270   6.895   2.465   1.445
 7124SOL    HW122271   6.847   2.396   1.391
 7124SOL    HW222272   6.843   2.551   1.442
 7125SOL     OW22273   6.977   6.818   1.338
 7125SOL    HW122274   6.957   6.916   1.330
 7125SOL    HW222275   6.981   6.777   1.247
 7126SOL     OW22276   3.530   4.914   6.990
 7126SOL    HW122277   3.569   4.877   0.049
 7126SOL    HW222278   3.486   4.840   6.939
 7127SOL     OW22279   1.593   5.276   5.441
 7127SOL    HW122280   1.590   5.239   5.348
 7127SOL    HW222281   1.499   5.286   5.475
 7128SOL     OW22282   2.949   4.822   0.400
 7128SOL    HW122283   2.866   4.766   0.409
 7128SOL    HW222284   2.980   4.821   0.305
 7129SOL     OW22285   2.025   1.840   6.609
 7129SOL    HW122286   2.051   1.928   6.569
 7129SOL    HW222287   1.970   1.856   6.692
 7130SOL     OW22288   4.419   6.057   5.216
 7130SOL    HW122289   4.348   6.101   5.271
 7130SOL    HW222290   4.422   6.099   5.125
 7131SOL     OW22291   2.658   0.575   0.933
 7131SOL    HW122292   2.737   0.599   0.989
 7131SOL    HW222293   2.637   0.478   0.946
 7132SOL     OW22294   3.490   4.215   6.816
 7132SOL    HW122295   3.458   4.299   6.773
 7132SOL    HW222296   3.505   4.145   6.747
 7133SOL     OW22297   5.271   5.671   5.952
 7133SOL    HW122298   5.327   5.629   6.023
 7133SOL    HW222299   5.252   5.766   5.977
 7134SOL     OW22300   5.408   7.001   2.441
 7134SOL    HW122301   5.350   6.945   2.382
 7134SOL    HW222302   5.485   0.012   2.389
 7135SOL     OW22303   1.364   3.064   3.046
 7135SOL    HW122304   1.321   3.079   3.135
 7135SOL    HW222305   1.309   3.001   2.993
 7136SOL     OW22306   2.687   2.996   1.209
 7136SOL    HW122307   2.771   3.007   1.155
 7136SOL    HW222308   2.618   2.950   1.153
 7137SOL     OW22309   3.572   6.986   6.550
 7137SOL    HW122310   3.492   6.981   6.611
 7137SOL    HW222311   3.595   6.894   6.519
 7138SOL     OW22312   1.900   2.460   0.055
 7138SOL    HW122313   1.844   2.399   0.111
 7138SOL    HW222314   1.866   2.553   0.062
 7139SOL     OW22315   5.965   4.088   1.498
 7139SOL    HW122316   5.959   4.172   1.552
 7139SOL    HW222317   5.887   4.029   1.520
 7140SOL     OW22318   5.953   4.089   3.325
 7140SOL    HW122319   5.895   4.044   3.392
 7140SOL    HW222320   5.896   4.124   3.250
 7141SOL     OW22321   3.739   5.693   1.673
 7141SOL    HW122322   3.695   5.653   1.754
 7141SOL    HW222323   3.670   5.738   1.617
 7142SOL     OW22324   4.046   0.297   3.608
 7142SOL    HW122325   4.048   0.303   3.508
 7142SOL    HW222326   3.966   0.347   3.643
 7143SOL     OW22327   1.557   2.578   5.907
 7143SOL    HW122328   1.584   2.608   5.998
 7143SOL    HW222329   1.480   2.514   5.915
 7144SOL     OW22330   1.922   2.750   2.017
 7144SOL    HW122331   1.956   2.660   1.990
 7144SOL    HW222332   1.858   2.741   2.093
 7145SOL     OW22333   4.544   0.459   0.243
 7145SOL    HW122334   4.594   0.378   0.274
 7145SOL    HW222335   4.592   0.541   0.273
 7146SOL     OW22336   2.054   0.363   0.862
 7146SOL    HW122337   2.089   0.295   0.926
 7146SOL    HW222338   2.053   0.453   0.907
 7147SOL     OW22339   0.365   6.846   3.184
 7147SOL    HW122340   0.331   6.921   3.128
 7147SOL    HW222341   0.429   6.790   3.130
 7148SOL     OW22342   0.651   5.756   1.014
 7148SOL    HW122343   0.666   5.839   0.960
 7148SOL    HW222344   0.703   5.681   0.974
 7149SOL     OW22345   6.036   6.382   2.957
 7149SOL    HW122346   5.952   6.404   3.006
 7149SOL    HW222347   6.075   6.466   2.918
 7150SOL     OW22348   3.113   2.108   1.978
 7150SOL    HW122349   3.095   2.118   1.880
 7150SOL    HW222350   3.051   2.167   2.029
 7151SOL     OW22351   2.364   5.934   0.354
 7151SOL    HW122352   2.265   5.950   0.355
 7151SOL    HW222353   2.382   5.841   0.320
 7152SOL     OW22354   0.780   0.454   5.370
 7152SOL    HW122355   0.759   0.359   5.389
 7152SOL    HW222356   0.855   0.459   5.304
 7153SOL     OW22357   3.671   5.599   1.927
 7153SOL    HW122358   3.599   5.622   1.993
 7153SOL    HW222359   3.711   5.510   1.950
 7154SOL     OW22360   4.097   0.376   3.347
 7154SOL    HW122361   4.020   0.363   3.284
 7154SOL    HW222362   4.118   0.473   3.355
 7155SOL     OW22363   1.585   3.570   1.050
 7155SOL    HW122364   1.553   3.635   1.119
 7155SOL    HW222365   1.661   3.516   1.087
 7156SOL     OW22366   6.953   3.400   3.628
 7156SOL    HW122367   6.998   3.418   3.715
 7156SOL    HW222368   6.994   3.320   3.584
 7157SOL     OW22369   0.103   3.763   1.812
 7157SOL    HW122370   0.056   3.707   1.880
 7157SOL    HW222371   0.074   3.858   1.822
 7158SOL     OW22372   0.989   0.047   3.954
 7158SOL    HW122373   0.981   6.979   3.989
 7158SOL    HW222374   0.898   0.089   3.950
 7159SOL     OW22375   0.461   4.994   2.663
 7159SOL    HW122376   0.512   4.963   2.583
 7159SOL    HW222377   0.524   5.028   2.732
 7160SOL     OW22378   5.548   0.203   2.843
 7160SOL    HW122379   5.519   0.125   2.897
 7160SOL    HW222380   5.587   0.171   2.757
 7161SOL     OW22381   3.197   3.971   4.120
 7161SOL    HW122382   3.161   3.997   4.209
 7161SOL    HW222383   3.121   3.948   4.059
 7162SOL     OW22384   0.910   5.314   6.122
 7162SOL    HW122385   0.970   5.383   6.162
 7162SOL    HW222386   0.856   5.271   6.194
 7163SOL     OW22387   3.161   6.495   2.652
 7163SOL    HW122388   3.089   6.547   2.699
 7163SOL    HW222389   3.247   6.546   2.656
 7164SOL     OW22390   2.145   0.400   4.099
 7164SOL    HW122391   2.081   0.356   4.037
 7164SOL    HW222392   2.227   0.344   4.110
 7165SOL     OW22393   6.544   0.943   2.404
 7165SOL    HW122394   6.637   0.947   2.366
 7165SOL    HW222395   6.479   0.978   2.337
 7166SOL     OW22396   6.091   2.186   0.726
 7166SOL    HW122397   6.161   2.166   0.657
 7166SOL    HW222398   6.101   2.281   0.757
 7167SOL     OW22399   5.302   3.155   3.992
 7167SOL    HW122400   5.301   3.071   4.046
 7167SOL    HW222401   5.341   3.136   3.902
 7168SOL     OW22402   1.360   2.736   3.055
 7168SOL    HW122403   1.313   2.769   2.973
 7168SOL    HW222404   1.391   2.815   3.109
 7169SOL     OW22405   0.451   2.527   4.649
 7169SOL    HW122406   0.352   2.513   4.642
 7169SOL    HW222407   0.495   2.442   4.679
 7170SOL     OW22408   4.877   6.783   4.267
 7170SOL    HW122409   4.871   6.705   4.331
 7170SOL    HW222410   4.788   6.796   4.223
 7171SOL     OW22411   5.652   3.764   0.039
 7171SOL    HW122412   5.686   3.670   0.029
 7171SOL    HW222413   5.677   3.799   0.129
 7172SOL     OW22414   1.220   6.991   4.978
 7172SOL    HW122415   1.179   6.900   4.974
 7172SOL    HW222416   1.257   7.015   4.888
 7173SOL     OW22417   6.775   4.858   6.097
 7173SOL    HW122418   6.683   4.889   6.074
 7173SOL    HW222419   6.795   4.773   6.048
 7174SOL     OW22420   0.717   4.522   0.204
 7174SOL    HW122421   0.751   4.612   0.178
 7174SOL    HW222422   0.618   4.526   0.216
 7175SOL     OW22423   5.741   2.474   6.749
 7175SOL    HW122424   5.782   2.453   6.661
 7175SOL    HW222425   5.712   2.570   6.750
 7176SOL     OW22426   0.226   7.019   2.979
 7176SOL    HW122427   0.227   6.952   2.905
 7176SOL    HW222428   0.200   0.083   2.943
 7177SOL     OW22429   1.617   4.944   4.409
 7177SOL    HW122430   1.638   5.039   4.386
 7177SOL    HW222431   1.683   4.910   4.476
 7178SOL     OW22432   2.050   1.934   6.089
 7178SOL    HW122433   2.087   1.987   6.012
 7178SOL    HW222434   1.954   1.913   6.071
 7179SOL     OW22435   2.114   3.458   4.721
 7179SOL    HW122436   2.149   3.365   4.707
 7179SOL    HW222437   2.135   3.488   4.814
 7180SOL     OW22438   2.470   5.338   0.187
 7180SOL    HW122439   2.520   5.391   0.256
 7180SOL    HW222440   2.466   5.242   0.215
 7181SOL     OW22441   1.904   6.600   0.136
 7181SOL    HW122442   1.833   6.667   0.114
 7181SOL    HW222443   1.933   6.612   0.231
 7182SOL     OW22444   0.654   2.617   4.293
 7182SOL    HW122445   0.641   2.591   4.388
 7182SOL    HW222446   0.617   2.709   4.278
 7183SOL     OW22447   2.193   6.091   0.050
 7183SOL    HW122448   2.231   6.156   0.117
 7183SOL    HW222449   2.268   6.044   0.005
 7184SOL     OW22450   6.974   0.894   3.676
 7184SOL    HW122451   7.007   0.845   3.757
 7184SOL    HW222452   0.027   0.923   3.621
 7185SOL     OW22453   5.880   0.126   5.310
 7185SOL    HW122454   5.854   0.068   5.388
 7185SOL    HW222455   5.890   0.220   5.341
 7186SOL     OW22456   6.771   1.847   0.545
 7186SOL    HW122457   6.811   1.917   0.605
 7186SOL    HW222458   6.795   1.756   0.579
 7187SOL     OW22459   3.811   4.692   6.287
 7187SOL    HW122460   3.830   4.779   6.332
 7187SOL    HW222461   3.843   4.616   6.344
 7188SOL     OW22462   6.354   0.984   0.843
 7188SOL    HW122463   6.440   0.993   0.793
 7188SOL    HW222464   6.279   1.012   0.785
 7189SOL     OW22465   0.349   1.638   6.030
 7189SOL    HW122466   0.320   1.638   5.935
 7189SOL    HW222467   0.299   1.568   6.081
 7190SOL     OW22468   0.420   3.445   2.565
 7190SOL    HW122469   0.411   3.374   2.495
 7190SOL    HW222470   0.425   3.402   2.656
 7191SOL     OW22471   0.675   4.233   2.717
 7191SOL    HW122472   0.631   4.166   2.777
 7191SOL    HW222473   0.773   4.214   2.713
 7192SOL     OW22474   2.869   4.687   5.855
 7192SOL    HW122475   2.802   4.670   5.927
 7192SOL    HW222476   2.918   4.772   5.875
 7193SOL     OW22477   0.956   2.475   2.189
 7193SOL    HW122478   0.903   2.542   2.241
 7193SOL    HW222479   0.991   2.518   2.106
 7194SOL     OW22480   2.638   2.117   0.365
 7194SOL    HW122481   2.607   2.039   0.310
 7194SOL    HW222482   2.559   2.165   0.403
 7195SOL     OW22483   0.038   4.183   6.691
 7195SOL    HW122484   6.993   4.134   6.741
 7195SOL    HW222485   0.014   4.280   6.685
 7196SOL     OW22486   3.359   4.016   0.627
 7196SOL    HW122487   3.408   4.024   0.540
 7196SOL    HW222488   3.304   4.098   0.642
 7197SOL     OW22489   0.580   2.570   6.158
 7197SOL    HW122490   0.613   2.558   6.064
 7197SOL    HW222491   0.602   2.663   6.189
 7198SOL     OW22492   6.979   0.763   0.698
 7198SOL    HW122493   6.948   0.705   0.622
 7198SOL    HW222494   6.996   0.855   0.664
 7199SOL     OW22495   1.918   0.896   2.435
 7199SOL    HW122496   1.940   0.865   2.527
 7199SOL    HW222497   1.832   0.856   2.405
 7200SOL     OW22498   2.172   2.329   6.672
 7200SOL    HW122499   2.268   2.299   6.673
 7200SOL    HW222500   2.133   2.318   6.764
 7201SOL     OW22501   0.808   5.476   4.840
 7201SOL    HW122502   0.711   5.500   4.852
 7201SOL    HW222503   0.857   5.494   4.925
 7202SOL     OW22504   5.325   0.293   6.579
 7202SOL    HW122505   5.257   0.264   6.512
 7202SOL    HW222506   5.282   0.298   6.669
 7203SOL     OW22507   0.709   1.523   1.272
 7203SOL    HW122508   0.781   1.508   1.204
 7203SOL    HW222509   0.621   1.529   1.226
 7204SOL     OW22510   0.930   0.064   5.590
 7204SOL    HW122511   0.957   0.018   5.505
 7204SOL    HW222512   0.980   0.150   5.599
 7205SOL     OW22513   1.205   5.140   4.290
 7205SOL    HW122514   1.137   5.069   4.272
 7205SOL    HW222515   1.237   5.133   4.384
 7206SOL     OW22516   1.419   0.232   1.752
 7206SOL    HW122517   1.398   0.137   1.728
 7206SOL    HW222518   1.370   0.293   1.690
 7207SOL     OW22519   3.565   0.253   2.771
 7207SOL    HW122520   3.603   0.226   2.859
 7207SOL    HW222521   3.508   0.178   2.735
 7208SOL     OW22522   3.932   0.226   2.890
 7208SOL    HW122523   4.015   0.264   2.931
 7208SOL    HW222524   3.858   0.293   2.895
 7209SOL     OW22525   2.794   4.021   1.712
 7209SOL    HW122526   2.851   3.960   1.766
 7209SOL    HW222527   2.700   3.988   1.712
 7210SOL     OW22528   4.622   0.759   3.841
 7210SOL    HW122529   4.631   0.797   3.749
 7210SOL    HW222530   4.551   0.809   3.891
 7211SOL     OW22531   3.372   6.471   4.143
 7211SOL    HW122532   3.371   6.569   4.161
 7211SOL    HW222533   3.442   6.450   4.075
 7212SOL     OW22534   0.412   6.119   4.627
 7212SOL    HW122535   0.388   6.031   4.588
 7212SOL    HW222536   0.330   6.160   4.669
 7213SOL     OW22537   5.268   6.145   0.279
 7213SOL    HW122538   5.169   6.159   0.276
 7213SOL    HW222539   5.311   6.217   0.333
 7214SOL     OW22540   6.947   6.040   5.640
 7214SOL    HW122541   6.889   6.029   5.720
 7214SOL    HW222542   7.012   6.115   5.656
 7215SOL     OW22543   6.887   4.108   5.008
 7215SOL    HW122544   6.956   4.053   4.962
 7215SOL    HW222545   6.915   4.125   5.102
 7216SOL     OW22546   3.587   6.369   0.099
 7216SOL    HW122547   3.543   6.300   0.042
 7216SOL    HW222548   3.586   6.457   0.051
 7217SOL     OW22549   2.660   4.647   2.653
 7217SOL    HW122550   2.650   4.583   2.729
 7217SOL    HW222551   2.569   4.678   2.623
 7218SOL     OW22552   5.074   2.933   5.319
 7218SOL    HW122553   5.021   2.981   5.249
 7218SOL    HW222554   5.162   2.979   5.331
 7219SOL     OW22555   4.469   0.276   3.679
 7219SOL    HW122556   4.542   0.318   3.732
 7219SOL    HW222557   4.506   0.245   3.591
 7220SOL     OW22558   0.717   5.367   5.125
 7220SOL    HW122559   0.669   5.431   5.186
 7220SOL    HW222560   0.722   5.405   5.033
 7221SOL     OW22561   3.535   6.126   4.874
 7221SOL    HW122562   3.617   6.180   4.895
 7221SOL    HW222563   3.470   6.183   4.824
 7222SOL     OW22564   5.675   0.505   3.409
 7222SOL    HW122565   5.769   0.533   3.388
 7222SOL    HW222566   5.614   0.583   3.395
 7223SOL     OW22567   2.559   1.391   1.250
 7223SOL    HW122568   2.505   1.430   1.325
 7223SOL    HW222569   2.655   1.387   1.278
 7224SOL     OW22570   5.706   1.856   4.124
 7224SOL    HW122571   5.706   1.820   4.217
 7224SOL    HW222572   5.674   1.950   4.125
 7225SOL     OW22573   0.690   5.893   0.239
 7225SOL    HW122574   0.602   5.904   0.193
 7225SOL    HW222575   0.692   5.805   0.286
 7226SOL     OW22576   6.603   1.044   0.764
 7226SOL    HW122577   6.650   1.013   0.846
 7226SOL    HW222578   6.644   1.129   0.731
 7227SOL     OW22579   1.397   1.128   0.951
 7227SOL    HW122580   1.310   1.100   0.910
 7227SOL    HW222581   1.470   1.071   0.914
 7228SOL     OW22582   1.064   1.622   2.787
 7228SOL    HW122583   1.047   1.720   2.800
 7228SOL    HW222584   0.999   1.569   2.841
 7229SOL     OW22585   1.647   5.949   6.037
 7229SOL    HW122586   1.729   5.977   6.086
 7229SOL    HW222587   1.671   5.883   5.966
 7230SOL     OW22588   4.365   5.629   4.377
 7230SOL    HW122589   4.341   5.616   4.281
 7230SOL    HW222590   4.417   5.714   4.387
 7231SOL     OW22591   4.486   0.777   0.225
 7231SOL    HW122592   4.460   0.783   0.321
 7231SOL    HW222593   4.411   0.810   0.168
 7232SOL     OW22594   5.243   5.520   2.879
 7232SOL    HW122595   5.298   5.600   2.856
 7232SOL    HW222596   5.146   5.543   2.872
 7233SOL     OW22597   0.040   1.624   3.960
 7233SOL    HW122598   7.019   1.706   3.929
 7233SOL    HW222599   0.138   1.642   3.968
 7234SOL     OW22600   5.670   3.559   3.657
 7234SOL    HW122601   5.665   3.488   3.586
 7234SOL    HW222602   5.689   3.516   3.745
 7235SOL     OW22603   6.561   3.958   2.003
 7235SOL    HW122604   6.646   4.006   1.982
 7235SOL    HW222605   6.573   3.899   2.082
 7236SOL     OW22606   2.067   2.263   1.729
 7236SOL    HW122607   2.044   2.213   1.812
 7236SOL    HW222608   2.019   2.350   1.728
 7237SOL     OW22609   4.726   1.298   4.702
 7237SOL    HW122610   4.637   1.293   4.658
 7237SOL    HW222611   4.790   1.237   4.655
 7238SOL     OW22612   3.583   1.455   0.721
 7238SOL    HW122613   3.605   1.360   0.698
 7238SOL    HW222614   3.619   1.477   0.811
 7239SOL     OW22615   1.398   2.747   2.472
 7239SOL    HW122616   1.355   2.835   2.493
 7239SOL    HW222617   1.339   2.673   2.505
 7240SOL     OW22618   1.834   5.967   6.219
 7240SOL    HW122619   1.800   5.886   6.267
 7240SOL    HW222620   1.913   6.004   6.269
 7241SOL     OW22621   1.862   1.066   0.394
 7241SOL    HW122622   1.910   0.981   0.416
 7241SOL    HW222623   1.774   1.068   0.442
 7242SOL     OW22624   6.433   6.082   0.326
 7242SOL    HW122625   6.342   6.045   0.343
 7242SOL    HW222626   6.467   6.128   0.408
 7243SOL     OW22627   6.401   4.722   6.161
 7243SOL    HW122628   6.446   4.796   6.111
 7243SOL    HW222629   6.455   4.699   6.242
 7244SOL     OW22630   5.537   1.122   1.587
 7244SOL    HW122631   5.453   1.177   1.593
 7244SOL    HW222632   5.565   1.095   1.679
 7245SOL     OW22633   0.848   2.065   4.558
 7245SOL    HW122634   0.913   2.065   4.634
 7245SOL    HW222635   0.860   2.147   4.503
 7246SOL     OW22636   6.314   0.482   4.351
 7246SOL    HW122637   6.250   0.451   4.281
 7246SOL    HW222638   6.348   0.573   4.328
 7247SOL     OW22639   2.966   6.723   3.982
 7247SOL    HW122640   3.014   6.650   4.030
 7247SOL    HW222641   2.924   6.785   4.048
 7248SOL     OW22642   2.629   1.708   3.611
 7248SOL    HW122643   2.721   1.737   3.585
 7248SOL    HW222644   2.618   1.611   3.592
 7249SOL     OW22645   6.490   4.274   2.213
 7249SOL    HW122646   6.482   4.333   2.134
 7249SOL    HW222647   6.584   4.241   2.221
 7250SOL     OW22648   4.219   6.896   6.216
 7250SOL    HW122649   4.273   6.968   6.261
 7250SOL    HW222650   4.277   6.847   6.152
 7251SOL     OW22651   0.721   6.861   5.688
 7251SOL    HW122652   0.674   6.934   5.737
 7251SOL    HW222653   0.674   6.774   5.703
 7252SOL     OW22654   3.094   3.441   2.790
 7252SOL    HW122655   3.026   3.483   2.850
 7252SOL    HW222656   3.114   3.503   2.714
 7253SOL     OW22657   2.546   6.522   6.281
 7253SOL    HW122658   2.602   6.485   6.355
 7253SOL    HW222659   2.582   6.489   6.193
 7254SOL     OW22660   4.364   4.833   3.579
 7254SOL    HW122661   4.294   4.784   3.631
 7254SOL    HW222662   4.419   4.888   3.641
 7255SOL     OW22663   3.297   3.456   0.906
 7255SOL    HW122664   3.333   3.483   0.816
 7255SOL    HW222665   3.213   3.509   0.925
 7256SOL     OW22666   4.190   4.771   4.330
 7256SOL    HW122667   4.104   4.798   4.373
 7256SOL    HW222668   4.257   4.746   4.400
 7257SOL     OW22669   5.242   2.697   3.866
 7257SOL    HW122670   5.277   2.620   3.813
 7257SOL    HW222671   5.182   2.753   3.808
 7258SOL     OW22672   4.157   1.317   3.210
 7258SOL    HW122673   4.186   1.231   3.169
 7258SOL    HW222674   4.199   1.327   3.300
 7259SOL     OW22675   2.849   3.151   1.039
 7259SOL    HW122676   2.899   3.120   0.959
 7259SOL    HW222677   2.913   3.169   1.114
 7260SOL     OW22678   3.471   1.603   2.083
 7260SOL    HW122679   3.484   1.693   2.042
 7260SOL    HW222680   3.421   1.612   2.170
 7261SOL     OW22681   1.225   3.009   1.515
 7261SOL    HW122682   1.178   3.086   1.471
 7261SOL    HW222683   1.238   3.029   1.612
 7262SOL     OW22684   5.485   1.689   5.448
 7262SOL    HW122685   5.446   1.772   5.488
 7262SOL    HW222686   5.515   1.628   5.522
 7263SOL     OW22687   0.613   6.449   1.180
 7263SOL    HW122688   0.683   6.494   1.126
 7263SOL    HW222689   0.635   6.352   1.191
 7264SOL     OW22690   5.579   1.301   5.858
 7264SOL    HW122691   5.617   1.272   5.946
 7264SOL    HW222692   5.482   1.323   5.870
 7265SOL     OW22693   5.466   5.215   6.082
 7265SOL    HW122694   5.525   5.135   6.094
 7265SOL    HW222695   5.520   5.298   6.098
 7266SOL     OW22696   5.713   0.161   1.322
 7266SOL    HW122697   5.628   0.168   1.269
 7266SOL    HW222698   5.753   0.070   1.308
 7267SOL     OW22699   6.676   6.156   5.546
 7267SOL    HW122700   6.643   6.091   5.478
 7267SOL    HW222701   6.773   6.140   5.563
 7268SOL     OW22702   5.319   4.958   3.109
 7268SOL    HW122703   5.336   5.038   3.165
 7268SOL    HW222704   5.221   4.949   3.091
 7269SOL     OW22705   6.688   6.166   1.038
 7269SOL    HW122706   6.663   6.230   1.110
 7269SOL    HW222707   6.678   6.072   1.072
 7270SOL     OW22708   0.717   3.367   4.958
 7270SOL    HW122709   0.720   3.282   5.011
 7270SOL    HW222710   0.640   3.365   4.895
 7271SOL     OW22711   0.577   5.881   4.016
 7271SOL    HW122712   0.648   5.948   4.036
 7271SOL    HW222713   0.602   5.793   4.056
 7272SOL     OW22714   5.648   5.434   2.255
 7272SOL    HW122715   5.668   5.343   2.290
 7272SOL    HW222716   5.658   5.501   2.328
 7273SOL     OW22717   5.409   4.294   1.806
 7273SOL    HW122718   5.502   4.267   1.784
 7273SOL    HW222719   5.371   4.350   1.732
 7274SOL     OW22720   0.880   5.818   6.927
 7274SOL    HW122721   0.860   5.891   6.992
 7274SOL    HW222722   0.897   5.858   6.837
 7275SOL     OW22723   6.725   0.469   2.860
 7275SOL    HW122724   6.653   0.412   2.820
 7275SOL    HW222725   6.736   0.446   2.956
 7276SOL     OW22726   3.520   1.790   2.461
 7276SOL    HW122727   3.606   1.838   2.445
 7276SOL    HW222728   3.533   1.722   2.533
 7277SOL     OW22729   4.506   0.858   4.294
 7277SOL    HW122730   4.512   0.933   4.360
 7277SOL    HW222731   4.422   0.807   4.309
 7278SOL     OW22732   3.390   2.363   1.520
 7278SOL    HW122733   3.485   2.391   1.507
 7278SOL    HW222734   3.381   2.315   1.608
 7279SOL     OW22735   4.437   3.394   6.487
 7279SOL    HW122736   4.403   3.303   6.511
 7279SOL    HW222737   4.521   3.414   6.537
 7280SOL     OW22738   0.332   1.649   3.919
 7280SOL    HW122739   0.395   1.581   3.956
 7280SOL    HW222740   0.382   1.734   3.901
 7281SOL     OW22741   1.603   0.468   0.384
 7281SOL    HW122742   1.616   0.404   0.459
 7281SOL    HW222743   1.510   0.461   0.349
 7282SOL     OW22744   5.933   6.944   1.417
 7282SOL    HW122745   5.957   0.011   1.389
 7282SOL    HW222746   6.016   6.893   1.441
 7283SOL     OW22747   3.311   0.310   1.879
 7283SOL    HW122748   3.310   0.213   1.903
 7283SOL    HW222749   3.334   0.320   1.782
 7284SOL     OW22750   0.233   2.210   4.994
 7284SOL    HW122751   0.252   2.161   4.909
 7284SOL    HW222752   0.319   2.238   5.036
 7285SOL     OW22753   5.752   3.450   1.356
 7285SOL    HW122754   5.721   3.479   1.266
 7285SOL    HW222755   5.835   3.501   1.381
 7286SOL     OW22756   0.804   0.582   1.293
 7286SOL    HW122757   0.759   0.657   1.246
 7286SOL    HW222758   0.836   0.613   1.383
 7287SOL     OW22759   6.804   3.011   4.825
 7287SOL    HW122760   6.746   3.052   4.896
 7287SOL    HW222761   6.797   3.065   4.741
 7288SOL     OW22762   1.378   1.965   1.791
 7288SOL    HW122763   1.301   1.988   1.850
 7288SOL    HW222764   1.415   2.048   1.750
 7289SOL     OW22765   5.955   1.555   3.296
 7289SOL    HW122766   6.000   1.578   3.382
 7289SOL    HW222767   5.921   1.461   3.300
 7290SOL     OW22768   2.824   0.880   5.005
 7290SOL    HW122769   2.804   0.972   4.972
 7290SOL    HW222770   2.862   0.885   5.097
 7291SOL     OW22771   2.436   0.163   0.779
 7291SOL    HW122772   2.394   0.221   0.709
 7291SOL    HW222773   2.431   0.067   0.750
 7292SOL     OW22774   3.132   6.965   2.229
 7292SOL    HW122775   3.207   0.006   2.233
 7292SOL    HW222776   3.144   6.897   2.301
 7293SOL     OW22777   1.514   1.501   6.080
 7293SOL    HW122778   1.503   1.530   5.985
 7293SOL    HW222779   1.535   1.581   6.137
 7294SOL     OW22780   3.280   4.271   0.690
 7294SOL    HW122781   3.323   4.327   0.618
 7294SOL    HW222782   3.184   4.296   0.698
 7295SOL     OW22783   6.777   4.578   0.927
 7295SOL    HW122784   6.806   4.491   0.886
 7295SOL    HW222785   6.744   4.562   1.020
 7296SOL     OW22786   4.292   5.128   2.396
 7296SOL    HW122787   4.242   5.087   2.472
 7296SOL    HW222788   4.263   5.224   2.385
 7297SOL     OW22789   2.361   6.941   1.376
 7297SOL    HW122790   2.319   6.928   1.466
 7297SOL    HW222791   2.460   6.941   1.384
 7298SOL     OW22792   5.263   4.814   6.525
 7298SOL    HW122793   5.331   4.822   6.598
 7298SOL    HW222794   5.300   4.854   6.440
 7299SOL     OW22795   0.856   1.899   1.044
 7299SOL    HW122796   0.947   1.895   1.002
 7299SOL    HW222797   0.858   1.964   1.120
 7300SOL     OW22798   0.615   6.988   2.831
 7300SOL    HW122799   0.602   6.979   2.733
 7300SOL    HW222800   0.562   6.917   2.878
 7301SOL     OW22801   6.331   2.250   5.627
 7301SOL    HW122802   6.295   2.177   5.568
 7301SOL    HW222803   6.289   2.337   5.603
 7302SOL     OW22804   0.368   2.350   6.130
 7302SOL    HW122805   0.409   2.373   6.041
 7302SOL    HW222806   0.274   2.320   6.115
 7303SOL     OW22807   3.723   0.933   6.572
 7303SOL    HW122808   3.654   1.001   6.594
 7303SOL    HW222809   3.688   0.869   6.504
 7304SOL     OW22810   2.825   5.636   1.576
 7304SOL    HW122811   2.871   5.724   1.582
 7304SOL    HW222812   2.766   5.634   1.496
 7305SOL     OW22813   5.291   1.903   1.163
 7305SOL    HW122814   5.381   1.898   1.205
 7305SOL    HW222815   5.252   1.811   1.155
 7306SOL     OW22816   3.567   1.664   1.770
 7306SOL    HW122817   3.557   1.730   1.845
 7306SOL    HW222818   3.529   1.703   1.686
 7307SOL     OW22819   4.258   6.681   2.484
 7307SOL    HW122820   4.306   6.669   2.571
 7307SOL    HW222821   4.303   6.627   2.413
 7308SOL     OW22822   6.499   1.655   4.225
 7308SOL    HW122823   6.576   1.627   4.167
 7308SOL    HW222824   6.523   1.638   4.321
 7309SOL     OW22825   3.901   0.075   1.260
 7309SOL    HW122826   3.877   0.013   1.335
 7309SOL    HW222827   3.823   0.084   1.198
 7310SOL     OW22828   2.008   3.857   0.250
 7310SOL    HW122829   1.939   3.922   0.281
 7310SOL    HW222830   2.064   3.900   0.179
 7311SOL     OW22831   1.330   0.637   0.384
 7311SOL    HW122832   1.381   0.666   0.466
 7311SOL    HW222833   1.236   0.615   0.409
 7312SOL     OW22834   1.213   1.990   4.791
 7312SOL    HW122835   1.292   1.950   4.837
 7312SOL    HW222836   1.137   1.998   4.855
 7313SOL     OW22837   1.905   1.331   0.440
 7313SOL    HW122838   1.852   1.362   0.361
 7313SOL    HW222839   1.903   1.231   0.445
 7314SOL     OW22840   6.959   3.979   6.049
 7314SOL    HW122841   6.907   4.034   6.114
 7314SOL    HW222842   0.031   3.984   6.071
 7315SOL     OW22843   4.678   5.710   1.901
 7315SOL    HW122844   4.741   5.770   1.950
 7315SOL    HW222845   4.613   5.669   1.966
 7316SOL     OW22846   3.261   2.831   6.440
 7316SOL    HW122847   3.193   2.901   6.462
 7316SOL    HW222848   3.289   2.785   6.524
 7317SOL     OW22849   4.088   1.326   1.982
 7317SOL    HW122850   4.106   1.424   1.976
 7317SOL    HW222851   3.991   1.310   1.964
 7318SOL     OW22852   3.096   0.379   2.811
 7318SOL    HW122853   3.139   0.363   2.722
 7318SOL    HW222854   2.997   0.385   2.798
 7319SOL     OW22855   5.834   2.887   6.906
 7319SOL    HW122856   5.782   2.923   6.983
 7319SOL    HW222857   5.841   2.958   6.835
 7320SOL     OW22858   0.321   3.674   1.002
 7320SOL    HW122859   0.286   3.737   1.072
 7320SOL    HW222860   0.247   3.652   0.938
 7321SOL     OW22861   2.419   6.607   5.946
 7321SOL    HW122862   2.484   6.548   5.994
 7321SOL    HW222863   2.331   6.560   5.938
 7322SOL     OW22864   6.879   2.064   2.996
 7322SOL    HW122865   6.804   2.125   2.971
 7322SOL    HW222866   6.861   1.973   2.958
 7323SOL     OW22867   2.560   2.851   1.406
 7323SOL    HW122868   2.612   2.909   1.344
 7323SOL    HW222869   2.511   2.909   1.472
 7324SOL     OW22870   5.339   4.929   2.221
 7324SOL    HW122871   5.369   4.846   2.174
 7324SOL    HW222872   5.408   4.957   2.287
 7325SOL     OW22873   2.866   0.287   5.323
 7325SOL    HW122874   2.866   0.322   5.417
 7325SOL    HW222875   2.810   0.347   5.265
 7326SOL     OW22876   3.584   6.239   5.655
 7326SOL    HW122877   3.494   6.206   5.629
 7326SOL    HW222878   3.579   6.338   5.671
 7327SOL     OW22879   6.061   2.761   4.617
 7327SOL    HW122880   5.994   2.825   4.654
 7327SOL    HW222881   6.020   2.671   4.609
 7328SOL     OW22882   4.848   0.082   5.543
 7328SOL    HW122883   4.877   0.096   5.449
 7328SOL    HW222884   4.751   0.060   5.546
 7329SOL     OW22885   0.581   3.871   0.472
 7329SOL    HW122886   0.613   3.867   0.567
 7329SOL    HW222887   0.525   3.790   0.452
 7330SOL     OW22888   2.348   3.145   0.977
 7330SOL    HW122889   2.333   3.124   1.073
 7330SOL    HW222890   2.318   3.068   0.921
 7331SOL     OW22891   5.836   6.395   1.663
 7331SOL    HW122892   5.816   6.340   1.582
 7331SOL    HW222893   5.885   6.340   1.730
 7332SOL     OW22894   2.828   3.978   6.490
 7332SOL    HW122895   2.740   3.952   6.449
 7332SOL    HW222896   2.811   4.025   6.576
 7333SOL     OW22897   6.186   3.069   2.739
 7333SOL    HW122898   6.256   3.031   2.679
 7333SOL    HW222899   6.228   3.135   2.802
 7334SOL     OW22900   2.314   5.903   6.361
 7334SOL    HW122901   2.362   5.991   6.351
 7334SOL    HW222902   2.307   5.859   6.271
 7335SOL     OW22903   6.879   2.870   3.072
 7335SOL    HW122904   6.904   2.774   3.060
 7335SOL    HW222905   6.948   2.915   3.130
 7336SOL     OW22906   2.291   6.456   1.530
 7336SOL    HW122907   2.281   6.520   1.454
 7336SOL    HW222908   2.381   6.468   1.573
 7337SOL     OW22909   2.386   3.000   1.548
 7337SOL    HW122910   2.297   2.958   1.567
 7337SOL    HW222911   2.400   3.076   1.611
 7338SOL     OW22912   5.424   1.843   1.690
 7338SOL    HW122913   5.461   1.816   1.778
 7338SOL    HW222914   5.348   1.906   1.704
 7339SOL     OW22915   6.833   0.174   5.116
 7339SOL    HW122916   6.846   0.082   5.154
 7339SOL    HW222917   6.754   0.217   5.160
 7340SOL     OW22918   3.703   1.296   0.234
 7340SOL    HW122919   3.716   1.258   0.142
 7340SOL    HW222920   3.671   1.391   0.226
 7341SOL     OW22921   0.766   4.818   4.498
 7341SOL    HW122922   0.743   4.733   4.450
 7341SOL    HW222923   0.794   4.796   4.591
 7342SOL     OW22924   6.470   6.395   6.978
 7342SOL    HW122925   6.413   6.434   6.905
 7342SOL    HW222926   6.412   6.366   0.029
 7343SOL     OW22927   5.210   3.768   1.338
 7343SOL    HW122928   5.288   3.714   1.368
 7343SOL    HW222929   5.213   3.858   1.380
 7344SOL     OW22930   2.264   0.511   6.074
 7344SOL    HW122931   2.233   0.507   6.169
 7344SOL    HW222932   2.185   0.500   6.013
 7345SOL     OW22933   4.927   6.611   5.827
 7345SOL    HW122934   5.003   6.570   5.777
 7345SOL    HW222935   4.962   6.664   5.905
 7346SOL     OW22936   3.763   4.445   1.421
 7346SOL    HW122937   3.824   4.452   1.501
 7346SOL    HW222938   3.760   4.349   1.391
 7347SOL     OW22939   0.020   3.129   0.908
 7347SOL    HW122940   7.009   3.041   0.938
 7347SOL    HW222941   6.994   3.203   0.951
 7348SOL     OW22942   1.635   3.201   3.675
 7348SOL    HW122943   1.723   3.240   3.701
 7348SOL    HW222944   1.568   3.219   3.748
 7349SOL     OW22945   4.182   2.028   1.208
 7349SOL    HW122946   4.115   2.092   1.246
 7349SOL    HW222947   4.174   2.026   1.109
 7350SOL     OW22948   1.577   3.616   4.411
 7350SOL    HW122949   1.569   3.646   4.506
 7350SOL    HW222950   1.556   3.518   4.405
 7351SOL     OW22951   4.797   5.885   4.978
 7351SOL    HW122952   4.851   5.968   4.989
 7351SOL    HW222953   4.712   5.906   4.931
 7352SOL     OW22954   1.308   3.142   2.737
 7352SOL    HW122955   1.238   3.212   2.755
 7352SOL    HW222956   1.378   3.146   2.807
 7353SOL     OW22957   0.009   0.160   6.127
 7353SOL    HW122958   0.098   0.158   6.173
 7353SOL    HW222959   6.963   0.175   6.195
 7354SOL     OW22960   0.957   1.720   0.001
 7354SOL    HW122961   0.897   1.782   6.975
 7354SOL    HW222962   0.909   1.687   0.082
 7355SOL     OW22963   1.578   1.230   0.692
 7355SOL    HW122964   1.562   1.173   0.772
 7355SOL    HW222965   1.674   1.257   0.688
 7356SOL     OW22966   4.663   3.122   6.386
 7356SOL    HW122967   4.740   3.183   6.370
 7356SOL    HW222968   4.680   3.034   6.341
 7357SOL     OW22969   4.488   0.693   1.641
 7357SOL    HW122970   4.490   0.698   1.740
 7357SOL    HW222971   4.573   0.653   1.607
 7358SOL     OW22972   1.236   3.031   2.121
 7358SOL    HW122973   1.177   3.106   2.150
 7358SOL    HW222974   1.225   2.953   2.183
 7359SOL     OW22975   2.710   2.854   0.289
 7359SOL    HW122976   2.713   2.824   0.194
 7359SOL    HW222977   2.626   2.905   0.306
 7360SOL     OW22978   3.146   3.640   5.763
 7360SOL    HW122979   3.149   3.540   5.763
 7360SOL    HW222980   3.232   3.675   5.726
 7361SOL     OW22981   4.277   0.310   2.378
 7361SOL    HW122982   4.343   0.237   2.356
 7361SOL    HW222983   4.267   0.317   2.477
 7362SOL     OW22984   0.820   6.153   4.487
 7362SOL    HW122985   0.767   6.173   4.570
 7362SOL    HW222986   0.889   6.224   4.474
 7363SOL     OW22987   3.979   1.398   1.057
 7363SOL    HW122988   3.941   1.352   1.137
 7363SOL    HW222989   4.041   1.471   1.086
 7364SOL     OW22990   4.606   0.606   1.100
 7364SOL    HW122991   4.696   0.627   1.140
 7364SOL    HW222992   4.539   0.595   1.173
 7365SOL     OW22993   1.485   6.613   1.620
 7365SOL    HW122994   1.454   6.551   1.692
 7365SOL    HW222995   1.554   6.676   1.657
 7366SOL     OW22996   2.050   5.543   0.427
 7366SOL    HW122997   1.953   5.565   0.420
 7366SOL    HW222998   2.104   5.627   0.433
 7367SOL     OW22999   4.946   4.060   1.086
 7367SOL    HW123000   4.960   4.137   1.024
 7367SOL    HW223001   5.029   4.044   1.139
 7368SOL     OW23002   3.886   3.012   3.688
 7368SOL    HW123003   3.809   2.963   3.727
 7368SOL    HW223004   3.923   3.076   3.755
 7369SOL     OW23005   4.765   2.888   0.483
 7369SOL    HW123006   4.839   2.831   0.446
 7369SOL    HW223007   4.721   2.840   0.559
 7370SOL     OW23008   2.731   0.557   5.279
 7370SOL    HW123009   2.700   0.603   5.362
 7370SOL    HW223010   2.696   0.606   5.199
 7371SOL     OW23011   2.013   6.058   3.897
 7371SOL    HW123012   2.060   6.067   3.809
 7371SOL    HW223013   1.914   6.064   3.883
 7372SOL     OW23014   3.043   1.226   5.440
 7372SOL    HW123015   3.061   1.169   5.520
 7372SOL    HW223016   2.971   1.292   5.461
 7373SOL     OW23017   5.575   1.165   4.321
 7373SOL    HW123018   5.476   1.179   4.314
 7373SOL    HW223019   5.598   1.131   4.412
 7374SOL     OW23020   2.767   2.017   5.555
 7374SOL    HW123021   2.841   2.077   5.524
 7374SOL    HW223022   2.716   1.984   5.475
 7375SOL     OW23023   2.259   2.991   2.731
 7375SOL    HW123024   2.252   2.963   2.826
 7375SOL    HW223025   2.337   3.052   2.719
 7376SOL     OW23026   3.915   1.802   6.658
 7376SOL    HW123027   3.911   1.902   6.662
 7376SOL    HW223028   3.998   1.770   6.705
 7377SOL     OW23029   5.436   5.308   1.199
 7377SOL    HW123030   5.450   5.404   1.175
 7377SOL    HW223031   5.505   5.280   1.265
 7378SOL     OW23032   0.629   1.031   5.525
 7378SOL    HW123033   0.561   0.958   5.521
 7378SOL    HW223034   0.653   1.060   5.433
 7379SOL     OW23035   3.356   2.117   2.638
 7379SOL    HW123036   3.444   2.100   2.681
 7379SOL    HW223037   3.283   2.114   2.707
 7380SOL     OW23038   6.683   3.195   5.283
 7380SOL    HW123039   6.684   3.145   5.370
 7380SOL    HW223040   6.598   3.248   5.276
 7381SOL     OW23041   4.814   4.069   1.838
 7381SOL    HW123042   4.809   3.970   1.835
 7381SOL    HW223043   4.879   4.102   1.770
 7382SOL     OW23044   0.038   5.779   6.261
 7382SOL    HW123045   0.022   5.724   6.179
 7382SOL    HW223046   0.047   5.719   6.340
 7383SOL     OW23047   0.961   6.529   1.133
 7383SOL    HW123048   0.938   6.522   1.036
 7383SOL    HW223049   0.924   6.614   1.170
 7384SOL     OW23050   5.596   0.779   2.621
 7384SOL    HW123051   5.672   0.807   2.679
 7384SOL    HW223052   5.631   0.754   2.531
 7385SOL     OW23053   4.081   5.965   1.967
 7385SOL    HW123054   4.055   6.039   1.905
 7385SOL    HW223055   4.016   5.962   2.043
 7386SOL     OW23056   0.376   1.983   5.392
 7386SOL    HW123057   0.447   2.053   5.382
 7386SOL    HW223058   0.419   1.896   5.418
 7387SOL     OW23059   4.486   6.189   4.248
 7387SOL    HW123060   4.466   6.243   4.330
 7387SOL    HW223061   4.571   6.139   4.261
 7388SOL     OW23062   0.396   4.983   3.188
 7388SOL    HW123063   0.460   4.909   3.208
 7388SOL    HW223064   0.318   4.947   3.138
 7389SOL     OW23065   0.321   3.645   6.279
 7389SOL    HW123066   0.363   3.719   6.332
 7389SOL    HW223067   0.392   3.589   6.237
 7390SOL     OW23068   2.479   1.606   6.774
 7390SOL    HW123069   2.437   1.677   6.717
 7390SOL    HW223070   2.422   1.590   6.854
 7391SOL     OW23071   5.150   4.333   4.901
 7391SOL    HW123072   5.228   4.394   4.890
 7391SOL    HW223073   5.071   4.386   4.933
 7392SOL     OW23074   2.397   5.929   6.937
 7392SOL    HW123075   2.494   5.932   6.964
 7392SOL    HW223076   2.391   5.918   6.837
 7393SOL     OW23077   5.242   5.040   1.683
 7393SOL    HW123078   5.271   5.096   1.606
 7393SOL    HW223079   5.145   5.018   1.673
 7394SOL     OW23080   2.926   2.785   5.940
 7394SOL    HW123081   2.854   2.851   5.917
 7394SOL    HW223082   3.011   2.833   5.960
 7395SOL     OW23083   2.529   1.696   0.150
 7395SOL    HW123084   2.550   1.660   0.241
 7395SOL    HW223085   2.520   1.796   0.155
 7396SOL     OW23086   0.804   6.709   0.133
 7396SOL    HW123087   0.727   6.648   0.154
 7396SOL    HW223088   0.810   6.780   0.204
 7397SOL     OW23089   4.685   5.031   4.609
 7397SOL    HW123090   4.655   4.995   4.697
 7397SOL    HW223091   4.610   5.023   4.543
 7398SOL     OW23092   2.734   5.542   4.461
 7398SOL    HW123093   2.669   5.498   4.400
 7398SOL    HW223094   2.789   5.609   4.410
 7399SOL     OW23095   0.724   3.023   5.607
 7399SOL    HW123096   0.787   3.045   5.532
 7399SOL    HW223097   0.745   3.081   5.686
 7400SOL     OW23098   3.828   3.037   5.919
 7400SOL    HW123099   3.774   2.953   5.913
 7400SOL    HW223100   3.883   3.036   6.002
 7401SOL     OW23101   1.400   0.776   4.597
 7401SOL    HW123102   1.335   0.813   4.530
 7401SOL    HW223103   1.493   0.794   4.566
 7402SOL     OW23104   2.853   5.421   5.823
 7402SOL    HW123105   2.810   5.503   5.783
 7402SOL    HW223106   2.792   5.383   5.893
 7403SOL     OW23107   2.077   3.997   2.780
 7403SOL    HW123108   2.089   3.954   2.691
 7403SOL    HW223109   2.025   4.082   2.769
 7404SOL     OW23110   2.549   5.049   1.155
 7404SOL    HW123111   2.547   4.956   1.192
 7404SOL    HW223112   2.507   5.049   1.064
 7405SOL     OW23113   3.706   4.953   4.171
 7405SOL    HW123114   3.614   4.956   4.209
 7405SOL    HW223115   3.705   4.897   4.088
 7406SOL     OW23116   0.770   3.134   3.653
 7406SOL    HW123117   0.691   3.169   3.602
 7406SOL    HW223118   0.854   3.174   3.617
 7407SOL     OW23119   0.044   6.402   4.659
 7407SOL    HW123120   0.023   6.431   4.565
 7407SOL    HW223121   7.016   6.458   4.723
 7408SOL     OW23122   1.298   3.424   6.329
 7408SOL    HW123123   1.308   3.449   6.232
 7408SOL    HW223124   1.342   3.492   6.386
 7409SOL     OW23125   0.562   1.332   6.178
 7409SOL    HW123126   0.465   1.353   6.192
 7409SOL    HW223127   0.595   1.379   6.096
 7410SOL     OW23128   0.449   5.400   1.081
 7410SOL    HW123129   0.392   5.329   1.122
 7410SOL    HW223130   0.393   5.458   1.022
 7411SOL     OW23131   2.761   0.145   4.175
 7411SOL    HW123132   2.715   0.216   4.228
 7411SOL    HW223133   2.860   0.159   4.180
 7412SOL     OW23134   4.268   0.418   2.779
 7412SOL    HW123135   4.219   0.354   2.837
 7412SOL    HW223136   4.343   0.371   2.733
 7413SOL     OW23137   4.864   5.513   5.179
 7413SOL    HW123138   4.859   5.612   5.166
 7413SOL    HW223139   4.772   5.474   5.167
 7414SOL     OW23140   0.062   6.844   3.791
 7414SOL    HW123141   0.149   6.832   3.744
 7414SOL    HW223142   0.077   6.843   3.890
 7415SOL     OW23143   1.167   3.671   3.626
 7415SOL    HW123144   1.135   3.644   3.535
 7415SOL    HW223145   1.096   3.654   3.693
 7416SOL     OW23146   3.187   1.453   3.721
 7416SOL    HW123147   3.114   1.487   3.661
 7416SOL    HW223148   3.147   1.408   3.800
 7417SOL     OW23149   2.414   0.903   6.246
 7417SOL    HW123150   2.357   0.881   6.325
 7417SOL    HW223151   2.461   0.990   6.262
 7418SOL     OW23152   3.543   5.277   0.517
 7418SOL    HW123153   3.597   5.360   0.502
 7418SOL    HW223154   3.579   5.228   0.596
 7419SOL     OW23155   5.729   2.907   5.157
 7419SOL    HW123156   5.682   2.854   5.087
 7419SOL    HW223157   5.770   2.846   5.224
 7420SOL     OW23158   0.228   6.846   1.754
 7420SOL    HW123159   0.318   6.868   1.793
 7420SOL    HW223160   0.240   6.810   1.661
 7421SOL     OW23161   3.048   3.449   1.227
 7421SOL    HW123162   3.046   3.454   1.127
 7421SOL    HW223163   2.988   3.520   1.265
 7422SOL     OW23164   0.077   2.814   2.735
 7422SOL    HW123165   7.018   2.866   2.747
 7422SOL    HW223166   0.058   2.716   2.745
 7423SOL     OW23167   6.440   4.762   5.296
 7423SOL    HW123168   6.474   4.671   5.272
 7423SOL    HW223169   6.516   4.827   5.299
 7424SOL     OW23170   7.010   0.385   4.932
 7424SOL    HW123171   0.037   0.322   4.988
 7424SOL    HW223172   0.015   0.479   4.949
 7425SOL     OW23173   4.832   5.771   6.469
 7425SOL    HW123174   4.852   5.761   6.372
 7425SOL    HW223175   4.735   5.795   6.481
 7426SOL     OW23176   1.859   1.370   6.075
 7426SOL    HW123177   1.895   1.444   6.019
 7426SOL    HW223178   1.910   1.365   6.160
 7427SOL     OW23179   3.599   6.364   4.320
 7427SOL    HW123180   3.598   6.463   4.301
 7427SOL    HW223181   3.542   6.346   4.400
 7428SOL     OW23182   4.221   1.445   6.182
 7428SOL    HW123183   4.230   1.477   6.276
 7428SOL    HW223184   4.297   1.384   6.160
 7429SOL     OW23185   6.319   6.677   3.143
 7429SOL    HW123186   6.360   6.587   3.130
 7429SOL    HW223187   6.221   6.666   3.162
 7430SOL     OW23188   0.379   3.778   6.780
 7430SOL    HW123189   0.449   3.812   6.716
 7430SOL    HW223190   0.329   3.703   6.737
 7431SOL     OW23191   0.270   3.181   2.988
 7431SOL    HW123192   0.183   3.231   2.983
 7431SOL    HW223193   0.259   3.091   2.946
 7432SOL     OW23194   6.968   0.513   3.460
 7432SOL    HW123195   7.005   0.420   3.452
 7432SOL    HW223196   6.996   0.552   3.548
 7433SOL     OW23197   5.491   4.814   6.699
 7433SOL    HW123198   5.537   4.901   6.678
 7433SOL    HW223199   5.515   4.746   6.630
 7434SOL     OW23200   5.392   0.468   5.848
 7434SOL    HW123201   5.418   0.430   5.936
 7434SOL    HW223202   5.422   0.408   5.774
 7435SOL     OW23203   4.130   5.759   0.716
 7435SOL    HW123204   4.134   5.695   0.793
 7435SOL    HW223205   4.038   5.759   0.677
 7436SOL     OW23206   5.827   3.156   6.769
 7436SOL    HW123207   5.907   3.181   6.714
 7436SOL    HW223208   5.744   3.179   6.719
 7437SOL     OW23209   0.355   5.832   0.400
 7437SOL    HW123210   0.299   5.902   0.444
 7437SOL    HW223211   0.365   5.853   0.303
 7438SOL     OW23212   0.368   5.075   0.001
 7438SOL    HW123213   0.300   5.017   6.982
 7438SOL    HW223214   0.327   5.120   0.080
 7439SOL     OW23215   1.753   5.980   4.673
 7439SOL    HW123216   1.712   5.941   4.756
 7439SOL    HW223217   1.851   5.957   4.671
 7440SOL     OW23218   0.321   3.325   4.413
 7440SOL    HW123219   0.393   3.395   4.416
 7440SOL    HW223220   0.321   3.274   4.499
 7441SOL     OW23221   5.000   5.630   4.363
 7441SOL    HW123222   4.936   5.609   4.437
 7441SOL    HW223223   4.996   5.728   4.342
 7442SOL     OW23224   0.394   0.852   6.502
 7442SOL    HW123225   0.325   0.781   6.517
 7442SOL    HW223226   0.481   0.809   6.478
 7443SOL     OW23227   0.134   0.646   2.641
 7443SOL    HW123228   0.168   0.608   2.727
 7443SOL    HW223229   0.211   0.667   2.581
 7444SOL     OW23230   6.106   3.292   4.731
 7444SOL    HW123231   6.016   3.332   4.711
 7444SOL    HW223232   6.123   3.218   4.666
 7445SOL     OW23233   3.030   1.115   1.153
 7445SOL    HW123234   3.088   1.069   1.086
 7445SOL    HW223235   2.974   1.047   1.200
 7446SOL     OW23236   5.639   3.942   0.719
 7446SOL    HW123237   5.616   3.984   0.807
 7446SOL    HW223238   5.719   3.988   0.680
 7447SOL     OW23239   0.627   3.300   5.667
 7447SOL    HW123240   0.667   3.272   5.579
 7447SOL    HW223241   0.531   3.324   5.653
 7448SOL     OW23242   6.639   0.028   5.623
 7448SOL    HW123243   6.617   6.968   5.671
 7448SOL    HW223244   6.555   0.074   5.596
 7449SOL     OW23245   6.447   2.803   2.083
 7449SOL    HW123246   6.472   2.732   2.150
 7449SOL    HW223247   6.441   2.762   1.992
 7450SOL     OW23248   5.624   1.765   4.650
 7450SOL    HW123249   5.526   1.772   4.631
 7450SOL    HW223250   5.675   1.771   4.564
 7451SOL     OW23251   0.896   6.518   3.667
 7451SOL    HW123252   0.858   6.607   3.691
 7451SOL    HW223253   0.965   6.529   3.596
 7452SOL     OW23254   0.896   6.198   4.954
 7452SOL    HW123255   0.800   6.178   4.934
 7452SOL    HW223256   0.931   6.131   5.019
 7453SOL     OW23257   4.990   6.060   5.511
 7453SOL    HW123258   5.074   6.016   5.479
 7453SOL    HW223259   4.950   6.115   5.437
 7454SOL     OW23260   1.219   2.158   1.953
 7454SOL    HW123261   1.304   2.132   1.998
 7454SOL    HW223262   1.202   2.256   1.968
 7455SOL     OW23263   6.812   1.679   2.298
 7455SOL    HW123264   6.868   1.743   2.246
 7455SOL    HW223265   6.785   1.603   2.239
 7456SOL     OW23266   0.124   1.877   4.140
 7456SOL    HW123267   0.070   1.905   4.061
 7456SOL    HW223268   0.091   1.788   4.172
 7457SOL     OW23269   4.046   0.736   5.373
 7457SOL    HW123270   4.066   0.698   5.283
 7457SOL    HW223271   3.979   0.678   5.419
 7458SOL     OW23272   2.402   6.861   6.037
 7458SOL    HW123273   2.437   6.776   5.999
 7458SOL    HW223274   2.375   6.847   6.132
 7459SOL     OW23275   5.046   0.525   1.686
 7459SOL    HW123276   5.067   0.432   1.655
 7459SOL    HW223277   4.959   0.525   1.734
 7460SOL     OW23278   2.073   5.366   1.036
 7460SOL    HW123279   2.040   5.460   1.031
 7460SOL    HW223280   2.071   5.335   1.131
 7461SOL     OW23281   6.416   1.626   5.603
 7461SOL    HW123282   6.483   1.697   5.580
 7461SOL    HW223283   6.325   1.654   5.570
 7462SOL     OW23284   1.309   4.247   2.951
 7462SOL    HW123285   1.281   4.151   2.941
 7462SOL    HW223286   1.274   4.300   2.874
 7463SOL     OW23287   2.886   4.978   0.640
 7463SOL    HW123288   2.912   4.938   0.553
 7463SOL    HW223289   2.792   5.013   0.633
 7464SOL     OW23290   5.109   0.249   6.416
 7464SOL    HW123291   5.024   0.299   6.397
 7464SOL    HW223292   5.087   0.155   6.443
 7465SOL     OW23293   0.647   6.306   0.167
 7465SOL    HW123294   0.737   6.269   0.192
 7465SOL    HW223295   0.647   6.405   0.179
 7466SOL     OW23296   0.641   0.435   5.986
 7466SOL    HW123297   0.586   0.480   5.916
 7466SOL    HW223298   0.614   0.339   5.993
 7467SOL     OW23299   6.905   2.047   0.773
 7467SOL    HW123300   6.974   1.995   0.722
 7467SOL    HW223301   6.949   2.124   0.820
 7468SOL     OW23302   6.487   2.188   2.895
 7468SOL    HW123303   6.462   2.091   2.887
 7468SOL    HW223304   6.408   2.240   2.925
 7469SOL     OW23305   0.640   0.938   0.533
 7469SOL    HW123306   0.586   1.009   0.577
 7469SOL    HW223307   0.588   0.899   0.457
 7470SOL     OW23308   0.053   3.081   3.764
 7470SOL    HW123309   0.134   3.102   3.819
 7470SOL    HW223310   0.037   2.982   3.767
 7471SOL     OW23311   6.955   6.512   5.944
 7471SOL    HW123312   6.993   6.569   5.872
 7471SOL    HW223313   6.982   6.417   5.929
 7472SOL     OW23314   6.367   0.060   4.050
 7472SOL    HW123315   6.454   0.024   4.015
 7472SOL    HW223316   6.375   0.159   4.060
 7473SOL     OW23317   6.446   4.583   2.950
 7473SOL    HW123318   6.353   4.606   2.924
 7473SOL    HW223319   6.447   4.494   2.996
 7474SOL     OW23320   2.249   1.354   5.512
 7474SOL    HW123321   2.215   1.375   5.421
 7474SOL    HW223322   2.242   1.434   5.571
 7475SOL     OW23323   4.170   1.186   2.783
 7475SOL    HW123324   4.199   1.256   2.718
 7475SOL    HW223325   4.074   1.202   2.807
 7476SOL     OW23326   3.510   5.373   3.459
 7476SOL    HW123327   3.528   5.461   3.504
 7476SOL    HW223328   3.423   5.379   3.409
 7477SOL     OW23329   6.984   1.403   5.168
 7477SOL    HW123330   0.003   1.427   5.082
 7477SOL    HW223331   6.899   1.454   5.177
 7478SOL     OW23332   4.738   5.277   6.351
 7478SOL    HW123333   4.693   5.317   6.431
 7478SOL    HW223334   4.822   5.230   6.380
 7479SOL     OW23335   4.043   2.076   1.609
 7479SOL    HW123336   4.142   2.065   1.615
 7479SOL    HW223337   4.011   2.137   1.682
 7480SOL     OW23338   6.764   4.155   1.926
 7480SOL    HW123339   6.847   4.130   1.877
 7480SOL    HW223340   6.789   4.200   2.012
 7481SOL     OW23341   5.932   5.303   1.482
 7481SOL    HW123342   5.977   5.214   1.484
 7481SOL    HW223343   5.993   5.373   1.521
 7482SOL     OW23344   4.354   2.433   3.688
 7482SOL    HW123345   4.273   2.460   3.635
 7482SOL    HW223346   4.328   2.366   3.757
 7483SOL     OW23347   4.828   2.880   4.935
 7483SOL    HW123348   4.810   2.898   4.839
 7483SOL    HW223349   4.763   2.813   4.970
 7484SOL     OW23350   0.971   0.850   3.786
 7484SOL    HW123351   1.058   0.807   3.812
 7484SOL    HW223352   0.984   0.949   3.779
 7485SOL     OW23353   3.540   0.806   4.803
 7485SOL    HW123354   3.481   0.727   4.822
 7485SOL    HW223355   3.484   0.888   4.792
 7486SOL     OW23356   2.613   0.701   5.853
 7486SOL    HW123357   2.570   0.717   5.942
 7486SOL    HW223358   2.678   0.626   5.860
 7487SOL     OW23359   2.093   6.384   2.433
 7487SOL    HW123360   2.168   6.350   2.490
 7487SOL    HW223361   2.023   6.314   2.425
 7488SOL     OW23362   1.594   6.438   3.956
 7488SOL    HW123363   1.671   6.405   3.900
 7488SOL    HW223364   1.621   6.522   4.002
 7489SOL     OW23365   5.424   2.815   4.776
 7489SOL    HW123366   5.505   2.821   4.717
 7489SOL    HW223367   5.447   2.846   4.868
 7490SOL     OW23368   0.779   0.677   1.585
 7490SOL    HW123369   0.839   0.620   1.641
 7490SOL    HW223370   0.833   0.749   1.541
 7491SOL     OW23371   5.912   3.313   5.838
 7491SOL    HW123372   5.819   3.281   5.856
 7491SOL    HW223373   5.912   3.413   5.830
 7492SOL     OW23374   2.210   0.697   3.464
 7492SOL    HW123375   2.272   0.636   3.414
 7492SOL    HW223376   2.227   0.689   3.562
 7493SOL     OW23377   6.981   3.863   0.039
 7493SOL    HW123378   0.052   3.884   0.021
 7493SOL    HW223379   6.933   3.947   0.067
 7494SOL     OW23380   5.253   1.180   2.279
 7494SOL    HW123381   5.241   1.084   2.254
 7494SOL    HW223382   5.334   1.190   2.336
 7495SOL     OW23383   1.630   1.016   0.528
 7495SOL    HW123384   1.583   0.931   0.553
 7495SOL    HW223385   1.597   1.091   0.586
 7496SOL     OW23386   6.987   3.350   6.111
 7496SOL    HW123387   6.981   3.257   6.148
 7496SOL    HW223388   6.904   3.370   6.059
 7497SOL     OW23389   2.175   5.074   0.469
 7497SOL    HW123390   2.164   5.107   0.376
 7497SOL    HW223391   2.151   5.146   0.534
 7498SOL     OW23392   2.529   1.489   5.294
 7498SOL    HW123393   2.499   1.394   5.296
 7498SOL    HW223394   2.616   1.495   5.245
 7499SOL     OW23395   3.744   2.031   2.998
 7499SOL    HW123396   3.687   2.081   2.932
 7499SOL    HW223397   3.733   1.932   2.982
 7500SOL     OW23398   3.369   5.259   3.751
 7500SOL    HW123399   3.307   5.330   3.719
 7500SOL    HW223400   3.461   5.278   3.719
 7501SOL     OW23401   5.868   4.045   4.176
 7501SOL    HW123402   5.875   3.981   4.252
 7501SOL    HW223403   5.818   4.002   4.100
 7502SOL     OW23404   1.663   0.158   4.706
 7502SOL    HW123405   1.590   0.093   4.729
 7502SOL    HW223406   1.681   0.153   4.607
 7503SOL     OW23407   3.148   1.819   0.636
 7503SOL    HW123408   3.102   1.797   0.722
 7503SOL    HW223409   3.173   1.916   0.634
 7504SOL     OW23410   1.851   7.016   2.799
 7504SOL    HW123411   1.891   0.082   2.811
 7504SOL    HW223412   1.778   7.003   2.866
 7505SOL     OW23413   1.679   1.924   5.844
 7505SOL    HW123414   1.586   1.942   5.813
 7505SOL    HW223415   1.726   2.012   5.858
 7506SOL     OW23416   5.287   0.269   2.923
 7506SOL    HW123417   5.303   0.278   3.022
 7506SOL    HW223418   5.374   0.253   2.877
 7507SOL     OW23419   0.941   0.558   2.416
 7507SOL    HW123420   1.034   0.592   2.429
 7507SOL    HW223421   0.925   0.543   2.318
 7508SOL     OW23422   0.479   6.434   2.043
 7508SOL    HW123423   0.461   6.532   2.039
 7508SOL    HW223424   0.552   6.412   1.978
 7509SOL     OW23425   5.607   4.957   0.522
 7509SOL    HW123426   5.643   4.980   0.431
 7509SOL    HW223427   5.530   5.016   0.544
 7510SOL     OW23428   3.642   4.392   5.318
 7510SOL    HW123429   3.698   4.316   5.351
 7510SOL    HW223430   3.548   4.382   5.352
 7511SOL     OW23431   2.571   0.027   3.986
 7511SOL    HW123432   2.618   0.100   4.035
 7511SOL    HW223433   2.621   6.967   3.999
 7512SOL     OW23434   3.047   6.040   6.668
 7512SOL    HW123435   3.125   5.988   6.701
 7512SOL    HW223436   3.078   6.110   6.603
 7513SOL     OW23437   2.158   0.789   1.887
 7513SOL    HW123438   2.120   0.772   1.796
 7513SOL    HW223439   2.253   0.759   1.890
 7514SOL     OW23440   2.518   5.514   1.067
 7514SOL    HW123441   2.566   5.602   1.057
 7514SOL    HW223442   2.551   5.468   1.149
 7515SOL     OW23443   7.020   4.888   1.915
 7515SOL    HW123444   0.075   4.948   1.915
 7515SOL    HW223445   0.014   4.806   1.969
 7516SOL     OW23446   6.545   6.108   5.771
 7516SOL    HW123447   6.606   6.106   5.692
 7516SOL    HW223448   6.511   6.015   5.789
 7517SOL     OW23449   6.850   3.461   0.619
 7517SOL    HW123450   6.890   3.376   0.586
 7517SOL    HW223451   6.758   3.473   0.581
 7518SOL     OW23452   4.275   5.366   3.279
 7518SOL    HW123453   4.188   5.367   3.329
 7518SOL    HW223454   4.277   5.287   3.217
 7519SOL     OW23455   6.641   6.737   3.822
 7519SOL    HW123456   6.637   6.732   3.722
 7519SOL    HW223457   6.659   6.646   3.860
 7520SOL     OW23458   3.580   0.566   2.333
 7520SOL    HW123459   3.606   0.526   2.245
 7520SOL    HW223460   3.580   0.666   2.326
 7521SOL     OW23461   4.842   4.253   5.874
 7521SOL    HW123462   4.781   4.255   5.795
 7521SOL    HW223463   4.788   4.244   5.958
 7522SOL     OW23464   2.682   0.659   6.447
 7522SOL    HW123465   2.729   0.680   6.361
 7522SOL    HW223466   2.655   0.745   6.491
 7523SOL     OW23467   6.055   0.244   6.033
 7523SOL    HW123468   5.973   0.214   5.984
 7523SOL    HW223469   6.039   0.333   6.075
 7524SOL     OW23470   2.052   1.920   5.682
 7524SOL    HW123471   2.072   1.993   5.748
 7524SOL    HW223472   2.020   1.839   5.731
 7525SOL     OW23473   3.513   0.781   6.157
 7525SOL    HW123474   3.514   0.867   6.106
 7525SOL    HW223475   3.552   0.708   6.101
 7526SOL     OW23476   2.745   3.279   1.457
 7526SOL    HW123477   2.752   3.180   1.455
 7526SOL    HW223478   2.704   3.308   1.544
 7527SOL     OW23479   3.860   5.880   3.016
 7527SOL    HW123480   3.822   5.798   3.057
 7527SOL    HW223481   3.813   5.961   3.052
 7528SOL     OW23482   5.259   1.792   0.075
 7528SOL    HW123483   5.230   1.739   0.155
 7528SOL    HW223484   5.304   1.731   0.010
 7529SOL     OW23485   5.256   0.580   4.689
 7529SOL    HW123486   5.348   0.541   4.690
 7529SOL    HW223487   5.251   0.657   4.752
 7530SOL     OW23488   0.810   3.782   2.854
 7530SOL    HW123489   0.868   3.850   2.810
 7530SOL    HW223490   0.716   3.794   2.824
 7531SOL     OW23491   4.787   2.877   4.358
 7531SOL    HW123492   4.750   2.820   4.285
 7531SOL    HW223493   4.819   2.964   4.319
 7532SOL     OW23494   5.660   4.727   0.645
 7532SOL    HW123495   5.706   4.661   0.585
 7532SOL    HW223496   5.653   4.815   0.599
 7533SOL     OW23497   2.397   1.675   2.382
 7533SOL    HW123498   2.397   1.716   2.473
 7533SOL    HW223499   2.375   1.745   2.314
 7534SOL     OW23500   4.524   6.247   5.625
 7534SOL    HW123501   4.554   6.307   5.551
 7534SOL    HW223502   4.601   6.191   5.656
 7535SOL     OW23503   2.117   6.816   5.700
 7535SOL    HW123504   2.191   6.846   5.639
 7535SOL    HW223505   2.108   6.717   5.694
 7536SOL     OW23506   4.830   4.455   4.468
 7536SOL    HW123507   4.893   4.425   4.396
 7536SOL    HW223508   4.879   4.458   4.555
 7537SOL     OW23509   3.094   5.499   2.489
 7537SOL    HW123510   3.027   5.426   2.490
 7537SOL    HW223511   3.071   5.566   2.418
 7538SOL     OW23512   2.670   2.978   1.681
 7538SOL    HW123513   2.609   2.907   1.648
 7538SOL    HW223514   2.757   2.938   1.709
 7539SOL     OW23515   0.870   3.009   4.073
 7539SOL    HW123516   0.897   2.930   4.128
 7539SOL    HW223517   0.951   3.053   4.036
 7540SOL     OW23518   4.663   0.401   5.321
 7540SOL    HW123519   4.752   0.405   5.366
 7540SOL    HW223520   4.647   0.308   5.287
 7541SOL     OW23521   0.168   4.590   4.330
 7541SOL    HW123522   0.262   4.578   4.298
 7541SOL    HW223523   0.149   4.687   4.346
 7542SOL     OW23524   0.957   5.221   6.883
 7542SOL    HW123525   0.913   5.134   6.863
 7542SOL    HW223526   0.889   5.295   6.880
 7543SOL     OW23527   3.431   2.065   6.879
 7543SOL    HW123528   3.515   2.064   6.934
 7543SOL    HW223529   3.407   1.971   6.853
 7544SOL     OW23530   0.156   1.980   2.734
 7544SOL    HW123531   0.118   2.062   2.691
 7544SOL    HW223532   0.230   2.007   2.796
 7545SOL     OW23533   6.453   5.838   1.216
 7545SOL    HW123534   6.438   5.898   1.295
 7545SOL    HW223535   6.521   5.769   1.239
 7546SOL     OW23536   3.218   1.805   1.898
 7546SOL    HW123537   3.220   1.904   1.911
 7546SOL    HW223538   3.256   1.760   1.978
 7547SOL     OW23539   4.802   0.971   0.475
 7547SOL    HW123540   4.721   0.977   0.532
 7547SOL    HW223541   4.776   0.974   0.379
 7548SOL     OW23542   4.009   1.822   0.065
 7548SOL    HW123543   3.926   1.766   0.064
 7548SOL    HW223544   4.086   1.769   0.032
 7549SOL     OW23545   5.551   2.102   1.212
 7549SOL    HW123546   5.484   2.172   1.191
 7549SOL    HW223547   5.529   2.060   1.301
 7550SOL     OW23548   2.501   4.905   2.263
 7550SOL    HW123549   2.432   4.848   2.307
 7550SOL    HW223550   2.500   4.996   2.305
 7551SOL     OW23551   5.351   3.881   6.367
 7551SOL    HW123552   5.318   3.819   6.295
 7551SOL    HW223553   5.286   3.956   6.377
 7552SOL     OW23554   1.107   5.303   2.663
 7552SOL    HW123555   1.133   5.372   2.597
 7552SOL    HW223556   1.022   5.259   2.634
 7553SOL     OW23557   4.566   6.208   4.968
 7553SOL    HW123558   4.572   6.140   4.895
 7553SOL    HW223559   4.641   6.194   5.033
 7554SOL     OW23560   4.504   1.791   0.942
 7554SOL    HW123561   4.585   1.739   0.913
 7554SOL    HW223562   4.421   1.740   0.920
 7555SOL     OW23563   1.986   4.977   5.548
 7555SOL    HW123564   2.065   4.972   5.488
 7555SOL    HW223565   1.904   4.947   5.499
 7556SOL     OW23566   1.336   3.015   0.338
 7556SOL    HW123567   1.395   3.069   0.279
 7556SOL    HW223568   1.388   2.984   0.418
 7557SOL     OW23569   5.346   1.820   6.322
 7557SOL    HW123570   5.293   1.902   6.297
 7557SOL    HW223571   5.431   1.819   6.269
 7558SOL     OW23572   1.404   2.824   4.442
 7558SOL    HW123573   1.474   2.778   4.497
 7558SOL    HW223574   1.443   2.849   4.353
 7559SOL     OW23575   5.687   4.536   6.630
 7559SOL    HW123576   5.644   4.447   6.650
 7559SOL    HW223577   5.736   4.531   6.543
 7560SOL     OW23578   4.865   6.083   1.032
 7560SOL    HW123579   4.921   6.143   1.089
 7560SOL    HW223580   4.781   6.131   1.006
 7561SOL     OW23581   1.305   3.290   6.856
 7561SOL    HW123582   1.327   3.358   6.926
 7561SOL    HW223583   1.361   3.307   6.775
 7562SOL     OW23584   6.814   6.284   3.872
 7562SOL    HW123585   6.820   6.209   3.938
 7562SOL    HW223586   6.902   6.294   3.824
 7563SOL     OW23587   2.686   6.547   0.705
 7563SOL    HW123588   2.717   6.642   0.700
 7563SOL    HW223589   2.589   6.545   0.727
 7564SOL     OW23590   4.746   0.706   3.156
 7564SOL    HW123591   4.683   0.726   3.080
 7564SOL    HW223592   4.722   0.763   3.234
 7565SOL     OW23593   5.946   3.028   0.376
 7565SOL    HW123594   5.866   3.078   0.343
 7565SOL    HW223595   5.969   2.954   0.313
 7566SOL     OW23596   6.082   4.855   2.732
 7566SOL    HW123597   6.173   4.895   2.720
 7566SOL    HW223598   6.028   4.870   2.649
 7567SOL     OW23599   1.546   2.261   5.208
 7567SOL    HW123600   1.590   2.257   5.119
 7567SOL    HW223601   1.463   2.317   5.203
 7568SOL     OW23602   5.292   6.094   2.263
 7568SOL    HW123603   5.265   6.055   2.351
 7568SOL    HW223604   5.330   6.185   2.277
 7569SOL     OW23605   4.108   6.295   5.900
 7569SOL    HW123606   4.049   6.329   5.974
 7569SOL    HW223607   4.110   6.195   5.903
 7570SOL     OW23608   5.664   4.034   5.019
 7570SOL    HW123609   5.724   4.011   5.096
 7570SOL    HW223610   5.596   4.101   5.048
 7571SOL     OW23611   5.044   5.369   3.460
 7571SOL    HW123612   5.046   5.302   3.386
 7571SOL    HW223613   5.135   5.410   3.471
 7572SOL     OW23614   4.666   1.084   1.699
 7572SOL    HW123615   4.578   1.056   1.736
 7572SOL    HW223616   4.653   1.120   1.607
 7573SOL     OW23617   0.524   7.019   4.983
 7573SOL    HW123618   0.439   6.978   4.949
 7573SOL    HW223619   0.592   6.947   4.998
 7574SOL     OW23620   6.433   0.708   5.003
 7574SOL    HW123621   6.426   0.730   4.906
 7574SOL    HW223622   6.444   0.609   5.015
 7575SOL     OW23623   4.441   0.062   6.197
 7575SOL    HW123624   4.433   0.161   6.186
 7575SOL    HW223625   4.527   0.030   6.158
 7576SOL     OW23626   4.886   4.723   6.389
 7576SOL    HW123627   4.905   4.820   6.373
 7576SOL    HW223628   4.807   4.695   6.335
 7577SOL     OW23629   0.231   6.862   0.001
 7577SOL    HW123630   0.160   6.921   0.039
 7577SOL    HW223631   0.254   6.892   6.934
 7578SOL     OW23632   2.428   5.736   1.890
 7578SOL    HW123633   2.426   5.656   1.949
 7578SOL    HW223634   2.370   5.808   1.929
 7579SOL     OW23635   6.469   1.045   1.816
 7579SOL    HW123636   6.536   0.980   1.779
 7579SOL    HW223637   6.398   1.062   1.747
 7580SOL     OW23638   1.189   3.944   3.770
 7580SOL    HW123639   1.168   3.851   3.739
 7580SOL    HW223640   1.106   3.999   3.765
 7581SOL     OW23641   7.021   0.781   1.168
 7581SOL    HW123642   7.013   0.737   1.078
 7581SOL    HW223643   6.941   0.759   1.224
 7582SOL     OW23644   3.610   0.964   1.366
 7582SOL    HW123645   3.645   1.044   1.415
 7582SOL    HW223646   3.678   0.933   1.300
 7583SOL     OW23647   6.165   2.758   1.327
 7583SOL    HW123648   6.156   2.840   1.271
 7583SOL    HW223649   6.076   2.733   1.365
 7584SOL     OW23650   2.651   6.979   1.650
 7584SOL    HW123651   2.718   6.904   1.654
 7584SOL    HW223652   2.577   6.961   1.714
 7585SOL     OW23653   1.581   2.723   6.404
 7585SOL    HW123654   1.650   2.774   6.455
 7585SOL    HW223655   1.507   2.784   6.376
 7586SOL     OW23656   2.884   1.041   3.864
 7586SOL    HW123657   2.845   1.067   3.776
 7586SOL    HW223658   2.871   0.943   3.879
 7587SOL     OW23659   2.048   1.928   0.176
 7587SOL    HW123660   1.983   1.948   0.103
 7587SOL    HW223661   2.141   1.942   0.142
 7588SOL     OW23662   1.562   2.873   2.838
 7588SOL    HW123663   1.490   2.842   2.899
 7588SOL    HW223664   1.617   2.944   2.884
 7589SOL     OW23665   0.645   0.087   2.430
 7589SOL    HW123666   0.691   0.166   2.471
 7589SOL    HW223667   0.686   0.067   2.341
 7590SOL     OW23668   4.995   1.815   6.136
 7590SOL    HW123669   5.079   1.864   6.110
 7590SOL    HW223670   4.942   1.872   6.198
 7591SOL     OW23671   6.737   3.757   0.470
 7591SOL    HW123672   6.730   3.843   0.420
 7591SOL    HW223673   6.826   3.715   0.452
 7592SOL     OW23674   6.771   4.350   5.445
 7592SOL    HW123675   6.798   4.365   5.350
 7592SOL    HW223676   6.805   4.261   5.476
 7593SOL     OW23677   5.866   3.145   1.340
 7593SOL    HW123678   5.831   3.095   1.419
 7593SOL    HW223679   5.851   3.243   1.353
 7594SOL     OW23680   1.202   5.198   2.328
 7594SOL    HW123681   1.272   5.167   2.392
 7594SOL    HW223682   1.121   5.140   2.337
 7595SOL     OW23683   0.114   2.090   5.403
 7595SOL    HW123684   0.199   2.041   5.385
 7595SOL    HW223685   0.090   2.083   5.500
 7596SOL     OW23686   4.527   5.760   4.079
 7596SOL    HW123687   4.458   5.689   4.088
 7596SOL    HW223688   4.484   5.847   4.057
 7597SOL     OW23689   3.772   6.169   2.616
 7597SOL    HW123690   3.790   6.081   2.571
 7597SOL    HW223691   3.782   6.158   2.715
 7598SOL     OW23692   6.491   1.301   3.192
 7598SOL    HW123693   6.399   1.299   3.231
 7598SOL    HW223694   6.513   1.210   3.155
 7599SOL     OW23695   5.135   1.778   2.576
 7599SOL    HW123696   5.072   1.853   2.596
 7599SOL    HW223697   5.103   1.730   2.494
 7600SOL     OW23698   2.092   1.780   2.392
 7600SOL    HW123699   2.023   1.844   2.358
 7600SOL    HW223700   2.049   1.695   2.421
 7601SOL     OW23701   1.880   5.157   3.215
 7601SOL    HW123702   1.974   5.185   3.198
 7601SOL    HW223703   1.845   5.107   3.135
 7602SOL     OW23704   1.535   4.306   5.696
 7602SOL    HW123705   1.441   4.273   5.707
 7602SOL    HW223706   1.588   4.239   5.644
 7603SOL     OW23707   1.448   5.656   5.906
 7603SOL    HW123708   1.417   5.573   5.953
 7603SOL    HW223709   1.433   5.735   5.965
 7604SOL     OW23710   1.737   4.468   4.594
 7604SOL    HW123711   1.673   4.428   4.528
 7604SOL    HW223712   1.732   4.419   4.680
 7605SOL     OW23713   0.676   0.204   1.207
 7605SOL    HW123714   0.662   0.301   1.188
 7605SOL    HW223715   0.621   0.177   1.286
 7606SOL     OW23716   5.680   3.800   4.582
 7606SOL    HW123717   5.778   3.820   4.579
 7606SOL    HW223718   5.647   3.804   4.676
 7607SOL     OW23719   3.450   4.628   6.888
 7607SOL    HW123720   3.501   4.573   6.953
 7607SOL    HW223721   3.401   4.567   6.825
 7608SOL     OW23722   4.139   3.428   2.610
 7608SOL    HW123723   4.141   3.499   2.538
 7608SOL    HW223724   4.117   3.340   2.569
 7609SOL     OW23725   1.032   3.676   3.859
 7609SOL    HW123726   1.105   3.669   3.928
 7609SOL    HW223727   0.949   3.712   3.903
 7610SOL     OW23728   4.966   6.171   6.443
 7610SOL    HW123729   4.998   6.264   6.459
 7610SOL    HW223730   4.987   6.144   6.348
 7611SOL     OW23731   6.853   2.635   1.047
 7611SOL    HW123732   6.819   2.634   0.953
 7611SOL    HW223733   6.776   2.621   1.110
 7612SOL     OW23734   4.846   3.010   3.575
 7612SOL    HW123735   4.802   2.922   3.592
 7612SOL    HW223736   4.870   3.053   3.662
 7613SOL     OW23737   6.392   3.338   1.024
 7613SOL    HW123738   6.336   3.287   1.089
 7613SOL    HW223739   6.340   3.415   0.987
 7614SOL     OW23740   5.315   3.049   0.686
 7614SOL    HW123741   5.295   3.145   0.704
 7614SOL    HW223742   5.290   3.028   0.591
 7615SOL     OW23743   3.553   4.961   6.585
 7615SOL    HW123744   3.602   4.887   6.540
 7615SOL    HW223745   3.616   5.013   6.643
 7616SOL     OW23746   6.220   5.324   4.753
 7616SOL    HW123747   6.205   5.379   4.671
 7616SOL    HW223748   6.146   5.340   4.818
 7617SOL     OW23749   3.903   4.985   2.677
 7617SOL    HW123750   3.945   5.021   2.594
 7617SOL    HW223751   3.944   4.897   2.701
 7618SOL     OW23752   0.633   1.330   5.897
 7618SOL    HW123753   0.604   1.375   5.812
 7618SOL    HW223754   0.688   1.250   5.874
 7619SOL     OW23755   5.971   3.208   5.132
 7619SOL    HW123756   6.024   3.124   5.139
 7619SOL    HW223757   5.873   3.185   5.131
 7620SOL     OW23758   4.084   5.556   0.888
 7620SOL    HW123759   4.135   5.485   0.935
 7620SOL    HW223760   4.014   5.514   0.830
 7621SOL     OW23761   7.002   1.831   1.247
 7621SOL    HW123762   6.966   1.874   1.165
 7621SOL    HW223763   6.945   1.752   1.270
 7622SOL     OW23764   4.143   5.810   1.048
 7622SOL    HW123765   4.123   5.727   0.997
 7622SOL    HW223766   4.138   5.889   0.986
 7623SOL     OW23767   4.843   4.683   6.651
 7623SOL    HW123768   4.794   4.602   6.682
 7623SOL    HW223769   4.860   4.677   6.553
 7624SOL     OW23770   6.868   3.559   5.566
 7624SOL    HW123771   6.779   3.528   5.601
 7624SOL    HW223772   6.899   3.638   5.619
 7625SOL     OW23773   4.720   0.303   1.560
 7625SOL    HW123774   4.724   0.252   1.474
 7625SOL    HW223775   4.741   0.399   1.543
 7626SOL     OW23776   5.589   6.937   4.702
 7626SOL    HW123777   5.518   6.947   4.631
 7626SOL    HW223778   5.674   6.907   4.660
 7627SOL     OW23779   5.019   2.744   0.164
 7627SOL    HW123780   5.106   2.783   0.133
 7627SOL    HW223781   4.944   2.789   0.117
 7628SOL     OW23782   3.617   1.604   2.644
 7628SOL    HW123783   3.713   1.626   2.665
 7628SOL    HW223784   3.584   1.536   2.709
 7629SOL     OW23785   0.142   6.160   3.247
 7629SOL    HW123786   0.064   6.218   3.267
 7629SOL    HW223787   0.192   6.141   3.332
 7630SOL     OW23788   6.539   6.943   1.240
 7630SOL    HW123789   6.599   7.021   1.224
 7630SOL    HW223790   6.595   6.861   1.257
 7631SOL     OW23791   1.244   1.486   6.156
 7631SOL    HW123792   1.214   1.442   6.071
 7631SOL    HW223793   1.344   1.493   6.156
 7632SOL     OW23794   3.479   2.717   1.787
 7632SOL    HW123795   3.406   2.692   1.724
 7632SOL    HW223796   3.563   2.667   1.763
 7633SOL     OW23797   5.194   0.469   1.352
 7633SOL    HW123798   5.189   0.369   1.344
 7633SOL    HW223799   5.149   0.498   1.437
 7634SOL     OW23800   1.357   2.272   2.500
 7634SOL    HW123801   1.337   2.255   2.596
 7634SOL    HW223802   1.402   2.192   2.460
 7635SOL     OW23803   3.621   5.469   4.871
 7635SOL    HW123804   3.672   5.451   4.787
 7635SOL    HW223805   3.536   5.516   4.850
 7636SOL     OW23806   1.600   2.496   4.044
 7636SOL    HW123807   1.641   2.587   4.043
 7636SOL    HW223808   1.628   2.446   3.962
 7637SOL     OW23809   2.205   5.496   2.366
 7637SOL    HW123810   2.122   5.445   2.343
 7637SOL    HW223811   2.220   5.493   2.465
 7638SOL     OW23812   3.170   6.092   1.008
 7638SOL    HW123813   3.092   6.041   1.045
 7638SOL    HW223814   3.242   6.096   1.077
 7639SOL     OW23815   1.345   2.285   0.976
 7639SOL    HW123816   1.384   2.369   1.015
 7639SOL    HW223817   1.384   2.269   0.886
 7640SOL     OW23818   2.946   1.673   5.818
 7640SOL    HW123819   2.911   1.648   5.728
 7640SOL    HW223820   3.042   1.700   5.811
 7641SOL     OW23821   1.122   4.581   2.508
 7641SOL    HW123822   1.136   4.488   2.474
 7641SOL    HW223823   1.061   4.578   2.587
 7642SOL     OW23824   3.665   0.840   3.114
 7642SOL    HW123825   3.643   0.937   3.119
 7642SOL    HW223826   3.631   0.802   3.028
 7643SOL     OW23827   5.047   2.698   4.355
 7643SOL    HW123828   5.057   2.792   4.389
 7643SOL    HW223829   5.016   2.639   4.429
 7644SOL     OW23830   5.699   2.213   2.709
 7644SOL    HW123831   5.697   2.178   2.615
 7644SOL    HW223832   5.719   2.138   2.771
 7645SOL     OW23833   4.069   3.950   5.524
 7645SOL    HW123834   4.056   3.888   5.446
 7645SOL    HW223835   4.167   3.962   5.541
 7646SOL     OW23836   0.966   3.740   3.058
 7646SOL    HW123837   0.996   3.830   3.089
 7646SOL    HW223838   0.926   3.748   2.967
 7647SOL     OW23839   6.626   3.526   2.944
 7647SOL    HW123840   6.534   3.531   2.906
 7647SOL    HW223841   6.661   3.618   2.961
 7648SOL     OW23842   2.608   1.175   2.707
 7648SOL    HW123843   2.638   1.264   2.673
 7648SOL    HW223844   2.514   1.182   2.739
 7649SOL     OW23845   1.240   0.807   2.738
 7649SOL    HW123846   1.175   0.819   2.813
 7649SOL    HW223847   1.192   0.806   2.651
 7650SOL     OW23848   4.575   2.057   0.890
 7650SOL    HW123849   4.671   2.046   0.865
 7650SOL    HW223850   4.527   1.970   0.879
 7651SOL     OW23851   2.316   0.626   3.687
 7651SOL    HW123852   2.272   0.670   3.765
 7651SOL    HW223853   2.330   0.529   3.708
 7652SOL     OW23854   6.047   3.944   5.019
 7652SOL    HW123855   5.967   3.941   5.079
 7652SOL    HW223856   6.106   4.021   5.047
 7653SOL     OW23857   1.042   2.113   0.048
 7653SOL    HW123858   1.037   2.159   0.136
 7653SOL    HW223859   0.949   2.102   0.011
 7654SOL     OW23860   4.481   2.557   4.015
 7654SOL    HW123861   4.457   2.598   4.103
 7654SOL    HW223862   4.570   2.593   3.985
 7655SOL     OW23863   4.421   0.062   2.861
 7655SOL    HW123864   4.469   7.014   2.910
 7655SOL    HW223865   4.483   0.104   2.796
 7656SOL     OW23866   2.841   4.047   5.921
 7656SOL    HW123867   2.937   4.027   5.943
 7656SOL    HW223868   2.811   3.987   5.847
 7657SOL     OW23869   1.551   2.874   4.198
 7657SOL    HW123870   1.541   2.967   4.234
 7657SOL    HW223871   1.622   2.873   4.128
 7658SOL     OW23872   3.918   7.010   6.100
 7658SOL    HW123873   3.894   0.019   6.191
 7658SOL    HW223874   4.016   6.993   6.095
 7659SOL     OW23875   5.863   5.601   6.574
 7659SOL    HW123876   5.790   5.615   6.508
 7659SOL    HW223877   5.847   5.516   6.625
 7660SOL     OW23878   0.746   6.082   4.099
 7660SOL    HW123879   0.818   6.100   4.032
 7660SOL    HW223880   0.786   6.034   4.178
 7661SOL     OW23881   6.326   2.689   4.722
 7661SOL    HW123882   6.256   2.715   4.655
 7661SOL    HW223883   6.396   2.760   4.726
 7662SOL     OW23884   1.208   3.330   3.210
 7662SOL    HW123885   1.127   3.385   3.191
 7662SOL    HW223886   1.243   3.352   3.301
 7663SOL     OW23887   0.437   5.801   5.577
 7663SOL    HW123888   0.401   5.714   5.545
 7663SOL    HW223889   0.406   5.874   5.516
 7664SOL     OW23890   3.613   0.255   1.389
 7664SOL    HW123891   3.621   0.243   1.488
 7664SOL    HW223892   3.552   0.185   1.352
 7665SOL     OW23893   5.790   6.877   4.872
 7665SOL    HW123894   5.707   6.888   4.818
 7665SOL    HW223895   5.851   6.812   4.826
 7666SOL     OW23896   0.322   5.478   1.704
 7666SOL    HW123897   0.307   5.396   1.758
 7666SOL    HW223898   0.361   5.454   1.616
 7667SOL     OW23899   5.042   6.497   2.160
 7667SOL    HW123900   5.012   6.563   2.228
 7667SOL    HW223901   5.132   6.523   2.125
 7668SOL     OW23902   3.137   4.310   6.794
 7668SOL    HW123903   3.121   4.399   6.753
 7668SOL    HW223904   3.193   4.320   6.876
 7669SOL     OW23905   4.825   1.989   5.549
 7669SOL    HW123906   4.746   2.005   5.490
 7669SOL    HW223907   4.812   2.039   5.635
 7670SOL     OW23908   0.743   5.202   6.278
 7670SOL    HW123909   0.646   5.223   6.265
 7670SOL    HW223910   0.751   5.118   6.333
 7671SOL     OW23911   4.438   0.936   2.647
 7671SOL    HW123912   4.513   0.871   2.629
 7671SOL    HW223913   4.368   0.926   2.576
 7672SOL     OW23914   0.461   6.741   2.932
 7672SOL    HW123915   0.373   6.771   2.897
 7672SOL    HW223916   0.461   6.641   2.941
 7673SOL     OW23917   1.588   6.090   0.307
 7673SOL    HW123918   1.624   6.183   0.310
 7673SOL    HW223919   1.500   6.089   0.260
 7674SOL     OW23920   5.435   0.926   3.348
 7674SOL    HW123921   5.405   1.012   3.307
 7674SOL    HW223922   5.357   0.865   3.358
 7675SOL     OW23923   6.601   6.768   2.480
 7675SOL    HW123924   6.543   6.734   2.406
 7675SOL    HW223925   6.628   6.862   2.460
 7676SOL     OW23926   2.328   2.200   0.384
 7676SOL    HW123927   2.316   2.100   0.387
 7676SOL    HW223928   2.324   2.237   0.476
 7677SOL     OW23929   0.270   4.698   1.628
 7677SOL    HW123930   0.182   4.744   1.617
 7677SOL    HW223931   0.291   4.646   1.545
 7678SOL     OW23932   2.034   2.464   4.362
 7678SOL    HW123933   1.984   2.543   4.395
 7678SOL    HW223934   2.036   2.393   4.432
 7679SOL     OW23935   2.883   5.549   6.297
 7679SOL    HW123936   2.831   5.465   6.281
 7679SOL    HW223937   2.976   5.526   6.324
 7680SOL     OW23938   1.366   0.836   0.855
 7680SOL    HW123939   1.285   0.892   0.872
 7680SOL    HW223940   1.351   0.744   0.889
 7681SOL     OW23941   2.182   0.628   0.830
 7681SOL    HW123942   2.201   0.683   0.749
 7681SOL    HW223943   2.178   0.531   0.804
 7682SOL     OW23944   3.420   0.006   2.288
 7682SOL    HW123945   3.506   0.003   2.236
 7682SOL    HW223946   3.393   0.101   2.301
 7683SOL     OW23947   5.182   1.462   4.232
 7683SOL    HW123948   5.186   1.553   4.271
 7683SOL    HW223949   5.089   1.425   4.241
 7684SOL     OW23950   3.484   1.975   1.451
 7684SOL    HW123951   3.469   2.054   1.510
 7684SOL    HW223952   3.579   1.944   1.459
 7685SOL     OW23953   2.762   2.411   6.082
 7685SOL    HW123954   2.858   2.404   6.053
 7685SOL    HW223955   2.747   2.349   6.159
 7686SOL     OW23956   0.193   6.740   2.891
 7686SOL    HW123957   0.177   6.649   2.854
 7686SOL    HW223958   0.119   6.764   2.954
 7687SOL     OW23959   5.572   5.445   3.725
 7687SOL    HW123960   5.581   5.540   3.756
 7687SOL    HW223961   5.570   5.442   3.625
 7688SOL     OW23962   1.225   5.647   6.257
 7688SOL    HW123963   1.207   5.738   6.220
 7688SOL    HW223964   1.322   5.624   6.244
 7689SOL     OW23965   6.054   6.556   2.401
 7689SOL    HW123966   6.133   6.550   2.461
 7689SOL    HW223967   5.974   6.516   2.447
 7690SOL     OW23968   5.422   5.255   0.376
 7690SOL    HW123969   5.422   5.208   0.464
 7690SOL    HW223970   5.359   5.332   0.379
 7691SOL     OW23971   5.202   3.874   4.700
 7691SOL    HW123972   5.160   3.965   4.702
 7691SOL    HW223973   5.130   3.805   4.703
 7692SOL     OW23974   0.322   6.225   1.931
 7692SOL    HW123975   0.341   6.142   1.984
 7692SOL    HW223976   0.385   6.297   1.958
 7693SOL     OW23977   3.883   6.798   0.892
 7693SOL    HW123978   3.911   6.776   0.798
 7693SOL    HW223979   3.952   6.857   0.934
 7694SOL     OW23980   6.924   4.679   4.900
 7694SOL    HW123981   6.962   4.757   4.852
 7694SOL    HW223982   6.852   4.711   4.962
 7695SOL     OW23983   4.392   0.321   1.055
 7695SOL    HW123984   4.484   0.314   1.016
 7695SOL    HW223985   4.380   0.411   1.096
 7696SOL     OW23986   0.076   0.490   5.193
 7696SOL    HW123987   7.011   0.519   5.225
 7696SOL    HW223988   0.116   0.562   5.137
 7697SOL     OW23989   2.624   6.696   2.194
 7697SOL    HW123990   2.663   6.631   2.129
 7697SOL    HW223991   2.598   6.780   2.147
 7698SOL     OW23992   6.555   1.434   3.802
 7698SOL    HW123993   6.589   1.499   3.734
 7698SOL    HW223994   6.455   1.432   3.800
 7699SOL     OW23995   3.679   5.968   6.698
 7699SOL    HW123996   3.728   5.928   6.776
 7699SOL    HW223997   3.729   5.950   6.614
 7700SOL     OW23998   4.899   5.816   3.694
 7700SOL    HW123999   4.943   5.726   3.695
 7700SOL    HW224000   4.813   5.811   3.745
 7701SOL     OW24001   6.794   2.007   6.663
 7701SOL    HW124002   6.840   2.041   6.746
 7701SOL    HW224003   6.697   2.032   6.667
 7702SOL     OW24004   3.212   7.004   5.341
 7702SOL    HW124005   3.225   6.906   5.325
 7702SOL    HW224006   3.116   7.021   5.365
 7703SOL     OW24007   6.679   6.941   6.658
 7703SOL    HW124008   6.637   6.930   6.748
 7703SOL    HW224009   6.686   6.852   6.613
 7704SOL     OW24010   5.576   5.394   4.812
 7704SOL    HW124011   5.655   5.451   4.788
 7704SOL    HW224012   5.567   5.392   4.912
 7705SOL     OW24013   3.617   5.555   6.905
 7705SOL    HW124014   3.561   5.484   6.950
 7705SOL    HW224015   3.559   5.610   6.845
 7706SOL     OW24016   4.696   3.126   5.267
 7706SOL    HW124017   4.685   3.121   5.366
 7706SOL    HW224018   4.606   3.128   5.223
 7707SOL     OW24019   6.801   5.201   5.640
 7707SOL    HW124020   6.833   5.109   5.618
 7707SOL    HW224021   6.812   5.261   5.561
 7708SOL     OW24022   0.374   0.260   5.808
 7708SOL    HW124023   0.435   0.220   5.876
 7708SOL    HW224024   0.279   0.247   5.838
 7709SOL     OW24025   6.207   5.226   2.022
 7709SOL    HW124026   6.109   5.245   2.023
 7709SOL    HW224027   6.223   5.129   2.038
 7710SOL     OW24028   2.846   1.006   0.149
 7710SOL    HW124029   2.892   1.022   0.236
 7710SOL    HW224030   2.817   1.093   0.110
 7711SOL     OW24031   6.363   6.885   5.942
 7711SOL    HW124032   6.357   6.984   5.939
 7711SOL    HW224033   6.442   6.857   5.996
 7712SOL     OW24034   6.027   5.399   2.408
 7712SOL    HW124035   6.114   5.358   2.380
 7712SOL    HW224036   5.961   5.327   2.430
 7713SOL     OW24037   1.531   4.126   0.928
 7713SOL    HW124038   1.479   4.144   1.011
 7713SOL    HW224039   1.628   4.120   0.951
 7714SOL     OW24040   6.020   4.193   5.570
 7714SOL    HW124041   5.989   4.150   5.655
 7714SOL    HW224042   6.090   4.261   5.592
 7715SOL     OW24043   3.715   2.224   0.151
 7715SOL    HW124044   3.720   2.155   0.079
 7715SOL    HW224045   3.780   2.201   0.224
 7716SOL     OW24046   6.164   4.254   2.922
 7716SOL    HW124047   6.208   4.169   2.894
 7716SOL    HW224048   6.074   4.262   2.878
 7717SOL     OW24049   1.916   0.862   5.052
 7717SOL    HW124050   1.857   0.781   5.055
 7717SOL    HW224051   1.921   0.903   5.143
 7718SOL     OW24052   1.202   3.202   3.989
 7718SOL    HW124053   1.279   3.212   4.052
 7718SOL    HW224054   1.176   3.105   3.983
 7719SOL     OW24055   6.711   4.743   5.064
 7719SOL    HW124056   6.666   4.826   5.097
 7719SOL    HW224057   6.644   4.669   5.059
 7720SOL     OW24058   6.896   1.599   0.630
 7720SOL    HW124059   6.838   1.565   0.705
 7720SOL    HW224060   6.991   1.575   0.648
 7721SOL     OW24061   0.594   5.417   2.683
 7721SOL    HW124062   0.596   5.337   2.743
 7721SOL    HW224063   0.504   5.461   2.688
 7722SOL     OW24064   1.278   4.633   3.497
 7722SOL    HW124065   1.334   4.705   3.456
 7722SOL    HW224066   1.316   4.608   3.587
 7723SOL     OW24067   4.561   3.487   0.034
 7723SOL    HW124068   4.632   3.428   7.021
 7723SOL    HW224069   4.488   3.430   0.073
 7724SOL     OW24070   3.322   3.744   0.673
 7724SOL    HW124071   3.297   3.841   0.669
 7724SOL    HW224072   3.409   3.733   0.720
 7725SOL     OW24073   6.517   1.071   3.008
 7725SOL    HW124074   6.529   0.973   3.028
 7725SOL    HW224075   6.426   1.087   2.969
 7726SOL     OW24076   1.755   5.557   5.593
 7726SOL    HW124077   1.677   5.506   5.629
 7726SOL    HW224078   1.723   5.642   5.551
 7727SOL     OW24079   0.379   0.900   3.119
 7727SOL    HW124080   0.371   0.883   3.021
 7727SOL    HW224081   0.475   0.895   3.146
 7728SOL     OW24082   1.020   4.655   4.063
 7728SOL    HW124083   1.029   4.729   3.996
 7728SOL    HW224084   0.988   4.693   4.150
 7729SOL     OW24085   5.620   3.308   0.569
 7729SOL    HW124086   5.682   3.315   0.647
 7729SOL    HW224087   5.657   3.244   0.502
 7730SOL     OW24088   5.807   6.003   0.198
 7730SOL    HW124089   5.839   5.966   0.111
 7730SOL    HW224090   5.833   6.099   0.206
 7731SOL     OW24091   6.792   1.228   0.682
 7731SOL    HW124092   6.842   1.251   0.766
 7731SOL    HW224093   6.835   1.272   0.604
 7732SOL     OW24094   4.984   6.454   0.614
 7732SOL    HW124095   4.954   6.392   0.687
 7732SOL    HW224096   4.922   6.533   0.611
 7733SOL     OW24097   4.805   6.177   2.991
 7733SOL    HW124098   4.835   6.248   3.055
 7733SOL    HW224099   4.757   6.219   2.914
 7734SOL     OW24100   2.170   4.563   3.039
 7734SOL    HW124101   2.203   4.624   2.967
 7734SOL    HW224102   2.244   4.545   3.104
 7735SOL     OW24103   4.797   6.860   6.806
 7735SOL    HW124104   4.842   6.773   6.823
 7735SOL    HW224105   4.709   6.844   6.760
 7736SOL     OW24106   3.614   3.377   6.358
 7736SOL    HW124107   3.533   3.342   6.406
 7736SOL    HW224108   3.591   3.392   6.262
 7737SOL     OW24109   3.161   6.771   2.391
 7737SOL    HW124110   3.106   6.690   2.414
 7737SOL    HW224111   3.222   6.792   2.467
 7738SOL     OW24112   3.165   5.867   6.842
 7738SOL    HW124113   3.165   5.791   6.908
 7738SOL    HW224114   3.164   5.954   6.892
 7739SOL     OW24115   0.467   2.703   1.522
 7739SOL    HW124116   0.422   2.615   1.535
 7739SOL    HW224117   0.399   2.777   1.524
 7740SOL     OW24118   1.966   1.534   2.476
 7740SOL    HW124119   1.919   1.560   2.561
 7740SOL    HW224120   1.903   1.485   2.416
 7741SOL     OW24121   0.671   4.833   5.770
 7741SOL    HW124122   0.709   4.875   5.853
 7741SOL    HW224123   0.611   4.899   5.724
 7742SOL     OW24124   4.151   2.274   3.538
 7742SOL    HW124125   4.125   2.225   3.455
 7742SOL    HW224126   4.076   2.272   3.603
 7743SOL     OW24127   5.750   1.129   6.455
 7743SOL    HW124128   5.671   1.078   6.420
 7743SOL    HW224129   5.718   1.212   6.500
 7744SOL     OW24130   0.853   6.428   3.953
 7744SOL    HW124131   0.927   6.446   3.888
 7744SOL    HW224132   0.773   6.394   3.903
 7745SOL     OW24133   3.655   1.396   6.919
 7745SOL    HW124134   3.568   1.442   6.939
 7745SOL    HW224135   3.654   1.363   6.825
 7746SOL     OW24136   1.448   0.205   0.398
 7746SOL    HW124137   1.422   0.151   0.318
 7746SOL    HW224138   1.465   0.144   0.475
 7747SOL     OW24139   5.593   5.437   0.797
 7747SOL    HW124140   5.590   5.529   0.837
 7747SOL    HW224141   5.646   5.376   0.856
 7748SOL     OW24142   3.256   4.139   4.733
 7748SOL    HW124143   3.303   4.147   4.821
 7748SOL    HW224144   3.214   4.049   4.726
 7749SOL     OW24145   2.871   3.336   6.120
 7749SOL    HW124146   2.956   3.329   6.171
 7749SOL    HW224147   2.796   3.300   6.175
 7750SOL     OW24148   0.148   6.054   1.481
 7750SOL    HW124149   0.119   6.051   1.386
 7750SOL    HW224150   0.137   5.963   1.523
 7751SOL     OW24151   1.652   2.763   2.195
 7751SOL    HW124152   1.680   2.700   2.268
 7751SOL    HW224153   1.627   2.710   2.114
 7752SOL     OW24154   5.649   6.700   5.719
 7752SOL    HW124155   5.663   6.681   5.621
 7752SOL    HW224156   5.602   6.787   5.730
 7753SOL     OW24157   2.752   0.787   3.934
 7753SOL    HW124158   2.831   0.786   3.996
 7753SOL    HW224159   2.775   0.737   3.850
 7754SOL     OW24160   3.313   6.443   2.136
 7754SOL    HW124161   3.309   6.420   2.234
 7754SOL    HW224162   3.228   6.487   2.108
 7755SOL     OW24163   2.100   2.401   5.281
 7755SOL    HW124164   2.112   2.382   5.378
 7755SOL    HW224165   2.106   2.500   5.266
 7756SOL     OW24166   2.398   6.412   2.856
 7756SOL    HW124167   2.313   6.372   2.889
 7756SOL    HW224168   2.408   6.505   2.891
 7757SOL     OW24169   5.580   5.043   0.007
 7757SOL    HW124170   5.545   4.957   6.995
 7757SOL    HW224171   5.503   5.105   0.023
 7758SOL     OW24172   2.481   0.593   5.453
 7758SOL    HW124173   2.485   0.494   5.470
 7758SOL    HW224174   2.462   0.641   5.539
 7759SOL     OW24175   1.797   2.169   5.610
 7759SOL    HW124176   1.748   2.177   5.697
 7759SOL    HW224177   1.856   2.088   5.613
 7760SOL     OW24178   5.892   3.435   2.813
 7760SOL    HW124179   5.846   3.468   2.730
 7760SOL    HW224180   5.933   3.512   2.861
 7761SOL     OW24181   0.313   0.091   4.301
 7761SOL    HW124182   0.379   0.158   4.265
 7761SOL    HW224183   0.221   0.130   4.299
 7762SOL     OW24184   2.713   0.346   3.915
 7762SOL    HW124185   2.653   0.412   3.961
 7762SOL    HW224186   2.801   0.390   3.896
 7763SOL     OW24187   2.073   0.402   6.959
 7763SOL    HW124188   2.046   0.490   6.920
 7763SOL    HW224189   2.012   0.330   6.927
 7764SOL     OW24190   3.406   3.300   4.936
 7764SOL    HW124191   3.370   3.348   4.856
 7764SOL    HW224192   3.343   3.227   4.963
 7765SOL     OW24193   5.985   4.599   5.159
 7765SOL    HW124194   6.043   4.625   5.236
 7765SOL    HW224195   6.031   4.621   5.073
 7766SOL     OW24196   6.908   4.135   0.015
 7766SOL    HW124197   6.851   4.202   0.062
 7766SOL    HW224198   6.870   4.118   6.949
 7767SOL     OW24199   5.192   6.350   2.485
 7767SOL    HW124200   5.099   6.346   2.451
 7767SOL    HW224201   5.212   6.268   2.538
 7768SOL     OW24202   4.317   4.638   2.887
 7768SOL    HW124203   4.408   4.597   2.878
 7768SOL    HW224204   4.258   4.576   2.938
 7769SOL     OW24205   4.093   1.574   3.724
 7769SOL    HW124206   4.059   1.624   3.644
 7769SOL    HW224207   4.050   1.484   3.727
 7770SOL     OW24208   1.924   4.267   4.230
 7770SOL    HW124209   1.853   4.326   4.191
 7770SOL    HW224210   1.898   4.241   4.323
 7771SOL     OW24211   3.650   1.889   5.196
 7771SOL    HW124212   3.607   1.912   5.109
 7771SOL    HW224213   3.746   1.918   5.195
 7772SOL     OW24214   4.443   0.043   2.476
 7772SOL    HW124215   4.359   7.017   2.463
 7772SOL    HW224216   4.517   7.006   2.501
 7773SOL     OW24217   2.368   5.803   5.246
 7773SOL    HW124218   2.319   5.845   5.323
 7773SOL    HW224219   2.412   5.875   5.191
 7774SOL     OW24220   5.334   2.003   4.561
 7774SOL    HW124221   5.315   1.905   4.562
 7774SOL    HW224222   5.344   2.034   4.467
 7775SOL     OW24223   4.449   5.986   0.891
 7775SOL    HW124224   4.504   5.950   0.966
 7775SOL    HW224225   4.370   6.035   0.927
 7776SOL     OW24226   0.296   5.763   6.556
 7776SOL    HW124227   0.204   5.729   6.539
 7776SOL    HW224228   0.306   5.853   6.515
 7777SOL     OW24229   5.653   5.673   3.844
 7777SOL    HW124230   5.632   5.667   3.942
 7777SOL    HW224231   5.748   5.647   3.829
 7778SOL     OW24232   5.692   4.159   0.393
 7778SOL    HW124233   5.630   4.086   0.365
 7778SOL    HW224234   5.659   4.246   0.356
 7779SOL     OW24235   2.678   2.058   1.395
 7779SOL    HW124236   2.632   2.007   1.468
 7779SOL    HW224237   2.616   2.129   1.360
 7780SOL     OW24238   0.851   4.962   5.298
 7780SOL    HW124239   0.888   4.901   5.228
 7780SOL    HW224240   0.784   4.912   5.354
 7781SOL     OW24241   2.528   4.698   1.006
 7781SOL    HW124242   2.563   4.604   1.010
 7781SOL    HW224243   2.603   4.761   0.989
 7782SOL     OW24244   4.940   4.954   4.655
 7782SOL    HW124245   4.847   4.991   4.649
 7782SOL    HW224246   5.003   5.016   4.609
 7783SOL     OW24247   0.776   6.338   5.258
 7783SOL    HW124248   0.808   6.353   5.165
 7783SOL    HW224249   0.830   6.267   5.301
 7784SOL     OW24250   3.798   2.868   1.728
 7784SOL    HW124251   3.873   2.805   1.705
 7784SOL    HW224252   3.794   2.879   1.827
 7785SOL     OW24253   2.022   6.142   4.728
 7785SOL    HW124254   1.970   6.219   4.765
 7785SOL    HW224255   2.065   6.091   4.803
 7786SOL     OW24256   3.619   6.702   0.962
 7786SOL    HW124257   3.637   6.622   1.020
 7786SOL    HW224258   3.704   6.733   0.920
 7787SOL     OW24259   2.273   3.004   6.494
 7787SOL    HW124260   2.261   3.098   6.527
 7787SOL    HW224261   2.221   2.941   6.550
 7788SOL     OW24262   1.989   4.826   1.277
 7788SOL    HW124263   1.914   4.883   1.311
 7788SOL    HW224264   2.003   4.748   1.339
 7789SOL     OW24265   2.690   6.986   6.365
 7789SOL    HW124266   2.677   0.058   6.350
 7789SOL    HW224267   2.692   6.967   6.463
 7790SOL     OW24268   5.406   5.294   2.974
 7790SOL    HW124269   5.453   5.245   2.901
 7790SOL    HW224270   5.347   5.363   2.935
 7791SOL     OW24271   2.406   5.307   2.239
 7791SOL    HW124272   2.358   5.394   2.249
 7791SOL    HW224273   2.341   5.236   2.211
 7792SOL     OW24274   2.443   5.723   4.658
 7792SOL    HW124275   2.416   5.653   4.591
 7792SOL    HW224276   2.503   5.682   4.726
 7793SOL     OW24277   3.916   1.106   0.618
 7793SOL    HW124278   3.909   1.186   0.678
 7793SOL    HW224279   3.956   1.134   0.531
 7794SOL     OW24280   6.019   4.146   2.555
 7794SOL    HW124281   6.097   4.178   2.501
 7794SOL    HW224282   5.935   4.185   2.518
 7795SOL     OW24283   1.888   4.368   5.026
 7795SOL    HW124284   1.948   4.316   5.087
 7795SOL    HW224285   1.812   4.406   5.079
 7796SOL     OW24286   3.495   2.835   4.927
 7796SOL    HW124287   3.551   2.773   4.873
 7796SOL    HW224288   3.414   2.862   4.874
 7797SOL     OW24289   1.320   6.819   1.422
 7797SOL    HW124290   1.220   6.815   1.415
 7797SOL    HW224291   1.354   6.734   1.461
 7798SOL     OW24292   1.239   3.272   3.705
 7798SOL    HW124293   1.263   3.204   3.774
 7798SOL    HW224294   1.293   3.355   3.720
 7799SOL     OW24295   1.493   5.648   2.591
 7799SOL    HW124296   1.565   5.635   2.522
 7799SOL    HW224297   1.404   5.638   2.548
 7800SOL     OW24298   1.142   5.453   2.424
 7800SOL    HW124299   1.165   5.367   2.380
 7800SOL    HW224300   1.078   5.504   2.366
 7801SOL     OW24301   2.269   1.701   1.285
 7801SOL    HW124302   2.191   1.763   1.274
 7801SOL    HW224303   2.236   1.613   1.318
 7802SOL     OW24304   5.953   2.642   1.444
 7802SOL    HW124305   5.859   2.662   1.471
 7802SOL    HW224306   6.006   2.614   1.525
 7803SOL     OW24307   4.382   2.519   6.098
 7803SOL    HW124308   4.411   2.557   6.010
 7803SOL    HW224309   4.321   2.442   6.083
 7804SOL     OW24310   4.535   2.342   5.194
 7804SOL    HW124311   4.555   2.404   5.270
 7804SOL    HW224312   4.547   2.391   5.108
 7805SOL     OW24313   5.345   3.001   1.417
 7805SOL    HW124314   5.398   2.932   1.368
 7805SOL    HW224315   5.252   3.004   1.380
 7806SOL     OW24316   6.111   1.994   6.444
 7806SOL    HW124317   6.059   1.910   6.457
 7806SOL    HW224318   6.134   2.034   6.533
 7807SOL     OW24319   1.450   4.256   6.237
 7807SOL    HW124320   1.518   4.304   6.182
 7807SOL    HW224321   1.380   4.218   6.177
 7808SOL     OW24322   6.076   2.914   4.252
 7808SOL    HW124323   6.058   2.997   4.306
 7808SOL    HW224324   6.167   2.880   4.274
 7809SOL     OW24325   4.198   5.343   4.761
 7809SOL    HW124326   4.115   5.361   4.708
 7809SOL    HW224327   4.276   5.382   4.713
 7810SOL     OW24328   3.858   0.073   4.855
 7810SOL    HW124329   3.842   0.093   4.759
 7810SOL    HW224330   3.873   7.000   4.866
 7811SOL     OW24331   1.348   5.504   2.072
 7811SOL    HW124332   1.308   5.589   2.037
 7811SOL    HW224333   1.291   5.427   2.043
 7812SOL     OW24334   0.617   2.566   3.869
 7812SOL    HW124335   0.689   2.519   3.919
 7812SOL    HW224336   0.528   2.541   3.906
 7813SOL     OW24337   4.343   1.997   0.453
 7813SOL    HW124338   4.292   1.998   0.539
 7813SOL    HW224339   4.309   2.069   0.393
 7814SOL     OW24340   0.068   3.352   2.919
 7814SOL    HW124341   0.128   3.432   2.924
 7814SOL    HW224342   0.009   3.348   3.000
 7815SOL     OW24343   6.242   1.702   4.350
 7815SOL    HW124344   6.215   1.797   4.364
 7815SOL    HW224345   6.331   1.699   4.304
 7816SOL     OW24346   1.476   2.438   6.403
 7816SOL    HW124347   1.433   2.386   6.477
 7816SOL    HW224348   1.508   2.526   6.438
 7817SOL     OW24349   4.937   4.149   4.505
 7817SOL    HW124350   4.849   4.186   4.534
 7817SOL    HW224351   4.966   4.079   4.570
 7818SOL     OW24352   5.389   0.219   2.230
 7818SOL    HW124353   5.442   0.213   2.146
 7818SOL    HW224354   5.419   0.299   2.283
 7819SOL     OW24355   7.003   4.275   3.932
 7819SOL    HW124356   0.028   4.281   4.019
 7819SOL    HW224357   6.944   4.194   3.934
 7820SOL     OW24358   1.621   1.230   5.191
 7820SOL    HW124359   1.693   1.277   5.243
 7820SOL    HW224360   1.563   1.297   5.146
 7821SOL     OW24361   5.477   5.483   0.034
 7821SOL    HW124362   5.515   5.561   0.085
 7821SOL    HW224363   5.378   5.497   0.022
 7822SOL     OW24364   0.829   1.101   0.302
 7822SOL    HW124365   0.741   1.059   0.281
 7822SOL    HW224366   0.847   1.094   0.400
 7823SOL     OW24367   3.058   3.688   6.066
 7823SOL    HW124368   2.963   3.721   6.067
 7823SOL    HW224369   3.093   3.693   5.972
 7824SOL     OW24370   5.452   1.116   3.967
 7824SOL    HW124371   5.380   1.069   3.917
 7824SOL    HW224372   5.504   1.050   4.022
 7825SOL     OW24373   1.061   3.298   0.857
 7825SOL    HW124374   1.115   3.279   0.939
 7825SOL    HW224375   1.115   3.350   0.792
 7826SOL     OW24376   6.049   1.832   6.709
 7826SOL    HW124377   6.142   1.861   6.736
 7826SOL    HW224378   5.985   1.906   6.729
 7827SOL     OW24379   2.891   4.650   1.031
 7827SOL    HW124380   2.843   4.727   1.074
 7827SOL    HW224381   2.972   4.684   0.984
 7828SOL     OW24382   0.914   5.332   0.242
 7828SOL    HW124383   0.914   5.236   0.271
 7828SOL    HW224384   0.969   5.342   0.159
 7829SOL     OW24385   2.232   3.147   6.862
 7829SOL    HW124386   2.200   3.202   6.939
 7829SOL    HW224387   2.330   3.162   6.849
 7830SOL     OW24388   4.086   3.769   5.942
 7830SOL    HW124389   4.049   3.747   5.851
 7830SOL    HW224390   4.011   3.788   6.005
 7831SOL     OW24391   1.591   5.247   0.933
 7831SOL    HW124392   1.596   5.167   0.874
 7831SOL    HW224393   1.654   5.317   0.899
 7832SOL     OW24394   3.957   1.257   4.332
 7832SOL    HW124395   3.938   1.347   4.293
 7832SOL    HW224396   4.048   1.227   4.303
 7833SOL     OW24397   0.135   1.437   6.739
 7833SOL    HW124398   0.151   1.423   6.641
 7833SOL    HW224399   0.073   1.514   6.752
 7834SOL     OW24400   0.394   0.748   3.878
 7834SOL    HW124401   0.436   0.668   3.919
 7834SOL    HW224402   0.456   0.826   3.883
 7835SOL     OW24403   2.546   2.261   5.250
 7835SOL    HW124404   2.576   2.306   5.334
 7835SOL    HW224405   2.532   2.330   5.178
 7836SOL     OW24406   3.138   2.753   5.284
 7836SOL    HW124407   3.086   2.719   5.206
 7836SOL    HW224408   3.175   2.844   5.263
 7837SOL     OW24409   6.844   5.934   1.206
 7837SOL    HW124410   6.911   5.996   1.249
 7837SOL    HW224411   6.869   5.839   1.226
 7838SOL     OW24412   4.577   6.472   0.692
 7838SOL    HW124413   4.648   6.407   0.663
 7838SOL    HW224414   4.500   6.467   0.628
 7839SOL     OW24415   6.132   4.584   4.907
 7839SOL    HW124416   6.088   4.612   4.822
 7839SOL    HW224417   6.231   4.580   4.894
 7840SOL     OW24418   5.099   2.967   4.389
 7840SOL    HW124419   5.160   2.979   4.310
 7840SOL    HW224420   5.007   2.998   4.365
 7841SOL     OW24421   4.693   1.654   6.615
 7841SOL    HW124422   4.637   1.640   6.697
 7841SOL    HW224423   4.671   1.585   6.547
 7842SOL     OW24424   1.473   1.478   2.821
 7842SOL    HW124425   1.495   1.576   2.815
 7842SOL    HW224426   1.470   1.439   2.730
 7843SOL     OW24427   5.074   4.793   2.023
 7843SOL    HW124428   5.154   4.830   2.071
 7843SOL    HW224429   5.103   4.752   1.937
 7844SOL     OW24430   4.238   6.551   3.286
 7844SOL    HW124431   4.308   6.623   3.282
 7844SOL    HW224432   4.153   6.590   3.323
 7845SOL     OW24433   5.957   1.361   4.326
 7845SOL    HW124434   5.876   1.314   4.291
 7845SOL    HW224435   5.985   1.431   4.260
 7846SOL     OW24436   0.932   1.332   2.309
 7846SOL    HW124437   0.911   1.235   2.309
 7846SOL    HW224438   0.977   1.357   2.395
 7847SOL     OW24439   6.564   1.323   2.439
 7847SOL    HW124440   6.513   1.395   2.486
 7847SOL    HW224441   6.662   1.342   2.445
 7848SOL     OW24442   2.728   2.627   0.776
 7848SOL    HW124443   2.756   2.658   0.867
 7848SOL    HW224444   2.743   2.528   0.768
 7849SOL     OW24445   5.134   3.741   3.058
 7849SOL    HW124446   5.206   3.679   3.027
 7849SOL    HW224447   5.047   3.692   3.063
 7850SOL     OW24448   1.189   1.917   4.340
 7850SOL    HW124449   1.159   1.987   4.275
 7850SOL    HW224450   1.289   1.911   4.338
 7851SOL     OW24451   6.155   0.712   1.368
 7851SOL    HW124452   6.237   0.711   1.425
 7851SOL    HW224453   6.091   0.781   1.402
 7852SOL     OW24454   2.854   0.993   5.838
 7852SOL    HW124455   2.813   1.006   5.928
 7852SOL    HW224456   2.785   1.008   5.767
 7853SOL     OW24457   4.570   1.356   1.879
 7853SOL    HW124458   4.484   1.367   1.829
 7853SOL    HW224459   4.618   1.275   1.845
 7854SOL     OW24460   2.889   3.223   0.080
 7854SOL    HW124461   2.901   3.164   0.160
 7854SOL    HW224462   2.951   3.194   0.008
 7855SOL     OW24463   3.287   5.697   5.692
 7855SOL    HW124464   3.351   5.717   5.617
 7855SOL    HW224465   3.336   5.652   5.766
 7856SOL     OW24466   5.429   5.133   5.146
 7856SOL    HW124467   5.424   5.125   5.245
 7856SOL    HW224468   5.345   5.098   5.105
 7857SOL     OW24469   5.964   2.942   5.488
 7857SOL    HW124470   5.978   3.016   5.553
 7857SOL    HW224471   6.048   2.927   5.435
 7858SOL     OW24472   5.343   4.840   3.545
 7858SOL    HW124473   5.315   4.753   3.585
 7858SOL    HW224474   5.270   4.875   3.486
 7859SOL     OW24475   5.849   3.055   6.151
 7859SOL    HW124476   5.946   3.078   6.141
 7859SOL    HW224477   5.821   2.994   6.077
 7860SOL     OW24478   4.161   0.308   3.013
 7860SOL    HW124479   4.210   0.260   3.086
 7860SOL    HW224480   4.126   0.395   3.047
 7861SOL     OW24481   4.097   5.147   1.762
 7861SOL    HW124482   4.013   5.200   1.773
 7861SOL    HW224483   4.149   5.182   1.683
 7862SOL     OW24484   2.930   4.281   1.705
 7862SOL    HW124485   2.851   4.221   1.692
 7862SOL    HW224486   2.900   4.370   1.739
 7863SOL     OW24487   6.946   5.842   3.866
 7863SOL    HW124488   6.899   5.878   3.786
 7863SOL    HW224489   0.000   5.789   3.837
 7864SOL     OW24490   0.436   6.612   5.483
 7864SOL    HW124491   0.510   6.545   5.488
 7864SOL    HW224492   0.362   6.574   5.427
 7865SOL     OW24493   5.680   0.157   4.482
 7865SOL    HW124494   5.748   0.086   4.465
 7865SOL    HW224495   5.719   0.247   4.459
 7866SOL     OW24496   2.042   2.095   6.511
 7866SOL    HW124497   2.073   2.168   6.571
 7866SOL    HW224498   1.949   2.116   6.478
 7867SOL     OW24499   5.321   6.955   2.686
 7867SOL    HW124500   5.339   6.963   2.588
 7867SOL    HW224501   5.250   6.886   2.701
 7868SOL     OW24502   6.026   6.754   2.200
 7868SOL    HW124503   5.984   6.687   2.139
 7868SOL    HW224504   6.042   6.712   2.289
 7869SOL     OW24505   5.577   3.161   6.642
 7869SOL    HW124506   5.537   3.100   6.710
 7869SOL    HW224507   5.516   3.167   6.563
 7870SOL     OW24508   4.549   5.318   4.169
 7870SOL    HW124509   4.614   5.276   4.105
 7870SOL    HW224510   4.599   5.377   4.233
 7871SOL     OW24511   5.191   3.167   2.839
 7871SOL    HW124512   5.252   3.221   2.898
 7871SOL    HW224513   5.238   3.147   2.753
 7872SOL     OW24514   2.421   4.380   2.676
 7872SOL    HW124515   2.474   4.437   2.739
 7872SOL    HW224516   2.363   4.317   2.728
 7873SOL     OW24517   6.038   0.624   5.518
 7873SOL    HW124518   5.976   0.673   5.457
 7873SOL    HW224519   5.999   0.623   5.611
 7874SOL     OW24520   4.763   1.651   0.871
 7874SOL    HW124521   4.730   1.615   0.784
 7874SOL    HW224522   4.861   1.634   0.880
 7875SOL     OW24523   4.807   2.579   6.291
 7875SOL    HW124524   4.769   2.564   6.200
 7875SOL    HW224525   4.905   2.559   6.291
 7876SOL     OW24526   0.269   6.972   5.720
 7876SOL    HW124527   0.190   6.915   5.697
 7876SOL    HW224528   0.249   0.042   5.701
 7877SOL     OW24529   0.259   2.909   2.921
 7877SOL    HW124530   0.189   2.877   2.858
 7877SOL    HW224531   0.290   2.833   2.979
 7878SOL     OW24532   4.934   4.895   3.973
 7878SOL    HW124533   4.919   4.798   3.955
 7878SOL    HW224534   4.889   4.920   4.059
 7879SOL     OW24535   4.270   5.666   3.200
 7879SOL    HW124536   4.368   5.682   3.214
 7879SOL    HW224537   4.245   5.577   3.238
 7880SOL     OW24538   2.346   5.233   1.816
 7880SOL    HW124539   2.331   5.224   1.914
 7880SOL    HW224540   2.261   5.213   1.767
 7881SOL     OW24541   5.903   4.273   4.974
 7881SOL    HW124542   6.000   4.278   4.954
 7881SOL    HW224543   5.854   4.232   4.897
 7882SOL     OW24544   1.172   3.510   2.774
 7882SOL    HW124545   1.126   3.433   2.818
 7882SOL    HW224546   1.222   3.479   2.694
 7883SOL     OW24547   1.579   7.020   0.935
 7883SOL    HW124548   1.538   6.935   0.902
 7883SOL    HW224549   1.678   7.009   0.942
 7884SOL     OW24550   2.002   4.129   4.007
 7884SOL    HW124551   2.083   4.073   4.025
 7884SOL    HW224552   1.982   4.185   4.088
 7885SOL     OW24553   5.978   6.192   1.497
 7885SOL    HW124554   6.061   6.158   1.540
 7885SOL    HW224555   5.905   6.124   1.506
 7886SOL     OW24556   3.767   5.500   0.814
 7886SOL    HW124557   3.718   5.503   0.727
 7886SOL    HW224558   3.705   5.470   0.886
 7887SOL     OW24559   3.335   2.521   5.342
 7887SOL    HW124560   3.274   2.468   5.284
 7887SOL    HW224561   3.330   2.618   5.316
 7888SOL     OW24562   6.859   0.123   4.847
 7888SOL    HW124563   6.919   0.191   4.804
 7888SOL    HW224564   6.828   0.158   4.936
 7889SOL     OW24565   0.869   4.789   0.084
 7889SOL    HW124566   0.806   4.847   0.137
 7889SOL    HW224567   0.903   4.841   0.005
 7890SOL     OW24568   0.562   2.685   3.345
 7890SOL    HW124569   0.481   2.666   3.401
 7890SOL    HW224570   0.641   2.639   3.384
 7891SOL     OW24571   2.128   4.245   4.715
 7891SOL    HW124572   2.165   4.153   4.728
 7891SOL    HW224573   2.175   4.290   4.638
 7892SOL     OW24574   1.967   1.871   4.442
 7892SOL    HW124575   1.893   1.935   4.421
 7892SOL    HW224576   1.969   1.798   4.374
 7893SOL     OW24577   6.257   6.394   1.788
 7893SOL    HW124578   6.283   6.351   1.875
 7893SOL    HW224579   6.208   6.328   1.731
 7894SOL     OW24580   3.145   0.418   0.861
 7894SOL    HW124581   3.057   0.448   0.898
 7894SOL    HW224582   3.218   0.475   0.899
 7895SOL     OW24583   5.027   0.894   5.099
 7895SOL    HW124584   4.945   0.854   5.141
 7895SOL    HW224585   5.019   0.994   5.096
 7896SOL     OW24586   4.139   2.856   0.918
 7896SOL    HW124587   4.152   2.951   0.889
 7896SOL    HW224588   4.084   2.808   0.849
 7897SOL     OW24589   3.319   2.551   1.229
 7897SOL    HW124590   3.331   2.648   1.251
 7897SOL    HW224591   3.264   2.543   1.146
 7898SOL     OW24592   3.860   0.039   3.666
 7898SOL    HW124593   3.842   0.096   3.585
 7898SOL    HW224594   3.852   0.095   3.748
 7899SOL     OW24595   5.971   0.343   0.984
 7899SOL    HW124596   5.947   0.405   0.909
 7899SOL    HW224597   5.898   0.345   1.053
 7900SOL     OW24598   1.066   5.246   1.637
 7900SOL    HW124599   1.025   5.242   1.546
 7900SOL    HW224600   1.001   5.286   1.701
 7901SOL     OW24601   4.011   1.265   6.121
 7901SOL    HW124602   4.077   1.337   6.143
 7901SOL    HW224603   3.925   1.282   6.170
 7902SOL     OW24604   6.323   6.268   2.023
 7902SOL    HW124605   6.319   6.302   2.116
 7902SOL    HW224606   6.291   6.173   2.020
 7903SOL     OW24607   4.328   1.767   3.371
 7903SOL    HW124608   4.259   1.811   3.429
 7903SOL    HW224609   4.404   1.735   3.428
 7904SOL     OW24610   5.664   6.289   2.493
 7904SOL    HW124611   5.581   6.345   2.496
 7904SOL    HW224612   5.660   6.227   2.415
 7905SOL     OW24613   5.652   2.315   0.520
 7905SOL    HW124614   5.681   2.284   0.430
 7905SOL    HW224615   5.694   2.257   0.591
 7906SOL     OW24616   0.761   5.104   0.549
 7906SOL    HW124617   0.715   5.025   0.589
 7906SOL    HW224618   0.856   5.106   0.581
 7907SOL     OW24619   5.512   1.958   3.531
 7907SOL    HW124620   5.512   1.878   3.591
 7907SOL    HW224621   5.471   2.035   3.579
 7908SOL     OW24622   1.778   0.772   5.684
 7908SOL    HW124623   1.728   0.768   5.771
 7908SOL    HW224624   1.717   0.806   5.612
 7909SOL     OW24625   4.627   4.329   4.285
 7909SOL    HW124626   4.665   4.347   4.375
 7909SOL    HW224627   4.548   4.389   4.269
 7910SOL     OW24628   2.419   3.498   0.103
 7910SOL    HW124629   2.502   3.462   0.062
 7910SOL    HW224630   2.440   3.541   0.190
 7911SOL     OW24631   0.701   4.269   0.345
 7911SOL    HW124632   0.713   4.316   0.258
 7911SOL    HW224633   0.734   4.327   0.419
 7912SOL     OW24634   6.343   4.782   0.795
 7912SOL    HW124635   6.253   4.752   0.764
 7912SOL    HW224636   6.336   4.817   0.888
 7913SOL     OW24637   1.102   4.397   1.474
 7913SOL    HW124638   1.070   4.479   1.426
 7913SOL    HW224639   1.172   4.423   1.540
 7914SOL     OW24640   0.383   4.933   0.485
 7914SOL    HW124641   0.434   5.019   0.485
 7914SOL    HW224642   0.286   4.952   0.502
 7915SOL     OW24643   4.700   2.256   1.893
 7915SOL    HW124644   4.625   2.321   1.879
 7915SOL    HW224645   4.674   2.190   1.963
 7916SOL     OW24646   0.254   6.371   5.551
 7916SOL    HW124647   0.183   6.436   5.522
 7916SOL    HW224648   0.321   6.418   5.607
 7917SOL     OW24649   3.312   3.009   5.017
 7917SOL    HW124650   3.269   3.000   5.107
 7917SOL    HW224651   3.394   2.951   5.014
 7918SOL     OW24652   0.155   0.851   4.675
 7918SOL    HW124653   0.082   0.891   4.730
 7918SOL    HW224654   0.180   0.762   4.713
 7919SOL     OW24655   1.143   4.347   3.133
 7919SOL    HW124656   1.213   4.314   3.070
 7919SOL    HW224657   1.055   4.351   3.086
 7920SOL     OW24658   0.100   0.372   0.156
 7920SOL    HW124659   0.078   0.315   0.235
 7920SOL    HW224660   0.179   0.335   0.107
 7921SOL     OW24661   5.441   6.226   1.666
 7921SOL    HW124662   5.378   6.284   1.718
 7921SOL    HW224663   5.499   6.175   1.730
 7922SOL     OW24664   6.707   6.631   1.025
 7922SOL    HW124665   6.681   6.574   0.948
 7922SOL    HW224666   6.719   6.726   0.995
 7923SOL     OW24667   4.357   0.803   6.678
 7923SOL    HW124668   4.425   0.820   6.750
 7923SOL    HW224669   4.401   0.809   6.589
 7924SOL     OW24670   5.701   0.145   2.621
 7924SOL    HW124671   5.695   0.120   2.524
 7924SOL    HW224672   5.780   0.204   2.635
 7925SOL     OW24673   0.983   0.196   0.113
 7925SOL    HW124674   1.032   0.213   0.028
 7925SOL    HW224675   0.901   0.253   0.116
 7926SOL     OW24676   4.383   1.739   6.415
 7926SOL    HW124677   4.443   1.661   6.399
 7926SOL    HW224678   4.427   1.801   6.480
 7927SOL     OW24679   4.323   6.051   3.104
 7927SOL    HW124680   4.403   6.071   3.047
 7927SOL    HW224681   4.350   6.052   3.200
 7928SOL     OW24682   1.535   1.804   4.528
 7928SOL    HW124683   1.581   1.864   4.593
 7928SOL    HW224684   1.451   1.768   4.568
 7929SOL     OW24685   4.381   4.189   5.333
 7929SOL    HW124686   4.438   4.168   5.254
 7929SOL    HW224687   4.410   4.135   5.412
 7930SOL     OW24688   4.209   5.570   4.936
 7930SOL    HW124689   4.213   5.536   5.031
 7930SOL    HW224690   4.203   5.492   4.874
 7931SOL     OW24691   3.157   3.118   0.044
 7931SOL    HW124692   3.170   3.106   0.142
 7931SOL    HW224693   3.184   3.034   7.022
 7932SOL     OW24694   1.345   6.576   6.725
 7932SOL    HW124695   1.317   6.505   6.662
 7932SOL    HW224696   1.431   6.550   6.769
 7933SOL     OW24697   0.399   6.439   7.000
 7933SOL    HW124698   0.484   6.472   6.958
 7933SOL    HW224699   0.330   6.511   6.995
 7934SOL     OW24700   1.537   4.929   6.265
 7934SOL    HW124701   1.447   4.927   6.309
 7934SOL    HW224702   1.601   4.870   6.315
 7935SOL     OW24703   5.908   6.427   1.371
 7935SOL    HW124704   5.953   6.503   1.417
 7935SOL    HW224705   5.943   6.340   1.408
 7936SOL     OW24706   3.455   5.845   1.821
 7936SOL    HW124707   3.495   5.832   1.730
 7936SOL    HW224708   3.522   5.889   1.881
 7937SOL     OW24709   6.542   5.909   3.758
 7937SOL    HW124710   6.516   6.005   3.768
 7937SOL    HW224711   6.569   5.872   3.847
 7938SOL     OW24712   6.614   6.065   4.024
 7938SOL    HW124713   6.570   6.087   4.111
 7938SOL    HW224714   6.564   6.110   3.949
 7939SOL     OW24715   1.832   2.490   4.750
 7939SOL    HW124716   1.839   2.516   4.654
 7939SOL    HW224717   1.923   2.493   4.792
 7940SOL     OW24718   1.378   3.931   1.912
 7940SOL    HW124719   1.409   3.858   1.973
 7940SOL    HW224720   1.310   3.987   1.959
 7941SOL     OW24721   6.370   0.443   1.248
 7941SOL    HW124722   6.435   0.394   1.305
 7941SOL    HW224723   6.279   0.401   1.256
 7942SOL     OW24724   6.887   5.158   2.503
 7942SOL    HW124725   6.936   5.212   2.571
 7942SOL    HW224726   6.945   5.084   2.470
 7943SOL     OW24727   0.057   3.589   6.220
 7943SOL    HW124728   0.151   3.610   6.247
 7943SOL    HW224729   0.053   3.496   6.183
 7944SOL     OW24730   1.021   2.518   0.927
 7944SOL    HW124731   0.965   2.438   0.905
 7944SOL    HW224732   1.103   2.518   0.869
 7945SOL     OW24733   6.318   5.291   1.405
 7945SOL    HW124734   6.335   5.255   1.497
 7945SOL    HW224735   6.244   5.239   1.362
 7946SOL     OW24736   3.711   0.626   6.066
 7946SOL    HW124737   3.744   0.561   6.135
 7946SOL    HW224738   3.789   0.675   6.027
 7947SOL     OW24739   3.784   1.910   6.018
 7947SOL    HW124740   3.690   1.877   6.005
 7947SOL    HW224741   3.819   1.877   6.105
 7948SOL     OW24742   1.343   6.475   1.341
 7948SOL    HW124743   1.368   6.413   1.267
 7948SOL    HW224744   1.411   6.469   1.414
 7949SOL     OW24745   4.882   4.527   5.510
 7949SOL    HW124746   4.958   4.464   5.495
 7949SOL    HW224747   4.874   4.547   5.608
 7950SOL     OW24748   4.742   5.361   3.801
 7950SOL    HW124749   4.692   5.281   3.835
 7950SOL    HW224750   4.839   5.351   3.822
 7951SOL     OW24751   1.928   4.374   2.218
 7951SOL    HW124752   1.953   4.470   2.199
 7951SOL    HW224753   1.850   4.348   2.162
 7952SOL     OW24754   6.878   3.580   6.736
 7952SOL    HW124755   6.938   3.551   6.662
 7952SOL    HW224756   6.787   3.540   6.723
 7953SOL     OW24757   3.071   2.157   3.333
 7953SOL    HW124758   3.156   2.202   3.306
 7953SOL    HW224759   3.088   2.099   3.413
 7954SOL     OW24760   3.463   4.324   5.983
 7954SOL    HW124761   3.397   4.258   5.946
 7954SOL    HW224762   3.414   4.397   6.030
 7955SOL     OW24763   2.673   0.921   6.885
 7955SOL    HW124764   2.766   0.958   6.876
 7955SOL    HW224765   2.616   0.954   6.810
 7956SOL     OW24766   4.571   6.463   2.027
 7956SOL    HW124767   4.494   6.524   2.044
 7956SOL    HW224768   4.598   6.418   2.113
 7957SOL     OW24769   0.989   0.787   1.460
 7957SOL    HW124770   1.019   0.815   1.369
 7957SOL    HW224771   1.058   0.727   1.501
 7958SOL     OW24772   3.840   4.860   5.169
 7958SOL    HW124773   3.820   4.768   5.203
 7958SOL    HW224774   3.759   4.918   5.180
 7959SOL     OW24775   4.690   5.991   0.366
 7959SOL    HW124776   4.674   5.960   0.460
 7959SOL    HW224777   4.609   5.972   0.310
 7960SOL     OW24778   2.214   1.721   6.016
 7960SOL    HW124779   2.307   1.721   6.053
 7960SOL    HW224780   2.160   1.792   6.061
 7961SOL     OW24781   6.877   1.411   0.897
 7961SOL    HW124782   6.825   1.496   0.883
 7961SOL    HW224783   6.823   1.349   0.953
 7962SOL     OW24784   1.685   0.253   5.976
 7962SOL    HW124785   1.739   0.290   5.900
 7962SOL    HW224786   1.612   0.318   5.999
 7963SOL     OW24787   6.424   6.765   4.102
 7963SOL    HW124788   6.465   6.732   4.017
 7963SOL    HW224789   6.338   6.716   4.118
 7964SOL     OW24790   6.723   4.176   2.697
 7964SOL    HW124791   6.771   4.222   2.771
 7964SOL    HW224792   6.632   4.217   2.687
 7965SOL     OW24793   4.007   2.756   5.905
 7965SOL    HW124794   4.014   2.800   5.816
 7965SOL    HW224795   3.950   2.674   5.898
 7966SOL     OW24796   2.218   3.022   5.930
 7966SOL    HW124797   2.123   2.992   5.930
 7966SOL    HW224798   2.235   3.080   5.850
 7967SOL     OW24799   3.812   6.609   2.473
 7967SOL    HW124800   3.816   6.706   2.496
 7967SOL    HW224801   3.721   6.587   2.438
 7968SOL     OW24802   1.437   2.770   3.979
 7968SOL    HW124803   1.472   2.791   4.070
 7968SOL    HW224804   1.340   2.746   3.985
 7969SOL     OW24805   4.231   5.996   0.613
 7969SOL    HW124806   4.200   5.922   0.673
 7969SOL    HW224807   4.280   6.064   0.667
 7970SOL     OW24808   6.768   2.918   2.544
 7970SOL    HW124809   6.828   2.841   2.526
 7970SOL    HW224810   6.790   2.958   2.633
 7971SOL     OW24811   3.154   2.135   0.656
 7971SOL    HW124812   3.154   2.155   0.754
 7971SOL    HW224813   3.060   2.138   0.621
 7972SOL     OW24814   2.299   2.754   7.010
 7972SOL    HW124815   2.274   2.682   0.049
 7972SOL    HW224816   2.297   2.718   6.917
 7973SOL     OW24817   4.376   4.777   4.540
 7973SOL    HW124818   4.451   4.730   4.495
 7973SOL    HW224819   4.363   4.741   4.632
 7974SOL     OW24820   5.766   0.443   5.369
 7974SOL    HW124821   5.856   0.425   5.408
 7974SOL    HW224822   5.730   0.528   5.406
 7975SOL     OW24823   6.000   1.523   2.047
 7975SOL    HW124824   5.994   1.543   1.949
 7975SOL    HW224825   5.996   1.608   2.099
 7976SOL     OW24826   0.586   0.405   6.433
 7976SOL    HW124827   0.521   0.429   6.505
 7976SOL    HW224828   0.673   0.377   6.473
 7977SOL     OW24829   4.728   5.791   2.675
 7977SOL    HW124830   4.747   5.765   2.770
 7977SOL    HW224831   4.630   5.808   2.664
 7978SOL     OW24832   5.837   3.142   6.399
 7978SOL    HW124833   5.747   3.100   6.403
 7978SOL    HW224834   5.880   3.123   6.311
 7979SOL     OW24835   4.223   6.246   5.316
 7979SOL    HW124836   4.255   6.328   5.362
 7979SOL    HW224837   4.183   6.183   5.384
 7980SOL     OW24838   2.936   5.613   0.112
 7980SOL    HW124839   3.006   5.685   0.109
 7980SOL    HW224840   2.945   5.555   0.030
 7981SOL     OW24841   0.460   5.000   1.815
 7981SOL    HW124842   0.530   5.070   1.830
 7981SOL    HW224843   0.504   4.912   1.799
 7982SOL     OW24844   1.763   1.259   6.744
 7982SOL    HW124845   1.684   1.281   6.801
 7982SOL    HW224846   1.819   1.189   6.789
 7983SOL     OW24847   6.235   2.068   2.004
 7983SOL    HW124848   6.171   1.992   1.997
 7983SOL    HW224849   6.281   2.065   2.092
 7984SOL     OW24850   1.020   1.196   1.084
 7984SOL    HW124851   1.084   1.232   1.151
 7984SOL    HW224852   0.932   1.179   1.127
 7985SOL     OW24853   3.277   0.851   4.527
 7985SOL    HW124854   3.292   0.921   4.596
 7985SOL    HW224855   3.361   0.838   4.474
 7986SOL     OW24856   3.348   0.915   6.715
 7986SOL    HW124857   3.373   0.856   6.638
 7986SOL    HW224858   3.267   0.878   6.761
 7987SOL     OW24859   2.095   2.304   6.967
 7987SOL    HW124860   2.172   2.294   0.005
 7987SOL    HW224861   2.041   2.384   6.992
 7988SOL     OW24862   0.256   1.774   3.667
 7988SOL    HW124863   0.237   1.706   3.737
 7988SOL    HW224864   0.323   1.738   3.603
 7989SOL     OW24865   2.951   2.738   6.630
 7989SOL    HW124866   3.002   2.653   6.642
 7989SOL    HW224867   2.927   2.749   6.533
 7990SOL     OW24868   0.582   4.314   4.521
 7990SOL    HW124869   0.500   4.293   4.468
 7990SOL    HW224870   0.629   4.229   4.545
 7991SOL     OW24871   5.283   6.467   3.412
 7991SOL    HW124872   5.297   6.529   3.335
 7991SOL    HW224873   5.201   6.413   3.397
 7992SOL     OW24874   0.873   6.994   0.719
 7992SOL    HW124875   0.776   7.013   0.732
 7992SOL    HW224876   0.916   0.047   0.675
 7993SOL     OW24877   0.612   0.132   0.662
 7993SOL    HW124878   0.570   0.042   0.674
 7993SOL    HW224879   0.665   0.133   0.577
 7994SOL     OW24880   4.059   0.015   3.355
 7994SOL    HW124881   4.114   6.984   3.416
 7994SOL    HW224882   4.101   0.017   3.264
 7995SOL     OW24883   5.316   6.034   3.973
 7995SOL    HW124884   5.343   6.121   3.932
 7995SOL    HW224885   5.367   5.960   3.931
 7996SOL     OW24886   2.939   6.906   5.148
 7996SOL    HW124887   2.891   6.833   5.196
 7996SOL    HW224888   2.916   6.994   5.191
 7997SOL     OW24889   0.218   1.743   1.292
 7997SOL    HW124890   0.134   1.791   1.266
 7997SOL    HW224891   0.229   1.748   1.391
 7998SOL     OW24892   2.933   7.022   0.238
 7998SOL    HW124893   2.927   0.095   0.225
 7998SOL    HW224894   3.013   6.987   0.189
 7999SOL     OW24895   0.890   0.717   6.100
 7999SOL    HW124896   0.806   0.765   6.125
 7999SOL    HW224897   0.883   0.621   6.128
 8000SOL     OW24898   4.692   0.303   0.413
 8000SOL    HW124899   4.735   0.343   0.494
 8000SOL    HW224900   4.757   0.242   0.368
 8001SOL     OW24901   4.213   6.567   1.354
 8001SOL    HW124902   4.253   6.480   1.382
 8001SOL    HW224903   4.188   6.563   1.257
 8002SOL     OW24904   1.496   0.984   5.922
 8002SOL    HW124905   1.435   1.040   5.979
 8002SOL    HW224906   1.501   1.023   5.830
 8003SOL     OW24907   2.983   4.929   2.290
 8003SOL    HW124908   2.926   5.004   2.254
 8003SOL    HW224909   2.931   4.843   2.285
 8004SOL     OW24910   2.124   3.237   2.475
 8004SOL    HW124911   2.175   3.173   2.417
 8004SOL    HW224912   2.099   3.191   2.560
 8005SOL     OW24913   2.820   0.950   2.220
 8005SOL    HW124914   2.826   1.015   2.295
 8005SOL    HW224915   2.810   0.999   2.133
 8006SOL     OW24916   2.248   6.404   5.829
 8006SOL    HW124917   2.190   6.390   5.909
 8006SOL    HW224918   2.196   6.385   5.746
 8007SOL     OW24919   6.320   0.704   4.725
 8007SOL    HW124920   6.324   0.607   4.702
 8007SOL    HW224921   6.296   0.756   4.643
 8008SOL     OW24922   4.458   5.611   6.408
 8008SOL    HW124923   4.481   5.521   6.446
 8008SOL    HW224924   4.469   5.609   6.309
 8009SOL     OW24925   6.000   0.744   2.202
 8009SOL    HW124926   6.059   0.700   2.134
 8009SOL    HW224927   6.039   0.731   2.293
 8010SOL     OW24928   1.533   1.552   5.818
 8010SOL    HW124929   1.599   1.514   5.753
 8010SOL    HW224930   1.504   1.643   5.787
 8011SOL     OW24931   3.044   2.449   0.777
 8011SOL    HW124932   2.945   2.449   0.765
 8011SOL    HW224933   3.072   2.365   0.823
 8012SOL     OW24934   1.893   3.901   0.619
 8012SOL    HW124935   1.851   3.937   0.535
 8012SOL    HW224936   1.951   3.971   0.660
 8013SOL     OW24937   1.450   5.224   3.361
 8013SOL    HW124938   1.401   5.302   3.400
 8013SOL    HW224939   1.518   5.257   3.296
 8014SOL     OW24940   1.433   6.177   5.199
 8014SOL    HW124941   1.514   6.234   5.213
 8014SOL    HW224942   1.458   6.081   5.207
 8015SOL     OW24943   3.415   0.748   6.530
 8015SOL    HW124944   3.347   0.739   6.457
 8015SOL    HW224945   3.507   0.737   6.492
 8016SOL     OW24946   4.751   0.701   5.904
 8016SOL    HW124947   4.795   0.612   5.913
 8016SOL    HW224948   4.764   0.735   5.811
 8017SOL     OW24949   5.790   0.356   0.410
 8017SOL    HW124950   5.855   0.285   0.385
 8017SOL    HW224951   5.832   0.446   0.399
 8018SOL     OW24952   3.487   1.800   6.429
 8018SOL    HW124953   3.526   1.878   6.379
 8018SOL    HW224954   3.388   1.811   6.437
 8019SOL     OW24955   2.167   4.474   0.068
 8019SOL    HW124956   2.070   4.475   0.091
 8019SOL    HW224957   2.212   4.552   0.112
 8020SOL     OW24958   5.701   0.735   0.620
 8020SOL    HW124959   5.770   0.781   0.675
 8020SOL    HW224960   5.610   0.759   0.654
 8021SOL     OW24961   1.498   2.829   1.541
 8021SOL    HW124962   1.407   2.869   1.549
 8021SOL    HW224963   1.562   2.899   1.509
 8022SOL     OW24964   5.609   6.787   2.949
 8022SOL    HW124965   5.642   6.823   2.862
 8022SOL    HW224966   5.523   6.738   2.935
 8023SOL     OW24967   5.692   5.225   2.641
 8023SOL    HW124968   5.774   5.235   2.698
 8023SOL    HW224969   5.617   5.190   2.697
 8024SOL     OW24970   1.645   4.369   6.107
 8024SOL    HW124971   1.634   4.468   6.114
 8024SOL    HW224972   1.728   4.348   6.056
 8025SOL     OW24973   2.098   6.046   6.738
 8025SOL    HW124974   2.010   6.084   6.710
 8025SOL    HW224975   2.089   5.948   6.754
 8026SOL     OW24976   0.125   4.280   7.007
 8026SOL    HW124977   0.204   4.249   6.954
 8026SOL    HW224978   0.051   4.214   6.998
 8027SOL     OW24979   4.881   0.671   4.908
 8027SOL    HW124980   4.919   0.671   5.001
 8027SOL    HW224981   4.915   0.592   4.858
 8028SOL     OW24982   3.894   5.914   5.839
 8028SOL    HW124983   3.828   5.839   5.827
 8028SOL    HW224984   3.881   5.981   5.766
 8029SOL     OW24985   4.763   2.974   0.933
 8029SOL    HW124986   4.668   3.004   0.921
 8029SOL    HW224987   4.782   2.962   1.030
 8030SOL     OW24988   3.975   4.740   0.539
 8030SOL    HW124989   3.924   4.683   0.603
 8030SOL    HW224990   4.052   4.783   0.587
 8031SOL     OW24991   6.490   6.373   2.687
 8031SOL    HW124992   6.522   6.387   2.593
 8031SOL    HW224993   6.562   6.402   2.751
 8032SOL     OW24994   6.237   4.405   1.520
 8032SOL    HW124995   6.313   4.443   1.571
 8032SOL    HW224996   6.228   4.307   1.541
 8033SOL     OW24997   5.344   1.831   5.892
 8033SOL    HW124998   5.415   1.789   5.837
 8033SOL    HW224999   5.351   1.798   5.986
 8034SOL     OW25000   4.916   0.204   4.185
 8034SOL    HW125001   4.983   0.232   4.253
 8034SOL    HW225002   4.893   0.282   4.127
 8035SOL     OW25003   4.935   1.812   4.630
 8035SOL    HW125004   4.922   1.755   4.548
 8035SOL    HW225005   4.921   1.908   4.606
 8036SOL     OW25006   6.907   4.052   3.814
 8036SOL    HW125007   6.848   4.064   3.734
 8036SOL    HW225008   6.902   3.957   3.845
 8037SOL     OW25009   1.495   3.278   0.514
 8037SOL    HW125010   1.569   3.338   0.545
 8037SOL    HW225011   1.448   3.240   0.593
 8038SOL     OW25012   4.530   6.854   2.072
 8038SOL    HW125013   4.485   6.943   2.083
 8038SOL    HW225014   4.628   6.863   2.089
 8039SOL     OW25015   1.122   1.602   5.137
 8039SOL    HW125016   1.079   1.516   5.107
 8039SOL    HW225017   1.052   1.660   5.178
 8040SOL     OW25018   1.079   5.377   0.044
 8040SOL    HW125019   1.163   5.325   0.059
 8040SOL    HW225020   1.016   5.324   7.013
 8041SOL     OW25021   2.621   1.435   2.616
 8041SOL    HW125022   2.628   1.481   2.527
 8041SOL    HW225023   2.572   1.495   2.680
 8042SOL     OW25024   3.143   3.076   4.072
 8042SOL    HW125025   3.087   3.051   3.993
 8042SOL    HW225026   3.095   3.051   4.156
 8043SOL     OW25027   3.339   6.601   1.425
 8043SOL    HW125028   3.244   6.632   1.417
 8043SOL    HW225029   3.368   6.605   1.521
 8044SOL     OW25030   3.978   2.120   1.334
 8044SOL    HW125031   4.001   2.131   1.430
 8044SOL    HW225032   3.991   2.206   1.286
 8045SOL     OW25033   5.401   1.985   3.275
 8045SOL    HW125034   5.436   2.055   3.213
 8045SOL    HW225035   5.445   1.994   3.364
 8046SOL     OW25036   0.317   4.940   1.249
 8046SOL    HW125037   0.400   4.884   1.248
 8046SOL    HW225038   0.309   4.987   1.337
 8047SOL     OW25039   4.301   5.892   4.966
 8047SOL    HW125040   4.291   5.823   5.038
 8047SOL    HW225041   4.226   5.958   4.972
 8048SOL     OW25042   5.294   1.413   5.600
 8048SOL    HW125043   5.389   1.441   5.590
 8048SOL    HW225044   5.262   1.372   5.515
 8049SOL     OW25045   0.513   0.304   0.353
 8049SOL    HW125046   0.460   0.234   0.399
 8049SOL    HW225047   0.488   0.308   0.256
 8050SOL     OW25048   1.884   3.268   3.757
 8050SOL    HW125049   1.861   3.250   3.853
 8050SOL    HW225050   1.966   3.217   3.732
 8051SOL     OW25051   4.594   5.606   3.793
 8051SOL    HW125052   4.633   5.658   3.870
 8051SOL    HW225053   4.647   5.522   3.780
 8052SOL     OW25054   3.862   1.196   1.235
 8052SOL    HW125055   3.928   1.143   1.289
 8052SOL    HW225056   3.833   1.143   1.156
 8053SOL     OW25057   2.901   3.351   3.967
 8053SOL    HW125058   3.000   3.342   3.984
 8053SOL    HW225059   2.884   3.432   3.912
 8054SOL     OW25060   6.070   5.555   4.467
 8054SOL    HW125061   6.144   5.604   4.514
 8054SOL    HW225062   6.068   5.582   4.371
 8055SOL     OW25063   0.392   0.391   4.918
 8055SOL    HW125064   0.355   0.375   5.010
 8055SOL    HW225065   0.492   0.398   4.923
 8056SOL     OW25066   2.471   1.097   3.271
 8056SOL    HW125067   2.555   1.065   3.226
 8056SOL    HW225068   2.441   1.182   3.228
 8057SOL     OW25069   3.041   1.936   2.713
 8057SOL    HW125070   3.002   1.889   2.633
 8057SOL    HW225071   2.981   2.012   2.739
 8058SOL     OW25072   3.639   0.095   2.988
 8058SOL    HW125073   3.559   0.042   3.014
 8058SOL    HW225074   3.721   0.050   3.024
 8059SOL     OW25075   3.082   1.850   5.110
 8059SOL    HW125076   3.181   1.863   5.122
 8059SOL    HW225077   3.059   1.754   5.128
 8060SOL     OW25078   6.201   2.035   5.482
 8060SOL    HW125079   6.231   1.968   5.414
 8060SOL    HW225080   6.101   2.038   5.485
 8061SOL     OW25081   0.136   0.778   3.189
 8061SOL    HW125082   0.216   0.834   3.169
 8061SOL    HW225083   0.057   0.814   3.139
 8062SOL     OW25084   3.967   5.034   4.197
 8062SOL    HW125085   4.019   5.074   4.122
 8062SOL    HW225086   3.872   5.020   4.168
 8063SOL     OW25087   1.991   2.124   1.943
 8063SOL    HW125088   2.046   2.142   2.025
 8063SOL    HW225089   1.952   2.032   1.948
 8064SOL     OW25090   6.529   3.487   1.792
 8064SOL    HW125091   6.604   3.550   1.772
 8064SOL    HW225092   6.543   3.402   1.741
 8065SOL     OW25093   2.828   5.475   3.833
 8065SOL    HW125094   2.750   5.448   3.775
 8065SOL    HW225095   2.800   5.474   3.929
 8066SOL     OW25096   0.910   1.645   5.485
 8066SOL    HW125097   0.950   1.621   5.573
 8066SOL    HW225098   0.903   1.563   5.428
 8067SOL     OW25099   4.921   2.619   2.248
 8067SOL    HW125100   4.838   2.674   2.234
 8067SOL    HW225101   5.002   2.676   2.236
 8068SOL     OW25102   6.935   3.944   1.508
 8068SOL    HW125103   6.836   3.953   1.502
 8068SOL    HW225104   6.977   3.972   1.422
 8069SOL     OW25105   2.849   5.826   1.326
 8069SOL    HW125106   2.804   5.736   1.326
 8069SOL    HW225107   2.864   5.856   1.420
 8070SOL     OW25108   4.276   3.665   0.653
 8070SOL    HW125109   4.269   3.728   0.575
 8070SOL    HW225110   4.368   3.626   0.655
 8071SOL     OW25111   3.501   6.514   4.701
 8071SOL    HW125112   3.557   6.578   4.649
 8071SOL    HW225113   3.532   6.513   4.796
 8072SOL     OW25114   3.955   1.808   0.780
 8072SOL    HW125115   3.898   1.735   0.741
 8072SOL    HW225116   3.902   1.892   0.788
 8073SOL     OW25117   3.106   5.200   4.857
 8073SOL    HW125118   3.052   5.284   4.859
 8073SOL    HW225119   3.077   5.140   4.931
 8074SOL     OW25120   3.202   3.036   0.306
 8074SOL    HW125121   3.294   2.997   0.318
 8074SOL    HW225122   3.133   2.968   0.332
 8075SOL     OW25123   0.156   0.323   0.661
 8075SOL    HW125124   0.179   0.420   0.651
 8075SOL    HW225125   0.060   0.308   0.636
 8076SOL     OW25126   6.477   1.131   5.331
 8076SOL    HW125127   6.435   1.078   5.257
 8076SOL    HW225128   6.521   1.069   5.396
 8077SOL     OW25129   3.421   6.167   2.453
 8077SOL    HW125130   3.507   6.168   2.402
 8077SOL    HW225131   3.439   6.135   2.546
 8078SOL     OW25132   0.078   1.953   0.624
 8078SOL    HW125133   0.064   1.910   0.535
 8078SOL    HW225134   0.157   1.912   0.669
 8079SOL     OW25135   5.568   1.777   3.746
 8079SOL    HW125136   5.648   1.748   3.693
 8079SOL    HW225137   5.502   1.702   3.751
 8080SOL     OW25138   1.059   2.506   1.447
 8080SOL    HW125139   1.067   2.470   1.354
 8080SOL    HW225140   1.137   2.476   1.502
 8081SOL     OW25141   6.363   5.729   5.943
 8081SOL    HW125142   6.388   5.762   5.852
 8081SOL    HW225143   6.348   5.807   6.003
 8082SOL     OW25144   4.697   0.175   2.761
 8082SOL    HW125145   4.740   0.260   2.731
 8082SOL    HW225146   4.766   0.103   2.766
 8083SOL     OW25147   4.956   2.709   3.240
 8083SOL    HW125148   4.911   2.790   3.201
 8083SOL    HW225149   5.039   2.689   3.188
 8084SOL     OW25150   3.701   6.395   0.349
 8084SOL    HW125151   3.664   6.403   0.256
 8084SOL    HW225152   3.655   6.461   0.409
 8085SOL     OW25153   6.840   6.297   2.160
 8085SOL    HW125154   6.919   6.244   2.190
 8085SOL    HW225155   6.756   6.248   2.184
 8086SOL     OW25156   5.622   0.473   2.890
 8086SOL    HW125157   5.580   0.385   2.869
 8086SOL    HW225158   5.650   0.518   2.805
 8087SOL     OW25159   2.566   1.094   0.093
 8087SOL    HW125160   2.611   1.072   0.007
 8087SOL    HW225161   2.564   1.013   0.151
 8088SOL     OW25162   5.734   1.848   1.631
 8088SOL    HW125163   5.784   1.931   1.657
 8088SOL    HW225164   5.718   1.792   1.712
 8089SOL     OW25165   5.827   2.915   0.640
 8089SOL    HW125166   5.850   3.012   0.628
 8089SOL    HW225167   5.895   2.859   0.593
 8090SOL     OW25168   4.403   2.455   6.873
 8090SOL    HW125169   4.336   2.502   6.816
 8090SOL    HW225170   4.438   2.517   6.943
 8091SOL     OW25171   2.149   3.527   4.984
 8091SOL    HW125172   2.189   3.497   5.070
 8091SOL    HW225173   2.139   3.627   4.984
 8092SOL     OW25174   5.314   1.950   4.884
 8092SOL    HW125175   5.378   2.017   4.845
 8092SOL    HW225176   5.234   1.997   4.920
 8093SOL     OW25177   3.891   5.355   2.612
 8093SOL    HW125178   3.906   5.450   2.641
 8093SOL    HW225179   3.914   5.346   2.515
 8094SOL     OW25180   0.906   3.545   4.446
 8094SOL    HW125181   0.859   3.480   4.507
 8094SOL    HW225182   0.848   3.563   4.367
 8095SOL     OW25183   0.518   4.738   4.671
 8095SOL    HW125184   0.564   4.663   4.719
 8095SOL    HW225185   0.453   4.783   4.732
 8096SOL     OW25186   2.367   6.770   3.248
 8096SOL    HW125187   2.310   6.795   3.326
 8096SOL    HW225188   2.395   6.674   3.257
 8097SOL     OW25189   3.905   0.200   4.178
 8097SOL    HW125190   3.824   0.251   4.148
 8097SOL    HW225191   3.974   0.202   4.105
 8098SOL     OW25192   1.468   6.682   3.206
 8098SOL    HW125193   1.468   6.610   3.137
 8098SOL    HW225194   1.444   6.643   3.295
 8099SOL     OW25195   3.863   6.741   4.735
 8099SOL    HW125196   3.808   6.781   4.808
 8099SOL    HW225197   3.854   6.796   4.652
 8100SOL     OW25198   6.500   1.072   1.160
 8100SOL    HW125199   6.571   1.019   1.114
 8100SOL    HW225200   6.420   1.014   1.176
 8101SOL     OW25201   1.864   6.233   2.428
 8101SOL    HW125202   1.771   6.246   2.464
 8101SOL    HW225203   1.868   6.147   2.377
 8102SOL     OW25204   1.185   4.405   4.068
 8102SOL    HW125205   1.147   4.496   4.083
 8102SOL    HW225206   1.116   4.345   4.028
 8103SOL     OW25207   2.850   6.897   1.159
 8103SOL    HW125208   2.765   6.916   1.208
 8103SOL    HW225209   2.846   6.805   1.121
 8104SOL     OW25210   3.203   0.659   6.358
 8104SOL    HW125211   3.141   0.645   6.435
 8104SOL    HW225212   3.205   0.576   6.302
 8105SOL     OW25213   0.953   3.007   3.372
 8105SOL    HW125214   0.937   3.087   3.430
 8105SOL    HW225215   0.864   2.970   3.342
 8106SOL     OW25216   2.377   6.055   2.987
 8106SOL    HW125217   2.310   6.129   2.980
 8106SOL    HW225218   2.427   6.047   2.900
 8107SOL     OW25219   0.640   5.088   4.504
 8107SOL    HW125220   0.569   5.072   4.572
 8107SOL    HW225221   0.685   5.001   4.482
 8108SOL     OW25222   6.136   2.938   5.758
 8108SOL    HW125223   6.197   2.978   5.825
 8108SOL    HW225224   6.107   3.008   5.693
 8109SOL     OW25225   0.822   3.591   4.782
 8109SOL    HW125226   0.835   3.591   4.881
 8109SOL    HW225227   0.907   3.562   4.738
 8110SOL     OW25228   2.980   5.933   1.090
 8110SOL    HW125229   2.985   5.856   1.027
 8110SOL    HW225230   2.961   5.899   1.182
 8111SOL     OW25231   5.354   0.777   4.895
 8111SOL    HW125232   5.415   0.797   4.818
 8111SOL    HW225233   5.273   0.835   4.888
 8112SOL     OW25234   2.127   2.295   3.997
 8112SOL    HW125235   2.162   2.369   4.053
 8112SOL    HW225236   2.084   2.332   3.915
 8113SOL     OW25237   1.885   3.394   0.641
 8113SOL    HW125238   1.795   3.438   0.635
 8113SOL    HW225239   1.928   3.420   0.727
 8114SOL     OW25240   1.237   3.935   2.958
 8114SOL    HW125241   1.208   3.883   2.878
 8114SOL    HW225242   1.317   3.891   2.999
 8115SOL     OW25243   3.891   0.536   0.254
 8115SOL    HW125244   3.872   0.438   0.264
 8115SOL    HW225245   3.805   0.587   0.258
 8116SOL     OW25246   4.620   5.284   6.092
 8116SOL    HW125247   4.592   5.190   6.073
 8116SOL    HW225248   4.698   5.283   6.155
 8117SOL     OW25249   1.578   0.259   3.564
 8117SOL    HW125250   1.483   0.269   3.535
 8117SOL    HW225251   1.631   0.218   3.489
 8118SOL     OW25252   5.612   4.702   5.716
 8118SOL    HW125253   5.629   4.754   5.632
 8118SOL    HW225254   5.539   4.636   5.701
 8119SOL     OW25255   4.977   5.438   6.587
 8119SOL    HW125256   5.017   5.423   6.497
 8119SOL    HW225257   4.906   5.369   6.603
 8120SOL     OW25258   2.977   5.230   0.440
 8120SOL    HW125259   3.050   5.200   0.379
 8120SOL    HW225260   2.898   5.170   0.431
 8121SOL     OW25261   0.292   5.240   1.843
 8121SOL    HW125262   0.334   5.153   1.818
 8121SOL    HW225263   0.195   5.227   1.861
 8122SOL     OW25264   1.182   5.187   2.907
 8122SOL    HW125265   1.098   5.165   2.958
 8122SOL    HW225266   1.160   5.252   2.834
 8123SOL     OW25267   6.840   0.736   6.315
 8123SOL    HW125268   6.759   0.795   6.318
 8123SOL    HW225269   6.922   0.791   6.309
 8124SOL     OW25270   5.767   6.764   1.254
 8124SOL    HW125271   5.822   6.800   1.329
 8124SOL    HW225272   5.783   6.819   1.172
 8125SOL     OW25273   1.474   1.448   3.576
 8125SOL    HW125274   1.414   1.371   3.598
 8125SOL    HW225275   1.483   1.456   3.476
 8126SOL     OW25276   4.963   4.727   2.754
 8126SOL    HW125277   5.054   4.691   2.773
 8126SOL    HW225278   4.970   4.810   2.698
 8127SOL     OW25279   2.440   4.502   6.708
 8127SOL    HW125280   2.430   4.445   6.627
 8127SOL    HW225281   2.497   4.582   6.686
 8128SOL     OW25282   2.462   1.065   1.655
 8128SOL    HW125283   2.477   1.131   1.729
 8128SOL    HW225284   2.463   0.972   1.692
 8129SOL     OW25285   4.499   0.935   6.460
 8129SOL    HW125286   4.453   0.972   6.379
 8129SOL    HW225287   4.589   0.978   6.469
 8130SOL     OW25288   0.015   3.523   6.492
 8130SOL    HW125289   0.016   3.575   6.407
 8130SOL    HW225290   0.046   3.430   6.475
 8131SOL     OW25291   3.415   2.066   0.532
 8131SOL    HW125292   3.439   2.137   0.466
 8131SOL    HW225293   3.320   2.078   0.561
 8132SOL     OW25294   6.243   6.835   6.181
 8132SOL    HW125295   6.148   6.864   6.170
 8132SOL    HW225296   6.272   6.784   6.100
 8133SOL     OW25297   3.151   4.660   1.337
 8133SOL    HW125298   3.104   4.711   1.410
 8133SOL    HW225299   3.231   4.712   1.307
 8134SOL     OW25300   6.806   2.615   5.534
 8134SOL    HW125301   6.841   2.586   5.444
 8134SOL    HW225302   6.757   2.539   5.576
 8135SOL     OW25303   2.833   6.240   1.729
 8135SOL    HW125304   2.763   6.204   1.790
 8135SOL    HW225305   2.920   6.196   1.749
 8136SOL     OW25306   4.538   5.323   2.908
 8136SOL    HW125307   4.499   5.232   2.917
 8136SOL    HW225308   4.620   5.318   2.850
 8137SOL     OW25309   3.109   2.010   5.513
 8137SOL    HW125310   3.117   2.056   5.424
 8137SOL    HW225311   3.098   1.911   5.498
 8138SOL     OW25312   6.046   1.588   6.840
 8138SOL    HW125313   6.143   1.564   6.840
 8138SOL    HW225314   6.034   1.677   6.797
 8139SOL     OW25315   6.991   1.379   2.878
 8139SOL    HW125316   6.954   1.471   2.870
 8139SOL    HW225317   6.924   1.320   2.924
 8140SOL     OW25318   4.655   0.362   0.992
 8140SOL    HW125319   4.750   0.336   1.007
 8140SOL    HW225320   4.643   0.458   1.014
 8141SOL     OW25321   5.067   6.596   5.032
 8141SOL    HW125322   5.110   6.592   5.122
 8141SOL    HW225323   5.064   6.690   5.000
 8142SOL     OW25324   1.175   5.084   6.830
 8142SOL    HW125325   1.094   5.142   6.821
 8142SOL    HW225326   1.256   5.142   6.839
 8143SOL     OW25327   6.743   4.252   1.071
 8143SOL    HW125328   6.838   4.238   1.045
 8143SOL    HW225329   6.696   4.164   1.073
 8144SOL     OW25330   6.643   6.720   6.513
 8144SOL    HW125331   6.690   6.719   6.424
 8144SOL    HW225332   6.580   6.642   6.518
 8145SOL     OW25333   5.457   5.703   1.470
 8145SOL    HW125334   5.477   5.800   1.455
 8145SOL    HW225335   5.385   5.695   1.539
 8146SOL     OW25336   5.111   0.875   4.822
 8146SOL    HW125337   5.033   0.865   4.761
 8146SOL    HW225338   5.080   0.875   4.917
 8147SOL     OW25339   6.114   1.836   1.689
 8147SOL    HW125340   6.079   1.929   1.692
 8147SOL    HW225341   6.121   1.806   1.593
 8148SOL     OW25342   4.897   4.103   0.674
 8148SOL    HW125343   4.838   4.050   0.612
 8148SOL    HW225344   4.978   4.049   0.697
 8149SOL     OW25345   3.299   6.406   2.405
 8149SOL    HW125346   3.233   6.430   2.476
 8149SOL    HW225347   3.333   6.313   2.422
 8150SOL     OW25348   2.182   4.153   1.108
 8150SOL    HW125349   2.228   4.073   1.146
 8150SOL    HW225350   2.097   4.125   1.063
 8151SOL     OW25351   5.717   3.302   1.848
 8151SOL    HW125352   5.666   3.227   1.889
 8151SOL    HW225353   5.673   3.331   1.763
 8152SOL     OW25354   6.713   2.276   2.544
 8152SOL    HW125355   6.633   2.331   2.568
 8152SOL    HW225356   6.688   2.179   2.540
 8153SOL     OW25357   1.755   0.021   3.999
 8153SOL    HW125358   1.790   0.016   4.092
 8153SOL    HW225359   1.824   7.014   3.935
 8154SOL     OW25360   3.510   5.156   1.946
 8154SOL    HW125361   3.500   5.120   1.853
 8154SOL    HW225362   3.511   5.080   2.011
 8155SOL     OW25363   1.482   3.804   2.140
 8155SOL    HW125364   1.556   3.761   2.089
 8155SOL    HW225365   1.514   3.889   2.181
 8156SOL     OW25366   5.629   0.028   0.942
 8156SOL    HW125367   5.592   0.058   1.030
 8156SOL    HW225368   5.726   0.006   0.953
 8157SOL     OW25369   6.749   5.566   6.296
 8157SOL    HW125370   6.780   5.590   6.388
 8157SOL    HW225371   6.668   5.621   6.273
 8158SOL     OW25372   4.861   4.964   0.635
 8158SOL    HW125373   4.763   4.974   0.620
 8158SOL    HW225374   4.889   4.871   0.610
 8159SOL     OW25375   2.540   6.029   2.794
 8159SOL    HW125376   2.568   5.979   2.712
 8159SOL    HW225377   2.591   6.115   2.799
 8160SOL     OW25378   5.003   0.486   3.566
 8160SOL    HW125379   5.013   0.471   3.468
 8160SOL    HW225380   4.910   0.515   3.586
 8161SOL     OW25381   5.852   2.052   6.387
 8161SOL    HW125382   5.951   2.041   6.394
 8161SOL    HW225383   5.823   2.128   6.445
 8162SOL     OW25384   5.466   6.707   6.331
 8162SOL    HW125385   5.549   6.653   6.317
 8162SOL    HW225386   5.398   6.653   6.380
 8163SOL     OW25387   2.563   4.003   5.347
 8163SOL    HW125388   2.657   3.995   5.314
 8163SOL    HW225389   2.500   3.986   5.272
 8164SOL     OW25390   5.549   2.823   0.520
 8164SOL    HW125391   5.635   2.869   0.542
 8164SOL    HW225392   5.568   2.730   0.487
 8165SOL     OW25393   0.920   3.073   6.539
 8165SOL    HW125394   1.015   3.092   6.564
 8165SOL    HW225395   0.886   2.995   6.590
 8166SOL     OW25396   1.505   0.258   2.783
 8166SOL    HW125397   1.543   0.346   2.757
 8166SOL    HW225398   1.443   0.269   2.860
 8167SOL     OW25399   6.467   0.098   4.752
 8167SOL    HW125400   6.522   0.119   4.672
 8167SOL    HW225401   6.382   0.150   4.749
 8168SOL     OW25402   1.839   1.706   3.337
 8168SOL    HW125403   1.770   1.682   3.269
 8168SOL    HW225404   1.845   1.633   3.405
 8169SOL     OW25405   4.929   2.224   0.761
 8169SOL    HW125406   5.027   2.215   0.743
 8169SOL    HW225407   4.896   2.140   0.805
 8170SOL     OW25408   1.232   4.844   2.614
 8170SOL    HW125409   1.326   4.869   2.592
 8170SOL    HW225410   1.196   4.781   2.546
 8171SOL     OW25411   1.300   1.889   6.348
 8171SOL    HW125412   1.236   1.824   6.305
 8171SOL    HW225413   1.285   1.980   6.311
 8172SOL     OW25414   0.894   2.062   2.280
 8172SOL    HW125415   0.846   2.057   2.193
 8172SOL    HW225416   0.844   2.123   2.342
 8173SOL     OW25417   5.150   0.962   2.138
 8173SOL    HW125418   5.077   0.981   2.072
 8173SOL    HW225419   5.227   0.918   2.091
 8174SOL     OW25420   6.237   3.211   1.209
 8174SOL    HW125421   6.164   3.142   1.214
 8174SOL    HW225422   6.296   3.202   1.289
 8175SOL     OW25423   6.981   2.310   5.640
 8175SOL    HW125424   7.007   2.401   5.673
 8175SOL    HW225425   6.950   2.317   5.546
 8176SOL     OW25426   2.719   4.963   1.609
 8176SOL    HW125427   2.681   5.028   1.543
 8176SOL    HW225428   2.670   4.972   1.696
 8177SOL     OW25429   3.279   6.265   3.675
 8177SOL    HW125430   3.195   6.232   3.717
 8177SOL    HW225431   3.313   6.344   3.725
 8178SOL     OW25432   2.869   5.852   6.585
 8178SOL    HW125433   2.843   5.886   6.495
 8178SOL    HW225434   2.937   5.913   6.625
 8179SOL     OW25435   4.969   2.341   5.843
 8179SOL    HW125436   4.892   2.278   5.837
 8179SOL    HW225437   4.992   2.358   5.939
 8180SOL     OW25438   6.728   0.413   4.900
 8180SOL    HW125439   6.821   0.385   4.921
 8180SOL    HW225440   6.729   0.497   4.847
 8181SOL     OW25441   2.056   1.275   0.820
 8181SOL    HW125442   1.981   1.324   0.775
 8181SOL    HW225443   2.096   1.334   0.891
 8182SOL     OW25444   4.399   3.384   5.939
 8182SOL    HW125445   4.333   3.340   5.879
 8182SOL    HW225446   4.388   3.484   5.932
 8183SOL     OW25447   6.970   2.605   4.585
 8183SOL    HW125448   6.963   2.649   4.496
 8183SOL    HW225449   6.906   2.648   4.649
 8184SOL     OW25450   5.584   1.216   6.126
 8184SOL    HW125451   5.507   1.154   6.112
 8184SOL    HW225452   5.560   1.284   6.196
 8185SOL     OW25453   2.469   6.418   0.439
 8185SOL    HW125454   2.548   6.358   0.433
 8185SOL    HW225455   2.497   6.512   0.422
 8186SOL     OW25456   3.741   5.896   5.454
 8186SOL    HW125457   3.827   5.878   5.406
 8186SOL    HW225458   3.688   5.965   5.404
 8187SOL     OW25459   1.341   2.661   5.517
 8187SOL    HW125460   1.357   2.695   5.424
 8187SOL    HW225461   1.413   2.596   5.542
 8188SOL     OW25462   5.419   2.799   3.038
 8188SOL    HW125463   5.460   2.727   2.982
 8188SOL    HW225464   5.467   2.886   3.021
 8189SOL     OW25465   4.667   4.741   2.807
 8189SOL    HW125466   4.630   4.649   2.795
 8189SOL    HW225467   4.765   4.740   2.786
 8190SOL     OW25468   4.238   5.041   3.882
 8190SOL    HW125469   4.221   4.943   3.876
 8190SOL    HW225470   4.318   5.065   3.827
 8191SOL     OW25471   3.506   6.597   2.357
 8191SOL    HW125472   3.465   6.653   2.285
 8191SOL    HW225473   3.450   6.516   2.374
 8192SOL     OW25474   3.626   5.193   0.777
 8192SOL    HW125475   3.609   5.250   0.858
 8192SOL    HW225476   3.624   5.097   0.803
 8193SOL     OW25477   6.880   6.388   4.422
 8193SOL    HW125478   6.904   6.307   4.368
 8193SOL    HW225479   6.908   6.470   4.373
 8194SOL     OW25480   6.027   2.610   0.987
 8194SOL    HW125481   6.028   2.589   1.085
 8194SOL    HW225482   5.943   2.575   0.946
 8195SOL     OW25483   1.610   6.853   1.706
 8195SOL    HW125484   1.531   6.899   1.746
 8195SOL    HW225485   1.668   6.920   1.660
 8196SOL     OW25486   3.786   6.484   5.887
 8196SOL    HW125487   3.793   6.424   5.807
 8196SOL    HW225488   3.808   6.577   5.860
 8197SOL     OW25489   4.541   1.507   6.408
 8197SOL    HW125490   4.591   1.499   6.322
 8197SOL    HW225491   4.481   1.427   6.419
 8198SOL     OW25492   3.687   6.677   3.079
 8198SOL    HW125493   3.740   6.762   3.088
 8198SOL    HW225494   3.737   6.613   3.021
 8199SOL     OW25495   5.671   2.771   6.508
 8199SOL    HW125496   5.654   2.856   6.457
 8199SOL    HW225497   5.650   2.692   6.450
 8200SOL     OW25498   4.758   3.853   1.441
 8200SOL    HW125499   4.812   3.788   1.388
 8200SOL    HW225500   4.736   3.933   1.384
 8201SOL     OW25501   5.687   0.541   3.967
 8201SOL    HW125502   5.754   0.597   3.918
 8201SOL    HW225503   5.702   0.445   3.943
 8202SOL     OW25504   0.136   5.866   4.797
 8202SOL    HW125505   0.141   5.828   4.889
 8202SOL    HW225506   0.082   5.805   4.738
 8203SOL     OW25507   4.440   2.384   0.252
 8203SOL    HW125508   4.451   2.317   0.179
 8203SOL    HW225509   4.505   2.364   0.326
 8204SOL     OW25510   2.968   5.480   6.871
 8204SOL    HW125511   2.874   5.500   6.843
 8204SOL    HW225512   3.026   5.469   6.790
 8205SOL     OW25513   0.457   4.627   0.909
 8205SOL    HW125514   0.388   4.656   0.975
 8205SOL    HW225515   0.413   4.578   0.834
 8206SOL     OW25516   4.726   2.413   6.022
 8206SOL    HW125517   4.628   2.430   6.020
 8206SOL    HW225518   4.744   2.329   6.074
 8207SOL     OW25519   3.462   4.143   5.392
 8207SOL    HW125520   3.434   4.207   5.463
 8207SOL    HW225521   3.536   4.086   5.427
 8208SOL     OW25522   1.801   7.017   1.568
 8208SOL    HW125523   1.897   7.014   1.539
 8208SOL    HW225524   1.751   0.057   1.511
 8209SOL     OW25525   0.862   1.379   5.680
 8209SOL    HW125526   0.927   1.372   5.605
 8209SOL    HW225527   0.810   1.295   5.687
 8210SOL     OW25528   2.629   0.860   0.981
 8210SOL    HW125529   2.725   0.834   0.994
 8210SOL    HW225530   2.586   0.873   1.070
 8211SOL     OW25531   4.087   3.664   2.794
 8211SOL    HW125532   4.105   3.611   2.876
 8211SOL    HW225533   4.147   3.632   2.720
 8212SOL     OW25534   3.335   1.745   0.885
 8212SOL    HW125535   3.294   1.781   0.968
 8212SOL    HW225536   3.294   1.657   0.863
 8213SOL     OW25537   5.538   5.030   2.386
 8213SOL    HW125538   5.620   5.074   2.351
 8213SOL    HW225539   5.477   5.100   2.425
 8214SOL     OW25540   0.835   5.459   4.134
 8214SOL    HW125541   0.929   5.435   4.155
 8214SOL    HW225542   0.829   5.557   4.116
 8215SOL     OW25543   2.844   5.986   6.358
 8215SOL    HW125544   2.906   6.045   6.306
 8215SOL    HW225545   2.806   5.916   6.299
 8216SOL     OW25546   5.144   6.178   3.308
 8216SOL    HW125547   5.045   6.189   3.317
 8216SOL    HW225548   5.169   6.085   3.337
 8217SOL     OW25549   2.144   3.732   2.294
 8217SOL    HW125550   2.053   3.728   2.336
 8217SOL    HW225551   2.168   3.642   2.259
 8218SOL     OW25552   1.373   6.710   4.957
 8218SOL    HW125553   1.426   6.657   4.890
 8218SOL    HW225554   1.429   6.786   4.991
 8219SOL     OW25555   3.598   2.961   1.325
 8219SOL    HW125556   3.556   3.050   1.341
 8219SOL    HW225557   3.599   2.908   1.410
 8220SOL     OW25558   3.116   3.882   4.824
 8220SOL    HW125559   3.183   3.810   4.840
 8220SOL    HW225560   3.099   3.931   4.910
 8221SOL     OW25561   6.325   5.378   3.338
 8221SOL    HW125562   6.320   5.431   3.253
 8221SOL    HW225563   6.286   5.287   3.322
 8222SOL     OW25564   5.101   2.119   1.359
 8222SOL    HW125565   5.012   2.165   1.364
 8222SOL    HW225566   5.096   2.043   1.295
 8223SOL     OW25567   0.808   4.353   5.337
 8223SOL    HW125568   0.860   4.436   5.354
 8223SOL    HW225569   0.714   4.365   5.368
 8224SOL     OW25570   5.477   2.598   2.136
 8224SOL    HW125571   5.386   2.624   2.105
 8224SOL    HW225572   5.531   2.566   2.058
 8225SOL     OW25573   3.644   1.170   1.643
 8225SOL    HW125574   3.639   1.262   1.681
 8225SOL    HW225575   3.565   1.116   1.675
 8226SOL     OW25576   3.394   0.183   0.299
 8226SOL    HW125577   3.306   0.193   0.252
 8226SOL    HW225578   3.466   0.166   0.232
 8227SOL     OW25579   0.075   1.032   2.766
 8227SOL    HW125580   7.003   1.029   2.785
 8227SOL    HW225581   0.090   1.065   2.672
 8228SOL     OW25582   0.859   1.694   6.126
 8228SOL    HW125583   0.893   1.599   6.129
 8228SOL    HW225584   0.779   1.698   6.066
 8229SOL     OW25585   3.606   4.038   1.168
 8229SOL    HW125586   3.550   4.049   1.086
 8229SOL    HW225587   3.547   4.013   1.245
 8230SOL     OW25588   4.150   0.168   5.505
 8230SOL    HW125589   4.201   0.198   5.424
 8230SOL    HW225590   4.118   0.074   5.491
 8231SOL     OW25591   3.083   2.546   1.426
 8231SOL    HW125592   3.047   2.473   1.485
 8231SOL    HW225593   3.154   2.508   1.366
 8232SOL     OW25594   5.606   1.703   2.270
 8232SOL    HW125595   5.531   1.644   2.242
 8232SOL    HW225596   5.690   1.649   2.276
 8233SOL     OW25597   1.413   7.008   6.373
 8233SOL    HW125598   1.503   6.980   6.340
 8233SOL    HW225599   1.382   6.946   6.445
 8234SOL     OW25600   2.954   3.894   0.040
 8234SOL    HW125601   2.940   3.852   6.976
 8234SOL    HW225602   2.923   3.832   0.112
 8235SOL     OW25603   0.253   3.607   6.627
 8235SOL    HW125604   0.164   3.617   6.584
 8235SOL    HW225605   0.304   3.533   6.583
 8236SOL     OW25606   6.648   4.885   6.571
 8236SOL    HW125607   6.676   4.952   6.639
 8236SOL    HW225608   6.727   4.860   6.514
 8237SOL     OW25609   5.047   6.362   6.166
 8237SOL    HW125610   4.961   6.356   6.115
 8237SOL    HW225611   5.036   6.427   6.241
 8238SOL     OW25612   0.658   5.670   6.977
 8238SOL    HW125613   0.578   5.722   6.946
 8238SOL    HW225614   0.738   5.730   6.981
 8239SOL     OW25615   0.963   0.565   5.141
 8239SOL    HW125616   0.951   0.660   5.114
 8239SOL    HW225617   1.036   0.558   5.209
 8240SOL     OW25618   3.121   3.977   3.044
 8240SOL    HW125619   3.147   4.033   2.965
 8240SOL    HW225620   3.170   4.009   3.125
 8241SOL     OW25621   2.517   4.574   5.797
 8241SOL    HW125622   2.447   4.565   5.867
 8241SOL    HW225623   2.607   4.559   5.838
 8242SOL     OW25624   0.505   3.623   5.028
 8242SOL    HW125625   0.470   3.716   5.039
 8242SOL    HW225626   0.428   3.558   5.029
 8243SOL     OW25627   7.009   3.504   1.357
 8243SOL    HW125628   6.997   3.525   1.260
 8243SOL    HW225629   0.030   3.580   1.403
 8244SOL     OW25630   0.684   0.158   3.898
 8244SOL    HW125631   0.735   0.244   3.898
 8244SOL    HW225632   0.664   0.131   3.804
 8245SOL     OW25633   3.635   2.119   2.758
 8245SOL    HW125634   3.662   2.081   2.669
 8245SOL    HW225635   3.640   2.219   2.754
 8246SOL     OW25636   0.287   4.336   6.569
 8246SOL    HW125637   0.233   4.385   6.637
 8246SOL    HW225638   0.231   4.317   6.489
 8247SOL     OW25639   2.099   6.243   3.159
 8247SOL    HW125640   2.155   6.326   3.162
 8247SOL    HW225641   2.109   6.193   3.245
 8248SOL     OW25642   0.671   4.499   4.735
 8248SOL    HW125643   0.671   4.436   4.657
 8248SOL    HW225644   0.754   4.556   4.732
 8249SOL     OW25645   2.210   1.488   5.878
 8249SOL    HW125646   2.215   1.558   5.950
 8249SOL    HW225647   2.181   1.531   5.793
 8250SOL     OW25648   2.638   2.331   1.333
 8250SOL    HW125649   2.630   2.426   1.361
 8250SOL    HW225650   2.719   2.320   1.275
 8251SOL     OW25651   5.359   1.709   4.554
 8251SOL    HW125652   5.310   1.678   4.472
 8251SOL    HW225653   5.309   1.678   4.635
 8252SOL     OW25654   4.113   2.139   6.747
 8252SOL    HW125655   4.178   2.097   6.810
 8252SOL    HW225656   4.156   2.150   6.657
 8253SOL     OW25657   3.660   6.131   6.286
 8253SOL    HW125658   3.572   6.093   6.315
 8253SOL    HW225659   3.668   6.225   6.317
 8254SOL     OW25660   4.586   4.901   5.525
 8254SOL    HW125661   4.641   4.842   5.467
 8254SOL    HW225662   4.590   4.869   5.620
 8255SOL     OW25663   1.273   6.853   5.527
 8255SOL    HW125664   1.353   6.862   5.468
 8255SOL    HW225665   1.201   6.915   5.495
 8256SOL     OW25666   6.938   6.392   2.997
 8256SOL    HW125667   6.961   6.411   3.092
 8256SOL    HW225668   7.000   6.322   2.961
 8257SOL     OW25669   5.398   3.938   3.689
 8257SOL    HW125670   5.454   3.914   3.769
 8257SOL    HW225671   5.454   3.990   3.625
 8258SOL     OW25672   4.699   2.729   1.888
 8258SOL    HW125673   4.685   2.810   1.945
 8258SOL    HW225674   4.793   2.696   1.899
 8259SOL     OW25675   3.563   2.363   5.449
 8259SOL    HW125676   3.537   2.369   5.545
 8259SOL    HW225677   3.481   2.368   5.392
 8260SOL     OW25678   2.018   6.708   1.759
 8260SOL    HW125679   2.036   6.678   1.665
 8260SOL    HW225680   2.005   6.629   1.818
 8261SOL     OW25681   5.093   6.455   2.997
 8261SOL    HW125682   5.053   6.495   2.914
 8261SOL    HW225683   5.027   6.394   3.040
 8262SOL     OW25684   1.012   5.112   0.655
 8262SOL    HW125685   1.037   5.087   0.749
 8262SOL    HW225686   1.077   5.181   0.621
 8263SOL     OW25687   0.160   3.265   6.469
 8263SOL    HW125688   0.153   3.192   6.537
 8263SOL    HW225689   0.248   3.258   6.422
 8264SOL     OW25690   0.757   6.359   1.466
 8264SOL    HW125691   0.692   6.423   1.509
 8264SOL    HW225692   0.790   6.399   1.380
 8265SOL     OW25693   5.531   0.184   2.010
 8265SOL    HW125694   5.538   0.150   1.916
 8265SOL    HW225695   5.548   0.283   2.010
 8266SOL     OW25696   2.620   0.909   4.139
 8266SOL    HW125697   2.573   0.984   4.092
 8266SOL    HW225698   2.640   0.836   4.074
 8267SOL     OW25699   1.264   4.461   1.906
 8267SOL    HW125700   1.166   4.480   1.910
 8267SOL    HW225701   1.292   4.454   1.810
 8268SOL     OW25702   3.148   5.915   6.337
 8268SOL    HW125703   3.167   5.849   6.410
 8268SOL    HW225704   3.074   5.880   6.280
 8269SOL     OW25705   4.558   2.607   3.159
 8269SOL    HW125706   4.579   2.660   3.077
 8269SOL    HW225707   4.485   2.652   3.210
 8270SOL     OW25708   2.897   5.721   5.303
 8270SOL    HW125709   2.802   5.697   5.323
 8270SOL    HW225710   2.949   5.638   5.284
 8271SOL     OW25711   6.486   6.811   3.349
 8271SOL    HW125712   6.449   6.758   3.272
 8271SOL    HW225713   6.545   6.884   3.314
 8272SOL     OW25714   6.562   1.144   2.610
 8272SOL    HW125715   6.557   1.069   2.544
 8272SOL    HW225716   6.562   1.231   2.560
 8273SOL     OW25717   3.245   0.798   0.116
 8273SOL    HW125718   3.253   0.846   0.204
 8273SOL    HW225719   3.149   0.773   0.100
 8274SOL     OW25720   4.394   5.257   5.206
 8274SOL    HW125721   4.355   5.336   5.161
 8274SOL    HW225722   4.461   5.214   5.145
 8275SOL     OW25723   5.394   0.580   3.935
 8275SOL    HW125724   5.377   0.641   3.859
 8275SOL    HW225725   5.490   0.552   3.935
 8276SOL     OW25726   6.878   2.181   5.335
 8276SOL    HW125727   6.937   2.110   5.374
 8276SOL    HW225728   6.800   2.196   5.395
 8277SOL     OW25729   1.212   5.931   6.263
 8277SOL    HW125730   1.310   5.943   6.245
 8277SOL    HW225731   1.160   5.998   6.211
 8278SOL     OW25732   3.070   1.851   6.787
 8278SOL    HW125733   3.052   1.845   6.885
 8278SOL    HW225734   3.129   1.775   6.760
 8279SOL     OW25735   6.576   6.182   5.034
 8279SOL    HW125736   6.596   6.280   5.023
 8279SOL    HW225737   6.551   6.144   4.945
 8280SOL     OW25738   3.783   2.499   0.795
 8280SOL    HW125739   3.838   2.487   0.878
 8280SOL    HW225740   3.689   2.472   0.814
 8281SOL     OW25741   2.416   4.373   1.992
 8281SOL    HW125742   2.390   4.345   2.084
 8281SOL    HW225743   2.421   4.293   1.932
 8282SOL     OW25744   3.422   3.726   0.175
 8282SOL    HW125745   3.382   3.699   0.262
 8282SOL    HW225746   3.521   3.709   0.177
 8283SOL     OW25747   1.623   4.714   4.233
 8283SOL    HW125748   1.596   4.797   4.281
 8283SOL    HW225749   1.543   4.670   4.193
 8284SOL     OW25750   1.723   4.112   2.132
 8284SOL    HW125751   1.808   4.125   2.182
 8284SOL    HW225752   1.654   4.073   2.193
 8285SOL     OW25753   4.164   3.438   5.736
 8285SOL    HW125754   4.106   3.489   5.673
 8285SOL    HW225755   4.136   3.457   5.830
 8286SOL     OW25756   5.520   1.755   4.906
 8286SOL    HW125757   5.574   1.740   4.823
 8286SOL    HW225758   5.447   1.820   4.887
 8287SOL     OW25759   0.979   5.130   4.500
 8287SOL    HW125760   1.030   5.216   4.497
 8287SOL    HW225761   0.896   5.143   4.554
 8288SOL     OW25762   1.951   2.383   2.737
 8288SOL    HW125763   1.896   2.466   2.746
 8288SOL    HW225764   1.950   2.352   2.642
 8289SOL     OW25765   6.313   0.034   6.743
 8289SOL    HW125766   6.352   6.995   6.677
 8289SOL    HW225767   6.380   0.053   6.815
 8290SOL     OW25768   4.997   1.793   1.000
 8290SOL    HW125769   4.954   1.868   0.950
 8290SOL    HW225770   5.072   1.755   0.946
 8291SOL     OW25771   5.520   5.962   6.340
 8291SOL    HW125772   5.548   5.954   6.436
 8291SOL    HW225773   5.439   6.020   6.334
 8292SOL     OW25774   2.360   5.361   6.771
 8292SOL    HW125775   2.418   5.346   6.691
 8292SOL    HW225776   2.418   5.378   6.851
 8293SOL     OW25777   1.785   5.008   1.497
 8293SOL    HW125778   1.691   5.042   1.487
 8293SOL    HW225779   1.848   5.085   1.497
 8294SOL     OW25780   6.538   3.534   4.859
 8294SOL    HW125781   6.471   3.460   4.852
 8294SOL    HW225782   6.590   3.540   4.774
 8295SOL     OW25783   4.903   3.304   2.966
 8295SOL    HW125784   4.976   3.238   2.986
 8295SOL    HW225785   4.816   3.255   2.954
 8296SOL     OW25786   3.173   5.962   0.248
 8296SOL    HW125787   3.204   6.040   0.194
 8296SOL    HW225788   3.222   5.959   0.335
 8297SOL     OW25789   6.435   3.370   2.576
 8297SOL    HW125790   6.414   3.305   2.504
 8297SOL    HW225791   6.534   3.376   2.589
 8298SOL     OW25792   7.001   0.640   0.942
 8298SOL    HW125793   7.025   0.544   0.957
 8298SOL    HW225794   0.006   0.668   0.851
 8299SOL     OW25795   0.360   3.277   1.808
 8299SOL    HW125796   0.304   3.198   1.784
 8299SOL    HW225797   0.374   3.334   1.728
 8300SOL     OW25798   0.057   6.849   4.317
 8300SOL    HW125799   0.131   6.869   4.380
 8300SOL    HW225800   7.018   6.925   4.314
 8301SOL     OW25801   4.619   0.874   6.848
 8301SOL    HW125802   4.671   0.858   6.764
 8301SOL    HW225803   4.625   0.793   6.907
 8302SOL     OW25804   5.110   6.829   5.469
 8302SOL    HW125805   5.121   6.865   5.562
 8302SOL    HW225806   5.017   6.793   5.458
 8303SOL     OW25807   6.666   0.396   3.113
 8303SOL    HW125808   6.574   0.365   3.088
 8303SOL    HW225809   6.662   0.442   3.201
 8304SOL     OW25810   5.448   4.818   1.663
 8304SOL    HW125811   5.366   4.849   1.615
 8304SOL    HW225812   5.466   4.879   1.740
 8305SOL     OW25813   4.254   5.005   4.173
 8305SOL    HW125814   4.299   5.069   4.236
 8305SOL    HW225815   4.202   4.938   4.226
 8306SOL     OW25816   6.275   1.146   3.642
 8306SOL    HW125817   6.371   1.160   3.618
 8306SOL    HW225818   6.218   1.208   3.589
 8307SOL     OW25819   3.190   5.303   1.475
 8307SOL    HW125820   3.150   5.245   1.404
 8307SOL    HW225821   3.286   5.280   1.486
 8308SOL     OW25822   2.170   5.443   0.130
 8308SOL    HW125823   2.236   5.492   0.075
 8308SOL    HW225824   2.163   5.485   0.220
 8309SOL     OW25825   6.004   5.401   3.325
 8309SOL    HW125826   6.094   5.366   3.299
 8309SOL    HW225827   6.012   5.457   3.408
 8310SOL     OW25828   1.816   5.139   1.140
 8310SOL    HW125829   1.901   5.130   1.087
 8310SOL    HW225830   1.751   5.195   1.090
 8311SOL     OW25831   5.984   0.503   4.259
 8311SOL    HW125832   6.052   0.439   4.225
 8311SOL    HW225833   5.999   0.593   4.219
 8312SOL     OW25834   5.375   1.098   6.439
 8312SOL    HW125835   5.439   1.147   6.499
 8312SOL    HW225836   5.289   1.081   6.488
 8313SOL     OW25837   5.961   0.471   6.179
 8313SOL    HW125838   5.872   0.515   6.167
 8313SOL    HW225839   5.956   0.408   6.257
 8314SOL     OW25840   6.396   6.898   6.552
 8314SOL    HW125841   6.389   6.951   6.467
 8314SOL    HW225842   6.483   6.848   6.553
 8315SOL     OW25843   3.899   3.173   2.859
 8315SOL    HW125844   3.954   3.139   2.935
 8315SOL    HW225845   3.809   3.129   2.861
 8316SOL     OW25846   1.776   3.147   1.295
 8316SOL    HW125847   1.726   3.097   1.366
 8316SOL    HW225848   1.873   3.153   1.322
 8317SOL     OW25849   1.304   2.156   2.780
 8317SOL    HW125850   1.294   2.057   2.777
 8317SOL    HW225851   1.396   2.179   2.811
 8318SOL     OW25852   3.944   1.572   6.250
 8318SOL    HW125853   3.906   1.544   6.337
 8318SOL    HW225854   4.017   1.639   6.265
 8319SOL     OW25855   1.253   0.355   0.564
 8319SOL    HW125856   1.194   0.422   0.517
 8319SOL    HW225857   1.305   0.303   0.496
 8320SOL     OW25858   3.240   4.102   3.262
 8320SOL    HW125859   3.220   4.192   3.302
 8320SOL    HW225860   3.335   4.101   3.230
 8321SOL     OW25861   0.061   7.002   0.135
 8321SOL    HW125862   0.051   6.966   0.228
 8321SOL    HW225863   6.995   7.014   0.094
 8322SOL     OW25864   6.699   1.624   0.843
 8322SOL    HW125865   6.600   1.614   0.850
 8322SOL    HW225866   6.726   1.714   0.878
 8323SOL     OW25867   3.637   4.935   1.420
 8323SOL    HW125868   3.653   4.857   1.480
 8323SOL    HW225869   3.689   5.014   1.453
 8324SOL     OW25870   5.185   0.708   0.617
 8324SOL    HW125871   5.199   0.685   0.520
 8324SOL    HW225872   5.106   0.769   0.625
 8325SOL     OW25873   0.703   3.753   5.392
 8325SOL    HW125874   0.749   3.798   5.315
 8325SOL    HW225875   0.637   3.816   5.432
 8326SOL     OW25876   4.261   3.857   6.276
 8326SOL    HW125877   4.247   3.801   6.358
 8326SOL    HW225878   4.351   3.836   6.238
 8327SOL     OW25879   1.034   0.860   5.801
 8327SOL    HW125880   0.985   0.933   5.849
 8327SOL    HW225881   1.054   0.787   5.866
 8328SOL     OW25882   2.709   6.412   6.453
 8328SOL    HW125883   2.723   6.320   6.491
 8328SOL    HW225884   2.792   6.442   6.407
 8329SOL     OW25885   0.581   2.117   4.897
 8329SOL    HW125886   0.561   2.030   4.851
 8329SOL    HW225887   0.607   2.185   4.828
 8330SOL     OW25888   3.366   1.558   6.968
 8330SOL    HW125889   3.339   1.471   7.010
 8330SOL    HW225890   3.352   1.633   0.008
 8331SOL     OW25891   3.348   0.649   0.582
 8331SOL    HW125892   3.414   0.710   0.538
 8331SOL    HW225893   3.342   0.563   0.531
 8332SOL     OW25894   5.788   5.638   2.101
 8332SOL    HW125895   5.733   5.653   2.019
 8332SOL    HW225896   5.745   5.569   2.159
 8333SOL     OW25897   1.107   4.719   6.552
 8333SOL    HW125898   1.164   4.669   6.616
 8333SOL    HW225899   1.015   4.730   6.589
 8334SOL     OW25900   3.205   1.824   5.820
 8334SOL    HW125901   3.257   1.847   5.902
 8334SOL    HW225902   3.267   1.815   5.742
 8335SOL     OW25903   4.137   1.475   0.226
 8335SOL    HW125904   4.218   1.517   0.185
 8335SOL    HW225905   4.142   1.376   0.216
 8336SOL     OW25906   0.623   3.775   3.082
 8336SOL    HW125907   0.698   3.759   3.018
 8336SOL    HW225908   0.629   3.868   3.119
 8337SOL     OW25909   0.719   6.679   4.096
 8337SOL    HW125910   0.728   6.764   4.044
 8337SOL    HW225911   0.722   6.601   4.034
 8338SOL     OW25912   3.774   5.488   1.349
 8338SOL    HW125913   3.745   5.438   1.431
 8338SOL    HW225914   3.839   5.559   1.374
 8339SOL     OW25915   0.266   1.005   2.276
 8339SOL    HW125916   0.185   1.038   2.229
 8339SOL    HW225917   0.301   0.923   2.230
 8340SOL     OW25918   4.827   3.880   0.916
 8340SOL    HW125919   4.865   3.964   0.953
 8340SOL    HW225920   4.741   3.900   0.869
 8341SOL     OW25921   3.656   0.158   6.842
 8341SOL    HW125922   3.664   0.237   6.780
 8341SOL    HW225923   3.717   0.085   6.810
 8342SOL     OW25924   4.189   6.470   0.309
 8342SOL    HW125925   4.105   6.420   0.333
 8342SOL    HW225926   4.185   6.562   0.347
 8343SOL     OW25927   6.793   5.339   3.425
 8343SOL    HW125928   6.757   5.257   3.381
 8343SOL    HW225929   6.728   5.415   3.415
 8344SOL     OW25930   6.603   5.250   4.662
 8344SOL    HW125931   6.558   5.303   4.590
 8344SOL    HW225932   6.613   5.155   4.632
 8345SOL     OW25933   3.987   1.990   3.107
 8345SOL    HW125934   4.065   1.988   3.044
 8345SOL    HW225935   3.903   2.005   3.055
 8346SOL     OW25936   4.245   4.543   0.125
 8346SOL    HW125937   4.337   4.523   0.090
 8346SOL    HW225938   4.182   4.471   0.097
 8347SOL     OW25939   3.242   6.281   5.844
 8347SOL    HW125940   3.312   6.214   5.818
 8347SOL    HW225941   3.151   6.244   5.823
 8348SOL     OW25942   2.007   1.012   1.591
 8348SOL    HW125943   1.927   1.071   1.606
 8348SOL    HW225944   2.089   1.069   1.582
 8349SOL     OW25945   0.745   6.704   2.199
 8349SOL    HW125946   0.813   6.695   2.127
 8349SOL    HW225947   0.726   6.614   2.238
 8350SOL     OW25948   3.120   6.696   6.099
 8350SOL    HW125949   3.193   6.629   6.106
 8350SOL    HW225950   3.071   6.701   6.186
 8351SOL     OW25951   5.332   5.238   4.801
 8351SOL    HW125952   5.235   5.247   4.823
 8351SOL    HW225953   5.380   5.323   4.823
 8352SOL     OW25954   1.478   0.073   3.293
 8352SOL    HW125955   1.488   0.003   3.223
 8352SOL    HW225956   1.565   0.122   3.304
 8353SOL     OW25957   0.841   3.455   0.715
 8353SOL    HW125958   0.852   3.405   0.801
 8353SOL    HW225959   0.871   3.397   0.639
 8354SOL     OW25960   3.089   6.840   4.445
 8354SOL    HW125961   3.023   6.915   4.446
 8354SOL    HW225962   3.153   6.851   4.522
 8355SOL     OW25963   1.982   1.039   4.577
 8355SOL    HW125964   1.979   1.139   4.565
 8355SOL    HW225965   1.957   1.016   4.671
 8356SOL     OW25966   1.437   6.077   1.536
 8356SOL    HW125967   1.458   6.172   1.561
 8356SOL    HW225968   1.338   6.063   1.541
 8357SOL     OW25969   3.765   0.158   5.605
 8357SOL    HW125970   3.826   0.112   5.670
 8357SOL    HW225971   3.757   0.102   5.522
 8358SOL     OW25972   1.166   3.494   4.367
 8358SOL    HW125973   1.141   3.399   4.346
 8358SOL    HW225974   1.084   3.552   4.362
 8359SOL     OW25975   2.972   1.417   4.923
 8359SOL    HW125976   2.916   1.356   4.867
 8359SOL    HW225977   2.982   1.505   4.877
 8360SOL     OW25978   4.547   0.053   0.459
 8360SOL    HW125979   4.471   0.050   0.524
 8360SOL    HW225980   4.588   0.144   0.461
 8361SOL     OW25981   3.594   0.731   1.022
 8361SOL    HW125982   3.671   0.725   0.958
 8361SOL    HW225983   3.558   0.825   1.021
 8362SOL     OW25984   5.173   2.267   0.636
 8362SOL    HW125985   5.240   2.307   0.698
 8362SOL    HW225986   5.146   2.335   0.568
 8363SOL     OW25987   5.020   2.467   0.100
 8363SOL    HW125988   5.024   2.565   0.120
 8363SOL    HW225989   4.939   2.447   0.046
 8364SOL     OW25990   6.881   2.306   4.137
 8364SOL    HW125991   6.943   2.385   4.139
 8364SOL    HW225992   6.934   2.222   4.140
 8365SOL     OW25993   1.914   2.220   2.475
 8365SOL    HW125994   1.979   2.177   2.413
 8365SOL    HW225995   1.898   2.315   2.446
 8366SOL     OW25996   2.959   5.063   0.899
 8366SOL    HW125997   2.947   5.156   0.935
 8366SOL    HW225998   2.898   5.051   0.820
 8367SOL     OW25999   3.527   5.681   4.652
 8367SOL    HW126000   3.476   5.754   4.700
 8367SOL    HW226001   3.464   5.607   4.629
 8368SOL     OW26002   0.921   6.000   0.126
 8368SOL    HW126003   1.004   5.965   0.170
 8368SOL    HW226004   0.841   5.960   0.171
 8369SOL     OW26005   0.850   0.450   6.827
 8369SOL    HW126006   0.914   0.504   6.773
 8369SOL    HW226007   0.794   0.394   6.766
 8370SOL     OW26008   2.186   1.246   6.006
 8370SOL    HW126009   2.170   1.330   5.953
 8370SOL    HW226010   2.115   1.179   5.982
 8371SOL     OW26011   2.301   4.150   0.509
 8371SOL    HW126012   2.342   4.213   0.442
 8371SOL    HW226013   2.297   4.058   0.470
 8372SOL     OW26014   1.499   6.196   1.825
 8372SOL    HW126015   1.521   6.099   1.828
 8372SOL    HW226016   1.580   6.248   1.799
 8373SOL     OW26017   1.941   6.668   4.466
 8373SOL    HW126018   1.878   6.606   4.512
 8373SOL    HW226019   1.965   6.631   4.376
 8374SOL     OW26020   0.326   6.909   4.805
 8374SOL    HW126021   0.282   6.940   4.721
 8374SOL    HW226022   0.390   6.834   4.783
 8375SOL     OW26023   3.811   6.785   5.551
 8375SOL    HW126024   3.881   6.723   5.516
 8375SOL    HW226025   3.828   6.803   5.647
 8376SOL     OW26026   1.237   0.901   4.055
 8376SOL    HW126027   1.278   0.818   4.093
 8376SOL    HW226028   1.152   0.921   4.103
 8377SOL     OW26029   5.557   6.386   0.289
 8377SOL    HW126030   5.549   6.308   0.227
 8377SOL    HW226031   5.474   6.443   0.281
 8378SOL     OW26032   3.608   4.883   3.313
 8378SOL    HW126033   3.524   4.923   3.350
 8378SOL    HW226034   3.597   4.867   3.214
 8379SOL     OW26035   4.958   2.966   2.092
 8379SOL    HW126036   4.975   3.040   2.027
 8379SOL    HW226037   4.861   2.944   2.092
 8380SOL     OW26038   0.309   0.118   0.483
 8380SOL    HW126039   0.249   0.166   0.548
 8380SOL    HW226040   0.281   0.140   0.390
 8381SOL     OW26041   0.030   1.902   3.869
 8381SOL    HW126042   0.024   2.002   3.870
 8381SOL    HW226043   0.091   1.873   3.795
 8382SOL     OW26044   2.192   6.208   1.518
 8382SOL    HW126045   2.219   6.303   1.534
 8382SOL    HW226046   2.098   6.205   1.486
 8383SOL     OW26047   2.943   0.071   5.860
 8383SOL    HW126048   3.029   0.047   5.814
 8383SOL    HW226049   2.867   0.029   5.811
 8384SOL     OW26050   5.959   1.632   1.790
 8384SOL    HW126051   6.010   1.562   1.740
 8384SOL    HW226052   5.989   1.723   1.759
 8385SOL     OW26053   4.630   2.320   6.650
 8385SOL    HW126054   4.642   2.390   6.720
 8385SOL    HW226055   4.533   2.318   6.623
 8386SOL     OW26056   1.764   6.104   1.782
 8386SOL    HW126057   1.776   6.066   1.874
 8386SOL    HW226058   1.738   6.030   1.719
 8387SOL     OW26059   1.327   1.687   1.248
 8387SOL    HW126060   1.242   1.680   1.299
 8387SOL    HW226061   1.404   1.667   1.309
 8388SOL     OW26062   2.128   6.472   0.477
 8388SOL    HW126063   2.073   6.389   0.485
 8388SOL    HW226064   2.225   6.448   0.479
 8389SOL     OW26065   0.147   3.044   4.150
 8389SOL    HW126066   0.054   3.065   4.183
 8389SOL    HW226067   0.205   3.021   4.228
 8390SOL     OW26068   3.522   6.550   0.521
 8390SOL    HW126069   3.596   6.551   0.587
 8390SOL    HW226070   3.514   6.640   0.479
 8391SOL     OW26071   4.984   5.127   1.196
 8391SOL    HW126072   4.887   5.110   1.210
 8391SOL    HW226073   5.018   5.187   1.269
 8392SOL     OW26074   6.805   5.810   5.353
 8392SOL    HW126075   6.792   5.717   5.318
 8392SOL    HW226076   6.767   5.875   5.287
 8393SOL     OW26077   0.270   0.106   3.600
 8393SOL    HW126078   0.187   0.080   3.549
 8393SOL    HW226079   0.342   0.130   3.535
 8394SOL     OW26080   0.365   3.676   1.749
 8394SOL    HW126081   0.365   3.649   1.653
 8394SOL    HW226082   0.272   3.671   1.785
 8395SOL     OW26083   1.891   6.041   4.247
 8395SOL    HW126084   1.807   5.987   4.250
 8395SOL    HW226085   1.951   6.015   4.323
 8396SOL     OW26086   4.513   4.821   2.535
 8396SOL    HW126087   4.427   4.799   2.490
 8396SOL    HW226088   4.511   4.788   2.629
 8397SOL     OW26089   2.703   1.180   2.955
 8397SOL    HW126090   2.676   1.176   2.859
 8397SOL    HW226091   2.684   1.272   2.991
 8398SOL     OW26092   4.233   2.705   6.326
 8398SOL    HW126093   4.332   2.698   6.338
 8398SOL    HW226094   4.212   2.770   6.253
 8399SOL     OW26095   6.474   0.274   0.469
 8399SOL    HW126096   6.393   0.304   0.418
 8399SOL    HW226097   6.464   0.298   0.565
 8400SOL     OW26098   1.516   0.451   4.194
 8400SOL    HW126099   1.536   0.373   4.136
 8400SOL    HW226100   1.501   0.420   4.288
 8401SOL     OW26101   3.153   1.880   6.213
 8401SOL    HW126102   3.068   1.870   6.160
 8401SOL    HW226103   3.226   1.912   6.152
 8402SOL     OW26104   3.735   2.125   5.897
 8402SOL    HW126105   3.773   2.044   5.943
 8402SOL    HW226106   3.723   2.105   5.800
 8403SOL     OW26107   0.841   1.969   3.526
 8403SOL    HW126108   0.939   1.966   3.547
 8403SOL    HW226109   0.792   1.910   3.589
 8404SOL     OW26110   4.485   6.291   6.187
 8404SOL    HW126111   4.550   6.276   6.112
 8404SOL    HW226112   4.401   6.240   6.168
 8405SOL     OW26113   2.406   0.729   5.681
 8405SOL    HW126114   2.497   0.715   5.721
 8405SOL    HW226115   2.354   0.793   5.737
 8406SOL     OW26116   5.138   6.980   0.905
 8406SOL    HW126117   5.101   6.924   0.831
 8406SOL    HW226118   5.221   0.001   0.874
 8407SOL     OW26119   4.382   6.582   4.217
 8407SOL    HW126120   4.443   6.563   4.294
 8407SOL    HW226121   4.289   6.554   4.240
 8408SOL     OW26122   4.894   3.033   2.368
 8408SOL    HW126123   4.894   3.054   2.270
 8408SOL    HW226124   4.973   2.975   2.390
 8409SOL     OW26125   6.062   3.233   3.844
 8409SOL    HW126126   6.129   3.291   3.799
 8409SOL    HW226127   6.105   3.184   3.920
 8410SOL     OW26128   5.110   6.959   1.928
 8410SOL    HW126129   5.089   6.972   2.025
 8410SOL    HW226130   5.025   6.963   1.875
 8411SOL     OW26131   0.709   5.410   6.982
 8411SOL    HW126132   0.714   5.507   6.958
 8411SOL    HW226133   0.635   5.396   0.023
 8412SOL     OW26134   3.743   1.978   1.874
 8412SOL    HW126135   3.833   1.939   1.895
 8412SOL    HW226136   3.743   2.076   1.894
 8413SOL     OW26137   4.184   5.792   0.107
 8413SOL    HW126138   4.201   5.777   0.204
 8413SOL    HW226139   4.263   5.762   0.053
 8414SOL     OW26140   4.088   5.583   2.961
 8414SOL    HW126141   4.084   5.664   3.019
 8414SOL    HW226142   4.182   5.571   2.927
 8415SOL     OW26143   6.621   5.545   3.372
 8415SOL    HW126144   6.703   5.578   3.324
 8415SOL    HW226145   6.574   5.622   3.415
 8416SOL     OW26146   5.591   3.719   2.738
 8416SOL    HW126147   5.500   3.678   2.729
 8416SOL    HW226148   5.640   3.674   2.813
 8417SOL     OW26149   1.327   5.434   6.035
 8417SOL    HW126150   1.373   5.372   6.098
 8417SOL    HW226151   1.255   5.384   5.986
 8418SOL     OW26152   5.673   5.201   1.386
 8418SOL    HW126153   5.747   5.253   1.428
 8418SOL    HW226154   5.631   5.142   1.454
 8419SOL     OW26155   4.955   1.180   2.701
 8419SOL    HW126156   4.943   1.276   2.727
 8419SOL    HW226157   4.947   1.172   2.601
 8420SOL     OW26158   4.275   6.783   0.470
 8420SOL    HW126159   4.233   6.779   0.379
 8420SOL    HW226160   4.320   6.871   0.483
 8421SOL     OW26161   3.253   5.964   0.522
 8421SOL    HW126162   3.283   5.982   0.616
 8421SOL    HW226163   3.155   5.942   0.522
 8422SOL     OW26164   4.340   1.048   0.907
 8422SOL    HW126165   4.280   1.091   0.974
 8422SOL    HW226166   4.348   0.950   0.927
 8423SOL     OW26167   3.938   4.796   5.770
 8423SOL    HW126168   3.952   4.895   5.772
 8423SOL    HW226169   3.953   4.758   5.861
 8424SOL     OW26170   2.237   2.542   2.795
 8424SOL    HW126171   2.188   2.607   2.853
 8424SOL    HW226172   2.193   2.539   2.705
 8425SOL     OW26173   5.764   5.546   0.313
 8425SOL    HW126174   5.688   5.576   0.256
 8425SOL    HW226175   5.849   5.551   0.260
 8426SOL     OW26176   3.161   3.489   3.960
 8426SOL    HW126177   3.074   3.538   3.974
 8426SOL    HW226178   3.225   3.548   3.911
 8427SOL     OW26179   2.830   3.560   5.150
 8427SOL    HW126180   2.805   3.469   5.118
 8427SOL    HW226181   2.845   3.620   5.071
 8428SOL     OW26182   0.192   4.205   1.715
 8428SOL    HW126183   0.237   4.251   1.791
 8428SOL    HW226184   0.176   4.270   1.640
 8429SOL     OW26185   2.410   4.449   3.542
 8429SOL    HW126186   2.319   4.483   3.564
 8429SOL    HW226187   2.477   4.491   3.603
 8430SOL     OW26188   3.463   5.298   4.448
 8430SOL    HW126189   3.398   5.222   4.444
 8430SOL    HW226190   3.428   5.374   4.394
 8431SOL     OW26191   3.159   5.311   0.643
 8431SOL    HW126192   3.096   5.293   0.568
 8431SOL    HW226193   3.238   5.362   0.609
 8432SOL     OW26194   5.760   6.911   5.995
 8432SOL    HW126195   5.668   6.886   6.026
 8432SOL    HW226196   5.816   6.828   5.990
 8433SOL     OW26197   5.868   1.750   0.579
 8433SOL    HW126198   5.941   1.711   0.634
 8433SOL    HW226199   5.835   1.681   0.514
 8434SOL     OW26200   3.742   6.850   4.952
 8434SOL    HW126201   3.644   6.871   4.962
 8434SOL    HW226202   3.784   6.845   5.043
 8435SOL     OW26203   5.616   0.807   1.022
 8435SOL    HW126204   5.618   0.890   0.967
 8435SOL    HW226205   5.673   0.820   1.103
 8436SOL     OW26206   3.272   0.219   4.318
 8436SOL    HW126207   3.304   0.201   4.225
 8436SOL    HW226208   3.222   0.305   4.320
 8437SOL     OW26209   2.112   0.044   3.781
 8437SOL    HW126210   2.054   0.055   3.700
 8437SOL    HW226211   2.194   0.100   3.770
 8438SOL     OW26212   2.388   4.830   2.000
 8438SOL    HW126213   2.427   4.865   2.085
 8438SOL    HW226214   2.419   4.735   1.987
 8439SOL     OW26215   6.281   5.312   2.405
 8439SOL    HW126216   6.345   5.390   2.402
 8439SOL    HW226217   6.326   5.234   2.446
 8440SOL     OW26218   1.135   1.899   3.483
 8440SOL    HW126219   1.221   1.907   3.534
 8440SOL    HW226220   1.148   1.838   3.404
 8441SOL     OW26221   6.197   0.080   0.368
 8441SOL    HW126222   6.288   0.039   0.378
 8441SOL    HW226223   6.208   0.177   0.345
 8442SOL     OW26224   3.249   2.441   5.574
 8442SOL    HW126225   3.282   2.490   5.493
 8442SOL    HW226226   3.160   2.400   5.555
 8443SOL     OW26227   1.593   5.904   3.760
 8443SOL    HW126228   1.524   5.970   3.729
 8443SOL    HW226229   1.550   5.834   3.817
 8444SOL     OW26230   3.518   6.053   3.799
 8444SOL    HW126231   3.425   6.087   3.785
 8444SOL    HW226232   3.566   6.048   3.711
 8445SOL     OW26233   3.576   5.937   1.215
 8445SOL    HW126234   3.645   5.975   1.154
 8445SOL    HW226235   3.597   5.841   1.234
 8446SOL     OW26236   4.837   5.163   6.649
 8446SOL    HW126237   4.782   5.081   6.635
 8446SOL    HW226238   4.845   5.181   6.747
 8447SOL     OW26239   5.163   2.418   1.960
 8447SOL    HW126240   5.064   2.410   1.977
 8447SOL    HW226241   5.193   2.511   1.980
 8448SOL     OW26242   4.900   5.704   4.067
 8448SOL    HW126243   4.846   5.761   4.004
 8448SOL    HW226244   4.997   5.725   4.056
 8449SOL     OW26245   6.650   2.802   4.100
 8449SOL    HW126246   6.664   2.722   4.158
 8449SOL    HW226247   6.669   2.777   4.004
 8450SOL     OW26248   1.049   5.645   1.542
 8450SOL    HW126249   1.004   5.729   1.513
 8450SOL    HW226250   0.980   5.575   1.560
 8451SOL     OW26251   4.560   2.498   0.474
 8451SOL    HW126252   4.621   2.532   0.402
 8451SOL    HW226253   4.517   2.576   0.520
 8452SOL     OW26254   6.612   0.795   3.166
 8452SOL    HW126255   6.538   0.824   3.227
 8452SOL    HW226256   6.693   0.773   3.220
 8453SOL     OW26257   0.115   4.259   6.306
 8453SOL    HW126258   0.150   4.339   6.257
 8453SOL    HW226259   0.137   4.177   6.254
 8454SOL     OW26260   6.991   6.696   1.100
 8454SOL    HW126261   6.926   6.629   1.065
 8454SOL    HW226262   0.026   6.726   1.025
 8455SOL     OW26263   5.674   2.522   1.900
 8455SOL    HW126264   5.623   2.589   1.845
 8455SOL    HW226265   5.634   2.431   1.887
 8456SOL     OW26266   4.944   5.911   2.963
 8456SOL    HW126267   5.003   5.923   2.883
 8456SOL    HW226268   4.892   5.995   2.978
 8457SOL     OW26269   6.890   6.763   4.569
 8457SOL    HW126270   6.794   6.743   4.591
 8457SOL    HW226271   6.910   6.732   4.476
 8458SOL     OW26272   2.609   1.562   6.389
 8458SOL    HW126273   2.544   1.487   6.400
 8458SOL    HW226274   2.578   1.623   6.317
 8459SOL     OW26275   3.068   6.509   2.041
 8459SOL    HW126276   3.092   6.494   1.945
 8459SOL    HW226277   2.986   6.565   2.046
 8460SOL     OW26278   4.791   3.489   5.553
 8460SOL    HW126279   4.763   3.465   5.460
 8460SOL    HW226280   4.826   3.408   5.600
 8461SOL     OW26281   0.187   4.088   3.449
 8461SOL    HW126282   0.146   4.147   3.518
 8461SOL    HW226283   0.206   4.141   3.366
 8462SOL     OW26284   3.645   2.434   6.979
 8462SOL    HW126285   3.677   2.391   0.038
 8462SOL    HW226286   3.557   2.393   6.953
 8463SOL     OW26287   6.548   6.927   0.237
 8463SOL    HW126288   6.542   7.012   0.184
 8463SOL    HW226289   6.469   6.870   0.216
 8464SOL     OW26290   5.434   3.698   5.739
 8464SOL    HW126291   5.340   3.692   5.772
 8464SOL    HW226292   5.492   3.740   5.808
 8465SOL     OW26293   1.533   2.901   1.056
 8465SOL    HW126294   1.532   2.857   0.967
 8465SOL    HW226295   1.617   2.877   1.105
 8466SOL     OW26296   0.763   6.837   5.397
 8466SOL    HW126297   0.735   6.883   5.481
 8466SOL    HW226298   0.791   6.743   5.417
 8467SOL     OW26299   4.376   0.375   1.481
 8467SOL    HW126300   4.416   0.328   1.560
 8467SOL    HW226301   4.295   0.324   1.450
 8468SOL     OW26302   4.488   2.602   0.069
 8468SOL    HW126303   4.587   2.594   0.056
 8468SOL    HW226304   4.458   2.533   0.136
 8469SOL     OW26305   3.857   1.474   5.546
 8469SOL    HW126306   3.870   1.375   5.559
 8469SOL    HW226307   3.877   1.521   5.632
 8470SOL     OW26308   1.098   4.647   0.173
 8470SOL    HW126309   1.038   4.706   0.119
 8470SOL    HW226310   1.187   4.640   0.127
 8471SOL     OW26311   3.970   0.537   4.199
 8471SOL    HW126312   3.996   0.458   4.254
 8471SOL    HW226313   3.983   0.517   4.102
 8472SOL     OW26314   6.801   0.779   5.254
 8472SOL    HW126315   6.766   0.793   5.161
 8472SOL    HW226316   6.897   0.807   5.258
 8473SOL     OW26317   6.493   6.199   0.835
 8473SOL    HW126318   6.543   6.113   0.828
 8473SOL    HW226319   6.513   6.242   0.923
 8474SOL     OW26320   3.507   3.281   2.709
 8474SOL    HW126321   3.599   3.288   2.671
 8474SOL    HW226322   3.443   3.327   2.647
 8475SOL     OW26323   0.032   2.012   3.568
 8475SOL    HW126324   6.995   1.969   3.503
 8475SOL    HW226325   0.098   2.068   3.518
 8476SOL     OW26326   6.659   2.049   1.109
 8476SOL    HW126327   6.629   1.973   1.168
 8476SOL    HW226328   6.580   2.089   1.064
 8477SOL     OW26329   5.027   0.023   2.440
 8477SOL    HW126330   5.107   0.040   2.382
 8477SOL    HW226331   4.969   0.104   2.440
 8478SOL     OW26332   1.476   0.241   6.389
 8478SOL    HW126333   1.456   0.144   6.383
 8478SOL    HW226334   1.562   0.255   6.439
 8479SOL     OW26335   0.188   2.468   1.343
 8479SOL    HW126336   0.209   2.447   1.438
 8479SOL    HW226337   0.271   2.454   1.287
 8480SOL     OW26338   4.741   2.812   6.642
 8480SOL    HW126339   4.646   2.835   6.621
 8480SOL    HW226340   4.759   2.717   6.615
 8481SOL     OW26341   4.504   2.531   4.976
 8481SOL    HW126342   4.567   2.566   4.907
 8481SOL    HW226343   4.411   2.529   4.939
 8482SOL     OW26344   4.480   5.866   2.577
 8482SOL    HW126345   4.494   5.865   2.478
 8482SOL    HW226346   4.401   5.810   2.600
 8483SOL     OW26347   3.902   6.654   1.999
 8483SOL    HW126348   3.991   6.690   1.970
 8483SOL    HW226349   3.905   6.555   2.000
 8484SOL     OW26350   7.021   6.419   3.257
 8484SOL    HW126351   0.078   6.472   3.237
 8484SOL    HW226352   6.976   6.455   3.339
 8485SOL     OW26353   3.189   2.632   0.413
 8485SOL    HW126354   3.255   2.600   0.481
 8485SOL    HW226355   3.176   2.730   0.423
 8486SOL     OW26356   2.257   1.436   2.375
 8486SOL    HW126357   2.209   1.422   2.288
 8486SOL    HW226358   2.299   1.527   2.375
 8487SOL     OW26359   6.008   1.240   5.538
 8487SOL    HW126360   6.087   1.210   5.591
 8487SOL    HW226361   5.978   1.167   5.477
 8488SOL     OW26362   4.909   6.089   0.748
 8488SOL    HW126363   4.817   6.103   0.711
 8488SOL    HW226364   4.903   6.054   0.842
 8489SOL     OW26365   6.034   2.103   1.716
 8489SOL    HW126366   5.941   2.099   1.752
 8489SOL    HW226367   6.096   2.132   1.788
 8490SOL     OW26368   4.214   0.039   4.211
 8490SOL    HW126369   4.135   7.023   4.256
 8490SOL    HW226370   4.246   7.005   4.138
 8491SOL     OW26371   2.676   5.605   1.364
 8491SOL    HW126372   2.673   5.507   1.345
 8491SOL    HW226373   2.582   5.638   1.377
 8492SOL     OW26374   5.033   4.053   5.194
 8492SOL    HW126375   5.022   4.147   5.161
 8492SOL    HW226376   5.124   4.020   5.171
 8493SOL     OW26377   2.466   2.837   6.371
 8493SOL    HW126378   2.424   2.813   6.283
 8493SOL    HW226379   2.406   2.898   6.422
 8494SOL     OW26380   3.934   5.512   1.619
 8494SOL    HW126381   3.880   5.585   1.662
 8494SOL    HW226382   4.031   5.532   1.630
 8495SOL     OW26383   6.421   4.999   2.213
 8495SOL    HW126384   6.393   5.061   2.286
 8495SOL    HW226385   6.437   5.051   2.129
 8496SOL     OW26386   1.156   2.099   2.302
 8496SOL    HW126387   1.056   2.089   2.297
 8496SOL    HW226388   1.196   2.065   2.217
 8497SOL     OW26389   6.911   0.724   3.990
 8497SOL    HW126390   6.867   0.811   4.014
 8497SOL    HW226391   7.010   0.733   4.001
 8498SOL     OW26392   6.109   6.028   3.271
 8498SOL    HW126393   6.155   6.113   3.297
 8498SOL    HW226394   6.129   5.957   3.339
 8499SOL     OW26395   1.822   4.398   6.764
 8499SOL    HW126396   1.796   4.465   6.834
 8499SOL    HW226397   1.917   4.370   6.779
 8500SOL     OW26398   1.380   6.623   5.717
 8500SOL    HW126399   1.369   6.670   5.629
 8500SOL    HW226400   1.452   6.554   5.709
 8501SOL     OW26401   0.276   2.376   6.904
 8501SOL    HW126402   0.370   2.382   6.935
 8501SOL    HW226403   0.258   2.448   6.836
 8502SOL     OW26404   0.605   3.668   1.470
 8502SOL    HW126405   0.625   3.584   1.421
 8502SOL    HW226406   0.675   3.683   1.541
 8503SOL     OW26407   0.708   6.345   4.189
 8503SOL    HW126408   0.771   6.369   4.115
 8503SOL    HW226409   0.703   6.245   4.198
 8504SOL     OW26410   2.412   4.767   2.605
 8504SOL    HW126411   2.398   4.853   2.557
 8504SOL    HW226412   2.330   4.710   2.596
 8505SOL     OW26413   5.387   3.221   3.414
 8505SOL    HW126414   5.403   3.137   3.465
 8505SOL    HW226415   5.414   3.299   3.470
 8506SOL     OW26416   0.855   0.806   6.853
 8506SOL    HW126417   0.928   0.874   6.850
 8506SOL    HW226418   0.892   0.717   6.826
 8507SOL     OW26419   3.734   0.619   4.851
 8507SOL    HW126420   3.789   0.641   4.932
 8507SOL    HW226421   3.680   0.699   4.824
 8508SOL     OW26422   5.186   1.714   4.762
 8508SOL    HW126423   5.093   1.734   4.733
 8508SOL    HW226424   5.220   1.789   4.819
 8509SOL     OW26425   4.545   1.247   4.255
 8509SOL    HW126426   4.506   1.312   4.190
 8509SOL    HW226427   4.560   1.159   4.210
 8510SOL     OW26428   5.672   4.177   2.783
 8510SOL    HW126429   5.630   4.254   2.830
 8510SOL    HW226430   5.608   4.139   2.717
 8511SOL     OW26431   5.883   4.353   2.193
 8511SOL    HW126432   5.955   4.312   2.137
 8511SOL    HW226433   5.881   4.308   2.283
 8512SOL     OW26434   3.124   1.866   1.601
 8512SOL    HW126435   3.050   1.845   1.538
 8512SOL    HW226436   3.153   1.782   1.648
 8513SOL     OW26437   6.403   5.157   0.872
 8513SOL    HW126438   6.464   5.223   0.830
 8513SOL    HW226439   6.457   5.090   0.924
 8514SOL     OW26440   2.551   2.468   4.144
 8514SOL    HW126441   2.572   2.403   4.070
 8514SOL    HW226442   2.512   2.551   4.105
 8515SOL     OW26443   4.618   2.224   1.131
 8515SOL    HW126444   4.556   2.231   1.053
 8515SOL    HW226445   4.660   2.133   1.132
 8516SOL     OW26446   5.988   2.236   2.018
 8516SOL    HW126447   6.079   2.202   2.041
 8516SOL    HW226448   5.954   2.295   2.091
 8517SOL     OW26449   0.925   2.664   6.700
 8517SOL    HW126450   0.901   2.585   6.756
 8517SOL    HW226451   0.916   2.640   6.603
 8518SOL     OW26452   4.485   4.566   6.984
 8518SOL    HW126453   4.561   4.598   0.014
 8518SOL    HW226454   4.500   4.593   6.888
 8519SOL     OW26455   1.846   4.961   1.781
 8519SOL    HW126456   1.799   4.954   1.693
 8519SOL    HW226457   1.815   5.043   1.829
 8520SOL     OW26458   3.186   2.360   0.226
 8520SOL    HW126459   3.132   2.444   0.228
 8520SOL    HW226460   3.266   2.370   0.284
 8521SOL     OW26461   1.653   4.644   6.074
 8521SOL    HW126462   1.722   4.690   6.019
 8521SOL    HW226463   1.664   4.669   6.170
 8522SOL     OW26464   1.296   5.735   1.615
 8522SOL    HW126465   1.355   5.662   1.649
 8522SOL    HW226466   1.203   5.700   1.602
 8523SOL     OW26467   3.339   6.921   6.653
 8523SOL    HW126468   3.252   6.964   6.627
 8523SOL    HW226469   3.353   6.931   6.751
 8524SOL     OW26470   0.871   2.356   4.823
 8524SOL    HW126471   0.781   2.349   4.780
 8524SOL    HW226472   0.861   2.366   4.922
 8525SOL     OW26473   6.309   4.169   3.178
 8525SOL    HW126474   6.219   4.204   3.153
 8525SOL    HW226475   6.308   4.135   3.272
 8526SOL     OW26476   3.670   5.086   6.800
 8526SOL    HW126477   3.725   5.150   6.855
 8526SOL    HW226478   3.616   5.028   6.861
 8527SOL     OW26479   3.062   0.708   5.600
 8527SOL    HW126480   3.076   0.657   5.514
 8527SOL    HW226481   2.966   0.702   5.626
 8528SOL     OW26482   4.797   2.680   5.962
 8528SOL    HW126483   4.730   2.722   5.901
 8528SOL    HW226484   4.776   2.583   5.973
 8529SOL     OW26485   0.600   7.009   1.076
 8529SOL    HW126486   0.654   0.059   1.113
 8529SOL    HW226487   0.528   6.984   1.141
 8530SOL     OW26488   2.402   3.728   5.358
 8530SOL    HW126489   2.499   3.727   5.380
 8530SOL    HW226490   2.378   3.816   5.318
 8531SOL     OW26491   6.960   4.434   1.797
 8531SOL    HW126492   0.019   4.480   1.826
 8531SOL    HW226493   6.963   4.419   1.698
 8532SOL     OW26494   4.092   4.835   4.795
 8532SOL    HW126495   3.995   4.849   4.815
 8532SOL    HW226496   4.134   4.922   4.767
 8533SOL     OW26497   2.056   0.187   6.103
 8533SOL    HW126498   2.037   0.268   6.048
 8533SOL    HW226499   2.108   0.121   6.049
 8534SOL     OW26500   6.497   3.129   4.576
 8534SOL    HW126501   6.438   3.156   4.501
 8534SOL    HW226502   6.448   3.067   4.638
 8535SOL     OW26503   0.295   2.084   4.710
 8535SOL    HW126504   0.324   2.170   4.669
 8535SOL    HW226505   0.375   2.029   4.732
 8536SOL     OW26506   5.985   2.507   4.938
 8536SOL    HW126507   5.918   2.440   4.971
 8536SOL    HW226508   6.074   2.463   4.927
 8537SOL     OW26509   5.466   1.454   2.731
 8537SOL    HW126510   5.458   1.462   2.631
 8537SOL    HW226511   5.394   1.393   2.765
 8538SOL     OW26512   1.072   1.356   5.874
 8538SOL    HW126513   1.171   1.344   5.886
 8538SOL    HW226514   1.051   1.365   5.776
 8539SOL     OW26515   6.332   1.376   2.080
 8539SOL    HW126516   6.417   1.366   2.029
 8539SOL    HW226517   6.327   1.468   2.118
 8540SOL     OW26518   4.368   1.580   0.139
 8540SOL    HW126519   4.424   1.498   0.131
 8540SOL    HW226520   4.397   1.632   0.219
 8541SOL     OW26521   3.103   2.182   4.229
 8541SOL    HW126522   3.058   2.175   4.318
 8541SOL    HW226523   3.039   2.218   4.161
 8542SOL     OW26524   2.378   4.370   6.175
 8542SOL    HW126525   2.420   4.405   6.259
 8542SOL    HW226526   2.440   4.306   6.131
 8543SOL     OW26527   3.135   1.335   0.097
 8543SOL    HW126528   3.085   1.302   0.177
 8543SOL    HW226529   3.073   1.388   0.039
 8544SOL     OW26530   5.493   3.021   4.314
 8544SOL    HW126531   5.541   2.960   4.252
 8544SOL    HW226532   5.557   3.056   4.383
 8545SOL     OW26533   5.039   6.988   4.172
 8545SOL    HW126534   4.987   6.907   4.200
 8545SOL    HW226535   4.978   0.042   4.169
 8546SOL     OW26536   0.840   0.088   2.898
 8546SOL    HW126537   0.772   0.032   2.851
 8546SOL    HW226538   0.826   0.184   2.874
 8547SOL     OW26539   1.016   6.932   6.618
 8547SOL    HW126540   1.025   7.014   6.562
 8547SOL    HW226541   0.990   6.957   6.711
 8548SOL     OW26542   6.880   2.749   5.955
 8548SOL    HW126543   6.961   2.749   5.896
 8548SOL    HW226544   6.902   2.704   6.042
 8549SOL     OW26545   0.917   2.779   4.523
 8549SOL    HW126546   0.892   2.874   4.544
 8549SOL    HW226547   0.835   2.729   4.493
 8550SOL     OW26548   1.142   5.379   0.437
 8550SOL    HW126549   1.233   5.380   0.396
 8550SOL    HW226550   1.074   5.353   0.368
 8551SOL     OW26551   2.670   2.723   0.044
 8551SOL    HW126552   2.690   2.801   7.010
 8551SOL    HW226553   2.728   2.646   0.019
 8552SOL     OW26554   2.090   0.450   2.922
 8552SOL    HW126555   2.094   0.483   3.016
 8552SOL    HW226556   2.183   0.431   2.889
 8553SOL     OW26557   4.486   4.609   6.697
 8553SOL    HW126558   4.522   4.683   6.641
 8553SOL    HW226559   4.424   4.552   6.643
 8554SOL     OW26560   0.383   5.206   0.713
 8554SOL    HW126561   0.315   5.197   0.641
 8554SOL    HW226562   0.402   5.303   0.729
 8555SOL     OW26563   3.048   0.963   3.380
 8555SOL    HW126564   3.014   1.027   3.311
 8555SOL    HW226565   3.138   0.930   3.352
 8556SOL     OW26566   2.273   6.592   5.323
 8556SOL    HW126567   2.201   6.569   5.389
 8556SOL    HW226568   2.248   6.556   5.233
 8557SOL     OW26569   6.659   6.560   2.834
 8557SOL    HW126570   6.702   6.566   2.924
 8557SOL    HW226571   6.652   6.652   2.795
 8558SOL     OW26572   2.489   5.367   2.748
 8558SOL    HW126573   2.529   5.276   2.735
 8558SOL    HW226574   2.490   5.390   2.845
 8559SOL     OW26575   1.748   0.034   2.523
 8559SOL    HW126576   1.787   7.018   2.440
 8559SOL    HW226577   1.800   0.002   2.603
 8560SOL     OW26578   0.930   6.095   1.827
 8560SOL    HW126579   0.975   6.152   1.758
 8560SOL    HW226580   0.840   6.067   1.793
 8561SOL     OW26581   3.468   0.257   3.198
 8561SOL    HW126582   3.565   0.270   3.175
 8561SOL    HW226583   3.438   0.167   3.167
 8562SOL     OW26584   4.319   6.557   6.274
 8562SOL    HW126585   4.295   6.531   6.368
 8562SOL    HW226586   4.365   6.481   6.229
 8563SOL     OW26587   0.754   5.037   1.191
 8563SOL    HW126588   0.851   5.036   1.216
 8563SOL    HW226589   0.728   5.128   1.160
 8564SOL     OW26590   3.091   0.567   4.866
 8564SOL    HW126591   3.048   0.486   4.824
 8564SOL    HW226592   3.065   0.571   4.963
 8565SOL     OW26593   3.686   4.906   0.897
 8565SOL    HW126594   3.586   4.908   0.892
 8565SOL    HW226595   3.715   4.906   0.993
 8566SOL     OW26596   0.477   6.324   1.635
 8566SOL    HW126597   0.378   6.313   1.626
 8566SOL    HW226598   0.502   6.419   1.619
 8567SOL     OW26599   6.741   1.685   2.630
 8567SOL    HW126600   6.716   1.719   2.539
 8567SOL    HW226601   6.745   1.585   2.628
 8568SOL     OW26602   5.366   1.402   6.881
 8568SOL    HW126603   5.361   1.345   6.963
 8568SOL    HW226604   5.460   1.399   6.845
 8569SOL     OW26605   4.585   1.634   5.727
 8569SOL    HW126606   4.590   1.636   5.628
 8569SOL    HW226607   4.678   1.634   5.765
 8570SOL     OW26608   1.735   1.373   4.383
 8570SOL    HW126609   1.804   1.401   4.450
 8570SOL    HW226610   1.670   1.447   4.368
 8571SOL     OW26611   0.268   6.002   5.763
 8571SOL    HW126612   0.300   5.921   5.715
 8571SOL    HW226613   0.330   6.079   5.744
 8572SOL     OW26614   2.706   4.447   5.963
 8572SOL    HW126615   2.762   4.459   6.045
 8572SOL    HW226616   2.672   4.353   5.960
 8573SOL     OW26617   3.143   6.171   6.450
 8573SOL    HW126618   3.081   6.216   6.385
 8573SOL    HW226619   3.148   6.074   6.429
 8574SOL     OW26620   6.624   0.133   6.491
 8574SOL    HW126621   6.598   0.222   6.530
 8574SOL    HW226622   6.618   0.063   6.562
 8575SOL     OW26623   2.284   2.045   3.188
 8575SOL    HW126624   2.333   2.131   3.173
 8575SOL    HW226625   2.240   2.047   3.278
 8576SOL     OW26626   1.520   4.290   4.899
 8576SOL    HW126627   1.585   4.252   4.965
 8576SOL    HW226628   1.543   4.258   4.807
 8577SOL     OW26629   1.805   6.679   5.396
 8577SOL    HW126630   1.776   6.603   5.338
 8577SOL    HW226631   1.853   6.747   5.341
 8578SOL     OW26632   6.294   5.987   4.727
 8578SOL    HW126633   6.315   5.910   4.788
 8578SOL    HW226634   6.204   6.025   4.751
 8579SOL     OW26635   1.719   6.996   2.059
 8579SOL    HW126636   1.726   6.907   2.014
 8579SOL    HW226637   1.808   7.021   2.098
 8580SOL     OW26638   1.832   6.335   1.131
 8580SOL    HW126639   1.888   6.398   1.078
 8580SOL    HW226640   1.751   6.309   1.079
 8581SOL     OW26641   3.177   3.819   1.569
 8581SOL    HW126642   3.181   3.731   1.616
 8581SOL    HW226643   3.174   3.804   1.470
 8582SOL     OW26644   4.742   4.304   4.881
 8582SOL    HW126645   4.751   4.392   4.836
 8582SOL    HW226646   4.663   4.306   4.943
 8583SOL     OW26647   4.845   0.396   4.438
 8583SOL    HW126648   4.897   0.462   4.383
 8583SOL    HW226649   4.769   0.360   4.383
 8584SOL     OW26650   0.525   6.011   6.596
 8584SOL    HW126651   0.436   6.013   6.549
 8584SOL    HW226652   0.538   6.096   6.646
 8585SOL     OW26653   6.581   0.965   6.854
 8585SOL    HW126654   6.509   0.952   6.785
 8585SOL    HW226655   6.580   1.059   6.886
 8586SOL     OW26656   3.195   6.748   1.817
 8586SOL    HW126657   3.134   6.770   1.893
 8586SOL    HW226658   3.290   6.761   1.846
 8587SOL     OW26659   0.779   0.577   4.481
 8587SOL    HW126660   0.742   0.538   4.565
 8587SOL    HW226661   0.805   0.503   4.419
 8588SOL     OW26662   4.058   0.921   0.381
 8588SOL    HW126663   4.064   1.020   0.394
 8588SOL    HW226664   3.967   0.889   0.409
 8589SOL     OW26665   5.550   2.977   5.789
 8589SOL    HW126666   5.458   2.939   5.798
 8589SOL    HW226667   5.617   2.903   5.789
 8590SOL     OW26668   0.177   0.222   2.861
 8590SOL    HW126669   0.263   0.253   2.901
 8590SOL    HW226670   0.109   0.295   2.865
 8591SOL     OW26671   0.402   4.252   0.576
 8591SOL    HW126672   0.326   4.203   0.620
 8591SOL    HW226673   0.488   4.227   0.620
 8592SOL     OW26674   5.670   2.153   6.655
 8592SOL    HW126675   5.586   2.159   6.709
 8592SOL    HW226676   5.696   2.244   6.623
 8593SOL     OW26677   2.645   1.233   0.318
 8593SOL    HW126678   2.625   1.196   0.227
 8593SOL    HW226679   2.627   1.163   0.387
 8594SOL     OW26680   4.610   2.801   5.119
 8594SOL    HW126681   4.523   2.830   5.079
 8594SOL    HW226682   4.609   2.817   5.217
 8595SOL     OW26683   0.735   0.666   3.684
 8595SOL    HW126684   0.812   0.703   3.737
 8595SOL    HW226685   0.684   0.741   3.643
 8596SOL     OW26686   1.053   4.581   2.791
 8596SOL    HW126687   1.138   4.529   2.800
 8596SOL    HW226688   1.034   4.628   2.877
 8597SOL     OW26689   4.616   2.108   1.462
 8597SOL    HW126690   4.611   2.041   1.536
 8597SOL    HW226691   4.619   2.060   1.374
 8598SOL     OW26692   6.286   0.345   0.295
 8598SOL    HW126693   6.268   0.430   0.344
 8598SOL    HW226694   6.277   0.361   0.197
 8599SOL     OW26695   1.544   2.579   4.507
 8599SOL    HW126696   1.506   2.487   4.498
 8599SOL    HW226697   1.632   2.583   4.459
 8600SOL     OW26698   5.282   4.227   6.739
 8600SOL    HW126699   5.298   4.130   6.719
 8600SOL    HW226700   5.214   4.263   6.675
 8601SOL     OW26701   1.174   1.301   4.445
 8601SOL    HW126702   1.171   1.381   4.386
 8601SOL    HW226703   1.084   1.257   4.448
 8602SOL     OW26704   2.952   6.201   2.312
 8602SOL    HW126705   2.898   6.117   2.319
 8602SOL    HW226706   2.950   6.249   2.400
 8603SOL     OW26707   5.180   5.900   1.026
 8603SOL    HW126708   5.084   5.924   1.037
 8603SOL    HW226709   5.207   5.913   0.930
 8604SOL     OW26710   0.549   2.531   4.970
 8604SOL    HW126711   0.487   2.557   4.896
 8604SOL    HW226712   0.576   2.613   5.021
 8605SOL     OW26713   2.719   5.400   4.114
 8605SOL    HW126714   2.762   5.314   4.084
 8605SOL    HW226715   2.622   5.398   4.091
 8606SOL     OW26716   1.846   3.567   6.188
 8606SOL    HW126717   1.878   3.624   6.264
 8606SOL    HW226718   1.921   3.553   6.123
 8607SOL     OW26719   3.225   5.058   6.359
 8607SOL    HW126720   3.247   5.054   6.262
 8607SOL    HW226721   3.291   5.116   6.407
 8608SOL     OW26722   2.799   4.816   2.452
 8608SOL    HW126723   2.764   4.761   2.376
 8608SOL    HW226724   2.782   4.769   2.539
 8609SOL     OW26725   5.250   0.606   2.632
 8609SOL    HW126726   5.313   0.535   2.600
 8609SOL    HW226727   5.303   0.682   2.671
 8610SOL     OW26728   0.939   2.116   2.990
 8610SOL    HW126729   0.947   2.154   2.898
 8610SOL    HW226730   0.995   2.170   3.053
 8611SOL     OW26731   3.328   2.113   4.866
 8611SOL    HW126732   3.320   2.134   4.769
 8611SOL    HW226733   3.260   2.165   4.917
 8612SOL     OW26734   2.566   3.335   0.568
 8612SOL    HW126735   2.578   3.250   0.618
 8612SOL    HW226736   2.472   3.368   0.579
 8613SOL     OW26737   2.682   1.581   1.504
 8613SOL    HW126738   2.670   1.660   1.564
 8613SOL    HW226739   2.769   1.536   1.525
 8614SOL     OW26740   1.164   2.915   3.956
 8614SOL    HW126741   1.098   2.844   3.932
 8614SOL    HW226742   1.224   2.932   3.878
 8615SOL     OW26743   4.703   2.014   5.109
 8615SOL    HW126744   4.748   2.073   5.177
 8615SOL    HW226745   4.752   2.019   5.023
 8616SOL     OW26746   3.060   4.576   1.684
 8616SOL    HW126747   3.114   4.657   1.705
 8616SOL    HW226748   2.999   4.555   1.760
 8617SOL     OW26749   6.140   0.952   5.397
 8617SOL    HW126750   6.216   0.994   5.348
 8617SOL    HW226751   6.157   0.854   5.407
 8618SOL     OW26752   6.159   4.781   1.181
 8618SOL    HW126753   6.161   4.749   1.276
 8618SOL    HW226754   6.252   4.806   1.153
 8619SOL     OW26755   4.069   4.948   2.067
 8619SOL    HW126756   3.989   4.897   2.098
 8619SOL    HW226757   4.147   4.927   2.127
 8620SOL     OW26758   1.737   6.945   3.664
 8620SOL    HW126759   1.770   6.852   3.679
 8620SOL    HW226760   1.637   6.944   3.652
 8621SOL     OW26761   5.708   1.849   2.520
 8621SOL    HW126762   5.667   1.940   2.525
 8621SOL    HW226763   5.657   1.793   2.455
 8622SOL     OW26764   5.192   3.170   1.163
 8622SOL    HW126765   5.170   3.102   1.233
 8622SOL    HW226766   5.148   3.144   1.077
 8623SOL     OW26767   1.114   3.962   4.818
 8623SOL    HW126768   1.184   3.917   4.762
 8623SOL    HW226769   1.132   4.061   4.820
 8624SOL     OW26770   2.013   3.718   4.692
 8624SOL    HW126771   2.068   3.636   4.705
 8624SOL    HW226772   1.926   3.694   4.649
 8625SOL     OW26773   4.359   1.179   6.012
 8625SOL    HW126774   4.372   1.240   5.934
 8625SOL    HW226775   4.292   1.108   5.989
 8626SOL     OW26776   3.351   2.690   6.649
 8626SOL    HW126777   3.294   2.608   6.651
 8626SOL    HW226778   3.426   2.681   6.715
 8627SOL     OW26779   0.977   1.393   2.979
 8627SOL    HW126780   0.882   1.423   2.971
 8627SOL    HW226781   0.986   1.300   2.944
 8628SOL     OW26782   6.606   6.678   0.523
 8628SOL    HW126783   6.536   6.607   0.536
 8628SOL    HW226784   6.690   6.636   0.488
 8629SOL     OW26785   2.073   5.884   5.069
 8629SOL    HW126786   2.096   5.794   5.106
 8629SOL    HW226787   2.141   5.911   5.001
 8630SOL     OW26788   5.672   4.225   4.245
 8630SOL    HW126789   5.735   4.150   4.222
 8630SOL    HW226790   5.718   4.289   4.306
 8631SOL     OW26791   0.407   5.520   6.857
 8631SOL    HW126792   0.428   5.422   6.849
 8631SOL    HW226793   0.442   5.568   6.776
 8632SOL     OW26794   4.116   5.114   4.929
 8632SOL    HW126795   4.139   5.188   4.865
 8632SOL    HW226796   4.192   5.102   4.993
 8633SOL     OW26797   5.446   2.140   5.874
 8633SOL    HW126798   5.370   2.194   5.839
 8633SOL    HW226799   5.424   2.042   5.864
 8634SOL     OW26800   4.909   3.978   0.291
 8634SOL    HW126801   4.992   3.997   0.344
 8634SOL    HW226802   4.922   3.896   0.236
 8635SOL     OW26803   4.924   3.179   6.352
 8635SOL    HW126804   4.934   3.143   6.444
 8635SOL    HW226805   4.925   3.103   6.286
 8636SOL     OW26806   5.845   6.005   0.671
 8636SOL    HW126807   5.778   6.065   0.715
 8636SOL    HW226808   5.925   5.995   0.731
 8637SOL     OW26809   2.966   0.756   0.105
 8637SOL    HW126810   2.935   0.850   0.113
 8637SOL    HW226811   2.888   0.696   0.087
 8638SOL     OW26812   3.511   2.151   5.079
 8638SOL    HW126813   3.447   2.156   5.002
 8638SOL    HW226814   3.474   2.204   5.156
 8639SOL     OW26815   5.399   2.457   0.021
 8639SOL    HW126816   5.348   2.371   0.012
 8639SOL    HW226817   5.405   2.482   0.118
 8640SOL     OW26818   4.139   4.022   0.089
 8640SOL    HW126819   4.060   4.047   0.144
 8640SOL    HW226820   4.210   3.983   0.148
 8641SOL     OW26821   4.536   4.553   4.002
 8641SOL    HW126822   4.614   4.614   4.008
 8641SOL    HW226823   4.494   4.559   3.911
 8642SOL     OW26824   0.950   6.127   3.925
 8642SOL    HW126825   0.996   6.205   3.882
 8642SOL    HW226826   1.007   6.045   3.915
 8643SOL     OW26827   2.771   0.712   6.150
 8643SOL    HW126828   2.672   0.705   6.141
 8643SOL    HW226829   2.813   0.624   6.128
 8644SOL     OW26830   5.434   2.318   5.070
 8644SOL    HW126831   5.412   2.415   5.059
 8644SOL    HW226832   5.428   2.294   5.167
 8645SOL     OW26833   4.283   4.590   1.093
 8645SOL    HW126834   4.186   4.577   1.114
 8645SOL    HW226835   4.293   4.604   0.994
 8646SOL     OW26836   0.414   2.218   0.450
 8646SOL    HW126837   0.415   2.129   0.496
 8646SOL    HW226838   0.417   2.205   0.351
 8647SOL     OW26839   2.381   4.878   6.656
 8647SOL    HW126840   2.349   4.838   6.742
 8647SOL    HW226841   2.480   4.867   6.650
 8648SOL     OW26842   6.751   0.156   2.736
 8648SOL    HW126843   6.818   0.224   2.706
 8648SOL    HW226844   6.661   0.200   2.746
 8649SOL     OW26845   5.436   5.828   6.856
 8649SOL    HW126846   5.351   5.777   6.863
 8649SOL    HW226847   5.498   5.782   6.793
 8650SOL     OW26848   2.259   5.049   4.262
 8650SOL    HW126849   2.321   4.972   4.248
 8650SOL    HW226850   2.277   5.120   4.193
 8651SOL     OW26851   4.479   1.288   0.573
 8651SOL    HW126852   4.399   1.253   0.622
 8651SOL    HW226853   4.454   1.370   0.521
 8652SOL     OW26854   1.772   4.971   3.385
 8652SOL    HW126855   1.676   4.996   3.402
 8652SOL    HW226856   1.812   5.035   3.319
 8653SOL     OW26857   6.608   1.001   6.106
 8653SOL    HW126858   6.516   1.010   6.145
 8653SOL    HW226859   6.672   1.059   6.157
 8654SOL     OW26860   0.344   4.827   2.229
 8654SOL    HW126861   0.370   4.792   2.319
 8654SOL    HW226862   0.406   4.790   2.160
 8655SOL     OW26863   5.811   0.349   3.743
 8655SOL    HW126864   5.795   0.264   3.692
 8655SOL    HW226865   5.847   0.328   3.833
 8656SOL     OW26866   6.590   0.148   1.630
 8656SOL    HW126867   6.531   0.228   1.623
 8656SOL    HW226868   6.565   0.095   1.710
 8657SOL     OW26869   4.839   5.495   6.985
 8657SOL    HW126870   4.827   5.551   0.041
 8657SOL    HW226871   4.849   5.399   7.011
 8658SOL     OW26872   6.389   6.697   0.225
 8658SOL    HW126873   6.415   6.627   0.292
 8658SOL    HW226874   6.301   6.674   0.185
 8659SOL     OW26875   4.687   2.248   2.352
 8659SOL    HW126876   4.642   2.332   2.383
 8659SOL    HW226877   4.753   2.270   2.281
 8660SOL     OW26878   6.934   3.503   1.738
 8660SOL    HW126879   6.866   3.576   1.745
 8660SOL    HW226880   6.941   3.473   1.643
 8661SOL     OW26881   6.816   3.766   1.181
 8661SOL    HW126882   6.872   3.710   1.120
 8661SOL    HW226883   6.793   3.714   1.262
 8662SOL     OW26884   4.073   5.934   1.287
 8662SOL    HW126885   4.105   5.901   1.198
 8662SOL    HW226886   4.127   6.013   1.315
 8663SOL     OW26887   2.653   5.684   2.239
 8663SOL    HW126888   2.660   5.780   2.266
 8663SOL    HW226889   2.665   5.626   2.319
 8664SOL     OW26890   1.383   6.353   1.098
 8664SOL    HW126891   1.378   6.263   1.055
 8664SOL    HW226892   1.458   6.405   1.058
 8665SOL     OW26893   5.727   5.619   5.295
 8665SOL    HW126894   5.666   5.640   5.219
 8665SOL    HW226895   5.699   5.531   5.336
 8666SOL     OW26896   5.284   0.933   3.824
 8666SOL    HW126897   5.186   0.925   3.844
 8666SOL    HW226898   5.318   0.847   3.787
 8667SOL     OW26899   3.759   1.834   3.729
 8667SOL    HW126900   3.737   1.839   3.826
 8667SOL    HW226901   3.674   1.828   3.676
 8668SOL     OW26902   5.296   3.412   3.596
 8668SOL    HW126903   5.343   3.499   3.582
 8668SOL    HW226904   5.212   3.427   3.647
 8669SOL     OW26905   1.139   6.375   6.664
 8669SOL    HW126906   1.213   6.380   6.597
 8669SOL    HW226907   1.066   6.438   6.637
 8670SOL     OW26908   4.346   5.070   5.879
 8670SOL    HW126909   4.272   5.007   5.905
 8670SOL    HW226910   4.307   5.156   5.848
 8671SOL     OW26911   5.122   1.463   3.440
 8671SOL    HW126912   5.160   1.373   3.462
 8671SOL    HW226913   5.121   1.475   3.341
 8672SOL     OW26914   1.292   4.915   3.903
 8672SOL    HW126915   1.359   4.883   3.836
 8672SOL    HW226916   1.284   4.848   3.977
 8673SOL     OW26917   5.211   2.448   6.556
 8673SOL    HW126918   5.235   2.498   6.473
 8673SOL    HW226919   5.280   2.463   6.626
 8674SOL     OW26920   4.858   6.022   2.671
 8674SOL    HW126921   4.819   6.083   2.739
 8674SOL    HW226922   4.812   5.933   2.674
 8675SOL     OW26923   4.258   1.890   4.995
 8675SOL    HW126924   4.317   1.827   4.945
 8675SOL    HW226925   4.197   1.838   5.055
 8676SOL     OW26926   5.666   6.769   3.424
 8676SOL    HW126927   5.643   6.672   3.436
 8676SOL    HW226928   5.597   6.826   3.469
 8677SOL     OW26929   2.127   5.257   6.493
 8677SOL    HW126930   2.182   5.250   6.409
 8677SOL    HW226931   2.176   5.211   6.568
 8678SOL     OW26932   0.181   0.339   1.513
 8678SOL    HW126933   0.202   0.407   1.443
 8678SOL    HW226934   0.090   0.355   1.550
 8679SOL     OW26935   0.875   1.500   3.374
 8679SOL    HW126936   0.944   1.512   3.303
 8679SOL    HW226937   0.917   1.517   3.464
 8680SOL     OW26938   6.680   3.159   6.844
 8680SOL    HW126939   6.625   3.187   6.922
 8680SOL    HW226940   6.711   3.065   6.856
 8681SOL     OW26941   4.737   5.628   1.452
 8681SOL    HW126942   4.781   5.558   1.396
 8681SOL    HW226943   4.776   5.626   1.544
 8682SOL     OW26944   5.588   6.912   2.676
 8682SOL    HW126945   5.488   6.913   2.688
 8682SOL    HW226946   5.619   7.005   2.654
 8683SOL     OW26947   1.676   2.346   4.955
 8683SOL    HW126948   1.698   2.401   4.875
 8683SOL    HW226949   1.743   2.364   5.027
 8684SOL     OW26950   6.092   2.750   4.950
 8684SOL    HW126951   6.055   2.810   4.879
 8684SOL    HW226952   6.058   2.657   4.935
 8685SOL     OW26953   6.501   2.096   6.396
 8685SOL    HW126954   6.544   2.008   6.412
 8685SOL    HW226955   6.475   2.137   6.484
 8686SOL     OW26956   0.059   1.101   3.071
 8686SOL    HW126957   0.088   1.081   2.978
 8686SOL    HW226958   7.014   1.036   3.099
 8687SOL     OW26959   4.594   5.245   2.265
 8687SOL    HW126960   4.563   5.239   2.360
 8687SOL    HW226961   4.667   5.314   2.259
 8688SOL     OW26962   0.630   5.046   5.990
 8688SOL    HW126963   0.689   5.126   6.003
 8688SOL    HW226964   0.625   4.994   6.075
 8689SOL     OW26965   3.653   3.071   1.049
 8689SOL    HW126966   3.676   2.996   1.112
 8689SOL    HW226967   3.707   3.151   1.073
 8690SOL     OW26968   1.585   4.120   3.807
 8690SOL    HW126969   1.677   4.155   3.790
 8690SOL    HW226970   1.545   4.089   3.720
 8691SOL     OW26971   3.918   2.315   6.450
 8691SOL    HW126972   3.832   2.366   6.455
 8691SOL    HW226973   3.985   2.370   6.399
 8692SOL     OW26974   3.060   1.386   4.534
 8692SOL    HW126975   3.006   1.465   4.506
 8692SOL    HW226976   3.084   1.331   4.453
 8693SOL     OW26977   5.604   0.155   0.296
 8693SOL    HW126978   5.654   0.213   0.361
 8693SOL    HW226979   5.669   0.109   0.236
 8694SOL     OW26980   5.330   1.349   4.613
 8694SOL    HW126981   5.315   1.395   4.700
 8694SOL    HW226982   5.281   1.262   4.613
 8695SOL     OW26983   4.853   3.254   5.682
 8695SOL    HW126984   4.791   3.188   5.640
 8695SOL    HW226985   4.946   3.240   5.647
 8696SOL     OW26986   2.467   5.252   5.181
 8696SOL    HW126987   2.375   5.265   5.145
 8696SOL    HW226988   2.488   5.155   5.188
 8697SOL     OW26989   0.502   3.848   6.399
 8697SOL    HW126990   0.447   3.914   6.452
 8697SOL    HW226991   0.540   3.780   6.461
 8698SOL     OW26992   5.015   6.082   5.145
 8698SOL    HW126993   4.995   6.100   5.049
 8698SOL    HW226994   5.113   6.085   5.160
 8699SOL     OW26995   1.314   3.519   4.797
 8699SOL    HW126996   1.251   3.514   4.875
 8699SOL    HW226997   1.364   3.433   4.790
 8700SOL     OW26998   1.069   0.341   4.654
 8700SOL    HW126999   1.021   0.350   4.741
 8700SOL    HW227000   1.165   0.318   4.671
 8701SOL     OW27001   1.400   1.125   6.793
 8701SOL    HW127002   1.351   1.071   6.862
 8701SOL    HW227003   1.436   1.208   6.836
 8702SOL     OW27004   5.518   5.015   1.923
 8702SOL    HW127005   5.440   5.078   1.920
 8702SOL    HW227006   5.491   4.931   1.969
 8703SOL     OW27007   3.190   5.206   6.941
 8703SOL    HW127008   3.097   5.207   6.979
 8703SOL    HW227009   3.239   5.127   6.977
 8704SOL     OW27010   0.724   4.044   3.518
 8704SOL    HW127011   0.712   4.140   3.490
 8704SOL    HW227012   0.634   4.002   3.532
 8705SOL     OW27013   4.906   1.327   6.409
 8705SOL    HW127014   4.987   1.283   6.371
 8705SOL    HW227015   4.832   1.326   6.341
 8706SOL     OW27016   4.864   2.182   6.584
 8706SOL    HW127017   4.856   2.088   6.615
 8706SOL    HW227018   4.775   2.227   6.589
 8707SOL     OW27019   0.512   1.741   5.460
 8707SOL    HW127020   0.432   1.697   5.502
 8707SOL    HW227021   0.573   1.671   5.423
 8708SOL     OW27022   3.876   1.306   3.384
 8708SOL    HW127023   3.921   1.232   3.335
 8708SOL    HW227024   3.853   1.379   3.321
 8709SOL     OW27025   6.499   6.714   6.992
 8709SOL    HW127026   6.435   6.713   0.044
 8709SOL    HW227027   6.577   6.656   7.014
 8710SOL     OW27028   1.714   3.079   3.410
 8710SOL    HW127029   1.690   3.144   3.338
 8710SOL    HW227030   1.699   3.122   3.499
 8711SOL     OW27031   1.533   6.552   2.401
 8711SOL    HW127032   1.435   6.572   2.407
 8711SOL    HW227033   1.583   6.637   2.389
 8712SOL     OW27034   3.703   1.469   4.423
 8712SOL    HW127035   3.735   1.451   4.330
 8712SOL    HW227036   3.724   1.390   4.481
 8713SOL     OW27037   6.599   3.125   2.770
 8713SOL    HW127038   6.643   3.214   2.755
 8713SOL    HW227039   6.500   3.137   2.777
 8714SOL     OW27040   1.011   6.843   5.756
 8714SOL    HW127041   1.051   6.785   5.684
 8714SOL    HW227042   0.940   6.901   5.715
 8715SOL     OW27043   4.078   0.699   0.823
 8715SOL    HW127044   4.152   0.646   0.782
 8715SOL    HW227045   4.084   0.794   0.793
 8716SOL     OW27046   6.922   0.306   0.859
 8716SOL    HW127047   6.953   0.216   0.892
 8716SOL    HW227048   6.923   0.307   0.759
 8717SOL     OW27049   2.978   4.199   5.305
 8717SOL    HW127050   2.956   4.154   5.391
 8717SOL    HW227051   3.077   4.207   5.295
 8718SOL     OW27052   1.256   3.003   5.500
 8718SOL    HW127053   1.308   3.007   5.414
 8718SOL    HW227054   1.318   2.983   5.576
 8719SOL     OW27055   4.051   6.994   0.108
 8719SOL    HW127056   4.121   6.962   0.044
 8719SOL    HW227057   4.093   0.033   0.173
 8720SOL     OW27058   0.532   6.253   6.313
 8720SOL    HW127059   0.436   6.267   6.287
 8720SOL    HW227060   0.578   6.197   6.245
 8721SOL     OW27061   6.292   2.666   1.891
 8721SOL    HW127062   6.334   2.579   1.916
 8721SOL    HW227063   6.212   2.683   1.950
 8722SOL     OW27064   3.589   1.560   1.403
 8722SOL    HW127065   3.635   1.621   1.338
 8722SOL    HW227066   3.635   1.471   1.404
 8723SOL     OW27067   4.728   6.634   1.879
 8723SOL    HW127068   4.670   6.659   1.802
 8723SOL    HW227069   4.678   6.574   1.941
 8724SOL     OW27070   5.815   6.838   4.536
 8724SOL    HW127071   5.739   6.775   4.521
 8724SOL    HW227072   5.827   6.896   4.455
 8725SOL     OW27073   2.049   5.770   5.463
 8725SOL    HW127074   2.059   5.723   5.551
 8725SOL    HW227075   2.133   5.820   5.443
 8726SOL     OW27076   0.244   0.705   3.526
 8726SOL    HW127077   0.183   0.685   3.450
 8726SOL    HW227078   0.255   0.804   3.536
 8727SOL     OW27079   5.948   0.575   2.500
 8727SOL    HW127080   6.019   0.529   2.447
 8727SOL    HW227081   5.908   0.511   2.565
 8728SOL     OW27082   6.469   0.648   2.326
 8728SOL    HW127083   6.561   0.687   2.320
 8728SOL    HW227084   6.457   0.602   2.414
 8729SOL     OW27085   3.276   5.282   5.890
 8729SOL    HW127086   3.240   5.197   5.851
 8729SOL    HW227087   3.227   5.360   5.851
 8730SOL     OW27088   5.281   4.113   2.546
 8730SOL    HW127089   5.309   4.022   2.514
 8730SOL    HW227090   5.336   4.139   2.625
 8731SOL     OW27091   0.839   2.936   2.890
 8731SOL    HW127092   0.873   2.846   2.916
 8731SOL    HW227093   0.849   2.999   2.968
 8732SOL     OW27094   5.890   4.979   1.787
 8732SOL    HW127095   5.990   4.985   1.779
 8732SOL    HW227096   5.855   5.059   1.836
 8733SOL     OW27097   1.539   6.033   1.293
 8733SOL    HW127098   1.636   6.012   1.294
 8733SOL    HW227099   1.507   6.054   1.385
 8734SOL     OW27100   0.795   3.454   2.883
 8734SOL    HW127101   0.834   3.546   2.874
 8734SOL    HW227102   0.813   3.402   2.800
 8735SOL     OW27103   0.932   2.947   0.123
 8735SOL    HW127104   0.974   2.924   0.211
 8735SOL    HW227105   0.984   3.020   0.080
 8736SOL     OW27106   0.159   5.319   1.406
 8736SOL    HW127107   0.181   5.237   1.354
 8736SOL    HW227108   0.237   5.345   1.463
 8737SOL     OW27109   1.800   6.749   0.375
 8737SOL    HW127110   1.744   6.774   0.296
 8737SOL    HW227111   1.807   6.650   0.381
 8738SOL     OW27112   2.835   5.791   4.035
 8738SOL    HW127113   2.851   5.724   4.107
 8738SOL    HW227114   2.743   5.779   3.998
 8739SOL     OW27115   5.386   5.641   6.232
 8739SOL    HW127116   5.406   5.555   6.277
 8739SOL    HW227117   5.469   5.695   6.223
 8740SOL     OW27118   3.960   1.361   4.739
 8740SOL    HW127119   3.886   1.384   4.802
 8740SOL    HW227120   4.019   1.440   4.726
 8741SOL     OW27121   2.121   1.229   2.499
 8741SOL    HW127122   2.147   1.318   2.462
 8741SOL    HW227123   2.117   1.234   2.599
 8742SOL     OW27124   4.813   6.810   1.591
 8742SOL    HW127125   4.827   6.713   1.614
 8742SOL    HW227126   4.877   6.835   1.518
 8743SOL     OW27127   1.388   6.917   1.851
 8743SOL    HW127128   1.309   6.882   1.901
 8743SOL    HW227129   1.357   6.965   1.769
 8744SOL     OW27130   4.046   2.818   0.326
 8744SOL    HW127131   4.128   2.794   0.377
 8744SOL    HW227132   4.008   2.736   0.283
 8745SOL     OW27133   6.185   1.601   6.208
 8745SOL    HW127134   6.145   1.624   6.296
 8745SOL    HW227135   6.269   1.653   6.195
 8746SOL     OW27136   4.382   5.531   4.678
 8746SOL    HW127137   4.480   5.548   4.670
 8746SOL    HW227138   4.335   5.574   4.600
 8747SOL     OW27139   6.669   1.788   3.279
 8747SOL    HW127140   6.641   1.868   3.227
 8747SOL    HW227141   6.679   1.710   3.217
 8748SOL     OW27142   0.312   1.646   4.225
 8748SOL    HW127143   0.308   1.690   4.135
 8748SOL    HW227144   0.406   1.647   4.259
 8749SOL     OW27145   2.471   0.139   5.109
 8749SOL    HW127146   2.393   0.078   5.094
 8749SOL    HW227147   2.456   0.193   5.192
 8750SOL     OW27148   3.236   4.235   5.207
 8750SOL    HW127149   3.229   4.328   5.243
 8750SOL    HW227150   3.297   4.181   5.264
 8751SOL     OW27151   6.015   1.839   2.082
 8751SOL    HW127152   6.047   1.893   2.160
 8751SOL    HW227153   5.915   1.840   2.080
 8752SOL     OW27154   3.377   3.060   6.257
 8752SOL    HW127155   3.287   3.021   6.275
 8752SOL    HW227156   3.380   3.153   6.292
 8753SOL     OW27157   3.068   1.662   6.385
 8753SOL    HW127158   3.095   1.733   6.320
 8753SOL    HW227159   3.149   1.610   6.413
 8754SOL     OW27160   1.277   4.035   5.461
 8754SOL    HW127161   1.366   3.995   5.442
 8754SOL    HW227162   1.223   3.970   5.516
 8755SOL     OW27163   2.228   1.080   1.331
 8755SOL    HW127164   2.230   0.989   1.291
 8755SOL    HW227165   2.241   1.149   1.260
 8756SOL     OW27166   1.772   2.756   3.998
 8756SOL    HW127167   1.747   2.851   3.977
 8756SOL    HW227168   1.856   2.732   3.950
 8757SOL     OW27169   4.134   5.510   6.733
 8757SOL    HW127170   4.099   5.568   6.660
 8757SOL    HW227171   4.070   5.511   6.810
 8758SOL     OW27172   5.275   6.074   2.565
 8758SOL    HW127173   5.236   5.998   2.617
 8758SOL    HW227174   5.370   6.088   2.592
 8759SOL     OW27175   4.771   3.269   7.012
 8759SOL    HW127176   4.829   3.261   0.067
 8759SOL    HW227177   4.731   3.180   6.990
 8760SOL     OW27178   2.900   0.868   5.274
 8760SOL    HW127179   2.944   0.794   5.324
 8760SOL    HW227180   2.952   0.952   5.287
 8761SOL     OW27181   6.133   2.389   1.465
 8761SOL    HW127182   6.110   2.296   1.494
 8761SOL    HW227183   6.127   2.450   1.544
 8762SOL     OW27184   0.986   4.833   3.874
 8762SOL    HW127185   1.045   4.911   3.853
 8762SOL    HW227186   0.904   4.837   3.817
 8763SOL     OW27187   6.313   0.037   6.359
 8763SOL    HW127188   6.321   0.136   6.347
 8763SOL    HW227189   6.288   7.020   6.271
 8764SOL     OW27190   4.715   0.365   5.817
 8764SOL    HW127191   4.781   0.399   5.884
 8764SOL    HW227192   4.753   0.372   5.725
 8765SOL     OW27193   4.902   0.111   3.750
 8765SOL    HW127194   4.890   0.106   3.651
 8765SOL    HW227195   4.954   0.193   3.774
 8766SOL     OW27196   4.578   4.333   5.079
 8766SOL    HW127197   4.501   4.389   5.048
 8766SOL    HW227198   4.637   4.388   5.139
 8767SOL     OW27199   5.749   5.898   2.180
 8767SOL    HW127200   5.785   5.888   2.273
 8767SOL    HW227201   5.779   5.820   2.125
 8768SOL     OW27202   1.305   2.362   0.513
 8768SOL    HW127203   1.292   2.390   0.418
 8768SOL    HW227204   1.302   2.262   0.518
 8769SOL     OW27205   6.756   0.731   3.622
 8769SOL    HW127206   6.725   0.684   3.705
 8769SOL    HW227207   6.838   0.784   3.643
 8770SOL     OW27208   4.379   4.551   1.901
 8770SOL    HW127209   4.413   4.458   1.916
 8770SOL    HW227210   4.364   4.595   1.990
 8771SOL     OW27211   1.360   1.961   6.783
 8771SOL    HW127212   1.292   2.020   6.826
 8771SOL    HW227213   1.315   1.895   6.723
 8772SOL     OW27214   4.591   0.664   6.295
 8772SOL    HW127215   4.540   0.640   6.379
 8772SOL    HW227216   4.654   0.739   6.314
 8773SOL     OW27217   5.402   2.469   3.768
 8773SOL    HW127218   5.447   2.428   3.848
 8773SOL    HW227219   5.398   2.402   3.694
 8774SOL     OW27220   1.441   0.735   0.145
 8774SOL    HW127221   1.537   0.761   0.134
 8774SOL    HW227222   1.420   0.725   0.242
 8775SOL     OW27223   5.422   0.967   5.579
 8775SOL    HW127224   5.408   1.003   5.487
 8775SOL    HW227225   5.519   0.967   5.600
 8776SOL     OW27226   4.617   3.321   0.511
 8776SOL    HW127227   4.683   3.295   0.581
 8776SOL    HW227228   4.656   3.395   0.456
 8777SOL     OW27229   6.070   4.308   3.430
 8777SOL    HW127230   6.049   4.219   3.388
 8777SOL    HW227231   6.051   4.303   3.528
 8778SOL     OW27232   5.698   3.270   6.153
 8778SOL    HW127233   5.708   3.289   6.056
 8778SOL    HW227234   5.731   3.177   6.172
 8779SOL     OW27235   2.636   5.209   2.375
 8779SOL    HW127236   2.549   5.238   2.334
 8779SOL    HW227237   2.672   5.283   2.433
 8780SOL     OW27238   0.449   0.185   2.938
 8780SOL    HW127239   0.523   0.174   3.004
 8780SOL    HW227240   0.444   0.105   2.880
 8781SOL     OW27241   5.108   1.093   4.211
 8781SOL    HW127242   5.189   1.120   4.158
 8781SOL    HW227243   5.136   1.074   4.305
 8782SOL     OW27244   6.708   0.383   2.500
 8782SOL    HW127245   6.751   0.356   2.414
 8782SOL    HW227246   6.757   0.340   2.577
 8783SOL     OW27247   6.775   4.312   3.291
 8783SOL    HW127248   6.799   4.246   3.220
 8783SOL    HW227249   6.676   4.329   3.288
 8784SOL     OW27250   0.089   6.235   5.759
 8784SOL    HW127251   0.126   6.152   5.799
 8784SOL    HW227252   0.147   6.264   5.682
 8785SOL     OW27253   5.914   5.266   0.535
 8785SOL    HW127254   5.859   5.270   0.618
 8785SOL    HW227255   5.854   5.252   0.456
 8786SOL     OW27256   2.372   1.443   0.381
 8786SOL    HW127257   2.369   1.369   0.448
 8786SOL    HW227258   2.379   1.405   0.289
 8787SOL     OW27259   2.992   1.358   2.051
 8787SOL    HW127260   2.934   1.391   2.126
 8787SOL    HW227261   2.938   1.352   1.967
 8788SOL     OW27262   0.038   0.551   5.597
 8788SOL    HW127263   7.024   0.510   5.515
 8788SOL    HW227264   0.011   0.647   5.602
 8789SOL     OW27265   6.228   5.512   5.045
 8789SOL    HW127266   6.178   5.467   5.118
 8789SOL    HW227267   6.325   5.517   5.069
 8790SOL     OW27268   6.344   0.299   6.310
 8790SOL    HW127269   6.433   0.276   6.271
 8790SOL    HW227270   6.334   0.398   6.313
 8791SOL     OW27271   5.989   6.551   5.148
 8791SOL    HW127272   5.991   6.650   5.165
 8791SOL    HW227273   5.937   6.533   5.065
 8792SOL     OW27274   3.104   5.203   3.050
 8792SOL    HW127275   3.040   5.261   3.101
 8792SOL    HW227276   3.059   5.164   2.970
 8793SOL     OW27277   0.771   4.414   2.448
 8793SOL    HW127278   0.696   4.442   2.508
 8793SOL    HW227279   0.828   4.348   2.496
 8794SOL     OW27280   5.452   0.373   2.617
 8794SOL    HW127281   5.503   0.316   2.682
 8794SOL    HW227282   5.365   0.328   2.594
 8795SOL     OW27283   0.904   4.086   5.582
 8795SOL    HW127284   0.804   4.092   5.578
 8795SOL    HW227285   0.944   4.157   5.525
 8796SOL     OW27286   5.037   2.102   4.069
 8796SOL    HW127287   5.090   2.139   3.993
 8796SOL    HW227288   4.974   2.171   4.104
 8797SOL     OW27289   0.093   0.340   6.787
 8797SOL    HW127290   0.092   0.295   6.698
 8797SOL    HW227291   0.156   0.292   6.848
 8798SOL     OW27292   4.688   6.004   6.218
 8798SOL    HW127293   4.671   5.978   6.313
 8798SOL    HW227294   4.779   5.974   6.190
 8799SOL     OW27295   2.898   4.829   3.719
 8799SOL    HW127296   2.858   4.920   3.731
 8799SOL    HW227297   2.985   4.825   3.768
 8800SOL     OW27298   5.812   4.527   6.378
 8800SOL    HW127299   5.744   4.521   6.306
 8800SOL    HW227300   5.902   4.503   6.342
 8801SOL     OW27301   0.212   1.352   4.194
 8801SOL    HW127302   0.114   1.346   4.177
 8801SOL    HW227303   0.234   1.441   4.233
 8802SOL     OW27304   2.184   6.626   6.232
 8802SOL    HW127305   2.266   6.675   6.263
 8802SOL    HW227306   2.103   6.681   6.253
 8803SOL     OW27307   6.903   6.784   0.471
 8803SOL    HW127308   6.916   6.796   0.569
 8803SOL    HW227309   6.899   6.686   0.450
 8804SOL     OW27310   2.568   6.464   1.596
 8804SOL    HW127311   2.602   6.371   1.582
 8804SOL    HW227312   2.568   6.513   1.508
 8805SOL     OW27313   3.653   6.513   3.294
 8805SOL    HW127314   3.566   6.551   3.327
 8805SOL    HW227315   3.688   6.570   3.220
 8806SOL     OW27316   3.217   4.683   0.990
 8806SOL    HW127317   3.175   4.597   1.021
 8806SOL    HW227318   3.302   4.662   0.941
 8807SOL     OW27319   4.689   1.575   0.186
 8807SOL    HW127320   4.614   1.639   0.208
 8807SOL    HW227321   4.651   1.486   0.162
 8808SOL     OW27322   6.367   2.732   6.217
 8808SOL    HW127323   6.271   2.757   6.208
 8808SOL    HW227324   6.423   2.816   6.217
 8809SOL     OW27325   3.704   5.226   3.666
 8809SOL    HW127326   3.661   5.242   3.577
 8809SOL    HW227327   3.804   5.223   3.654
 8810SOL     OW27328   6.155   0.630   5.104
 8810SOL    HW127329   6.177   0.533   5.114
 8810SOL    HW227330   6.056   0.642   5.110
 8811SOL     OW27331   3.433   1.434   3.051
 8811SOL    HW127332   3.379   1.351   3.061
 8811SOL    HW227333   3.427   1.489   3.134
 8812SOL     OW27334   1.727   0.553   0.657
 8812SOL    HW127335   1.788   0.577   0.581
 8812SOL    HW227336   1.717   0.454   0.662
 8813SOL     OW27337   2.028   5.787   3.018
 8813SOL    HW127338   2.057   5.861   3.079
 8813SOL    HW227339   1.933   5.801   2.991
 8814SOL     OW27340   6.448   0.271   0.756
 8814SOL    HW127341   6.477   0.357   0.797
 8814SOL    HW227342   6.470   0.195   0.817
 8815SOL     OW27343   5.487   6.861   1.357
 8815SOL    HW127344   5.547   6.882   1.434
 8815SOL    HW227345   5.541   6.834   1.278
 8816SOL     OW27346   0.775   6.169   0.435
 8816SOL    HW127347   0.787   6.072   0.456
 8816SOL    HW227348   0.831   6.193   0.355
 8817SOL     OW27349   0.330   4.407   4.085
 8817SOL    HW127350   0.246   4.461   4.089
 8817SOL    HW227351   0.407   4.464   4.115
 8818SOL     OW27352   0.957   4.946   4.267
 8818SOL    HW127353   0.928   4.852   4.283
 8818SOL    HW227354   0.957   4.996   4.354
 8819SOL     OW27355   5.323   5.076   5.432
 8819SOL    HW127356   5.229   5.053   5.459
 8819SOL    HW227357   5.348   5.164   5.470
 8820SOL     OW27358   2.714   0.907   5.463
 8820SOL    HW127359   2.782   0.893   5.391
 8820SOL    HW227360   2.703   1.005   5.480
 8821SOL     OW27361   2.155   5.665   0.863
 8821SOL    HW127362   2.207   5.631   0.786
 8821SOL    HW227363   2.189   5.755   0.890
 8822SOL     OW27364   0.962   0.732   4.612
 8822SOL    HW127365   1.040   0.718   4.551
 8822SOL    HW227366   0.878   0.708   4.563
 8823SOL     OW27367   2.442   0.969   2.469
 8823SOL    HW127368   2.478   1.058   2.443
 8823SOL    HW227369   2.345   0.963   2.443
 8824SOL     OW27370   1.255   1.156   0.351
 8824SOL    HW127371   1.264   1.089   0.277
 8824SOL    HW227372   1.224   1.243   0.313
 8825SOL     OW27373   1.769   0.691   1.852
 8825SOL    HW127374   1.796   0.739   1.936
 8825SOL    HW227375   1.695   0.742   1.808
 8826SOL     OW27376   0.664   3.930   0.042
 8826SOL    HW127377   0.760   3.925   0.013
 8826SOL    HW227378   0.660   3.965   0.136
 8827SOL     OW27379   4.070   0.640   3.391
 8827SOL    HW127380   4.066   0.668   3.487
 8827SOL    HW227381   3.992   0.678   3.342
 8828SOL     OW27382   3.989   5.392   6.375
 8828SOL    HW127383   4.017   5.462   6.440
 8828SOL    HW227384   3.896   5.410   6.343
 8829SOL     OW27385   5.282   2.084   0.950
 8829SOL    HW127386   5.270   2.023   1.028
 8829SOL    HW227387   5.353   2.048   0.890
 8830SOL     OW27388   1.792   1.718   2.687
 8830SOL    HW127389   1.833   1.808   2.671
 8830SOL    HW227390   1.707   1.728   2.739
 8831SOL     OW27391   4.950   2.346   3.387
 8831SOL    HW127392   4.880   2.418   3.393
 8831SOL    HW227393   4.985   2.327   3.479
 8832SOL     OW27394   0.104   6.605   3.451
 8832SOL    HW127395   0.107   6.692   3.403
 8832SOL    HW227396   0.196   6.565   3.452
 8833SOL     OW27397   2.722   5.375   6.612
 8833SOL    HW127398   2.727   5.475   6.617
 8833SOL    HW227399   2.639   5.349   6.561
 8834SOL     OW27400   5.945   3.905   4.589
 8834SOL    HW127401   5.986   3.972   4.527
 8834SOL    HW227402   6.017   3.858   4.640
 8835SOL     OW27403   5.319   0.942   5.829
 8835SOL    HW127404   5.235   0.996   5.836
 8835SOL    HW227405   5.359   0.953   5.739
 8836SOL     OW27406   5.078   2.375   0.364
 8836SOL    HW127407   5.044   2.407   0.276
 8836SOL    HW227408   5.008   2.320   0.409
 8837SOL     OW27409   0.362   7.007   2.558
 8837SOL    HW127410   0.439   0.044   2.544
 8837SOL    HW227411   0.396   6.913   2.564
 8838SOL     OW27412   2.485   4.819   4.010
 8838SOL    HW127413   2.575   4.777   4.015
 8838SOL    HW227414   2.414   4.748   4.016
 8839SOL     OW27415   4.246   5.740   1.517
 8839SOL    HW127416   4.260   5.696   1.429
 8839SOL    HW227417   4.185   5.818   1.507
 8840SOL     OW27418   0.360   1.170   3.101
 8840SOL    HW127419   0.359   1.076   3.134
 8840SOL    HW227420   0.267   1.198   3.079
 8841SOL     OW27421   0.600   1.049   4.821
 8841SOL    HW127422   0.615   0.986   4.896
 8841SOL    HW227423   0.678   1.111   4.813
 8842SOL     OW27424   3.175   3.273   3.269
 8842SOL    HW127425   3.235   3.353   3.269
 8842SOL    HW227426   3.229   3.192   3.245
 8843SOL     OW27427   1.489   3.286   4.831
 8843SOL    HW127428   1.512   3.189   4.821
 8843SOL    HW227429   1.544   3.326   4.904
 8844SOL     OW27430   0.729   1.936   5.385
 8844SOL    HW127431   0.639   1.892   5.390
 8844SOL    HW227432   0.774   1.929   5.474
 8845SOL     OW27433   2.965   3.775   1.301
 8845SOL    HW127434   2.933   3.857   1.348
 8845SOL    HW227435   2.887   3.714   1.285
 8846SOL     OW27436   3.963   4.890   4.423
 8846SOL    HW127437   3.951   4.926   4.331
 8846SOL    HW227438   3.876   4.893   4.472
 8847SOL     OW27439   2.333   1.202   2.771
 8847SOL    HW127440   2.235   1.213   2.762
 8847SOL    HW227441   2.352   1.123   2.830
 8848SOL     OW27442   2.300   2.084   2.398
 8848SOL    HW127443   2.397   2.072   2.375
 8848SOL    HW227444   2.292   2.154   2.468
 8849SOL     OW27445   3.559   5.610   3.599
 8849SOL    HW127446   3.566   5.561   3.685
 8849SOL    HW227447   3.649   5.649   3.575
 8850SOL     OW27448   2.274   1.048   6.460
 8850SOL    HW127449   2.295   1.076   6.553
 8850SOL    HW227450   2.279   1.127   6.399
 8851SOL     OW27451   0.622   5.186   1.938
 8851SOL    HW127452   0.704   5.134   1.962
 8851SOL    HW227453   0.570   5.205   2.022
 8852SOL     OW27454   4.678   3.969   5.864
 8852SOL    HW127455   4.597   3.915   5.886
 8852SOL    HW227456   4.687   4.044   5.930
 8853SOL     OW27457   3.129   0.984   6.396
 8853SOL    HW127458   3.074   0.933   6.462
 8853SOL    HW227459   3.083   0.985   6.308
 8854SOL     OW27460   3.072   1.549   6.047
 8854SOL    HW127461   3.025   1.589   5.968
 8854SOL    HW227462   3.018   1.472   6.082
 8855SOL     OW27463   0.179   6.063   0.471
 8855SOL    HW127464   0.126   6.087   0.552
 8855SOL    HW227465   0.119   6.023   0.402
 8856SOL     OW27466   6.820   0.485   6.415
 8856SOL    HW127467   6.811   0.573   6.369
 8856SOL    HW227468   6.821   0.412   6.348
 8857SOL     OW27469   6.978   1.381   4.087
 8857SOL    HW127470   0.008   1.450   4.039
 8857SOL    HW227471   6.881   1.396   4.067
 8858SOL     OW27472   1.102   2.535   5.509
 8858SOL    HW127473   1.102   2.474   5.430
 8858SOL    HW227474   1.187   2.588   5.510
 8859SOL     OW27475   6.461   0.715   4.348
 8859SOL    HW127476   6.519   0.674   4.419
 8859SOL    HW227477   6.494   0.808   4.328
 8860SOL     OW27478   0.701   3.126   2.536
 8860SOL    HW127479   0.738   3.071   2.611
 8860SOL    HW227480   0.622   3.079   2.497
 8861SOL     OW27481   3.854   1.848   6.276
 8861SOL    HW127482   3.765   1.816   6.310
 8861SOL    HW227483   3.927   1.809   6.332
 8862SOL     OW27484   5.780   0.622   3.709
 8862SOL    HW127485   5.808   0.528   3.692
 8862SOL    HW227486   5.701   0.644   3.651
 8863SOL     OW27487   1.740   5.264   4.334
 8863SOL    HW127488   1.820   5.246   4.277
 8863SOL    HW227489   1.695   5.347   4.302
 8864SOL     OW27490   3.092   3.375   5.776
 8864SOL    HW127491   2.995   3.399   5.780
 8864SOL    HW227492   3.102   3.282   5.743
 8865SOL     OW27493   2.908   1.297   6.155
 8865SOL    HW127494   2.831   1.287   6.092
 8865SOL    HW227495   2.876   1.331   6.243
 8866SOL     OW27496   5.031   6.617   3.236
 8866SOL    HW127497   5.100   6.596   3.167
 8866SOL    HW227498   4.989   6.705   3.216
 8867SOL     OW27499   5.215   3.304   2.112
 8867SOL    HW127500   5.277   3.314   2.190
 8867SOL    HW227501   5.121   3.317   2.142
 8868SOL     OW27502   6.692   2.652   0.467
 8868SOL    HW127503   6.705   2.565   0.515
 8868SOL    HW227504   6.761   2.663   0.396
 8869SOL     OW27505   4.532   6.199   4.669
 8869SOL    HW127506   4.531   6.299   4.668
 8869SOL    HW227507   4.439   6.164   4.683
 8870SOL     OW27508   4.184   0.597   6.715
 8870SOL    HW127509   4.255   0.660   6.747
 8870SOL    HW227510   4.120   0.646   6.656
 8871SOL     OW27511   1.871   0.364   4.018
 8871SOL    HW127512   1.909   0.414   4.096
 8871SOL    HW227513   1.771   0.361   4.026
 8872SOL     OW27514   1.589   4.727   4.864
 8872SOL    HW127515   1.676   4.678   4.860
 8872SOL    HW227516   1.566   4.763   4.774
 8873SOL     OW27517   0.585   5.985   2.190
 8873SOL    HW127518   0.580   5.888   2.164
 8873SOL    HW227519   0.600   5.992   2.288
 8874SOL     OW27520   2.383   5.722   2.310
 8874SOL    HW127521   2.323   5.646   2.285
 8874SOL    HW227522   2.477   5.700   2.285
 8875SOL     OW27523   6.766   3.412   4.979
 8875SOL    HW127524   6.752   3.316   5.001
 8875SOL    HW227525   6.680   3.452   4.947
 8876SOL     OW27526   2.202   6.789   4.535
 8876SOL    HW127527   2.249   6.703   4.552
 8876SOL    HW227528   2.118   6.771   4.482
 8877SOL     OW27529   2.872   0.594   4.140
 8877SOL    HW127530   2.909   0.688   4.139
 8877SOL    HW227531   2.774   0.597   4.154
 8878SOL     OW27532   6.733   5.137   6.713
 8878SOL    HW127533   6.807   5.146   6.647
 8878SOL    HW227534   6.750   5.058   6.772
 8879SOL     OW27535   5.131   4.391   1.858
 8879SOL    HW127536   5.124   4.296   1.887
 8879SOL    HW227537   5.147   4.450   1.937
 8880SOL     OW27538   5.396   5.824   4.776
 8880SOL    HW127539   5.496   5.827   4.779
 8880SOL    HW227540   5.365   5.729   4.773
 8881SOL     OW27541   6.359   0.009   3.734
 8881SOL    HW127542   6.304   7.023   3.817
 8881SOL    HW227543   6.377   6.945   3.693
 8882SOL     OW27544   5.599   1.921   1.018
 8882SOL    HW127545   5.582   1.987   1.092
 8882SOL    HW227546   5.561   1.957   0.933
 8883SOL     OW27547   1.951   6.411   6.246
 8883SOL    HW127548   1.936   6.509   6.238
 8883SOL    HW227549   1.875   6.362   6.204
 8884SOL     OW27550   6.050   4.469   6.255
 8884SOL    HW127551   6.078   4.542   6.192
 8884SOL    HW227552   6.073   4.380   6.215
 8885SOL     OW27553   0.264   3.138   0.779
 8885SOL    HW127554   0.176   3.130   0.827
 8885SOL    HW227555   0.293   3.048   0.747
 8886SOL     OW27556   3.175   6.513   4.685
 8886SOL    HW127557   3.272   6.514   4.708
 8886SOL    HW227558   3.127   6.581   4.740
 8887SOL     OW27559   3.179   1.586   1.278
 8887SOL    HW127560   3.149   1.522   1.209
 8887SOL    HW227561   3.250   1.544   1.335
 8888SOL     OW27562   1.473   1.593   6.970
 8888SOL    HW127563   1.418   1.652   6.911
 8888SOL    HW227564   1.535   1.649   7.024
 8889SOL     OW27565   6.243   0.442   5.994
 8889SOL    HW127566   6.209   0.349   5.978
 8889SOL    HW227567   6.276   0.480   5.907
 8890SOL     OW27568   6.619   5.720   3.998
 8890SOL    HW127569   6.714   5.710   4.029
 8890SOL    HW227570   6.560   5.734   4.077
 8891SOL     OW27571   5.267   3.719   6.183
 8891SOL    HW127572   5.242   3.736   6.087
 8891SOL    HW227573   5.224   3.634   6.213
 8892SOL     OW27574   3.646   5.754   3.173
 8892SOL    HW127575   3.581   5.796   3.109
 8892SOL    HW227576   3.622   5.780   3.266
 8893SOL     OW27577   0.911   5.783   3.601
 8893SOL    HW127578   0.965   5.787   3.517
 8893SOL    HW227579   0.854   5.701   3.601
 8894SOL     OW27580   4.470   2.891   6.081
 8894SOL    HW127581   4.416   2.820   6.035
 8894SOL    HW227582   4.408   2.957   6.125
 8895SOL     OW27583   6.439   2.370   2.568
 8895SOL    HW127584   6.390   2.456   2.553
 8895SOL    HW227585   6.401   2.299   2.509
 8896SOL     OW27586   2.176   3.781   5.571
 8896SOL    HW127587   2.136   3.711   5.630
 8896SOL    HW227588   2.132   3.778   5.481
 8897SOL     OW27589   1.991   2.791   3.240
 8897SOL    HW127590   2.010   2.696   3.218
 8897SOL    HW227591   2.053   2.851   3.189
 8898SOL     OW27592   5.222   3.470   3.316
 8898SOL    HW127593   5.292   3.530   3.278
 8898SOL    HW227594   5.249   3.440   3.408
 8899SOL     OW27595   2.018   5.289   0.764
 8899SOL    HW127596   1.966   5.208   0.735
 8899SOL    HW227597   1.967   5.336   0.835
 8900SOL     OW27598   6.350   3.290   2.814
 8900SOL    HW127599   6.270   3.339   2.850
 8900SOL    HW227600   6.369   3.322   2.721
 8901SOL     OW27601   1.880   0.580   4.518
 8901SOL    HW127602   1.960   0.615   4.568
 8901SOL    HW227603   1.826   0.657   4.484
 8902SOL     OW27604   2.430   0.406   0.347
 8902SOL    HW127605   2.378   0.363   0.421
 8902SOL    HW227606   2.401   0.369   0.259
 8903SOL     OW27607   1.327   1.782   5.144
 8903SOL    HW127608   1.364   1.784   5.051
 8903SOL    HW227609   1.243   1.728   5.145
 8904SOL     OW27610   5.685   5.997   4.151
 8904SOL    HW127611   5.680   5.909   4.103
 8904SOL    HW227612   5.621   5.996   4.228
 8905SOL     OW27613   1.592   4.809   3.837
 8905SOL    HW127614   1.667   4.845   3.782
 8905SOL    HW227615   1.623   4.797   3.931
 8906SOL     OW27616   0.219   6.475   0.608
 8906SOL    HW127617   0.192   6.446   0.700
 8906SOL    HW227618   0.313   6.443   0.590
 8907SOL     OW27619   2.746   2.443   5.063
 8907SOL    HW127620   2.652   2.446   5.030
 8907SOL    HW227621   2.750   2.482   5.155
 8908SOL     OW27622   0.974   3.646   6.634
 8908SOL    HW127623   1.035   3.619   6.708
 8908SOL    HW227624   0.909   3.714   6.668
 8909SOL     OW27625   2.768   0.984   6.138
 8909SOL    HW127626   2.755   0.885   6.133
 8909SOL    HW227627   2.685   1.027   6.172
 8910SOL     OW27628   0.522   2.687   5.823
 8910SOL    HW127629   0.474   2.606   5.856
 8910SOL    HW227630   0.484   2.769   5.865
 8911SOL     OW27631   4.009   2.081   4.683
 8911SOL    HW127632   4.022   2.172   4.721
 8911SOL    HW227633   3.939   2.084   4.611
 8912SOL     OW27634   3.703   2.913   0.171
 8912SOL    HW127635   3.792   2.927   0.128
 8912SOL    HW227636   3.698   2.966   0.256
 8913SOL     OW27637   4.982   4.939   5.917
 8913SOL    HW127638   4.953   5.024   5.873
 8913SOL    HW227639   5.055   4.898   5.863
 8914SOL     OW27640   4.544   0.077   4.649
 8914SOL    HW127641   4.641   0.060   4.667
 8914SOL    HW227642   4.490   0.053   4.730
 8915SOL     OW27643   0.400   2.974   3.640
 8915SOL    HW127644   0.337   2.896   3.642
 8915SOL    HW227645   0.347   3.059   3.638
 8916SOL     OW27646   0.283   3.977   0.978
 8916SOL    HW127647   0.253   3.932   1.062
 8916SOL    HW227648   0.381   3.961   0.965
 8917SOL     OW27649   6.984   3.671   0.381
 8917SOL    HW127650   6.972   3.574   0.362
 8917SOL    HW227651   0.045   3.684   0.429
 8918SOL     OW27652   6.406   4.144   1.413
 8918SOL    HW127653   6.389   4.073   1.345
 8918SOL    HW227654   6.359   4.121   1.499
 8919SOL     OW27655   3.766   4.519   0.191
 8919SOL    HW127656   3.849   4.573   0.208
 8919SOL    HW227657   3.719   4.503   0.278
 8920SOL     OW27658   0.714   0.377   0.032
 8920SOL    HW127659   0.736   0.427   0.116
 8920SOL    HW227660   0.782   0.399   6.987
 8921SOL     OW27661   1.890   1.947   2.357
 8921SOL    HW127662   1.907   1.978   2.451
 8921SOL    HW227663   1.793   1.959   2.335
 8922SOL     OW27664   3.491   5.164   1.191
 8922SOL    HW127665   3.466   5.071   1.164
 8922SOL    HW227666   3.495   5.170   1.291
 8923SOL     OW27667   1.626   3.661   6.011
 8923SOL    HW127668   1.699   3.633   6.073
 8923SOL    HW227669   1.607   3.758   6.024
 8924SOL     OW27670   3.859   5.356   5.628
 8924SOL    HW127671   3.761   5.358   5.609
 8924SOL    HW227672   3.903   5.436   5.588
 8925SOL     OW27673   1.081   1.410   2.544
 8925SOL    HW127674   1.120   1.496   2.578
 8925SOL    HW227675   0.984   1.405   2.570
 8926SOL     OW27676   6.687   3.864   5.722
 8926SOL    HW127677   6.669   3.783   5.778
 8926SOL    HW227678   6.630   3.861   5.641
 8927SOL     OW27679   0.929   1.449   4.689
 8927SOL    HW127680   0.983   1.526   4.724
 8927SOL    HW227681   0.990   1.372   4.670
 8928SOL     OW27682   0.094   0.540   6.346
 8928SOL    HW127683   0.178   0.489   6.329
 8928SOL    HW227684   0.016   0.477   6.346
 8929SOL     OW27685   6.324   2.930   4.343
 8929SOL    HW127686   6.387   2.995   4.301
 8929SOL    HW227687   6.364   2.839   4.340
 8930SOL     OW27688   1.369   4.214   4.164
 8930SOL    HW127689   1.339   4.128   4.121
 8930SOL    HW227690   1.299   4.284   4.152
 8931SOL     OW27691   3.152   2.563   1.013
 8931SOL    HW127692   3.139   2.484   0.953
 8931SOL    HW227693   3.181   2.642   0.958
 8932SOL     OW27694   5.833   0.648   0.858
 8932SOL    HW127695   5.817   0.559   0.815
 8932SOL    HW227696   5.746   0.684   0.893
 8933SOL     OW27697   1.743   2.858   6.031
 8933SOL    HW127698   1.730   2.936   6.091
 8933SOL    HW227699   1.734   2.773   6.084
 8934SOL     OW27700   3.430   4.942   4.472
 8934SOL    HW127701   3.350   4.987   4.512
 8934SOL    HW227702   3.428   4.951   4.373
 8935SOL     OW27703   6.418   4.347   1.233
 8935SOL    HW127704   6.407   4.275   1.302
 8935SOL    HW227705   6.332   4.359   1.184
 8936SOL     OW27706   1.140   3.438   1.933
 8936SOL    HW127707   1.125   3.520   1.989
 8936SOL    HW227708   1.108   3.357   1.983
 8937SOL     OW27709   0.145   6.728   5.021
 8937SOL    HW127710   0.190   6.815   5.002
 8937SOL    HW227711   0.202   6.673   5.082
 8938SOL     OW27712   0.419   1.981   0.641
 8938SOL    HW127713   0.419   1.886   0.610
 8938SOL    HW227714   0.398   1.984   0.739
 8939SOL     OW27715   5.624   4.945   4.377
 8939SOL    HW127716   5.642   4.859   4.331
 8939SOL    HW227717   5.709   4.982   4.414
 8940SOL     OW27718   5.439   0.594   1.324
 8940SOL    HW127719   5.463   0.687   1.350
 8940SOL    HW227720   5.341   0.580   1.338
 8941SOL     OW27721   6.216   2.730   3.739
 8941SOL    HW127722   6.281   2.787   3.789
 8941SOL    HW227723   6.149   2.692   3.803
 8942SOL     OW27724   6.789   5.907   5.825
 8942SOL    HW127725   6.805   5.865   5.735
 8942SOL    HW227726   6.732   5.846   5.880
 8943SOL     OW27727   3.701   5.247   0.239
 8943SOL    HW127728   3.682   5.344   0.250
 8943SOL    HW227729   3.795   5.234   0.209
 8944SOL     OW27730   4.892   6.065   4.062
 8944SOL    HW127731   4.800   6.098   4.041
 8944SOL    HW227732   4.923   6.005   3.988
 8945SOL     OW27733   0.558   0.943   3.969
 8945SOL    HW127734   0.492   1.001   4.017
 8945SOL    HW227735   0.618   1.001   3.913
 8946SOL     OW27736   3.202   0.482   3.910
 8946SOL    HW127737   3.290   0.497   3.865
 8946SOL    HW227738   3.192   0.546   3.986
 8947SOL     OW27739   2.723   3.568   5.561
 8947SOL    HW127740   2.716   3.619   5.475
 8947SOL    HW227741   2.634   3.527   5.582
 8948SOL     OW27742   6.251   5.782   3.430
 8948SOL    HW127743   6.199   5.830   3.500
 8948SOL    HW227744   6.207   5.694   3.410
 8949SOL     OW27745   3.725   6.518   0.696
 8949SOL    HW127746   3.821   6.544   0.687
 8949SOL    HW227747   3.710   6.478   0.786
 8950SOL     OW27748   3.587   3.258   0.505
 8950SOL    HW127749   3.523   3.303   0.442
 8950SOL    HW227750   3.585   3.304   0.594
 8951SOL     OW27751   1.897   0.838   4.403
 8951SOL    HW127752   1.939   0.888   4.478
 8951SOL    HW227753   1.944   0.861   4.318
 8952SOL     OW27754   0.841   5.129   3.788
 8952SOL    HW127755   0.940   5.135   3.784
 8952SOL    HW227756   0.808   5.173   3.872
 8953SOL     OW27757   1.024   4.614   0.602
 8953SOL    HW127758   1.117   4.599   0.567
 8953SOL    HW227759   0.983   4.692   0.554
 8954SOL     OW27760   6.759   0.028   4.602
 8954SOL    HW127761   6.793   0.062   4.690
 8954SOL    HW227762   6.711   6.966   4.616
 8955SOL     OW27763   0.141   4.887   3.109
 8955SOL    HW127764   0.060   4.828   3.117
 8955SOL    HW227765   0.117   4.980   3.138
 8956SOL     OW27766   1.852   1.544   5.784
 8956SOL    HW127767   1.843   1.585   5.875
 8956SOL    HW227768   1.828   1.611   5.715
 8957SOL     OW27769   1.982   4.463   1.273
 8957SOL    HW127770   2.054   4.453   1.204
 8957SOL    HW227771   2.013   4.527   1.343
 8958SOL     OW27772   0.714   2.429   5.395
 8958SOL    HW127773   0.655   2.505   5.423
 8958SOL    HW227774   0.790   2.465   5.341
 8959SOL     OW27775   1.424   4.537   2.428
 8959SOL    HW127776   1.379   4.569   2.345
 8959SOL    HW227777   1.467   4.615   2.475
 8960SOL     OW27778   5.018   5.578   3.668
 8960SOL    HW127779   4.984   5.531   3.588
 8960SOL    HW227780   5.037   5.512   3.741
 8961SOL     OW27781   3.518   1.382   3.432
 8961SOL    HW127782   3.510   1.283   3.423
 8961SOL    HW227783   3.564   1.405   3.518
 8962SOL     OW27784   6.102   5.534   2.648
 8962SOL    HW127785   6.060   5.492   2.568
 8962SOL    HW227786   6.186   5.583   2.621
 8963SOL     OW27787   3.800   0.185   4.618
 8963SOL    HW127788   3.763   0.155   4.530
 8963SOL    HW227789   3.738   0.253   4.658
 8964SOL     OW27790   5.768   2.851   3.426
 8964SOL    HW127791   5.679   2.874   3.385
 8964SOL    HW227792   5.806   2.770   3.380
 8965SOL     OW27793   2.527   5.461   6.967
 8965SOL    HW127794   2.590   5.536   6.985
 8965SOL    HW227795   2.507   5.413   0.027
 8966SOL     OW27796   6.755   3.994   0.320
 8966SOL    HW127797   6.851   3.993   0.345
 8966SOL    HW227798   6.744   3.953   0.229
 8967SOL     OW27799   3.777   0.408   1.699
 8967SOL    HW127800   3.697   0.466   1.683
 8967SOL    HW227801   3.815   0.428   1.789
 8968SOL     OW27802   4.260   5.723   2.689
 8968SOL    HW127803   4.249   5.746   2.786
 8968SOL    HW227804   4.174   5.741   2.641
 8969SOL     OW27805   6.700   0.624   3.852
 8969SOL    HW127806   6.774   0.665   3.905
 8969SOL    HW227807   6.613   0.667   3.877
 8970SOL     OW27808   2.487   3.178   6.853
 8970SOL    HW127809   2.472   3.123   6.935
 8970SOL    HW227810   2.534   3.262   6.877
 8971SOL     OW27811   6.084   5.075   1.446
 8971SOL    HW127812   6.063   5.034   1.357
 8971SOL    HW227813   6.139   5.012   1.500
 8972SOL     OW27814   4.500   4.173   0.756
 8972SOL    HW127815   4.537   4.230   0.683
 8972SOL    HW227816   4.522   4.214   0.844
 8973SOL     OW27817   0.241   3.532   3.301
 8973SOL    HW127818   0.227   3.612   3.359
 8973SOL    HW227819   0.155   3.507   3.256
 8974SOL     OW27820   1.634   3.845   4.127
 8974SOL    HW127821   1.651   3.893   4.041
 8974SOL    HW227822   1.626   3.911   4.201
 8975SOL     OW27823   0.596   6.374   0.540
 8975SOL    HW127824   0.529   6.340   0.475
 8975SOL    HW227825   0.682   6.324   0.530
 8976SOL     OW27826   7.023   5.322   0.346
 8976SOL    HW127827   7.003   5.418   0.364
 8976SOL    HW227828   6.974   5.292   0.264
 8977SOL     OW27829   6.688   3.106   6.439
 8977SOL    HW127830   6.718   3.156   6.520
 8977SOL    HW227831   6.670   3.010   6.463
 8978SOL     OW27832   5.378   6.679   4.429
 8978SOL    HW127833   5.369   6.657   4.332
 8978SOL    HW227834   5.341   6.770   4.446
 8979SOL     OW27835   1.141   4.837   5.641
 8979SOL    HW127836   1.064   4.899   5.651
 8979SOL    HW227837   1.182   4.850   5.551
 8980SOL     OW27838   4.658   2.810   5.389
 8980SOL    HW127839   4.735   2.828   5.451
 8980SOL    HW227840   4.578   2.861   5.421
 8981SOL     OW27841   4.845   2.332   5.044
 8981SOL    HW127842   4.935   2.334   5.001
 8981SOL    HW227843   4.849   2.273   5.125
 8982SOL     OW27844   1.483   1.610   1.532
 8982SOL    HW127845   1.484   1.707   1.506
 8982SOL    HW227846   1.475   1.603   1.631
 8983SOL     OW27847   0.477   5.446   0.455
 8983SOL    HW127848   0.486   5.451   0.555
 8983SOL    HW227849   0.566   5.463   0.413
 8984SOL     OW27850   6.119   5.879   3.649
 8984SOL    HW127851   6.114   5.870   3.748
 8984SOL    HW227852   6.049   5.944   3.618
 8985SOL     OW27853   2.509   1.848   0.683
 8985SOL    HW127854   2.480   1.753   0.681
 8985SOL    HW227855   2.476   1.891   0.767
 8986SOL     OW27856   4.008   4.801   2.410
 8986SOL    HW127857   3.917   4.766   2.389
 8986SOL    HW227858   4.006   4.901   2.412
 8987SOL     OW27859   3.760   0.167   0.907
 8987SOL    HW127860   3.691   0.168   0.834
 8987SOL    HW227861   3.728   0.108   0.981
 8988SOL     OW27862   1.599   4.336   0.329
 8988SOL    HW127863   1.635   4.378   0.412
 8988SOL    HW227864   1.568   4.243   0.350
 8989SOL     OW27865   4.893   3.925   2.111
 8989SOL    HW127866   4.850   3.857   2.052
 8989SOL    HW227867   4.870   4.017   2.078
 8990SOL     OW27868   2.227   6.058   2.451
 8990SOL    HW127869   2.284   6.008   2.386
 8990SOL    HW227870   2.130   6.038   2.434
 8991SOL     OW27871   1.900   1.447   6.627
 8991SOL    HW127872   1.843   1.376   6.669
 8991SOL    HW227873   1.869   1.537   6.658
 8992SOL     OW27874   6.930   2.297   6.536
 8992SOL    HW127875   6.945   2.237   6.615
 8992SOL    HW227876   7.009   2.358   6.526
 8993SOL     OW27877   4.686   2.721   2.944
 8993SOL    HW127878   4.672   2.819   2.958
 8993SOL    HW227879   4.768   2.707   2.888
 8994SOL     OW27880   0.990   5.580   4.678
 8994SOL    HW127881   0.944   5.611   4.595
 8994SOL    HW227882   0.922   5.551   4.745
 8995SOL     OW27883   1.132   2.776   6.403
 8995SOL    HW127884   1.055   2.779   6.339
 8995SOL    HW227885   1.097   2.777   6.497
 8996SOL     OW27886   6.502   5.026   1.951
 8996SOL    HW127887   6.523   5.122   1.935
 8996SOL    HW227888   6.579   4.969   1.920
 8997SOL     OW27889   3.804   1.334   6.354
 8997SOL    HW127890   3.727   1.352   6.293
 8997SOL    HW227891   3.821   1.414   6.412
 8998SOL     OW27892   0.347   3.199   4.676
 8998SOL    HW127893   0.414   3.269   4.699
 8998SOL    HW227894   0.298   3.171   4.759
 8999SOL     OW27895   4.917   0.410   0.130
 8999SOL    HW127896   4.891   0.342   0.199
 8999SOL    HW227897   4.997   0.378   0.080
 9000SOL     OW27898   2.440   3.837   6.060
 9000SOL    HW127899   2.402   3.877   5.976
 9000SOL    HW227900   2.444   3.907   6.131
 9001SOL     OW27901   0.865   5.180   2.584
 9001SOL    HW127902   0.786   5.189   2.644
 9001SOL    HW227903   0.868   5.088   2.546
 9002SOL     OW27904   6.842   5.307   4.969
 9002SOL    HW127905   6.872   5.213   4.951
 9002SOL    HW227906   6.784   5.309   5.050
 9003SOL     OW27907   5.393   2.321   1.142
 9003SOL    HW127908   5.301   2.301   1.106
 9003SOL    HW227909   5.438   2.388   1.083
 9004SOL     OW27910   4.850   6.515   1.625
 9004SOL    HW127911   4.795   6.443   1.668
 9004SOL    HW227912   4.918   6.548   1.690
 9005SOL     OW27913   5.545   2.103   4.958
 9005SOL    HW127914   5.505   2.188   4.991
 9005SOL    HW227915   5.514   2.027   5.015
 9006SOL     OW27916   2.312   6.259   0.223
 9006SOL    HW127917   2.217   6.290   0.231
 9006SOL    HW227918   2.363   6.289   0.303
 9007SOL     OW27919   3.784   6.359   3.790
 9007SOL    HW127920   3.825   6.381   3.702
 9007SOL    HW227921   3.799   6.262   3.811
 9008SOL     OW27922   6.389   5.195   2.820
 9008SOL    HW127923   6.382   5.210   2.721
 9008SOL    HW227924   6.485   5.207   2.848
 9009SOL     OW27925   2.606   6.939   0.598
 9009SOL    HW127926   2.600   7.012   0.666
 9009SOL    HW227927   2.646   6.857   0.639
 9010SOL     OW27928   0.960   0.058   5.056
 9010SOL    HW127929   1.059   0.046   5.044
 9010SOL    HW227930   0.923   7.005   5.106
 9011SOL     OW27931   4.145   1.822   1.566
 9011SOL    HW127932   4.213   1.810   1.639
 9011SOL    HW227933   4.103   1.912   1.574
 9012SOL     OW27934   3.480   4.047   0.904
 9012SOL    HW127935   3.459   4.143   0.920
 9012SOL    HW227936   3.458   4.023   0.809
 9013SOL     OW27937   6.904   6.145   4.290
 9013SOL    HW127938   6.900   6.101   4.200
 9013SOL    HW227939   6.936   6.078   4.358
 9014SOL     OW27940   1.005   0.621   0.172
 9014SOL    HW127941   1.013   0.705   0.224
 9014SOL    HW227942   1.094   0.598   0.133
 9015SOL     OW27943   5.978   1.485   1.359
 9015SOL    HW127944   6.032   1.502   1.276
 9015SOL    HW227945   5.907   1.556   1.368
 9016SOL     OW27946   0.474   6.622   6.483
 9016SOL    HW127947   0.401   6.670   6.530
 9016SOL    HW227948   0.503   6.543   6.538
 9017SOL     OW27949   4.559   2.504   1.943
 9017SOL    HW127950   4.596   2.594   1.922
 9017SOL    HW227951   4.538   2.499   2.041
 9018SOL     OW27952   4.234   1.477   5.487
 9018SOL    HW127953   4.150   1.493   5.436
 9018SOL    HW227954   4.227   1.520   5.577
 9019SOL     OW27955   0.571   0.769   0.764
 9019SOL    HW127956   0.580   0.817   0.677
 9019SOL    HW227957   0.477   0.776   0.797
 9020SOL     OW27958   1.434   3.945   1.602
 9020SOL    HW127959   1.517   3.895   1.579
 9020SOL    HW227960   1.413   3.931   1.699
 9021SOL     OW27961   6.444   0.329   3.774
 9021SOL    HW127962   6.540   0.352   3.758
 9021SOL    HW227963   6.429   0.232   3.754
 9022SOL     OW27964   2.837   1.462   0.901
 9022SOL    HW127965   2.751   1.482   0.948
 9022SOL    HW227966   2.839   1.510   0.814
 9023SOL     OW27967   3.519   3.010   2.680
 9023SOL    HW127968   3.501   3.108   2.687
 9023SOL    HW227969   3.467   2.973   2.603
 9024SOL     OW27970   0.341   5.398   5.306
 9024SOL    HW127971   0.307   5.305   5.317
 9024SOL    HW227972   0.272   5.463   5.339
 9025SOL     OW27973   6.922   6.191   0.325
 9025SOL    HW127974   7.009   6.239   0.335
 9025SOL    HW227975   6.938   6.100   0.287
 9026SOL     OW27976   3.811   3.200   1.961
 9026SOL    HW127977   3.736   3.261   1.935
 9026SOL    HW227978   3.897   3.234   1.923
 9027SOL     OW27979   1.370   1.966   3.596
 9027SOL    HW127980   1.398   2.061   3.587
 9027SOL    HW227981   1.450   1.906   3.594
 9028SOL     OW27982   2.688   3.786   6.888
 9028SOL    HW127983   2.651   3.736   6.810
 9028SOL    HW227984   2.760   3.731   6.931
 9029SOL     OW27985   3.150   5.582   5.384
 9029SOL    HW127986   3.249   5.571   5.386
 9029SOL    HW227987   3.110   5.517   5.319
 9030SOL     OW27988   2.316   0.977   3.482
 9030SOL    HW127989   2.280   0.888   3.452
 9030SOL    HW227990   2.379   1.013   3.413
 9031SOL     OW27991   4.993   5.684   4.873
 9031SOL    HW127992   4.916   5.622   4.891
 9031SOL    HW227993   4.965   5.777   4.893
 9032SOL     OW27994   3.002   2.858   0.657
 9032SOL    HW127995   3.101   2.859   0.654
 9032SOL    HW227996   2.972   2.792   0.726
 9033SOL     OW27997   2.134   4.563   3.635
 9033SOL    HW127998   2.055   4.503   3.650
 9033SOL    HW227999   2.118   4.618   3.553
 9034SOL     OW28000   3.359   0.622   4.868
 9034SOL    HW128001   3.259   0.612   4.868
 9034SOL    HW228002   3.401   0.534   4.889
 9035SOL     OW28003   0.946   5.443   5.747
 9035SOL    HW128004   0.967   5.430   5.651
 9035SOL    HW228005   1.015   5.397   5.803
 9036SOL     OW28006   1.740   0.675   5.259
 9036SOL    HW128007   1.777   0.606   5.321
 9036SOL    HW228008   1.691   0.745   5.311
 9037SOL     OW28009   1.250   3.804   5.597
 9037SOL    HW128010   1.209   3.737   5.536
 9037SOL    HW228011   1.303   3.758   5.668
 9038SOL     OW28012   4.701   0.015   6.047
 9038SOL    HW128013   4.771   0.007   6.119
 9038SOL    HW228014   4.745   0.033   5.959
 9039SOL     OW28015   2.721   4.855   4.549
 9039SOL    HW128016   2.676   4.944   4.557
 9039SOL    HW228017   2.656   4.783   4.574
 9040SOL     OW28018   2.718   1.855   2.513
 9040SOL    HW128019   2.684   1.893   2.599
 9040SOL    HW228020   2.815   1.833   2.523
 9041SOL     OW28021   0.787   2.313   2.032
 9041SOL    HW128022   0.692   2.330   2.059
 9041SOL    HW228023   0.847   2.344   2.106
 9042SOL     OW28024   3.177   6.679   3.834
 9042SOL    HW128025   3.191   6.724   3.745
 9042SOL    HW228026   3.085   6.699   3.867
 9043SOL     OW28027   2.504   1.308   6.427
 9043SOL    HW128028   2.412   1.307   6.388
 9043SOL    HW228029   2.499   1.306   6.527
 9044SOL     OW28030   5.704   1.640   1.841
 9044SOL    HW128031   5.802   1.639   1.825
 9044SOL    HW228032   5.659   1.578   1.777
 9045SOL     OW28033   3.331   1.735   2.273
 9045SOL    HW128034   3.420   1.740   2.319
 9045SOL    HW228035   3.268   1.801   2.313
 9046SOL     OW28036   3.492   3.806   4.668
 9046SOL    HW128037   3.573   3.750   4.652
 9046SOL    HW228038   3.519   3.899   4.690
 9047SOL     OW28039   0.970   3.040   5.036
 9047SOL    HW128040   1.039   2.985   5.084
 9047SOL    HW228041   1.014   3.102   4.972
 9048SOL     OW28042   6.268   2.707   5.939
 9048SOL    HW128043   6.193   2.685   5.876
 9048SOL    HW228044   6.260   2.802   5.969
 9049SOL     OW28045   4.061   0.293   6.538
 9049SOL    HW128046   4.054   0.361   6.465
 9049SOL    HW228047   4.047   0.202   6.499
 9050SOL     OW28048   0.442   4.510   5.969
 9050SOL    HW128049   0.498   4.530   5.889
 9050SOL    HW228050   0.429   4.594   6.022
 9051SOL     OW28051   3.968   6.243   0.772
 9051SOL    HW128052   3.904   6.236   0.696
 9051SOL    HW228053   3.918   6.241   0.858
 9052SOL     OW28054   1.799   2.221   2.895
 9052SOL    HW128055   1.813   2.257   2.987
 9052SOL    HW228056   1.841   2.283   2.828
 9053SOL     OW28057   1.641   1.308   2.941
 9053SOL    HW128058   1.643   1.226   2.884
 9053SOL    HW228059   1.590   1.380   2.894
 9054SOL     OW28060   1.550   0.198   2.022
 9054SOL    HW128061   1.617   0.125   2.034
 9054SOL    HW228062   1.507   0.189   1.932
 9055SOL     OW28063   6.547   3.738   3.523
 9055SOL    HW128064   6.553   3.778   3.432
 9055SOL    HW228065   6.502   3.802   3.585
 9056SOL     OW28066   6.173   0.378   1.567
 9056SOL    HW128067   6.149   0.382   1.470
 9056SOL    HW228068   6.162   0.284   1.600
 9057SOL     OW28069   5.658   5.073   5.619
 9057SOL    HW128070   5.700   4.983   5.606
 9057SOL    HW228071   5.728   5.136   5.654
 9058SOL     OW28072   2.086   1.872   3.656
 9058SOL    HW128073   2.153   1.806   3.622
 9058SOL    HW228074   2.077   1.862   3.755
 9059SOL     OW28075   1.283   1.343   4.694
 9059SOL    HW128076   1.250   1.353   4.600
 9059SOL    HW228077   1.349   1.268   4.699
 9060SOL     OW28078   6.942   2.736   2.458
 9060SOL    HW128079   6.896   2.763   2.374
 9060SOL    HW228080   6.953   2.637   2.461
 9061SOL     OW28081   3.074   5.692   2.298
 9061SOL    HW128082   3.095   5.784   2.332
 9061SOL    HW228083   3.031   5.698   2.209
 9062SOL     OW28084   1.432   5.498   2.331
 9062SOL    HW128085   1.361   5.440   2.370
 9062SOL    HW228086   1.408   5.520   2.236
 9063SOL     OW28087   2.189   6.557   2.711
 9063SOL    HW128088   2.238   6.634   2.669
 9063SOL    HW228089   2.247   6.476   2.709
 9064SOL     OW28090   6.123   3.859   5.582
 9064SOL    HW128091   6.132   3.915   5.499
 9064SOL    HW228092   6.115   3.762   5.556
 9065SOL     OW28093   3.282   6.395   6.633
 9065SOL    HW128094   3.238   6.338   6.564
 9065SOL    HW228095   3.222   6.405   6.712
 9066SOL     OW28096   5.916   0.592   0.331
 9066SOL    HW128097   5.933   0.607   0.234
 9066SOL    HW228098   6.002   0.573   0.378
 9067SOL     OW28099   6.418   0.233   4.332
 9067SOL    HW128100   6.377   0.322   4.350
 9067SOL    HW228101   6.446   0.227   4.236
 9068SOL     OW28102   2.955   0.484   5.086
 9068SOL    HW128103   2.892   0.512   5.158
 9068SOL    HW228104   2.909   0.422   5.023
 9069SOL     OW28105   2.718   2.246   1.801
 9069SOL    HW128106   2.727   2.162   1.854
 9069SOL    HW228107   2.779   2.316   1.839
 9070SOL     OW28108   1.005   3.169   5.695
 9070SOL    HW128109   1.057   3.216   5.766
 9070SOL    HW228110   1.014   3.218   5.609
 9071SOL     OW28111   5.229   0.090   0.555
 9071SOL    HW128112   5.296   0.098   0.482
 9071SOL    HW228113   5.275   0.081   0.643
 9072SOL     OW28114   5.939   1.033   1.828
 9072SOL    HW128115   5.881   0.990   1.898
 9072SOL    HW228116   6.008   1.090   1.872
 9073SOL     OW28117   3.252   6.612   0.737
 9073SOL    HW128118   3.270   6.524   0.693
 9073SOL    HW228119   3.233   6.681   0.668
 9074SOL     OW28120   1.951   0.903   2.070
 9074SOL    HW128121   2.034   0.871   2.025
 9074SOL    HW228122   1.940   0.856   2.157
 9075SOL     OW28123   0.959   0.786   1.942
 9075SOL    HW128124   1.049   0.762   1.978
 9075SOL    HW228125   0.967   0.810   1.845
 9076SOL     OW28126   5.969   1.843   4.688
 9076SOL    HW128127   5.984   1.903   4.767
 9076SOL    HW228128   6.055   1.828   4.641
 9077SOL     OW28129   5.629   0.433   6.552
 9077SOL    HW128130   5.567   0.415   6.628
 9077SOL    HW228131   5.714   0.473   6.587
 9078SOL     OW28132   4.398   3.866   6.671
 9078SOL    HW128133   4.445   3.813   6.741
 9078SOL    HW228134   4.453   3.867   6.587
 9079SOL     OW28135   2.450   6.126   3.840
 9079SOL    HW128136   2.439   6.225   3.825
 9079SOL    HW228137   2.446   6.080   3.751
 9080SOL     OW28138   5.547   1.979   0.444
 9080SOL    HW128139   5.450   1.964   0.465
 9080SOL    HW228140   5.598   1.983   0.530
 9081SOL     OW28141   4.456   6.451   2.666
 9081SOL    HW128142   4.368   6.480   2.705
 9081SOL    HW228143   4.441   6.371   2.607
 9082SOL     OW28144   2.816   6.718   5.423
 9082SOL    HW128145   2.782   6.782   5.492
 9082SOL    HW228146   2.748   6.647   5.406
 9083SOL     OW28147   3.863   4.380   5.866
 9083SOL    HW128148   3.939   4.344   5.920
 9083SOL    HW228149   3.881   4.365   5.769
 9084SOL     OW28150   3.213   3.376   5.476
 9084SOL    HW128151   3.261   3.464   5.473
 9084SOL    HW228152   3.264   3.313   5.535
 9085SOL     OW28153   1.743   4.404   0.791
 9085SOL    HW128154   1.794   4.444   0.866
 9085SOL    HW228155   1.645   4.419   0.805
 9086SOL     OW28156   0.638   4.585   0.513
 9086SOL    HW128157   0.646   4.614   0.608
 9086SOL    HW228158   0.694   4.504   0.498
 9087SOL     OW28159   4.534   2.509   2.256
 9087SOL    HW128160   4.564   2.550   2.342
 9087SOL    HW228161   4.436   2.491   2.260
 9088SOL     OW28162   5.964   6.159   0.976
 9088SOL    HW128163   5.916   6.217   0.911
 9088SOL    HW228164   6.063   6.172   0.966
 9089SOL     OW28165   4.963   6.117   4.876
 9089SOL    HW128166   5.039   6.078   4.824
 9089SOL    HW228167   4.952   6.213   4.852
 9090SOL     OW28168   6.637   6.367   3.647
 9090SOL    HW128169   6.629   6.467   3.647
 9090SOL    HW228170   6.716   6.340   3.701
 9091SOL     OW28171   3.009   3.510   0.965
 9091SOL    HW128172   2.936   3.486   0.901
 9091SOL    HW228173   3.028   3.608   0.960
 9092SOL     OW28174   0.225   2.138   1.158
 9092SOL    HW128175   0.150   2.202   1.179
 9092SOL    HW228176   0.294   2.186   1.104
 9093SOL     OW28177   1.316   6.405   6.486
 9093SOL    HW128178   1.412   6.393   6.512
 9093SOL    HW228179   1.306   6.394   6.387
 9094SOL     OW28180   6.214   5.471   3.103
 9094SOL    HW128181   6.186   5.414   3.026
 9094SOL    HW228182   6.140   5.535   3.124
 9095SOL     OW28183   4.581   4.076   6.315
 9095SOL    HW128184   4.507   4.141   6.333
 9095SOL    HW228185   4.640   4.112   6.243
 9096SOL     OW28186   5.475   3.793   2.056
 9096SOL    HW128187   5.454   3.707   2.010
 9096SOL    HW228188   5.516   3.775   2.145
 9097SOL     OW28189   0.884   1.865   6.667
 9097SOL    HW128190   0.941   1.783   6.662
 9097SOL    HW228191   0.849   1.875   6.760
 9098SOL     OW28192   3.758   2.218   6.222
 9098SOL    HW128193   3.823   2.230   6.297
 9098SOL    HW228194   3.807   2.214   6.135
 9099SOL     OW28195   2.733   2.838   6.406
 9099SOL    HW128196   2.761   2.780   6.330
 9099SOL    HW228197   2.633   2.836   6.415
 9100SOL     OW28198   0.595   3.841   3.974
 9100SOL    HW128199   0.560   3.848   4.068
 9100SOL    HW228200   0.592   3.932   3.931
 9101SOL     OW28201   2.096   2.239   3.128
 9101SOL    HW128202   2.122   2.151   3.089
 9101SOL    HW228203   2.167   2.307   3.107
 9102SOL     OW28204   2.704   0.179   1.520
 9102SOL    HW128205   2.684   0.102   1.581
 9102SOL    HW228206   2.766   0.242   1.566
 9103SOL     OW28207   6.376   3.162   6.653
 9103SOL    HW128208   6.407   3.253   6.624
 9103SOL    HW228209   6.279   3.166   6.677
 9104SOL     OW28210   6.802   6.401   1.908
 9104SOL    HW128211   6.705   6.376   1.901
 9104SOL    HW228212   6.840   6.363   1.992
 9105SOL     OW28213   1.579   1.355   6.906
 9105SOL    HW128214   1.528   1.432   6.943
 9105SOL    HW228215   1.639   1.317   6.977
 9106SOL     OW28216   7.000   3.352   0.045
 9106SOL    HW128217   7.020   3.269   7.018
 9106SOL    HW228218   0.060   3.402   0.062
 9107SOL     OW28219   3.400   1.029   6.385
 9107SOL    HW128220   3.318   0.973   6.395
 9107SOL    HW228221   3.445   1.037   6.474
 9108SOL     OW28222   4.806   3.927   5.619
 9108SOL    HW128223   4.886   3.976   5.585
 9108SOL    HW228224   4.786   3.957   5.712
 9109SOL     OW28225   6.725   2.293   2.955
 9109SOL    HW128226   6.703   2.360   3.026
 9109SOL    HW228227   6.641   2.248   2.926
 9110SOL     OW28228   2.104   4.386   3.987
 9110SOL    HW128229   2.076   4.328   3.910
 9110SOL    HW228230   2.201   4.407   3.980
 9111SOL     OW28231   4.849   1.956   0.846
 9111SOL    HW128232   4.925   1.924   0.790
 9111SOL    HW228233   4.781   1.884   0.855
 9112SOL     OW28234   0.623   5.236   3.644
 9112SOL    HW128235   0.698   5.231   3.709
 9112SOL    HW228236   0.552   5.171   3.669
 9113SOL     OW28237   4.968   1.201   2.996
 9113SOL    HW128238   4.926   1.130   2.939
 9113SOL    HW228239   4.956   1.290   2.953
 9114SOL     OW28240   0.338   4.356   1.972
 9114SOL    HW128241   0.426   4.402   1.961
 9114SOL    HW228242   0.320   4.342   2.070
 9115SOL     OW28243   0.235   5.840   4.343
 9115SOL    HW128244   0.331   5.810   4.346
 9115SOL    HW228245   0.198   5.842   4.436
 9116SOL     OW28246   6.619   1.002   2.096
 9116SOL    HW128247   6.554   1.071   2.125
 9116SOL    HW228248   6.581   0.952   2.017
 9117SOL     OW28249   5.586   2.523   0.727
 9117SOL    HW128250   5.625   2.488   0.642
 9117SOL    HW228251   5.593   2.623   0.729
 9118SOL     OW28252   6.743   3.735   0.078
 9118SOL    HW128253   6.839   3.763   0.080
 9118SOL    HW228254   6.737   3.636   0.074
 9119SOL     OW28255   4.464   0.294   2.626
 9119SOL    HW128256   4.437   0.224   2.560
 9119SOL    HW228257   4.554   0.273   2.662
 9120SOL     OW28258   6.323   1.876   5.948
 9120SOL    HW128259   6.270   1.905   6.028
 9120SOL    HW228260   6.373   1.792   5.969
 9121SOL     OW28261   4.560   1.057   4.802
 9121SOL    HW128262   4.624   1.133   4.800
 9121SOL    HW228263   4.595   0.985   4.862
 9122SOL     OW28264   2.197   3.991   2.210
 9122SOL    HW128265   2.184   3.902   2.253
 9122SOL    HW228266   2.143   3.997   2.127
 9123SOL     OW28267   2.823   0.436   3.462
 9123SOL    HW128268   2.891   0.485   3.516
 9123SOL    HW228269   2.732   0.459   3.495
 9124SOL     OW28270   5.326   6.515   0.300
 9124SOL    HW128271   5.298   6.467   0.383
 9124SOL    HW228272   5.250   6.571   0.267
 9125SOL     OW28273   4.994   4.344   0.489
 9125SOL    HW128274   5.000   4.247   0.511
 9125SOL    HW228275   4.985   4.397   0.574
 9126SOL     OW28276   6.076   3.419   1.197
 9126SOL    HW128277   6.152   3.355   1.209
 9126SOL    HW228278   6.074   3.451   1.102
 9127SOL     OW28279   0.114   1.609   6.276
 9127SOL    HW128280   0.087   1.699   6.309
 9127SOL    HW228281   0.083   1.597   6.181
 9128SOL     OW28282   6.468   2.323   5.346
 9128SOL    HW128283   6.469   2.304   5.444
 9128SOL    HW228284   6.442   2.419   5.331
 9129SOL     OW28285   0.175   2.460   0.313
 9129SOL    HW128286   0.130   2.380   0.351
 9129SOL    HW228287   0.229   2.434   0.233
 9130SOL     OW28288   0.417   3.268   6.110
 9130SOL    HW128289   0.467   3.205   6.050
 9130SOL    HW228290   0.345   3.313   6.058
 9131SOL     OW28291   5.655   3.043   5.486
 9131SOL    HW128292   5.745   3.075   5.515
 9131SOL    HW228293   5.589   3.060   5.559
 9132SOL     OW28294   0.531   5.502   4.258
 9132SOL    HW128295   0.445   5.492   4.209
 9132SOL    HW228296   0.517   5.559   4.339
 9133SOL     OW28297   3.737   6.793   1.800
 9133SOL    HW128298   3.772   6.762   1.888
 9133SOL    HW228299   3.805   6.851   1.756
 9134SOL     OW28300   3.602   6.038   1.485
 9134SOL    HW128301   3.612   6.137   1.492
 9134SOL    HW228302   3.612   6.010   1.390
 9135SOL     OW28303   6.290   6.660   1.683
 9135SOL    HW128304   6.378   6.691   1.721
 9135SOL    HW228305   6.279   6.562   1.698
 9136SOL     OW28306   5.158   6.297   6.875
 9136SOL    HW128307   5.108   6.342   6.801
 9136SOL    HW228308   5.096   6.278   6.951
 9137SOL     OW28309   5.273   1.443   0.696
 9137SOL    HW128310   5.344   1.445   0.766
 9137SOL    HW228311   5.311   1.406   0.611
 9138SOL     OW28312   0.281   6.040   6.467
 9138SOL    HW128313   0.316   6.109   6.404
 9138SOL    HW228314   0.192   6.070   6.504
 9139SOL     OW28315   1.703   1.889   2.997
 9139SOL    HW128316   1.767   1.911   3.070
 9139SOL    HW228317   1.733   1.931   2.912
 9140SOL     OW28318   6.919   3.411   2.555
 9140SOL    HW128319   6.889   3.343   2.489
 9140SOL    HW228320   7.005   3.381   2.598
 9141SOL     OW28321   5.487   0.061   1.191
 9141SOL    HW128322   5.415   7.022   1.163
 9141SOL    HW228323   5.472   0.149   1.148
 9142SOL     OW28324   0.547   2.861   0.784
 9142SOL    HW128325   0.633   2.862   0.834
 9142SOL    HW228326   0.482   2.801   0.830
 9143SOL     OW28327   6.584   3.111   0.451
 9143SOL    HW128328   6.560   3.054   0.373
 9143SOL    HW228329   6.520   3.188   0.458
 9144SOL     OW28330   2.639   5.279   4.821
 9144SOL    HW128331   2.651   5.313   4.914
 9144SOL    HW228332   2.554   5.315   4.782
 9145SOL     OW28333   0.223   5.460   0.058
 9145SOL    HW128334   0.299   5.506   0.012
 9145SOL    HW228335   0.146   5.450   7.020
 9146SOL     OW28336   5.432   3.129   3.762
 9146SOL    HW128337   5.459   3.221   3.791
 9146SOL    HW228338   5.512   3.079   3.729
 9147SOL     OW28339   5.997   6.454   5.568
 9147SOL    HW128340   6.015   6.381   5.503
 9147SOL    HW228341   6.058   6.531   5.551
 9148SOL     OW28342   5.212   6.235   1.366
 9148SOL    HW128343   5.146   6.161   1.361
 9148SOL    HW228344   5.209   6.277   1.457
 9149SOL     OW28345   5.678   3.924   2.574
 9149SOL    HW128346   5.637   3.855   2.633
 9149SOL    HW228347   5.778   3.922   2.586
 9150SOL     OW28348   3.222   5.056   0.707
 9150SOL    HW128349   3.200   5.153   0.699
 9150SOL    HW228350   3.156   5.011   0.766
 9151SOL     OW28351   1.665   4.518   3.550
 9151SOL    HW128352   1.714   4.603   3.566
 9151SOL    HW228353   1.567   4.537   3.541
 9152SOL     OW28354   2.136   4.021   4.436
 9152SOL    HW128355   2.181   3.992   4.520
 9152SOL    HW228356   2.104   3.941   4.385
 9153SOL     OW28357   0.246   2.825   6.780
 9153SOL    HW128358   0.288   2.901   6.731
 9153SOL    HW228359   0.167   2.858   6.832
 9154SOL     OW28360   5.620   4.910   6.124
 9154SOL    HW128361   5.658   4.848   6.056
 9154SOL    HW228362   5.694   4.960   6.169
 9155SOL     OW28363   1.460   3.823   2.469
 9155SOL    HW128364   1.417   3.739   2.437
 9155SOL    HW228365   1.459   3.825   2.569
 9156SOL     OW28366   0.888   2.261   0.947
 9156SOL    HW128367   0.925   2.187   0.892
 9156SOL    HW228368   0.843   2.224   1.028
 9157SOL     OW28369   2.488   4.049   6.255
 9157SOL    HW128370   2.542   4.123   6.296
 9157SOL    HW228371   2.392   4.059   6.282
 9158SOL     OW28372   5.968   3.148   4.326
 9158SOL    HW128373   5.906   3.190   4.260
 9158SOL    HW228374   5.918   3.131   4.411
 9159SOL     OW28375   1.681   0.772   2.331
 9159SOL    HW128376   1.638   0.684   2.315
 9159SOL    HW228377   1.618   0.832   2.381
 9160SOL     OW28378   0.214   6.807   6.137
 9160SOL    HW128379   0.182   6.753   6.215
 9160SOL    HW228380   0.314   6.816   6.142
 9161SOL     OW28381   5.154   5.180   4.044
 9161SOL    HW128382   5.204   5.209   4.125
 9161SOL    HW228383   5.056   5.174   4.066
 9162SOL     OW28384   4.267   0.695   3.803
 9162SOL    HW128385   4.297   0.659   3.891
 9162SOL    HW228386   4.303   0.637   3.729
 9163SOL     OW28387   0.335   2.427   4.196
 9163SOL    HW128388   0.360   2.456   4.288
 9163SOL    HW228389   0.247   2.467   4.171
 9164SOL     OW28390   1.741   0.457   0.033
 9164SOL    HW128391   1.738   0.357   0.041
 9164SOL    HW228392   1.679   0.486   6.986
 9165SOL     OW28393   5.928   1.792   5.804
 9165SOL    HW128394   5.980   1.878   5.807
 9165SOL    HW228395   5.935   1.752   5.713
 9166SOL     OW28396   3.931   6.335   1.318
 9166SOL    HW128397   3.904   6.309   1.410
 9166SOL    HW228398   3.938   6.435   1.313
 9167SOL     OW28399   2.096   2.328   6.160
 9167SOL    HW128400   2.082   2.335   6.258
 9167SOL    HW228401   2.044   2.400   6.113
 9168SOL     OW28402   6.120   6.302   6.237
 9168SOL    HW128403   6.172   6.363   6.177
 9168SOL    HW228404   6.084   6.225   6.184
 9169SOL     OW28405   6.879   6.734   6.910
 9169SOL    HW128406   6.796   6.773   6.871
 9169SOL    HW228407   6.874   6.738   7.010
 9170SOL     OW28408   1.568   0.194   6.751
 9170SOL    HW128409   1.649   0.190   6.693
 9170SOL    HW228410   1.570   0.279   6.805
 9171SOL     OW28411   3.347   6.061   0.746
 9171SOL    HW128412   3.304   6.069   0.835
 9171SOL    HW228413   3.412   6.135   0.733
 9172SOL     OW28414   4.844   1.263   3.281
 9172SOL    HW128415   4.814   1.349   3.324
 9172SOL    HW228416   4.936   1.276   3.242
 9173SOL     OW28417   6.005   4.798   5.837
 9173SOL    HW128418   6.017   4.781   5.739
 9173SOL    HW228419   6.073   4.865   5.867
 9174SOL     OW28420   6.759   5.298   0.460
 9174SOL    HW128421   6.847   5.262   0.429
 9174SOL    HW228422   6.765   5.398   0.465
 9175SOL     OW28423   1.585   6.103   6.465
 9175SOL    HW128424   1.540   6.183   6.503
 9175SOL    HW228425   1.665   6.080   6.521
 9176SOL     OW28426   2.343   0.951   2.142
 9176SOL    HW128427   2.423   0.905   2.180
 9176SOL    HW228428   2.283   0.979   2.217
 9177SOL     OW28429   1.003   3.973   4.012
 9177SOL    HW128430   0.960   4.053   3.969
 9177SOL    HW228431   1.090   3.954   3.968
 9178SOL     OW28432   2.213   4.638   6.521
 9178SOL    HW128433   2.167   4.624   6.609
 9178SOL    HW228434   2.227   4.735   6.506
 9179SOL     OW28435   2.175   5.462   4.006
 9179SOL    HW128436   2.116   5.492   3.930
 9179SOL    HW228437   2.159   5.520   4.085
 9180SOL     OW28438   6.399   2.238   3.431
 9180SOL    HW128439   6.476   2.209   3.374
 9180SOL    HW228440   6.433   2.275   3.517
 9181SOL     OW28441   6.441   2.318   4.366
 9181SOL    HW128442   6.381   2.297   4.442
 9181SOL    HW228443   6.534   2.335   4.400
 9182SOL     OW28444   2.713   0.017   2.866
 9182SOL    HW128445   2.809   0.043   2.878
 9182SOL    HW228446   2.687   6.978   2.938
 9183SOL     OW28447   4.712   4.687   0.053
 9183SOL    HW128448   4.777   4.739   7.024
 9183SOL    HW228449   4.723   4.709   0.150
 9184SOL     OW28450   4.233   2.794   1.415
 9184SOL    HW128451   4.173   2.787   1.336
 9184SOL    HW228452   4.281   2.882   1.414
 9185SOL     OW28453   6.644   6.645   4.840
 9185SOL    HW128454   6.567   6.707   4.827
 9185SOL    HW228455   6.729   6.698   4.849
 9186SOL     OW28456   5.895   0.087   4.695
 9186SOL    HW128457   5.913   0.023   4.769
 9186SOL    HW228458   5.797   0.091   4.676
 9187SOL     OW28459   3.808   1.620   7.024
 9187SOL    HW128460   3.833   1.613   0.095
 9187SOL    HW228461   3.733   1.557   7.004
 9188SOL     OW28462   2.142   0.170   1.620
 9188SOL    HW128463   2.197   0.090   1.597
 9188SOL    HW228464   2.077   0.146   1.692
 9189SOL     OW28465   3.406   5.799   2.485
 9189SOL    HW128466   3.445   5.708   2.503
 9189SOL    HW228467   3.310   5.789   2.458
 9190SOL     OW28468   0.728   3.136   5.114
 9190SOL    HW128469   0.819   3.094   5.114
 9190SOL    HW228470   0.661   3.070   5.150
 9191SOL     OW28471   5.791   1.180   6.987
 9191SOL    HW128472   5.862   1.205   0.027
 9191SOL    HW228473   5.819   1.098   6.938
 9192SOL     OW28474   6.862   2.378   6.277
 9192SOL    HW128475   6.766   2.356   6.260
 9192SOL    HW228476   6.881   2.370   6.374
 9193SOL     OW28477   3.485   3.336   4.556
 9193SOL    HW128478   3.403   3.360   4.505
 9193SOL    HW228479   3.495   3.398   4.634
 9194SOL     OW28480   3.305   0.658   2.962
 9194SOL    HW128481   3.208   0.654   2.984
 9194SOL    HW228482   3.325   0.596   2.886
 9195SOL     OW28483   1.517   3.280   2.885
 9195SOL    HW128484   1.526   3.365   2.938
 9195SOL    HW228485   1.485   3.207   2.944
 9196SOL     OW28486   5.842   6.236   4.114
 9196SOL    HW128487   5.780   6.161   4.137
 9196SOL    HW228488   5.924   6.231   4.171
 9197SOL     OW28489   3.007   4.754   0.778
 9197SOL    HW128490   2.966   4.807   0.704
 9197SOL    HW228491   3.101   4.786   0.793
 9198SOL     OW28492   6.408   4.256   6.527
 9198SOL    HW128493   6.404   4.281   6.430
 9198SOL    HW228494   6.324   4.208   6.552
 9199SOL     OW28495   0.034   2.849   5.501
 9199SOL    HW128496   0.054   2.753   5.480
 9199SOL    HW228497   0.074   2.873   5.590
 9200SOL     OW28498   2.815   5.991   5.806
 9200SOL    HW128499   2.763   5.920   5.855
 9200SOL    HW228500   2.912   5.983   5.828
 9201SOL     OW28501   6.980   3.103   6.636
 9201SOL    HW128502   0.007   3.186   6.650
 9201SOL    HW228503   6.885   3.119   6.662
 9202SOL     OW28504   1.106   5.425   4.238
 9202SOL    HW128505   1.139   5.332   4.249
 9202SOL    HW228506   1.164   5.474   4.172
 9203SOL     OW28507   6.329   3.011   5.969
 9203SOL    HW128508   6.324   3.039   6.065
 9203SOL    HW228509   6.397   3.065   5.922
 9204SOL     OW28510   4.905   3.736   4.539
 9204SOL    HW128511   4.805   3.738   4.546
 9204SOL    HW228512   4.944   3.714   4.628
 9205SOL     OW28513   4.984   5.599   2.837
 9205SOL    HW128514   4.948   5.506   2.850
 9205SOL    HW228515   4.999   5.642   2.926
 9206SOL     OW28516   3.509   6.236   3.292
 9206SOL    HW128517   3.542   6.314   3.238
 9206SOL    HW228518   3.556   6.235   3.380
 9207SOL     OW28519   4.248   4.801   0.058
 9207SOL    HW128520   4.200   4.855   0.127
 9207SOL    HW228521   4.246   4.705   0.083
 9208SOL     OW28522   5.579   4.020   2.346
 9208SOL    HW128523   5.484   3.988   2.346
 9208SOL    HW228524   5.623   3.992   2.431
 9209SOL     OW28525   4.685   0.943   1.235
 9209SOL    HW128526   4.691   1.037   1.269
 9209SOL    HW228527   4.595   0.905   1.257
 9210SOL     OW28528   1.419   1.404   0.970
 9210SOL    HW128529   1.420   1.308   0.944
 9210SOL    HW228530   1.475   1.417   1.052
 9211SOL     OW28531   5.978   2.797   6.467
 9211SOL    HW128532   6.029   2.882   6.481
 9211SOL    HW228533   5.881   2.818   6.451
 9212SOL     OW28534   5.063   4.424   4.335
 9212SOL    HW128535   5.091   4.328   4.342
 9212SOL    HW228536   5.143   4.481   4.316
 9213SOL     OW28537   5.115   5.116   4.502
 9213SOL    HW128538   5.166   5.187   4.452
 9213SOL    HW228539   5.173   5.035   4.512
 9214SOL     OW28540   0.225   3.126   5.140
 9214SOL    HW128541   0.255   3.194   5.208
 9214SOL    HW228542   0.126   3.111   5.150
 9215SOL     OW28543   1.578   4.354   2.715
 9215SOL    HW128544   1.591   4.371   2.812
 9215SOL    HW228545   1.541   4.437   2.671
 9216SOL     OW28546   2.350   6.555   3.600
 9216SOL    HW128547   2.398   6.642   3.590
 9216SOL    HW228548   2.324   6.520   3.510
 9217SOL     OW28549   6.642   2.854   6.503
 9217SOL    HW128550   6.644   2.794   6.423
 9217SOL    HW228551   6.695   2.812   6.577
 9218SOL     OW28552   3.799   0.999   0.274
 9218SOL    HW128553   3.810   1.087   0.318
 9218SOL    HW228554   3.813   1.008   0.175
 9219SOL     OW28555   4.726   3.999   6.614
 9219SOL    HW128556   4.665   3.940   6.561
 9219SOL    HW228557   4.673   4.052   6.680
 9220SOL     OW28558   1.003   6.377   2.185
 9220SOL    HW128559   1.082   6.417   2.139
 9220SOL    HW228560   0.952   6.320   2.120
 9221SOL     OW28561   2.417   0.112   3.757
 9221SOL    HW128562   2.458   0.064   3.835
 9221SOL    HW228563   2.444   0.067   3.672
 9222SOL     OW28564   2.624   5.745   5.341
 9222SOL    HW128565   2.649   5.826   5.395
 9222SOL    HW228566   2.542   5.766   5.288
 9223SOL     OW28567   1.146   2.733   4.366
 9223SOL    HW128568   1.225   2.736   4.427
 9223SOL    HW228569   1.064   2.764   4.414
 9224SOL     OW28570   1.545   5.013   3.582
 9224SOL    HW128571   1.497   4.935   3.622
 9224SOL    HW228572   1.639   5.016   3.615
 9225SOL     OW28573   3.145   5.967   5.874
 9225SOL    HW128574   3.244   5.974   5.890
 9225SOL    HW228575   3.105   5.902   5.938
 9226SOL     OW28576   0.614   6.560   1.587
 9226SOL    HW128577   0.559   6.608   1.518
 9226SOL    HW228578   0.650   6.627   1.652
 9227SOL     OW28579   2.172   5.954   0.986
 9227SOL    HW128580   2.125   6.031   1.029
 9227SOL    HW228581   2.176   5.969   0.887
 9228SOL     OW28582   2.795   1.707   0.017
 9228SOL    HW128583   2.704   1.699   0.057
 9228SOL    HW228584   2.791   1.684   6.945
 9229SOL     OW28585   0.935   4.576   5.389
 9229SOL    HW128586   1.014   4.623   5.350
 9229SOL    HW228587   0.903   4.626   5.469
 9230SOL     OW28588   5.124   2.873   3.695
 9230SOL    HW128589   5.113   2.972   3.688
 9230SOL    HW228590   5.037   2.828   3.674
 9231SOL     OW28591   1.079   3.228   5.416
 9231SOL    HW128592   1.114   3.263   5.329
 9231SOL    HW228593   1.146   3.165   5.456
 9232SOL     OW28594   2.935   5.217   6.657
 9232SOL    HW128595   2.853   5.273   6.644
 9232SOL    HW228596   3.012   5.276   6.679
 9233SOL     OW28597   6.277   6.349   1.152
 9233SOL    HW128598   6.376   6.338   1.141
 9233SOL    HW228599   6.259   6.431   1.208
 9234SOL     OW28600   3.049   5.589   0.712
 9234SOL    HW128601   3.028   5.495   0.739
 9234SOL    HW228602   3.143   5.593   0.677
 9235SOL     OW28603   2.117   2.355   3.548
 9235SOL    HW128604   2.038   2.392   3.500
 9235SOL    HW228605   2.198   2.410   3.526
 9236SOL     OW28606   1.775   4.157   6.656
 9236SOL    HW128607   1.785   4.252   6.687
 9236SOL    HW228608   1.706   4.153   6.583
 9237SOL     OW28609   0.765   5.798   2.794
 9237SOL    HW128610   0.808   5.887   2.808
 9237SOL    HW228611   0.707   5.776   2.872
 9238SOL     OW28612   2.583   3.060   6.205
 9238SOL    HW128613   2.621   3.003   6.277
 9238SOL    HW228614   2.545   3.002   6.133
 9239SOL     OW28615   0.212   3.740   5.708
 9239SOL    HW128616   0.240   3.706   5.798
 9239SOL    HW228617   0.249   3.679   5.637
 9240SOL     OW28618   4.726   2.838   2.271
 9240SOL    HW128619   4.775   2.918   2.307
 9240SOL    HW228620   4.693   2.858   2.179
 9241SOL     OW28621   0.098   5.066   0.184
 9241SOL    HW128622   0.066   5.031   0.272
 9241SOL    HW228623   0.020   5.086   0.125
 9242SOL     OW28624   1.240   4.002   0.906
 9242SOL    HW128625   1.229   3.905   0.883
 9242SOL    HW228626   1.312   4.012   0.974
 9243SOL     OW28627   0.195   0.099   1.330
 9243SOL    HW128628   0.226   0.133   1.419
 9243SOL    HW228629   0.234   0.155   1.257
 9244SOL     OW28630   3.473   5.841   5.966
 9244SOL    HW128631   3.437   5.812   6.055
 9244SOL    HW228632   3.539   5.773   5.934
 9245SOL     OW28633   0.688   5.249   3.993
 9245SOL    HW128634   0.590   5.232   4.009
 9245SOL    HW228635   0.723   5.311   4.063
 9246SOL     OW28636   6.245   6.938   3.056
 9246SOL    HW128637   6.285   6.923   2.966
 9246SOL    HW228638   6.302   6.894   3.126
 9247SOL     OW28639   2.448   5.763   3.341
 9247SOL    HW128640   2.385   5.811   3.279
 9247SOL    HW228641   2.395   5.711   3.408
 9248SOL     OW28642   2.986   1.832   4.265
 9248SOL    HW128643   3.058   1.869   4.323
 9248SOL    HW228644   2.897   1.867   4.295
 9249SOL     OW28645   3.795   4.849   1.205
 9249SOL    HW128646   3.727   4.876   1.273
 9249SOL    HW228647   3.782   4.752   1.182
 9250SOL     OW28648   5.426   3.188   4.693
 9250SOL    HW128649   5.394   3.158   4.782
 9250SOL    HW228650   5.357   3.167   4.624
 9251SOL     OW28651   4.232   1.952   2.982
 9251SOL    HW128652   4.272   1.977   2.893
 9251SOL    HW228653   4.285   1.993   3.055
 9252SOL     OW28654   5.598   0.803   4.754
 9252SOL    HW128655   5.688   0.803   4.797
 9252SOL    HW228656   5.580   0.715   4.712
 9253SOL     OW28657   5.466   5.531   5.699
 9253SOL    HW128658   5.378   5.578   5.687
 9253SOL    HW228659   5.456   5.435   5.673
 9254SOL     OW28660   5.139   5.170   3.017
 9254SOL    HW128661   5.234   5.191   2.992
 9254SOL    HW228662   5.088   5.146   2.934
 9255SOL     OW28663   4.973   3.576   0.235
 9255SOL    HW128664   4.955   3.633   0.155
 9255SOL    HW228665   4.972   3.633   0.318
 9256SOL     OW28666   3.193   0.323   2.555
 9256SOL    HW128667   3.257   0.398   2.536
 9256SOL    HW228668   3.129   0.313   2.479
 9257SOL     OW28669   0.119   4.593   3.386
 9257SOL    HW128670   0.064   4.509   3.397
 9257SOL    HW228671   0.068   4.658   3.330
 9258SOL     OW28672   3.778   3.786   2.464
 9258SOL    HW128673   3.724   3.769   2.546
 9258SOL    HW228674   3.716   3.806   2.388
 9259SOL     OW28675   0.692   2.013   0.884
 9259SOL    HW128676   0.763   1.963   0.933
 9259SOL    HW228677   0.684   2.105   0.922
 9260SOL     OW28678   6.195   1.893   5.221
 9260SOL    HW128679   6.097   1.909   5.208
 9260SOL    HW228680   6.242   1.903   5.133
 9261SOL     OW28681   3.483   1.579   0.457
 9261SOL    HW128682   3.496   1.534   0.545
 9261SOL    HW228683   3.503   1.677   0.467
 9262SOL     OW28684   6.606   5.557   5.026
 9262SOL    HW128685   6.675   5.513   5.084
 9262SOL    HW228686   6.567   5.490   4.964
 9263SOL     OW28687   4.531   0.766   1.912
 9263SOL    HW128688   4.443   0.748   1.956
 9263SOL    HW228689   4.603   0.714   1.959
 9264SOL     OW28690   4.993   4.746   0.498
 9264SOL    HW128691   4.971   4.653   0.528
 9264SOL    HW228692   5.058   4.742   0.422
 9265SOL     OW28693   3.610   2.663   6.816
 9265SOL    HW128694   3.690   2.707   6.774
 9265SOL    HW228695   3.638   2.577   6.858
 9266SOL     OW28696   0.955   6.026   0.850
 9266SOL    HW128697   0.994   5.952   0.795
 9266SOL    HW228698   1.009   6.036   0.934
 9267SOL     OW28699   0.483   1.886   4.766
 9267SOL    HW128700   0.476   1.840   4.677
 9267SOL    HW228701   0.445   1.827   4.837
 9268SOL     OW28702   1.202   6.064   2.595
 9268SOL    HW128703   1.123   6.046   2.536
 9268SOL    HW228704   1.202   5.999   2.671
 9269SOL     OW28705   4.380   1.298   6.402
 9269SOL    HW128706   4.384   1.214   6.347
 9269SOL    HW228707   4.286   1.313   6.432
 9270SOL     OW28708   4.800   6.424   6.017
 9270SOL    HW128709   4.714   6.395   5.975
 9270SOL    HW228710   4.856   6.472   5.950
 9271SOL     OW28711   6.194   0.313   0.689
 9271SOL    HW128712   6.286   0.274   0.698
 9271SOL    HW228713   6.185   0.391   0.750
 9272SOL     OW28714   0.849   5.812   5.207
 9272SOL    HW128715   0.841   5.736   5.143
 9272SOL    HW228716   0.837   5.778   5.300
 9273SOL     OW28717   6.060   6.224   2.697
 9273SOL    HW128718   6.063   6.256   2.791
 9273SOL    HW228719   6.021   6.295   2.638
 9274SOL     OW28720   6.489   1.469   0.611
 9274SOL    HW128721   6.577   1.421   0.615
 9274SOL    HW228722   6.450   1.475   0.703
 9275SOL     OW28723   6.232   1.393   6.926
 9275SOL    HW128724   6.151   1.359   6.974
 9275SOL    HW228725   6.257   1.329   6.854
 9276SOL     OW28726   1.654   3.815   1.550
 9276SOL    HW128727   1.711   3.833   1.630
 9276SOL    HW228728   1.662   3.718   1.525
 9277SOL     OW28729   4.266   4.720   0.614
 9277SOL    HW128730   4.282   4.671   0.699
 9277SOL    HW228731   4.246   4.654   0.541
 9278SOL     OW28732   1.939   0.222   5.754
 9278SOL    HW128733   1.932   0.142   5.814
 9278SOL    HW228734   1.901   0.200   5.664
 9279SOL     OW28735   2.975   0.557   1.671
 9279SOL    HW128736   3.074   0.566   1.679
 9279SOL    HW228737   2.953   0.481   1.609
 9280SOL     OW28738   2.281   1.810   2.597
 9280SOL    HW128739   2.280   1.710   2.609
 9280SOL    HW228740   2.199   1.837   2.546
 9281SOL     OW28741   2.757   4.104   6.756
 9281SOL    HW128742   2.659   4.104   6.777
 9281SOL    HW228743   2.806   4.051   6.824
 9282SOL     OW28744   5.481   0.357   3.511
 9282SOL    HW128745   5.514   0.323   3.599
 9282SOL    HW228746   5.557   0.393   3.458
 9283SOL     OW28747   4.867   0.658   3.983
 9283SOL    HW128748   4.827   0.690   3.897
 9283SOL    HW228749   4.966   0.674   3.982
 9284SOL     OW28750   2.860   3.266   5.229
 9284SOL    HW128751   2.904   3.266   5.319
 9284SOL    HW228752   2.808   3.182   5.218
 9285SOL     OW28753   5.214   2.813   1.011
 9285SOL    HW128754   5.290   2.829   0.949
 9285SOL    HW228755   5.148   2.888   1.003
 9286SOL     OW28756   5.546   5.907   0.675
 9286SOL    HW128757   5.584   5.990   0.717
 9286SOL    HW228758   5.587   5.893   0.585
 9287SOL     OW28759   3.409   5.199   6.523
 9287SOL    HW128760   3.453   5.111   6.544
 9287SOL    HW228761   3.380   5.243   6.609
 9288SOL     OW28762   4.444   1.133   2.879
 9288SOL    HW128763   4.349   1.137   2.909
 9288SOL    HW228764   4.455   1.059   2.812
 9289SOL     OW28765   4.428   0.595   1.326
 9289SOL    HW128766   4.428   0.514   1.384
 9289SOL    HW228767   4.363   0.662   1.362
 9290SOL     OW28768   5.341   0.369   3.259
 9290SOL    HW128769   5.371   0.387   3.353
 9290SOL    HW228770   5.362   0.448   3.202
 9291SOL     OW28771   1.434   4.964   5.993
 9291SOL    HW128772   1.384   4.877   5.995
 9291SOL    HW228773   1.503   4.964   6.066
 9292SOL     OW28774   1.961   2.526   6.025
 9292SOL    HW128775   1.954   2.605   6.085
 9292SOL    HW228776   1.936   2.553   5.932
 9293SOL     OW28777   6.169   3.025   6.494
 9293SOL    HW128778   6.214   3.093   6.437
 9293SOL    HW228779   6.235   2.984   6.556
 9294SOL     OW28780   4.918   0.497   5.942
 9294SOL    HW128781   4.933   0.491   6.041
 9294SOL    HW228782   5.002   0.528   5.898
 9295SOL     OW28783   5.559   0.815   5.087
 9295SOL    HW128784   5.485   0.823   5.021
 9295SOL    HW228785   5.646   0.842   5.044
 9296SOL     OW28786   1.160   5.416   6.588
 9296SOL    HW128787   1.109   5.433   6.672
 9296SOL    HW228788   1.230   5.487   6.577
 9297SOL     OW28789   1.177   6.534   3.091
 9297SOL    HW128790   1.129   6.514   3.005
 9297SOL    HW228791   1.156   6.627   3.120
 9298SOL     OW28792   1.226   6.203   6.851
 9298SOL    HW128793   1.177   6.117   6.841
 9298SOL    HW228794   1.191   6.269   6.785
 9299SOL     OW28795   0.354   1.999   4.254
 9299SOL    HW128796   0.283   1.942   4.214
 9299SOL    HW228797   0.433   1.942   4.278
 9300SOL     OW28798   0.701   4.549   5.782
 9300SOL    HW128799   0.755   4.499   5.850
 9300SOL    HW228800   0.694   4.645   5.809
 9301SOL     OW28801   5.548   5.372   5.090
 9301SOL    HW128802   5.522   5.277   5.110
 9301SOL    HW228803   5.514   5.431   5.163
 9302SOL     OW28804   2.057   2.909   4.230
 9302SOL    HW128805   2.151   2.881   4.245
 9302SOL    HW228806   2.000   2.878   4.307
 9303SOL     OW28807   2.913   3.725   0.642
 9303SOL    HW128808   2.964   3.737   0.727
 9303SOL    HW228809   2.916   3.629   0.614
 9304SOL     OW28810   4.003   4.625   1.613
 9304SOL    HW128811   3.994   4.533   1.652
 9304SOL    HW228812   4.062   4.622   1.533
 9305SOL     OW28813   3.757   1.540   0.917
 9305SOL    HW128814   3.693   1.613   0.942
 9305SOL    HW228815   3.822   1.526   0.991
 9306SOL     OW28816   1.069   3.987   5.251
 9306SOL    HW128817   1.123   4.014   5.331
 9306SOL    HW228818   1.130   3.967   5.175
 9307SOL     OW28819   0.832   4.005   1.075
 9307SOL    HW128820   0.876   4.071   1.013
 9307SOL    HW228821   0.887   3.922   1.080
 9308SOL     OW28822   1.488   3.837   0.440
 9308SOL    HW128823   1.418   3.806   0.375
 9308SOL    HW228824   1.562   3.770   0.443
 9309SOL     OW28825   3.605   5.475   6.093
 9309SOL    HW128826   3.616   5.387   6.047
 9309SOL    HW228827   3.616   5.549   6.027
 9310SOL     OW28828   5.588   5.841   5.527
 9310SOL    HW128829   5.492   5.842   5.554
 9310SOL    HW228830   5.608   5.757   5.477
 9311SOL     OW28831   4.574   5.059   1.479
 9311SOL    HW128832   4.476   5.060   1.463
 9311SOL    HW228833   4.601   4.970   1.516
 9312SOL     OW28834   1.268   3.502   1.543
 9312SOL    HW128835   1.299   3.555   1.464
 9312SOL    HW228836   1.281   3.556   1.626
 9313SOL     OW28837   6.992   0.436   1.808
 9313SOL    HW128838   0.031   0.363   1.829
 9313SOL    HW228839   6.978   0.441   1.709
 9314SOL     OW28840   6.501   4.313   0.096
 9314SOL    HW128841   6.470   4.241   0.034
 9314SOL    HW228842   6.421   4.359   0.136
 9315SOL     OW28843   0.062   0.135   5.654
 9315SOL    HW128844   0.008   0.052   5.667
 9315SOL    HW228845   0.072   0.184   5.741
 9316SOL     OW28846   5.660   6.534   5.929
 9316SOL    HW128847   5.580   6.474   5.927
 9316SOL    HW228848   5.663   6.588   5.844
 9317SOL     OW28849   4.716   5.859   3.914
 9317SOL    HW128850   4.656   5.839   3.992
 9317SOL    HW228851   4.667   5.914   3.847
 9318SOL     OW28852   6.196   1.065   6.216
 9318SOL    HW128853   6.102   1.035   6.231
 9318SOL    HW228854   6.221   1.049   6.120
 9319SOL     OW28855   2.001   3.052   0.760
 9319SOL    HW128856   1.977   3.088   0.850
 9319SOL    HW228857   2.094   3.014   0.763
 9320SOL     OW28858   3.798   0.699   5.145
 9320SOL    HW128859   3.770   0.795   5.145
 9320SOL    HW228860   3.897   0.692   5.154
 9321SOL     OW28861   1.124   0.356   5.292
 9321SOL    HW128862   1.188   0.283   5.266
 9321SOL    HW228863   1.033   0.316   5.308
 9322SOL     OW28864   6.833   3.949   6.465
 9322SOL    HW128865   6.928   3.961   6.493
 9322SOL    HW228866   6.773   3.987   6.535
 9323SOL     OW28867   1.057   1.071   5.084
 9323SOL    HW128868   1.042   1.111   5.174
 9323SOL    HW228869   1.049   0.971   5.091
 9324SOL     OW28870   1.383   4.646   2.142
 9324SOL    HW128871   1.403   4.718   2.076
 9324SOL    HW228872   1.408   4.557   2.103
 9325SOL     OW28873   6.138   0.415   0.018
 9325SOL    HW128874   6.107   0.459   6.959
 9325SOL    HW228875   6.076   0.340   0.040
 9326SOL     OW28876   2.749   4.509   0.282
 9326SOL    HW128877   2.806   4.428   0.267
 9326SOL    HW228878   2.751   4.567   0.200
 9327SOL     OW28879   4.878   0.262   2.468
 9327SOL    HW128880   4.787   0.223   2.480
 9327SOL    HW228881   4.884   0.349   2.516
 9328SOL     OW28882   2.231   0.862   4.347
 9328SOL    HW128883   2.291   0.783   4.360
 9328SOL    HW228884   2.172   0.846   4.268
 9329SOL     OW28885   5.744   3.856   1.298
 9329SOL    HW128886   5.677   3.823   1.231
 9329SOL    HW228887   5.836   3.843   1.263
 9330SOL     OW28888   6.928   0.394   5.407
 9330SOL    HW128889   6.948   0.365   5.314
 9330SOL    HW228890   6.835   0.366   5.432
 9331SOL     OW28891   2.679   0.955   6.480
 9331SOL    HW128892   2.673   1.024   6.407
 9331SOL    HW228893   2.622   0.983   6.557
 9332SOL     OW28894   3.224   4.589   0.391
 9332SOL    HW128895   3.313   4.557   0.356
 9332SOL    HW228896   3.228   4.688   0.404
 9333SOL     OW28897   3.932   5.171   6.509
 9333SOL    HW128898   3.965   5.257   6.470
 9333SOL    HW228899   3.980   5.154   6.595
 9334SOL     OW28900   5.165   6.836   4.748
 9334SOL    HW128901   5.135   6.839   4.843
 9334SOL    HW228902   5.096   6.788   4.693
 9335SOL     OW28903   1.499   1.560   6.602
 9335SOL    HW128904   1.409   1.594   6.576
 9335SOL    HW228905   1.490   1.492   6.675
 9336SOL     OW28906   4.000   0.355   4.599
 9336SOL    HW128907   3.935   0.280   4.606
 9336SOL    HW228908   4.092   0.322   4.620
 9337SOL     OW28909   4.408   0.609   4.936
 9337SOL    HW128910   4.328   0.565   4.896
 9337SOL    HW228911   4.385   0.701   4.965
 9338SOL     OW28912   6.151   0.164   1.038
 9338SOL    HW128913   6.082   0.236   1.036
 9338SOL    HW228914   6.227   0.189   0.978
 9339SOL     OW28915   6.146   6.927   0.055
 9339SOL    HW128916   6.134   6.983   6.999
 9339SOL    HW228917   6.069   6.940   0.117
 9340SOL     OW28918   4.231   4.640   3.346
 9340SOL    HW128919   4.289   4.685   3.414
 9340SOL    HW228920   4.136   4.668   3.359
 9341SOL     OW28921   5.605   5.074   1.635
 9341SOL    HW128922   5.655   5.126   1.704
 9341SOL    HW228923   5.625   4.976   1.645
 9342SOL     OW28924   3.167   6.922   4.205
 9342SOL    HW128925   3.125   6.881   4.285
 9342SOL    HW228926   3.123   7.009   4.185
 9343SOL     OW28927   4.653   4.286   2.116
 9343SOL    HW128928   4.635   4.201   2.165
 9343SOL    HW228929   4.590   4.293   2.039
 9344SOL     OW28930   5.463   6.570   1.645
 9344SOL    HW128931   5.451   6.512   1.565
 9344SOL    HW228932   5.479   6.514   1.726
 9345SOL     OW28933   6.683   5.321   1.097
 9345SOL    HW128934   6.660   5.387   1.025
 9345SOL    HW228935   6.662   5.228   1.064
 9346SOL     OW28936   4.926   1.076   1.988
 9346SOL    HW128937   4.884   1.004   1.933
 9346SOL    HW228938   4.925   1.162   1.937
 9347SOL     OW28939   3.456   4.426   0.502
 9347SOL    HW128940   3.431   4.371   0.423
 9347SOL    HW228941   3.545   4.470   0.486
 9348SOL     OW28942   2.848   5.930   2.367
 9348SOL    HW128943   2.828   5.877   2.450
 9348SOL    HW228944   2.945   5.923   2.346
 9349SOL     OW28945   5.931   5.270   2.058
 9349SOL    HW128946   5.887   5.333   2.122
 9349SOL    HW228947   5.863   5.238   1.991
 9350SOL     OW28948   6.654   2.200   5.186
 9350SOL    HW128949   6.610   2.242   5.266
 9350SOL    HW228950   6.736   2.150   5.216
 9351SOL     OW28951   3.410   6.918   5.810
 9351SOL    HW128952   3.403   6.819   5.825
 9351SOL    HW228953   3.500   6.950   5.840
 9352SOL     OW28954   3.296   1.507   6.211
 9352SOL    HW128955   3.210   1.535   6.167
 9352SOL    HW228956   3.281   1.500   6.310
 9353SOL     OW28957   0.657   4.749   0.751
 9353SOL    HW128958   0.577   4.723   0.805
 9353SOL    HW228959   0.668   4.848   0.755
 9354SOL     OW28960   0.303   2.047   5.975
 9354SOL    HW128961   0.236   1.980   6.006
 9354SOL    HW228962   0.310   2.120   6.042
 9355SOL     OW28963   0.695   1.341   4.292
 9355SOL    HW128964   0.759   1.289   4.235
 9355SOL    HW228965   0.681   1.293   4.378
 9356SOL     OW28966   4.405   6.052   2.022
 9356SOL    HW128967   4.387   5.966   1.975
 9356SOL    HW228968   4.344   6.123   1.987
 9357SOL     OW28969   2.366   3.459   6.722
 9357SOL    HW128970   2.434   3.531   6.706
 9357SOL    HW228971   2.276   3.500   6.734
 9358SOL     OW28972   6.673   3.397   2.709
 9358SOL    HW128973   6.674   3.442   2.798
 9358SOL    HW228974   6.738   3.442   2.648
 9359SOL     OW28975   0.730   3.818   5.693
 9359SOL    HW128976   0.690   3.726   5.695
 9359SOL    HW228977   0.827   3.812   5.670
 9360SOL     OW28978   1.389   5.355   6.823
 9360SOL    HW128979   1.441   5.420   6.768
 9360SOL    HW228980   1.322   5.405   6.878
 9361SOL     OW28981   1.245   6.088   2.248
 9361SOL    HW128982   1.270   6.158   2.315
 9361SOL    HW228983   1.172   6.031   2.286
 9362SOL     OW28984   1.996   3.512   3.102
 9362SOL    HW128985   1.951   3.543   3.018
 9362SOL    HW228986   2.065   3.578   3.130
 9363SOL     OW28987   3.723   6.752   2.217
 9363SOL    HW128988   3.802   6.723   2.161
 9363SOL    HW228989   3.662   6.674   2.230
 9364SOL     OW28990   4.378   3.077   6.284
 9364SOL    HW128991   4.323   3.033   6.355
 9364SOL    HW228992   4.469   3.097   6.320
 9365SOL     OW28993   2.466   2.021   4.832
 9365SOL    HW128994   2.387   2.026   4.893
 9365SOL    HW228995   2.514   1.935   4.846
 9366SOL     OW28996   3.344   6.526   6.165
 9366SOL    HW128997   3.433   6.535   6.121
 9366SOL    HW228998   3.348   6.563   6.257
 9367SOL     OW28999   0.271   6.474   2.725
 9367SOL    HW129000   0.337   6.442   2.657
 9367SOL    HW229001   0.180   6.477   2.684
 9368SOL     OW29002   3.021   1.339   2.957
 9368SOL    HW129003   2.933   1.366   2.995
 9368SOL    HW229004   3.093   1.398   2.993
 9369SOL     OW29005   6.625   6.450   5.043
 9369SOL    HW129006   6.573   6.506   4.978
 9369SOL    HW229007   6.654   6.507   5.120
 9370SOL     OW29008   4.984   0.547   3.108
 9370SOL    HW129009   5.009   0.549   3.011
 9370SOL    HW229010   4.893   0.587   3.119
 9371SOL     OW29011   2.751   5.088   0.372
 9371SOL    HW129012   2.744   4.994   0.337
 9371SOL    HW229013   2.663   5.133   0.363
 9372SOL     OW29014   5.883   6.402   2.579
 9372SOL    HW129015   5.879   6.450   2.666
 9372SOL    HW229016   5.800   6.349   2.566
 9373SOL     OW29017   4.981   2.138   3.044
 9373SOL    HW129018   4.910   2.069   3.032
 9373SOL    HW229019   5.058   2.118   2.983
 9374SOL     OW29020   0.514   3.611   0.399
 9374SOL    HW129021   0.546   3.566   0.482
 9374SOL    HW229022   0.566   3.577   0.321
 9375SOL     OW29023   0.496   1.145   2.259
 9375SOL    HW129024   0.412   1.099   2.287
 9375SOL    HW229025   0.554   1.161   2.339
 9376SOL     OW29026   2.740   4.204   1.275
 9376SOL    HW129027   2.725   4.288   1.326
 9376SOL    HW229028   2.663   4.189   1.213
 9377SOL     OW29029   1.986   5.266   4.182
 9377SOL    HW129030   1.971   5.211   4.100
 9377SOL    HW229031   2.039   5.348   4.158
 9378SOL     OW29032   1.841   1.169   3.972
 9378SOL    HW129033   1.886   1.218   4.047
 9378SOL    HW229034   1.760   1.221   3.943
 9379SOL     OW29035   4.328   6.402   5.780
 9379SOL    HW129036   4.252   6.344   5.811
 9379SOL    HW229037   4.385   6.351   5.716
 9380SOL     OW29038   5.187   5.409   4.618
 9380SOL    HW129039   5.218   5.316   4.633
 9380SOL    HW229040   5.088   5.410   4.600
 9381SOL     OW29041   3.395   2.462   6.015
 9381SOL    HW129042   3.378   2.374   5.971
 9381SOL    HW229043   3.373   2.455   6.112
 9382SOL     OW29044   3.889   0.863   3.869
 9382SOL    HW129045   3.879   0.771   3.906
 9382SOL    HW229046   3.804   0.914   3.884
 9383SOL     OW29047   0.513   5.392   4.543
 9383SOL    HW129048   0.581   5.329   4.581
 9383SOL    HW229049   0.423   5.371   4.580
 9384SOL     OW29050   4.148   0.419   2.162
 9384SOL    HW129051   4.148   0.370   2.075
 9384SOL    HW229052   4.211   0.374   2.225
 9385SOL     OW29053   4.434   1.110   3.423
 9385SOL    HW129054   4.445   1.192   3.368
 9385SOL    HW229055   4.337   1.092   3.439
 9386SOL     OW29056   1.725   6.247   5.264
 9386SOL    HW129057   1.794   6.198   5.210
 9386SOL    HW229058   1.710   6.198   5.350
 9387SOL     OW29059   2.917   1.801   6.562
 9387SOL    HW129060   2.951   1.729   6.501
 9387SOL    HW229061   2.967   1.798   6.648
 9388SOL     OW29062   3.133   6.072   2.632
 9388SOL    HW129063   3.097   5.988   2.672
 9388SOL    HW229064   3.228   6.085   2.660
 9389SOL     OW29065   2.006   0.030   3.364
 9389SOL    HW129066   2.094   0.077   3.362
 9389SOL    HW229067   1.955   0.058   3.444
 9390SOL     OW29068   4.911   4.666   6.016
 9390SOL    HW129069   4.914   4.765   6.025
 9390SOL    HW229070   4.882   4.642   5.923
 9391SOL     OW29071   2.356   1.704   5.325
 9391SOL    HW129072   2.440   1.650   5.318
 9391SOL    HW229073   2.379   1.798   5.350
 9392SOL     OW29074   5.884   5.970   5.053
 9392SOL    HW129075   5.809   5.904   5.044
 9392SOL    HW229076   5.914   5.973   5.148
 9393SOL     OW29077   3.078   6.405   6.826
 9393SOL    HW129078   3.042   6.401   6.919
 9393SOL    HW229079   3.015   6.459   6.769
 9394SOL     OW29080   6.684   0.532   1.601
 9394SOL    HW129081   6.691   0.626   1.566
 9394SOL    HW229082   6.776   0.492   1.604
 9395SOL     OW29083   2.878   1.660   1.227
 9395SOL    HW129084   2.975   1.678   1.215
 9395SOL    HW229085   2.865   1.568   1.264
 9396SOL     OW29086   2.317   4.157   3.996
 9396SOL    HW129087   2.283   4.063   3.983
 9396SOL    HW229088   2.277   4.195   4.080
 9397SOL     OW29089   4.838   0.331   6.339
 9397SOL    HW129090   4.794   0.261   6.396
 9397SOL    HW229091   4.776   0.357   6.265
 9398SOL     OW29092   0.055   1.476   4.928
 9398SOL    HW129093   0.033   1.573   4.920
 9398SOL    HW229094   0.079   1.440   4.838
 9399SOL     OW29095   0.849   2.531   5.722
 9399SOL    HW129096   0.834   2.608   5.784
 9399SOL    HW229097   0.865   2.565   5.630
 9400SOL     OW29098   4.738   0.615   1.517
 9400SOL    HW129099   4.800   0.687   1.547
 9400SOL    HW229100   4.700   0.639   1.427
 9401SOL     OW29101   6.433   0.741   3.885
 9401SOL    HW129102   6.426   0.758   3.787
 9401SOL    HW229103   6.464   0.823   3.932
 9402SOL     OW29104   1.473   5.220   2.955
 9402SOL    HW129105   1.521   5.251   3.037
 9402SOL    HW229106   1.375   5.238   2.965
 9403SOL     OW29107   6.839   0.993   2.834
 9403SOL    HW129108   6.787   0.915   2.798
 9403SOL    HW229109   6.789   1.078   2.816
 9404SOL     OW29110   0.905   3.253   0.488
 9404SOL    HW129111   0.995   3.221   0.518
 9404SOL    HW229112   0.839   3.179   0.493
 9405SOL     OW29113   2.523   4.579   3.769
 9405SOL    HW129114   2.526   4.657   3.706
 9405SOL    HW229115   2.603   4.583   3.830
 9406SOL     OW29116   6.673   2.532   6.028
 9406SOL    HW129117   6.742   2.478   5.978
 9406SOL    HW229118   6.687   2.629   6.010
 9407SOL     OW29119   3.189   5.057   3.632
 9407SOL    HW129120   3.261   5.105   3.683
 9407SOL    HW229121   3.140   4.996   3.694
 9408SOL     OW29122   6.616   3.168   5.857
 9408SOL    HW129123   6.593   3.223   5.938
 9408SOL    HW229124   6.688   3.103   5.881
 9409SOL     OW29125   6.027   5.845   0.349
 9409SOL    HW129126   5.929   5.827   0.334
 9409SOL    HW229127   6.080   5.798   0.279
 9410SOL     OW29128   2.524   0.459   1.874
 9410SOL    HW129129   2.451   0.415   1.821
 9410SOL    HW229130   2.493   0.548   1.907
 9411SOL     OW29131   3.355   3.339   2.467
 9411SOL    HW129132   3.367   3.407   2.395
 9411SOL    HW229133   3.261   3.341   2.500
 9412SOL     OW29134   0.742   1.158   3.019
 9412SOL    HW129135   0.755   1.068   2.977
 9412SOL    HW229136   0.644   1.175   3.031
 9413SOL     OW29137   4.068   5.850   3.576
 9413SOL    HW129138   4.085   5.752   3.584
 9413SOL    HW229139   4.006   5.868   3.500
 9414SOL     OW29140   3.069   1.063   2.946
 9414SOL    HW129141   2.990   1.012   2.910
 9414SOL    HW229142   3.060   1.160   2.920
 9415SOL     OW29143   2.455   0.009   2.384
 9415SOL    HW129144   2.382   0.006   2.316
 9415SOL    HW229145   2.498   6.944   2.392
 9416SOL     OW29146   6.910   2.202   0.341
 9416SOL    HW129147   6.996   2.158   0.367
 9416SOL    HW229148   6.894   2.188   0.243
 9417SOL     OW29149   4.510   0.448   0.642
 9417SOL    HW129150   4.517   0.368   0.582
 9417SOL    HW229151   4.599   0.492   0.649
 9418SOL     OW29152   3.092   0.525   1.101
 9418SOL    HW129153   3.189   0.520   1.125
 9418SOL    HW229154   3.038   0.480   1.173
 9419SOL     OW29155   2.878   4.618   5.607
 9419SOL    HW129156   2.878   4.664   5.696
 9419SOL    HW229157   2.839   4.526   5.617
 9420SOL     OW29158   5.683   4.161   5.808
 9420SOL    HW129159   5.748   4.234   5.786
 9420SOL    HW229160   5.731   4.073   5.812
 9421SOL     OW29161   2.608   6.090   4.292
 9421SOL    HW129162   2.612   6.003   4.341
 9421SOL    HW229163   2.609   6.072   4.194
 9422SOL     OW29164   2.956   5.386   2.735
 9422SOL    HW129165   3.051   5.394   2.706
 9422SOL    HW229166   2.937   5.292   2.764
 9423SOL     OW29167   2.690   6.488   3.703
 9423SOL    HW129168   2.637   6.569   3.728
 9423SOL    HW229169   2.753   6.465   3.777
 9424SOL     OW29170   5.265   2.541   5.066
 9424SOL    HW129171   5.189   2.602   5.045
 9424SOL    HW229172   5.239   2.480   5.142
 9425SOL     OW29173   5.664   3.775   1.051
 9425SOL    HW129174   5.599   3.832   1.000
 9425SOL    HW229175   5.749   3.767   0.999
 9426SOL     OW29176   3.716   1.611   6.105
 9426SOL    HW129177   3.788   1.613   6.175
 9426SOL    HW229178   3.739   1.544   6.035
 9427SOL     OW29179   2.388   5.316   3.227
 9427SOL    HW129180   2.340   5.372   3.294
 9427SOL    HW229181   2.416   5.374   3.150
 9428SOL     OW29182   6.943   1.116   1.450
 9428SOL    HW129183   0.016   1.103   1.455
 9428SOL    HW229184   6.905   1.115   1.543
 9429SOL     OW29185   2.214   3.933   3.001
 9429SOL    HW129186   2.310   3.949   2.980
 9429SOL    HW229187   2.159   3.947   2.919
 9430SOL     OW29188   0.315   3.561   4.183
 9430SOL    HW129189   0.295   3.645   4.232
 9430SOL    HW229190   0.242   3.495   4.199
 9431SOL     OW29191   6.511   3.864   0.843
 9431SOL    HW129192   6.582   3.864   0.913
 9431SOL    HW229193   6.466   3.954   0.841
 9432SOL     OW29194   5.435   6.992   3.528
 9432SOL    HW129195   5.417   6.945   3.615
 9432SOL    HW229196   5.385   0.053   3.526
 9433SOL     OW29197   2.964   5.925   3.029
 9433SOL    HW129198   3.012   5.992   2.973
 9433SOL    HW229199   3.030   5.870   3.079
 9434SOL     OW29200   5.164   5.677   2.457
 9434SOL    HW129201   5.171   5.660   2.359
 9434SOL    HW229202   5.225   5.616   2.506
 9435SOL     OW29203   0.608   2.809   4.008
 9435SOL    HW129204   0.656   2.884   3.964
 9435SOL    HW229205   0.608   2.729   3.948
 9436SOL     OW29206   1.835   2.823   1.248
 9436SOL    HW129207   1.875   2.913   1.233
 9436SOL    HW229208   1.869   2.786   1.335
 9437SOL     OW29209   1.171   5.525   2.995
 9437SOL    HW129210   1.184   5.599   3.062
 9437SOL    HW229211   1.122   5.560   2.916
 9438SOL     OW29212   0.720   6.900   1.401
 9438SOL    HW129213   0.780   6.873   1.476
 9438SOL    HW229214   0.625   6.875   1.423
 9439SOL     OW29215   0.058   3.033   0.528
 9439SOL    HW129216   0.153   3.025   0.498
 9439SOL    HW229217   0.036   2.958   0.591
 9440SOL     OW29218   3.893   4.862   3.355
 9440SOL    HW129219   3.910   4.844   3.258
 9440SOL    HW229220   3.800   4.896   3.367
 9441SOL     OW29221   5.855   4.382   5.767
 9441SOL    HW129222   5.813   4.424   5.847
 9441SOL    HW229223   5.945   4.345   5.792
 9442SOL     OW29224   4.550   3.343   1.061
 9442SOL    HW129225   4.463   3.381   1.091
 9442SOL    HW229226   4.612   3.337   1.139
 9443SOL     OW29227   2.520   5.132   0.873
 9443SOL    HW129228   2.559   5.162   0.786
 9443SOL    HW229229   2.451   5.198   0.903
 9444SOL     OW29230   1.126   3.252   1.115
 9444SOL    HW129231   1.200   3.319   1.111
 9444SOL    HW229232   1.045   3.294   1.154
 9445SOL     OW29233   6.134   2.825   2.840
 9445SOL    HW129234   6.223   2.827   2.884
 9445SOL    HW229235   6.129   2.898   2.772
 9446SOL     OW29236   6.418   5.849   4.196
 9446SOL    HW129237   6.444   5.944   4.207
 9446SOL    HW229238   6.321   5.838   4.220
 9447SOL     OW29239   5.747   4.893   3.410
 9447SOL    HW129240   5.759   4.834   3.330
 9447SOL    HW229241   5.792   4.981   3.394
 9448SOL     OW29242   0.120   0.287   6.510
 9448SOL    HW129243   0.174   0.309   6.429
 9448SOL    HW229244   0.071   0.201   6.496
 9449SOL     OW29245   5.948   0.214   0.009
 9449SOL    HW129246   5.974   0.154   6.958
 9449SOL    HW229247   5.900   0.294   6.998
 9450SOL     OW29248   1.844   5.629   4.157
 9450SOL    HW129249   1.943   5.623   4.172
 9450SOL    HW229250   1.816   5.725   4.154
 9451SOL     OW29251   4.480   0.217   5.793
 9451SOL    HW129252   4.401   0.276   5.811
 9451SOL    HW229253   4.564   0.271   5.800
 9452SOL     OW29254   1.667   3.826   0.108
 9452SOL    HW129255   1.572   3.844   0.083
 9452SOL    HW229256   1.723   3.905   0.087
 9453SOL     OW29257   2.528   4.535   2.887
 9453SOL    HW129258   2.463   4.610   2.899
 9453SOL    HW229259   2.517   4.469   2.962
 9454SOL     OW29260   3.484   3.723   6.482
 9454SOL    HW129261   3.583   3.731   6.476
 9454SOL    HW229262   3.446   3.711   6.390
 9455SOL     OW29263   2.373   1.919   3.929
 9455SOL    HW129264   2.374   1.887   4.024
 9455SOL    HW229265   2.462   1.957   3.906
 9456SOL     OW29266   7.000   3.570   1.066
 9456SOL    HW129267   0.069   3.538   1.057
 9456SOL    HW229268   6.946   3.535   0.989
 9457SOL     OW29269   1.521   4.060   4.317
 9457SOL    HW129270   1.456   4.043   4.392
 9457SOL    HW229271   1.478   4.118   4.248
 9458SOL     OW29272   0.951   3.353   6.791
 9458SOL    HW129273   0.991   3.264   6.814
 9458SOL    HW229274   0.944   3.361   6.692
 9459SOL     OW29275   5.678   4.384   3.733
 9459SOL    HW129276   5.684   4.319   3.809
 9459SOL    HW229277   5.725   4.469   3.759
 9460SOL     OW29278   1.457   3.455   3.831
 9460SOL    HW129279   1.476   3.506   3.915
 9460SOL    HW229280   1.492   3.506   3.752
 9461SOL     OW29281   0.200   1.751   1.591
 9461SOL    HW129282   0.136   1.685   1.630
 9461SOL    HW229283   0.160   1.843   1.597
 9462SOL     OW29284   2.027   3.306   3.284
 9462SOL    HW129285   1.990   3.353   3.365
 9462SOL    HW229286   2.023   3.368   3.206
 9463SOL     OW29287   6.431   0.362   1.595
 9463SOL    HW129288   6.351   0.415   1.570
 9463SOL    HW229289   6.510   0.423   1.603
 9464SOL     OW29290   6.163   0.512   0.847
 9464SOL    HW129291   6.201   0.597   0.812
 9464SOL    HW229292   6.151   0.518   0.946
 9465SOL     OW29293   0.600   4.402   1.883
 9465SOL    HW129294   0.631   4.402   1.788
 9465SOL    HW229295   0.576   4.309   1.910
 9466SOL     OW29296   3.780   4.615   5.320
 9466SOL    HW129297   3.738   4.527   5.298
 9466SOL    HW229298   3.816   4.613   5.413
 9467SOL     OW29299   1.549   2.614   1.701
 9467SOL    HW129300   1.629   2.577   1.654
 9467SOL    HW229301   1.505   2.683   1.642
 9468SOL     OW29302   5.851   3.498   6.624
 9468SOL    HW129303   5.903   3.433   6.569
 9468SOL    HW229304   5.830   3.579   6.569
 9469SOL     OW29305   6.266   5.451   1.878
 9469SOL    HW129306   6.204   5.520   1.916
 9469SOL    HW229307   6.260   5.368   1.933
 9470SOL     OW29308   4.990   3.301   6.061
 9470SOL    HW129309   4.893   3.293   6.038
 9470SOL    HW229310   5.035   3.362   5.994
 9471SOL     OW29311   6.731   2.325   3.906
 9471SOL    HW129312   6.759   2.403   3.851
 9471SOL    HW229313   6.795   2.314   3.983
 9472SOL     OW29314   6.373   3.122   5.055
 9472SOL    HW129315   6.318   3.109   4.973
 9472SOL    HW229316   6.329   3.189   5.115
 9473SOL     OW29317   2.790   4.887   7.013
 9473SOL    HW129318   2.738   4.803   6.995
 9473SOL    HW229319   2.816   4.929   6.926
 9474SOL     OW29320   6.739   3.462   0.022
 9474SOL    HW129321   6.835   3.434   0.013
 9474SOL    HW229322   6.680   3.394   7.004
 9475SOL     OW29323   3.875   3.270   6.727
 9475SOL    HW129324   3.911   3.209   6.797
 9475SOL    HW229325   3.920   3.251   6.639
 9476SOL     OW29326   4.027   3.658   4.555
 9476SOL    HW129327   4.032   3.582   4.619
 9476SOL    HW229328   4.065   3.630   4.467
 9477SOL     OW29329   0.876   2.745   0.691
 9477SOL    HW129330   0.890   2.647   0.679
 9477SOL    HW229331   0.797   2.774   0.636
 9478SOL     OW29332   5.006   3.032   0.686
 9478SOL    HW129333   5.098   3.063   0.660
 9478SOL    HW229334   4.978   2.959   0.624
 9479SOL     OW29335   4.234   6.124   0.023
 9479SOL    HW129336   4.265   6.042   7.000
 9479SOL    HW229337   4.144   6.107   0.063
 9480SOL     OW29338   5.661   4.724   0.941
 9480SOL    HW129339   5.643   4.814   0.981
 9480SOL    HW229340   5.653   4.729   0.841
 9481SOL     OW29341   5.252   3.170   2.574
 9481SOL    HW129342   5.187   3.220   2.516
 9481SOL    HW229343   5.332   3.227   2.592
 9482SOL     OW29344   0.518   1.337   2.971
 9482SOL    HW129345   0.462   1.282   3.033
 9482SOL    HW229346   0.474   1.427   2.958
 9483SOL     OW29347   2.009   0.945   1.069
 9483SOL    HW129348   1.913   0.921   1.065
 9483SOL    HW229349   2.042   0.970   0.978
 9484SOL     OW29350   4.632   0.254   3.970
 9484SOL    HW129351   4.589   0.232   4.057
 9484SOL    HW229352   4.661   0.169   3.926
 9485SOL     OW29353   0.603   0.981   0.193
 9485SOL    HW129354   0.622   0.899   0.139
 9485SOL    HW229355   0.553   1.046   0.136
 9486SOL     OW29356   3.900   6.544   0.992
 9486SOL    HW129357   3.870   6.627   0.946
 9486SOL    HW229358   3.969   6.566   1.061
 9487SOL     OW29359   3.481   3.832   4.316
 9487SOL    HW129360   3.414   3.793   4.379
 9487SOL    HW229361   3.476   3.932   4.320
 9488SOL     OW29362   3.119   6.724   1.072
 9488SOL    HW129363   3.067   6.638   1.066
 9488SOL    HW229364   3.111   6.774   0.987
 9489SOL     OW29365   4.525   4.490   0.989
 9489SOL    HW129366   4.562   4.398   1.006
 9489SOL    HW229367   4.497   4.530   1.076
 9490SOL     OW29368   6.037   5.106   2.342
 9490SOL    HW129369   6.024   5.138   2.248
 9490SOL    HW229370   6.056   5.008   2.341
 9491SOL     OW29371   5.756   4.691   3.901
 9491SOL    HW129372   5.680   4.756   3.905
 9491SOL    HW229373   5.816   4.715   3.824
 9492SOL     OW29374   3.579   3.083   4.646
 9492SOL    HW129375   3.557   3.174   4.611
 9492SOL    HW229376   3.515   3.016   4.608
 9493SOL     OW29377   2.892   5.592   4.197
 9493SOL    HW129378   2.814   5.537   4.168
 9493SOL    HW229379   2.971   5.532   4.213
 9494SOL     OW29380   4.921   2.713   2.781
 9494SOL    HW129381   4.871   2.759   2.708
 9494SOL    HW229382   4.979   2.779   2.829
 9495SOL     OW29383   6.298   1.419   3.475
 9495SOL    HW129384   6.369   1.456   3.414
 9495SOL    HW229385   6.311   1.456   3.567
 9496SOL     OW29386   5.976   3.577   1.386
 9496SOL    HW129387   5.976   3.670   1.348
 9496SOL    HW229388   6.018   3.515   1.321
 9497SOL     OW29389   5.939   6.679   5.982
 9497SOL    HW129390   5.888   6.629   5.912
 9497SOL    HW229391   6.037   6.674   5.962
 9498SOL     OW29392   4.737   6.862   4.747
 9498SOL    HW129393   4.782   6.951   4.737
 9498SOL    HW229394   4.733   6.837   4.843
 9499SOL     OW29395   2.046   4.415   6.492
 9499SOL    HW129396   2.092   4.377   6.573
 9499SOL    HW229397   2.093   4.498   6.463
 9500SOL     OW29398   5.014   0.097   1.102
 9500SOL    HW129399   5.031   0.041   1.021
 9500SOL    HW229400   4.936   0.059   1.153
 9501SOL     OW29401   2.743   1.176   4.929
 9501SOL    HW129402   2.767   1.219   5.016
 9501SOL    HW229403   2.806   1.207   4.858
 9502SOL     OW29404   5.410   3.088   5.081
 9502SOL    HW129405   5.425   2.989   5.072
 9502SOL    HW229406   5.318   3.111   5.051
 9503SOL     OW29407   0.829   1.860   1.631
 9503SOL    HW129408   0.805   1.766   1.657
 9503SOL    HW229409   0.927   1.875   1.646
 9504SOL     OW29410   0.503   2.507   0.283
 9504SOL    HW129411   0.525   2.496   0.380
 9504SOL    HW229412   0.523   2.601   0.255
 9505SOL     OW29413   4.837   4.451   4.154
 9505SOL    HW129414   4.759   4.397   4.185
 9505SOL    HW229415   4.895   4.474   4.233
 9506SOL     OW29416   0.939   2.225   6.376
 9506SOL    HW129417   0.969   2.295   6.311
 9506SOL    HW229418   0.977   2.137   6.350
 9507SOL     OW29419   0.652   1.709   3.122
 9507SOL    HW129420   0.562   1.728   3.082
 9507SOL    HW229421   0.707   1.793   3.123
 9508SOL     OW29422   6.053   2.087   1.427
 9508SOL    HW129423   6.032   2.072   1.523
 9508SOL    HW229424   6.151   2.105   1.416
 9509SOL     OW29425   0.808   0.885   4.033
 9509SOL    HW129426   0.711   0.911   4.034
 9509SOL    HW229427   0.858   0.946   3.973
 9510SOL     OW29428   1.476   3.686   3.587
 9510SOL    HW129429   1.462   3.776   3.629
 9510SOL    HW229430   1.396   3.628   3.604
 9511SOL     OW29431   1.606   0.344   1.009
 9511SOL    HW129432   1.573   0.332   0.915
 9511SOL    HW229433   1.650   0.433   1.017
 9512SOL     OW29434   6.067   1.444   1.640
 9512SOL    HW129435   6.029   1.437   1.548
 9512SOL    HW229436   6.138   1.374   1.651
 9513SOL     OW29437   2.257   3.703   6.242
 9513SOL    HW129438   2.212   3.614   6.236
 9513SOL    HW229439   2.324   3.711   6.168
 9514SOL     OW29440   1.977   5.349   5.898
 9514SOL    HW129441   1.933   5.430   5.937
 9514SOL    HW229442   1.919   5.312   5.824
 9515SOL     OW29443   1.889   5.655   0.744
 9515SOL    HW129444   1.974   5.665   0.795
 9515SOL    HW229445   1.886   5.721   0.669
 9516SOL     OW29446   6.137   4.836   6.233
 9516SOL    HW129447   6.103   4.859   6.142
 9516SOL    HW229448   6.220   4.780   6.224
 9517SOL     OW29449   1.829   4.826   1.060
 9517SOL    HW129450   1.755   4.893   1.056
 9517SOL    HW229451   1.909   4.867   1.104
 9518SOL     OW29452   1.908   1.714   0.312
 9518SOL    HW129453   1.986   1.652   0.325
 9518SOL    HW229454   1.940   1.798   0.268
 9519SOL     OW29455   3.857   3.537   4.941
 9519SOL    HW129456   3.819   3.456   4.896
 9519SOL    HW229457   3.949   3.555   4.907
 9520SOL     OW29458   1.466   2.229   3.525
 9520SOL    HW129459   1.563   2.207   3.515
 9520SOL    HW229460   1.456   2.320   3.564
 9521SOL     OW29461   4.525   5.774   1.592
 9521SOL    HW129462   4.579   5.691   1.578
 9521SOL    HW229463   4.429   5.755   1.571
 9522SOL     OW29464   2.675   5.740   1.048
 9522SOL    HW129465   2.770   5.722   1.025
 9522SOL    HW229466   2.670   5.781   1.139
 9523SOL     OW29467   2.546   4.585   4.868
 9523SOL    HW129468   2.493   4.670   4.877
 9523SOL    HW229469   2.637   4.598   4.906
 9524SOL     OW29470   3.415   3.011   1.842
 9524SOL    HW129471   3.485   2.978   1.906
 9524SOL    HW229472   3.398   2.942   1.773
 9525SOL     OW29473   2.458   3.304   5.366
 9525SOL    HW129474   2.424   3.214   5.340
 9525SOL    HW229475   2.545   3.295   5.415
 9526SOL     OW29476   5.248   5.414   1.531
 9526SOL    HW129477   5.334   5.374   1.563
 9526SOL    HW229478   5.242   5.509   1.563
 9527SOL     OW29479   1.196   0.344   3.162
 9527SOL    HW129480   1.296   0.338   3.153
 9527SOL    HW229481   1.174   0.411   3.233
 9528SOL     OW29482   0.076   1.544   0.336
 9528SOL    HW129483   0.102   1.552   0.432
 9528SOL    HW229484   0.038   1.453   0.320
 9529SOL     OW29485   6.209   3.320   5.521
 9529SOL    HW129486   6.251   3.299   5.433
 9529SOL    HW229487   6.275   3.303   5.594
 9530SOL     OW29488   1.886   3.762   2.349
 9530SOL    HW129489   1.853   3.705   2.423
 9530SOL    HW229490   1.809   3.797   2.296
 9531SOL     OW29491   4.812   5.343   2.846
 9531SOL    HW129492   4.797   5.389   2.758
 9531SOL    HW229493   4.863   5.258   2.831
 9532SOL     OW29494   6.861   6.699   2.591
 9532SOL    HW129495   6.794   6.700   2.516
 9532SOL    HW229496   6.866   6.790   2.632
 9533SOL     OW29497   6.761   0.196   5.969
 9533SOL    HW129498   6.811   0.275   5.934
 9533SOL    HW229499   6.774   0.118   5.909
 9534SOL     OW29500   6.974   3.844   5.159
 9534SOL    HW129501   6.877   3.864   5.147
 9534SOL    HW229502   6.985   3.756   5.206
 9535SOL     OW29503   2.485   1.416   5.793
 9535SOL    HW129504   2.514   1.495   5.739
 9535SOL    HW229505   2.391   1.429   5.824
 9536SOL     OW29506   2.742   4.293   5.316
 9536SOL    HW129507   2.832   4.255   5.295
 9536SOL    HW229508   2.749   4.393   5.324
 9537SOL     OW29509   2.756   6.419   2.594
 9537SOL    HW129510   2.839   6.364   2.601
 9537SOL    HW229511   2.778   6.515   2.608
 9538SOL     OW29512   6.232   1.991   3.457
 9538SOL    HW129513   6.281   2.064   3.410
 9538SOL    HW229514   6.219   1.914   3.395
 9539SOL     OW29515   2.800   3.952   5.201
 9539SOL    HW129516   2.831   3.889   5.130
 9539SOL    HW229517   2.872   4.019   5.220
 9540SOL     OW29518   5.944   4.282   4.416
 9540SOL    HW129519   5.987   4.358   4.368
 9540SOL    HW229520   5.865   4.316   4.467
 9541SOL     OW29521   3.314   1.086   5.689
 9541SOL    HW129522   3.390   1.072   5.626
 9541SOL    HW229523   3.309   1.183   5.714
 9542SOL     OW29524   5.515   4.097   4.644
 9542SOL    HW129525   5.599   4.151   4.651
 9542SOL    HW229526   5.532   4.016   4.590
 9543SOL     OW29527   3.599   1.246   5.085
 9543SOL    HW129528   3.586   1.299   5.169
 9543SOL    HW229529   3.618   1.150   5.109
 9544SOL     OW29530   0.471   0.994   3.388
 9544SOL    HW129531   0.380   0.954   3.399
 9544SOL    HW229532   0.467   1.092   3.411
 9545SOL     OW29533   6.181   5.352   3.730
 9545SOL    HW129534   6.112   5.291   3.691
 9545SOL    HW229535   6.272   5.321   3.702
 9546SOL     OW29536   3.066   2.653   5.714
 9546SOL    HW129537   3.007   2.577   5.686
 9546SOL    HW229538   3.019   2.708   5.783
 9547SOL     OW29539   2.596   6.379   4.240
 9547SOL    HW129540   2.627   6.295   4.284
 9547SOL    HW229541   2.550   6.437   4.308
 9548SOL     OW29542   5.693   6.065   5.583
 9548SOL    HW129543   5.659   5.975   5.556
 9548SOL    HW229544   5.627   6.110   5.643
 9549SOL     OW29545   3.016   3.193   1.275
 9549SOL    HW129546   3.032   3.292   1.273
 9549SOL    HW229547   3.036   3.159   1.367
 9550SOL     OW29548   0.428   1.529   0.932
 9550SOL    HW129549   0.521   1.557   0.912
 9550SOL    HW229550   0.381   1.505   0.847
 9551SOL     OW29551   6.304   1.630   3.988
 9551SOL    HW129552   6.358   1.631   4.072
 9551SOL    HW229553   6.306   1.721   3.946
 9552SOL     OW29554   1.195   6.364   2.622
 9552SOL    HW129555   1.201   6.264   2.617
 9552SOL    HW229556   1.145   6.398   2.543
 9553SOL     OW29557   6.109   4.084   6.884
 9553SOL    HW129558   6.110   4.070   6.983
 9553SOL    HW229559   6.058   4.168   6.863
 9554SOL     OW29560   2.574   0.589   1.593
 9554SOL    HW129561   2.534   0.627   1.510
 9554SOL    HW229562   2.548   0.493   1.602
 9555SOL     OW29563   1.415   1.009   2.866
 9555SOL    HW129564   1.386   1.102   2.888
 9555SOL    HW229565   1.347   0.965   2.808
 9556SOL     OW29566   1.826   2.263   1.028
 9556SOL    HW129567   1.787   2.337   0.973
 9556SOL    HW229568   1.870   2.196   0.967
 9557SOL     OW29569   0.166   0.408   3.247
 9557SOL    HW129570   0.232   0.458   3.191
 9557SOL    HW229571   0.073   0.438   3.223
 9558SOL     OW29572   6.992   5.996   4.490
 9558SOL    HW129573   7.024   5.910   4.531
 9558SOL    HW229574   6.923   6.037   4.550
 9559SOL     OW29575   0.496   3.989   1.509
 9559SOL    HW129576   0.544   3.907   1.477
 9559SOL    HW229577   0.539   4.071   1.469
 9560SOL     OW29578   1.168   1.784   3.211
 9560SOL    HW129579   1.131   1.691   3.206
 9560SOL    HW229580   1.100   1.848   3.176
 9561SOL     OW29581   0.933   6.253   0.215
 9561SOL    HW129582   0.989   6.304   0.149
 9561SOL    HW229583   0.944   6.155   0.200
 9562SOL     OW29584   3.438   0.431   5.442
 9562SOL    HW129585   3.364   0.499   5.438
 9562SOL    HW229586   3.500   0.454   5.517
 9563SOL     OW29587   6.582   0.030   0.470
 9563SOL    HW129588   6.552   7.016   0.382
 9563SOL    HW229589   6.553   0.125   0.476
 9564SOL     OW29590   2.968   0.272   6.804
 9564SOL    HW129591   2.892   0.207   6.808
 9564SOL    HW229592   3.048   0.232   6.850
 9565SOL     OW29593   4.190   6.178   5.046
 9565SOL    HW129594   4.103   6.130   5.049
 9565SOL    HW229595   4.210   6.218   5.135
 9566SOL     OW29596   2.400   4.670   6.946
 9566SOL    HW129597   2.319   4.727   6.957
 9566SOL    HW229598   2.378   4.592   6.887
 9567SOL     OW29599   6.022   4.332   6.791
 9567SOL    HW129600   6.108   4.383   6.795
 9567SOL    HW229601   5.955   4.376   6.850
 9568SOL     OW29602   4.541   2.967   6.838
 9568SOL    HW129603   4.551   3.039   6.769
 9568SOL    HW229604   4.571   3.002   6.927
 9569SOL     OW29605   0.230   0.542   2.858
 9569SOL    HW129606   0.283   0.549   2.942
 9569SOL    HW229607   0.149   0.485   2.875
 9570SOL     OW29608   0.814   2.678   2.293
 9570SOL    HW129609   0.751   2.701   2.219
 9570SOL    HW229610   0.766   2.685   2.380
 9571SOL     OW29611   2.179   3.873   0.029
 9571SOL    HW129612   2.110   3.801   0.020
 9571SOL    HW229613   2.264   3.845   7.011
 9572SOL     OW29614   1.801   5.946   0.908
 9572SOL    HW129615   1.897   5.971   0.900
 9572SOL    HW229616   1.794   5.852   0.942
 9573SOL     OW29617   0.940   1.410   6.839
 9573SOL    HW129618   1.000   1.410   6.920
 9573SOL    HW229619   0.967   1.335   6.778
 9574SOL     OW29620   3.732   2.895   4.111
 9574SOL    HW129621   3.635   2.879   4.125
 9574SOL    HW229622   3.772   2.935   4.194
 9575SOL     OW29623   6.005   1.500   0.944
 9575SOL    HW129624   6.011   1.573   1.013
 9575SOL    HW229625   5.984   1.413   0.990
 9576SOL     OW29626   3.120   0.735   2.691
 9576SOL    HW129627   3.107   0.710   2.787
 9576SOL    HW229628   3.031   0.748   2.647
 9577SOL     OW29629   1.015   0.823   4.204
 9577SOL    HW129630   1.045   0.734   4.171
 9577SOL    HW229631   0.929   0.848   4.159
 9578SOL     OW29632   0.058   4.243   3.631
 9578SOL    HW129633   0.087   4.312   3.696
 9578SOL    HW229634   7.025   4.176   3.677
 9579SOL     OW29635   1.994   5.522   2.676
 9579SOL    HW129636   2.002   5.617   2.707
 9579SOL    HW229637   2.085   5.482   2.667
 9580SOL     OW29638   4.422   3.181   0.653
 9580SOL    HW129639   4.488   3.218   0.588
 9580SOL    HW229640   4.470   3.136   0.728
 9581SOL     OW29641   1.556   5.200   6.242
 9581SOL    HW129642   1.545   5.103   6.264
 9581SOL    HW229643   1.517   5.255   6.315
 9582SOL     OW29644   4.553   4.454   4.676
 9582SOL    HW129645   4.556   4.547   4.640
 9582SOL    HW229646   4.478   4.446   4.742
 9583SOL     OW29647   3.109   4.036   0.934
 9583SOL    HW129648   3.076   4.111   0.876
 9583SOL    HW229649   3.112   4.066   1.029
 9584SOL     OW29650   6.596   6.420   0.296
 9584SOL    HW129651   6.501   6.393   0.286
 9584SOL    HW229652   6.630   6.457   0.209
 9585SOL     OW29653   5.932   0.567   3.343
 9585SOL    HW129654   5.983   0.596   3.262
 9585SOL    HW229655   5.978   0.600   3.425
 9586SOL     OW29656   5.614   4.024   2.063
 9586SOL    HW129657   5.606   4.008   2.161
 9586SOL    HW229658   5.549   3.966   2.014
 9587SOL     OW29659   6.176   0.483   2.381
 9587SOL    HW129660   6.165   0.387   2.357
 9587SOL    HW229661   6.271   0.500   2.408
 9588SOL     OW29662   0.691   1.752   2.220
 9588SOL    HW129663   0.637   1.805   2.286
 9588SOL    HW229664   0.703   1.659   2.254
 9589SOL     OW29665   2.680   5.749   6.236
 9589SOL    HW129666   2.749   5.677   6.236
 9589SOL    HW229667   2.619   5.736   6.314
 9590SOL     OW29668   0.054   4.665   2.084
 9590SOL    HW129669   7.019   4.607   2.138
 9590SOL    HW229670   0.109   4.607   2.022
 9591SOL     OW29671   3.003   5.844   0.579
 9591SOL    HW129672   2.914   5.886   0.597
 9591SOL    HW229673   3.019   5.770   0.645
 9592SOL     OW29674   3.743   4.730   1.591
 9592SOL    HW129675   3.839   4.702   1.584
 9592SOL    HW229676   3.699   4.678   1.663
 9593SOL     OW29677   6.502   1.186   4.813
 9593SOL    HW129678   6.567   1.175   4.738
 9593SOL    HW229679   6.409   1.192   4.776
 9594SOL     OW29680   1.265   5.847   3.466
 9594SOL    HW129681   1.217   5.808   3.388
 9594SOL    HW229682   1.255   5.786   3.545
 9595SOL     OW29683   2.239   4.640   4.453
 9595SOL    HW129684   2.219   4.547   4.485
 9595SOL    HW229685   2.171   4.666   4.384
 9596SOL     OW29686   7.005   5.917   0.333
 9596SOL    HW129687   0.015   5.831   0.297
 9596SOL    HW229688   6.950   5.899   0.415
 9597SOL     OW29689   0.201   4.545   0.716
 9597SOL    HW129690   0.175   4.630   0.763
 9597SOL    HW229691   0.240   4.567   0.626
 9598SOL     OW29692   0.318   3.845   4.978
 9598SOL    HW129693   0.306   3.944   4.979
 9598SOL    HW229694   0.297   3.810   4.887
 9599SOL     OW29695   3.070   0.656   5.325
 9599SOL    HW129696   3.149   0.706   5.289
 9599SOL    HW229697   3.020   0.614   5.249
 9600SOL     OW29698   1.737   0.027   6.584
 9600SOL    HW129699   1.679   7.019   6.509
 9600SOL    HW229700   1.820   0.068   6.545
 9601SOL     OW29701   6.285   4.397   0.236
 9601SOL    HW129702   6.200   4.439   0.204
 9601SOL    HW229703   6.272   4.356   0.325
 9602SOL     OW29704   6.172   5.171   6.364
 9602SOL    HW129705   6.171   5.084   6.413
 9602SOL    HW229706   6.248   5.227   6.397
 9603SOL     OW29707   3.190   0.113   5.062
 9603SOL    HW129708   3.173   0.194   5.118
 9603SOL    HW229709   3.203   0.034   5.121
 9604SOL     OW29710   4.973   0.047   0.534
 9604SOL    HW129711   4.945   6.988   0.580
 9604SOL    HW229712   5.073   0.049   0.527
 9605SOL     OW29713   0.279   5.135   5.333
 9605SOL    HW129714   0.273   5.109   5.429
 9605SOL    HW229715   0.346   5.077   5.287
 9606SOL     OW29716   1.225   6.343   5.235
 9606SOL    HW129717   1.149   6.340   5.170
 9606SOL    HW229718   1.286   6.266   5.218
 9607SOL     OW29719   1.097   2.395   2.431
 9607SOL    HW129720   1.038   2.392   2.351
 9607SOL    HW229721   1.179   2.340   2.413
 9608SOL     OW29722   6.537   6.377   2.420
 9608SOL    HW129723   6.541   6.343   2.326
 9608SOL    HW229724   6.626   6.412   2.447
 9609SOL     OW29725   1.397   3.696   5.243
 9609SOL    HW129726   1.420   3.740   5.156
 9609SOL    HW229727   1.433   3.751   5.318
 9610SOL     OW29728   1.612   4.257   4.463
 9610SOL    HW129729   1.643   4.198   4.537
 9610SOL    HW229730   1.596   4.202   4.381
 9611SOL     OW29731   0.081   6.433   0.876
 9611SOL    HW129732   0.015   6.364   0.906
 9611SOL    HW229733   0.174   6.397   0.888
 9612SOL     OW29734   6.200   3.319   1.731
 9612SOL    HW129735   6.121   3.333   1.790
 9612SOL    HW229736   6.185   3.238   1.673
 9613SOL     OW29737   4.293   6.013   3.674
 9613SOL    HW129738   4.223   5.949   3.642
 9613SOL    HW229739   4.260   6.060   3.756
 9614SOL     OW29740   3.818   3.279   1.416
 9614SOL    HW129741   3.839   3.278   1.318
 9614SOL    HW229742   3.724   3.248   1.430
 9615SOL     OW29743   1.189   6.779   2.411
 9615SOL    HW129744   1.202   6.718   2.332
 9615SOL    HW229745   1.091   6.797   2.423
 9616SOL     OW29746   4.262   4.138   0.653
 9616SOL    HW129747   4.254   4.174   0.561
 9616SOL    HW229748   4.354   4.155   0.688
 9617SOL     OW29749   0.825   3.752   4.076
 9617SOL    HW129750   0.871   3.840   4.066
 9617SOL    HW229751   0.732   3.759   4.040
 9618SOL     OW29752   4.655   6.742   6.001
 9618SOL    HW129753   4.707   6.795   5.934
 9618SOL    HW229754   4.716   6.708   6.072
 9619SOL     OW29755   1.478   0.364   0.761
 9619SOL    HW129756   1.394   0.342   0.713
 9619SOL    HW229757   1.556   0.331   0.708
 9620SOL     OW29758   5.395   1.682   6.875
 9620SOL    HW129759   5.400   1.582   6.876
 9620SOL    HW229760   5.380   1.714   6.782
 9621SOL     OW29761   1.626   1.150   2.700
 9621SOL    HW129762   1.705   1.166   2.641
 9621SOL    HW229763   1.597   1.055   2.692
 9622SOL     OW29764   5.787   1.506   6.277
 9622SOL    HW129765   5.802   1.565   6.198
 9622SOL    HW229766   5.689   1.502   6.297
 9623SOL     OW29767   4.425   5.391   5.541
 9623SOL    HW129768   4.347   5.328   5.534
 9623SOL    HW229769   4.444   5.408   5.638
 9624SOL     OW29770   5.343   4.592   4.399
 9624SOL    HW129771   5.390   4.505   4.381
 9624SOL    HW229772   5.396   4.645   4.466
 9625SOL     OW29773   5.496   4.341   0.184
 9625SOL    HW129774   5.451   4.369   0.099
 9625SOL    HW229775   5.479   4.409   0.255
 9626SOL     OW29776   2.458   6.073   5.640
 9626SOL    HW129777   2.448   6.078   5.740
 9626SOL    HW229778   2.555   6.072   5.616
 9627SOL     OW29779   0.037   3.909   4.892
 9627SOL    HW129780   0.044   3.883   4.988
 9627SOL    HW229781   0.050   3.828   4.835
 9628SOL     OW29782   6.260   4.021   0.869
 9628SOL    HW129783   6.319   4.058   0.797
 9628SOL    HW229784   6.201   4.093   0.905
 9629SOL     OW29785   6.836   5.858   2.808
 9629SOL    HW129786   6.820   5.955   2.830
 9629SOL    HW229787   6.799   5.801   2.882
 9630SOL     OW29788   6.300   6.159   5.638
 9630SOL    HW129789   6.329   6.126   5.549
 9630SOL    HW229790   6.375   6.210   5.681
 9631SOL     OW29791   4.528   2.310   0.695
 9631SOL    HW129792   4.555   2.217   0.673
 9631SOL    HW229793   4.567   2.373   0.628
 9632SOL     OW29794   2.614   5.116   1.984
 9632SOL    HW129795   2.635   5.025   1.950
 9632SOL    HW229796   2.639   5.184   1.914
 9633SOL     OW29797   3.988   4.403   0.514
 9633SOL    HW129798   3.957   4.354   0.433
 9633SOL    HW229799   4.061   4.466   0.488
 9634SOL     OW29800   0.719   5.560   3.391
 9634SOL    HW129801   0.626   5.535   3.364
 9634SOL    HW229802   0.749   5.639   3.338
 9635SOL     OW29803   1.782   4.237   5.402
 9635SOL    HW129804   1.856   4.266   5.463
 9635SOL    HW229805   1.730   4.316   5.372
 9636SOL     OW29806   4.159   1.904   5.850
 9636SOL    HW129807   4.080   1.923   5.908
 9636SOL    HW229808   4.226   1.850   5.900
 9637SOL     OW29809   3.904   2.681   1.380
 9637SOL    HW129810   3.881   2.592   1.418
 9637SOL    HW229811   3.960   2.669   1.298
 9638SOL     OW29812   6.925   3.214   5.855
 9638SOL    HW129813   6.897   3.309   5.870
 9638SOL    HW229814   6.874   3.154   5.917
 9639SOL     OW29815   4.270   2.225   1.968
 9639SOL    HW129816   4.284   2.280   1.886
 9639SOL    HW229817   4.176   2.237   2.001
 9640SOL     OW29818   3.173   0.602   2.246
 9640SOL    HW129819   3.136   0.693   2.265
 9640SOL    HW229820   3.223   0.604   2.159
 9641SOL     OW29821   5.785   5.743   1.812
 9641SOL    HW129822   5.856   5.696   1.759
 9641SOL    HW229823   5.701   5.690   1.809
 9642SOL     OW29824   1.275   6.194   4.795
 9642SOL    HW129825   1.375   6.194   4.794
 9642SOL    HW229826   1.241   6.200   4.702
 9643SOL     OW29827   5.134   3.917   3.743
 9643SOL    HW129828   5.230   3.910   3.718
 9643SOL    HW229829   5.081   3.847   3.695
 9644SOL     OW29830   1.389   5.981   5.597
 9644SOL    HW129831   1.352   5.896   5.634
 9644SOL    HW229832   1.410   5.970   5.500
 9645SOL     OW29833   2.765   4.703   4.283
 9645SOL    HW129834   2.806   4.695   4.373
 9645SOL    HW229835   2.684   4.644   4.278
 9646SOL     OW29836   2.638   4.875   1.873
 9646SOL    HW129837   2.594   4.790   1.900
 9646SOL    HW229838   2.736   4.868   1.889
 9647SOL     OW29839   0.069   6.842   3.243
 9647SOL    HW129840   0.011   6.823   3.163
 9647SOL    HW229841   0.165   6.826   3.219
 9648SOL     OW29842   4.254   2.707   6.994
 9648SOL    HW129843   4.339   2.675   0.010
 9648SOL    HW229844   4.181   2.640   7.010
 9649SOL     OW29845   1.960   4.220   0.174
 9649SOL    HW129846   1.940   4.167   0.092
 9649SOL    HW229847   1.914   4.309   0.169
 9650SOL     OW29848   5.045   4.417   2.730
 9650SOL    HW129849   4.973   4.447   2.667
 9650SOL    HW229850   5.003   4.372   2.809
 9651SOL     OW29851   5.491   1.376   1.292
 9651SOL    HW129852   5.465   1.422   1.377
 9651SOL    HW229853   5.585   1.345   1.297
 9652SOL     OW29854   0.881   4.926   1.431
 9652SOL    HW129855   0.803   4.914   1.371
 9652SOL    HW229856   0.887   5.022   1.461
 9653SOL     OW29857   4.494   4.997   4.444
 9653SOL    HW129858   4.426   4.929   4.473
 9653SOL    HW229859   4.447   5.072   4.396
 9654SOL     OW29860   2.875   3.546   2.932
 9654SOL    HW129861   2.898   3.611   3.004
 9654SOL    HW229862   2.865   3.454   2.971
 9655SOL     OW29863   0.130   2.207   0.505
 9655SOL    HW129864   0.117   2.113   0.534
 9655SOL    HW229865   0.225   2.234   0.519
 9656SOL     OW29866   4.264   3.116   1.019
 9656SOL    HW129867   4.304   3.034   1.060
 9656SOL    HW229868   4.166   3.102   1.006
 9657SOL     OW29869   5.622   3.252   2.814
 9657SOL    HW129870   5.714   3.258   2.776
 9657SOL    HW229871   5.576   3.171   2.778
 9658SOL     OW29872   5.544   1.393   2.462
 9658SOL    HW129873   5.633   1.384   2.506
 9658SOL    HW229874   5.541   1.336   2.380
 9659SOL     OW29875   0.652   3.450   0.186
 9659SOL    HW129876   0.613   3.388   0.255
 9659SOL    HW229877   0.579   3.509   0.150
 9660SOL     OW29878   0.856   6.944   3.120
 9660SOL    HW129879   0.914   7.017   3.155
 9660SOL    HW229880   0.830   6.963   3.025
 9661SOL     OW29881   3.452   6.561   1.663
 9661SOL    HW129882   3.428   6.466   1.680
 9661SOL    HW229883   3.428   6.617   1.743
 9662SOL     OW29884   4.546   3.574   6.321
 9662SOL    HW129885   4.638   3.542   6.299
 9662SOL    HW229886   4.493   3.501   6.363
 9663SOL     OW29887   0.442   5.862   2.953
 9663SOL    HW129888   0.394   5.939   2.996
 9663SOL    HW229889   0.398   5.839   2.867
 9664SOL     OW29890   5.797   5.242   3.835
 9664SOL    HW129891   5.726   5.307   3.809
 9664SOL    HW229892   5.872   5.246   3.769
 9665SOL     OW29893   6.209   6.651   6.410
 9665SOL    HW129894   6.241   6.724   6.350
 9665SOL    HW229895   6.179   6.690   6.497
 9666SOL     OW29896   6.217   3.873   2.055
 9666SOL    HW129897   6.244   3.828   1.970
 9666SOL    HW229898   6.257   3.965   2.059
 9667SOL     OW29899   3.836   4.077   0.089
 9667SOL    HW129900   3.855   4.023   0.171
 9667SOL    HW229901   3.782   4.022   0.025
 9668SOL     OW29902   0.763   0.476   6.221
 9668SOL    HW129903   0.676   0.474   6.270
 9668SOL    HW229904   0.746   0.485   6.123
 9669SOL     OW29905   2.145   6.864   1.997
 9669SOL    HW129906   2.103   6.954   1.989
 9669SOL    HW229907   2.083   6.801   2.044
 9670SOL     OW29908   0.089   4.973   5.968
 9670SOL    HW129909   0.180   5.012   5.980
 9670SOL    HW229910   0.025   5.018   6.029
 9671SOL     OW29911   6.859   4.349   0.803
 9671SOL    HW129912   6.818   4.260   0.823
 9671SOL    HW229913   6.922   4.341   0.726
 9672SOL     OW29914   2.173   5.140   3.448
 9672SOL    HW129915   2.179   5.237   3.424
 9672SOL    HW229916   2.260   5.110   3.488
 9673SOL     OW29917   3.737   3.797   1.116
 9673SOL    HW129918   3.718   3.784   1.019
 9673SOL    HW229919   3.680   3.872   1.152
 9674SOL     OW29920   3.653   6.829   3.398
 9674SOL    HW129921   3.739   6.837   3.346
 9674SOL    HW229922   3.621   6.921   3.423
 9675SOL     OW29923   5.622   2.588   6.308
 9675SOL    HW129924   5.551   2.650   6.275
 9675SOL    HW229925   5.679   2.558   6.231
 9676SOL     OW29926   0.893   2.980   5.875
 9676SOL    HW129927   0.900   3.058   5.813
 9676SOL    HW229928   0.983   2.939   5.887
 9677SOL     OW29929   6.180   5.101   5.028
 9677SOL    HW129930   6.107   5.032   5.029
 9677SOL    HW229931   6.170   5.159   4.947
 9678SOL     OW29932   2.923   3.588   3.778
 9678SOL    HW129933   3.018   3.557   3.775
 9678SOL    HW229934   2.917   3.680   3.739
 9679SOL     OW29935   2.881   0.037   3.239
 9679SOL    HW129936   2.817   7.022   3.174
 9679SOL    HW229937   2.834   0.108   3.292
 9680SOL     OW29938   3.863   0.469   3.696
 9680SOL    HW129939   3.911   0.499   3.779
 9680SOL    HW229940   3.813   0.546   3.657
 9681SOL     OW29941   2.597   2.178   0.876
 9681SOL    HW129942   2.679   2.136   0.916
 9681SOL    HW229943   2.524   2.178   0.944
 9682SOL     OW29944   4.830   4.036   3.624
 9682SOL    HW129945   4.762   4.109   3.632
 9682SOL    HW229946   4.825   3.977   3.704
 9683SOL     OW29947   3.267   6.977   1.655
 9683SOL    HW129948   3.187   0.001   1.623
 9683SOL    HW229949   3.246   6.880   1.662
 9684SOL     OW29950   0.987   3.441   5.857
 9684SOL    HW129951   0.933   3.385   5.920
 9684SOL    HW229952   1.000   3.532   5.897
 9685SOL     OW29953   4.635   4.221   0.998
 9685SOL    HW129954   4.642   4.155   1.072
 9685SOL    HW229955   4.726   4.238   0.960
 9686SOL     OW29956   0.797   3.540   6.119
 9686SOL    HW129957   0.802   3.549   6.218
 9686SOL    HW229958   0.849   3.613   6.076
 9687SOL     OW29959   1.235   0.722   3.767
 9687SOL    HW129960   1.207   0.685   3.855
 9687SOL    HW229961   1.328   0.758   3.774
 9688SOL     OW29962   1.166   2.805   1.342
 9688SOL    HW129963   1.194   2.874   1.274
 9688SOL    HW229964   1.159   2.848   1.432
 9689SOL     OW29965   0.833   4.834   6.436
 9689SOL    HW129966   0.751   4.806   6.485
 9689SOL    HW229967   0.857   4.765   6.368
 9690SOL     OW29968   6.130   6.000   6.535
 9690SOL    HW129969   6.059   5.940   6.572
 9690SOL    HW229970   6.160   6.064   6.606
 9691SOL     OW29971   3.381   4.305   0.944
 9691SOL    HW129972   3.310   4.328   1.011
 9691SOL    HW229973   3.342   4.313   0.851
 9692SOL     OW29974   3.969   6.194   1.844
 9692SOL    HW129975   3.960   6.292   1.863
 9692SOL    HW229976   3.885   6.160   1.802
 9693SOL     OW29977   5.956   3.929   2.709
 9693SOL    HW129978   6.021   3.853   2.696
 9693SOL    HW229979   5.992   4.011   2.666
 9694SOL     OW29980   3.098   1.306   1.365
 9694SOL    HW129981   3.114   1.238   1.294
 9694SOL    HW229982   3.185   1.346   1.395
 9695SOL     OW29983   0.188   2.506   3.172
 9695SOL    HW129984   0.226   2.582   3.224
 9695SOL    HW229985   0.188   2.423   3.228
 9696SOL     OW29986   5.547   2.532   1.325
 9696SOL    HW129987   5.463   2.478   1.314
 9696SOL    HW229988   5.624   2.483   1.284
 9697SOL     OW29989   0.303   5.243   0.189
 9697SOL    HW129990   0.271   5.331   0.156
 9697SOL    HW229991   0.226   5.178   0.192
 9698SOL     OW29992   5.746   2.482   6.076
 9698SOL    HW129993   5.785   2.398   6.113
 9698SOL    HW229994   5.686   2.460   6.000
 9699SOL     OW29995   6.135   6.226   6.703
 9699SOL    HW129996   6.083   6.243   6.786
 9699SOL    HW229997   6.086   6.265   6.625
 9700SOL     OW29998   5.289   5.937   5.093
 9700SOL    HW129999   5.327   5.845   5.104
 9700SOL    HW230000   5.343   5.988   5.027
 9701SOL     OW30001   4.344   4.928   5.362
 9701SOL    HW130002   4.266   4.969   5.408
 9701SOL    HW230003   4.426   4.939   5.418
 9702SOL     OW30004   4.168   1.739   6.742
 9702SOL    HW130005   4.220   1.785   6.814
 9702SOL    HW230006   4.220   1.663   6.705
 9703SOL     OW30007   4.978   3.722   4.019
 9703SOL    HW130008   4.937   3.733   4.110
 9703SOL    HW230009   5.077   3.734   4.026
 9704SOL     OW30010   3.593   6.981   1.343
 9704SOL    HW130011   3.569   7.011   1.435
 9704SOL    HW230012   3.514   6.938   1.300
 9705SOL     OW30013   5.765   4.010   6.092
 9705SOL    HW130014   5.698   4.000   6.018
 9705SOL    HW230015   5.766   3.927   6.147
 9706SOL     OW30016   2.247   2.905   0.835
 9706SOL    HW130017   2.167   2.885   0.892
 9706SOL    HW230018   2.285   2.820   0.799
 9707SOL     OW30019   6.191   4.465   2.340
 9707SOL    HW130020   6.211   4.431   2.432
 9707SOL    HW230021   6.272   4.510   2.303
 9708SOL     OW30022   1.293   1.643   3.712
 9708SOL    HW130023   1.335   1.728   3.681
 9708SOL    HW230024   1.354   1.566   3.690
 9709SOL     OW30025   5.294   6.457   2.792
 9709SOL    HW130026   5.252   6.417   2.711
 9709SOL    HW230027   5.238   6.435   2.873
 9710SOL     OW30028   6.717   1.664   1.837
 9710SOL    HW130029   6.728   1.698   1.744
 9710SOL    HW230030   6.806   1.638   1.874
 9711SOL     OW30031   3.262   5.307   5.584
 9711SOL    HW130032   3.291   5.317   5.488
 9711SOL    HW230033   3.184   5.367   5.601
 9712SOL     OW30034   5.507   3.674   6.493
 9712SOL    HW130035   5.560   3.683   6.577
 9712SOL    HW230036   5.502   3.762   6.446
 9713SOL     OW30037   1.882   3.914   3.292
 9713SOL    HW130038   1.823   3.902   3.372
 9713SOL    HW230039   1.860   4.000   3.247
 9714SOL     OW30040   4.283   6.285   6.833
 9714SOL    HW130041   4.322   6.260   6.745
 9714SOL    HW230042   4.260   6.201   6.884
 9715SOL     OW30043   5.846   4.035   0.082
 9715SOL    HW130044   5.945   4.034   0.097
 9715SOL    HW230045   5.827   4.031   7.009
 9716SOL     OW30046   3.431   4.428   6.621
 9716SOL    HW130047   3.498   4.490   6.579
 9716SOL    HW230048   3.384   4.376   6.550
 9717SOL     OW30049   5.011   6.839   5.984
 9717SOL    HW130050   4.938   6.881   6.038
 9717SOL    HW230051   5.083   6.806   6.045
 9718SOL     OW30052   5.517   3.341   0.245
 9718SOL    HW130053   5.487   3.308   0.335
 9718SOL    HW230054   5.451   3.312   0.176
 9719SOL     OW30055   6.368   0.585   5.810
 9719SOL    HW130056   6.339   0.677   5.781
 9719SOL    HW230057   6.399   0.589   5.905
 9720SOL     OW30058   0.636   4.771   2.247
 9720SOL    HW130059   0.717   4.718   2.272
 9720SOL    HW230060   0.613   4.753   2.152
 9721SOL     OW30061   0.426   1.897   0.921
 9721SOL    HW130062   0.496   1.965   0.900
 9721SOL    HW230063   0.415   1.889   1.020
 9722SOL     OW30064   4.507   1.316   4.520
 9722SOL    HW130065   4.535   1.275   4.434
 9722SOL    HW230066   4.418   1.279   4.548
 9723SOL     OW30067   3.218   6.646   3.221
 9723SOL    HW130068   3.248   6.735   3.256
 9723SOL    HW230069   3.292   6.606   3.166
 9724SOL     OW30070   1.353   4.868   6.849
 9724SOL    HW130071   1.283   4.940   6.847
 9724SOL    HW230072   1.310   4.779   6.833
 9725SOL     OW30073   5.015   5.990   5.941
 9725SOL    HW130074   5.001   6.071   5.885
 9725SOL    HW230075   5.112   5.983   5.965
 9726SOL     OW30076   4.963   1.992   4.302
 9726SOL    HW130077   5.017   1.998   4.218
 9726SOL    HW230078   4.866   2.000   4.281
 9727SOL     OW30079   1.341   2.368   0.246
 9727SOL    HW130080   1.374   2.284   0.202
 9727SOL    HW230081   1.270   2.409   0.189
 9728SOL     OW30082   0.847   0.245   5.814
 9728SOL    HW130083   0.870   0.203   5.726
 9728SOL    HW230084   0.871   0.342   5.812
 9729SOL     OW30085   1.359   4.502   3.275
 9729SOL    HW130086   1.345   4.552   3.360
 9729SOL    HW230087   1.277   4.448   3.254
 9730SOL     OW30088   1.740   4.522   3.045
 9730SOL    HW130089   1.697   4.477   3.123
 9730SOL    HW230090   1.710   4.617   3.041
 9731SOL     OW30091   5.231   4.939   1.110
 9731SOL    HW130092   5.288   4.889   1.045
 9731SOL    HW230093   5.261   4.920   1.203
 9732SOL     OW30094   0.280   5.292   2.438
 9732SOL    HW130095   0.282   5.257   2.532
 9732SOL    HW230096   0.346   5.243   2.382
 9733SOL     OW30097   5.084   5.090   0.342
 9733SOL    HW130098   5.049   5.052   0.428
 9733SOL    HW230099   5.029   5.057   0.266
 9734SOL     OW30100   6.417   1.737   0.498
 9734SOL    HW130101   6.473   1.785   0.431
 9734SOL    HW230102   6.471   1.663   0.539
 9735SOL     OW30103   2.126   3.554   3.469
 9735SOL    HW130104   2.122   3.653   3.478
 9735SOL    HW230105   2.170   3.530   3.382
 9736SOL     OW30106   5.931   1.610   6.025
 9736SOL    HW130107   5.934   1.673   5.948
 9736SOL    HW230108   6.025   1.587   6.053
 9737SOL     OW30109   5.213   2.263   3.187
 9737SOL    HW130110   5.288   2.255   3.121
 9737SOL    HW230111   5.129   2.228   3.146
 9738SOL     OW30112   2.296   6.843   0.166
 9738SOL    HW130113   2.217   6.833   0.106
 9738SOL    HW230114   2.265   6.844   0.261
 9739SOL     OW30115   5.294   5.519   1.007
 9739SOL    HW130116   5.273   5.435   0.957
 9739SOL    HW230117   5.378   5.559   0.971
 9740SOL     OW30118   0.177   0.994   3.490
 9740SOL    HW130119   0.207   1.048   3.569
 9740SOL    HW230120   0.136   1.054   3.422
 9741SOL     OW30121   3.717   2.027   2.504
 9741SOL    HW130122   3.683   2.058   2.415
 9741SOL    HW230123   3.806   2.069   2.522
 9742SOL     OW30124   4.460   1.725   0.358
 9742SOL    HW130125   4.432   1.819   0.375
 9742SOL    HW230126   4.544   1.705   0.409
 9743SOL     OW30127   6.673   3.108   4.299
 9743SOL    HW130128   6.639   3.122   4.206
 9743SOL    HW230129   6.605   3.141   4.365
 9744SOL     OW30130   1.414   6.772   2.136
 9744SOL    HW130131   1.378   6.854   2.180
 9744SOL    HW230132   1.474   6.798   2.060
 9745SOL     OW30133   5.316   2.492   6.247
 9745SOL    HW130134   5.360   2.581   6.233
 9745SOL    HW230135   5.365   2.422   6.194
 9746SOL     OW30136   6.498   0.474   5.550
 9746SOL    HW130137   6.457   0.487   5.640
 9746SOL    HW230138   6.487   0.558   5.496
 9747SOL     OW30139   2.878   1.854   1.838
 9747SOL    HW130140   2.976   1.853   1.820
 9747SOL    HW230141   2.854   1.938   1.887
 9748SOL     OW30142   0.036   7.011   3.478
 9748SOL    HW130143   0.026   0.022   3.386
 9748SOL    HW230144   7.022   6.919   3.482
 9749SOL     OW30145   2.263   0.103   4.411
 9749SOL    HW130146   2.263   0.104   4.311
 9749SOL    HW230147   2.169   0.096   4.444
 9750SOL     OW30148   5.920   3.889   3.790
 9750SOL    HW130149   5.905   3.846   3.701
 9750SOL    HW230150   5.845   3.952   3.809
 9751SOL     OW30151   2.301   0.805   0.640
 9751SOL    HW130152   2.298   0.742   0.562
 9751SOL    HW230153   2.393   0.803   0.679
 9752SOL     OW30154   3.996   2.106   5.033
 9752SOL    HW130155   4.051   2.062   4.962
 9752SOL    HW230156   3.899   2.104   5.007
 9753SOL     OW30157   0.197   5.342   6.282
 9753SOL    HW130158   0.186   5.378   6.189
 9753SOL    HW230159   0.292   5.351   6.310
 9754SOL     OW30160   1.846   0.581   0.414
 9754SOL    HW130161   1.914   0.523   0.369
 9754SOL    HW230162   1.756   0.562   0.376
 9755SOL     OW30163   3.781   3.750   4.281
 9755SOL    HW130164   3.859   3.772   4.339
 9755SOL    HW230165   3.700   3.799   4.314
 9756SOL     OW30166   5.641   2.761   6.779
 9756SOL    HW130167   5.682   2.821   6.848
 9756SOL    HW230168   5.677   2.784   6.689
 9757SOL     OW30169   5.946   4.516   4.167
 9757SOL    HW130170   5.864   4.571   4.160
 9757SOL    HW230171   5.951   4.453   4.089
 9758SOL     OW30172   3.056   0.241   6.042
 9758SOL    HW130173   3.081   0.327   5.997
 9758SOL    HW230174   2.997   0.187   5.982
 9759SOL     OW30175   1.271   0.564   0.031
 9759SOL    HW130176   1.286   0.486   0.091
 9759SOL    HW230177   1.334   0.638   0.055
 9760SOL     OW30178   5.263   2.934   5.637
 9760SOL    HW130179   5.237   2.839   5.654
 9760SOL    HW230180   5.289   2.945   5.541
 9761SOL     OW30181   0.557   1.489   2.542
 9761SOL    HW130182   0.558   1.573   2.595
 9761SOL    HW230183   0.468   1.445   2.549
 9762SOL     OW30184   3.135   1.851   4.753
 9762SOL    HW130185   3.183   1.764   4.761
 9762SOL    HW230186   3.159   1.910   4.830
 9763SOL     OW30187   4.864   1.899   2.335
 9763SOL    HW130188   4.840   1.810   2.295
 9763SOL    HW230189   4.871   1.889   2.435
 9764SOL     OW30190   0.052   2.970   3.279
 9764SOL    HW130191   0.123   3.033   3.249
 9764SOL    HW230192   0.001   3.011   3.355
 9765SOL     OW30193   6.654   6.676   3.550
 9765SOL    HW130194   6.607   6.747   3.497
 9765SOL    HW230195   6.752   6.698   3.556
 9766SOL     OW30196   3.075   0.355   2.322
 9766SOL    HW130197   3.012   0.293   2.275
 9766SOL    HW230198   3.082   0.441   2.272
 9767SOL     OW30199   3.827   1.122   5.431
 9767SOL    HW130200   3.760   1.188   5.396
 9767SOL    HW230201   3.876   1.161   5.508
 9768SOL     OW30202   5.610   0.935   1.812
 9768SOL    HW130203   5.691   0.946   1.869
 9768SOL    HW230204   5.620   0.853   1.755
 9769SOL     OW30205   4.154   1.021   4.376
 9769SOL    HW130206   4.136   1.065   4.464
 9769SOL    HW230207   4.168   1.091   4.306
 9770SOL     OW30208   4.186   1.626   5.979
 9770SOL    HW130209   4.210   1.547   6.036
 9770SOL    HW230210   4.213   1.710   6.025
 9771SOL     OW30211   2.868   6.467   0.517
 9771SOL    HW130212   2.897   6.378   0.552
 9771SOL    HW230213   2.805   6.509   0.582
 9772SOL     OW30214   1.798   5.899   1.324
 9772SOL    HW130215   1.761   5.834   1.257
 9772SOL    HW230216   1.898   5.889   1.327
 9773SOL     OW30217   5.032   5.355   3.849
 9773SOL    HW130218   5.066   5.267   3.815
 9773SOL    HW230219   5.063   5.369   3.943
 9774SOL     OW30220   0.003   5.253   1.834
 9774SOL    HW130221   6.949   5.209   1.877
 9774SOL    HW230222   6.998   5.330   1.779
 9775SOL     OW30223   3.092   0.830   3.118
 9775SOL    HW130224   3.033   0.756   3.085
 9775SOL    HW230225   3.106   0.896   3.045
 9776SOL     OW30226   1.138   4.618   4.914
 9776SOL    HW130227   1.198   4.539   4.908
 9776SOL    HW230228   1.160   4.670   4.996
 9777SOL     OW30229   6.291   5.821   6.980
 9777SOL    HW130230   6.253   5.761   6.910
 9777SOL    HW230231   6.332   5.901   6.936
 9778SOL     OW30232   0.453   1.083   4.321
 9778SOL    HW130233   0.437   1.140   4.402
 9778SOL    HW230234   0.432   0.988   4.343
 9779SOL     OW30235   1.141   1.560   4.320
 9779SOL    HW130236   1.196   1.613   4.256
 9779SOL    HW230237   1.080   1.621   4.370
 9780SOL     OW30238   2.266   2.588   0.816
 9780SOL    HW130239   2.353   2.540   0.813
 9780SOL    HW230240   2.228   2.582   0.909
 9781SOL     OW30241   2.326   2.841   4.285
 9781SOL    HW130242   2.389   2.778   4.331
 9781SOL    HW230243   2.370   2.930   4.276
 9782SOL     OW30244   0.243   0.544   1.330
 9782SOL    HW130245   0.332   0.587   1.311
 9782SOL    HW230246   0.179   0.567   1.256
 9783SOL     OW30247   4.128   2.112   3.315
 9783SOL    HW130248   4.080   2.079   3.234
 9783SOL    HW230249   4.226   2.122   3.294
 9784SOL     OW30250   2.821   1.728   5.584
 9784SOL    HW130251   2.793   1.824   5.596
 9784SOL    HW230252   2.744   1.675   5.549
 9785SOL     OW30253   1.368   2.457   6.138
 9785SOL    HW130254   1.335   2.551   6.130
 9785SOL    HW230255   1.413   2.445   6.227
 9786SOL     OW30256   2.575   3.976   0.268
 9786SOL    HW130257   2.534   4.010   0.183
 9786SOL    HW230258   2.513   3.910   0.310
 9787SOL     OW30259   3.312   3.797   2.421
 9787SOL    HW130260   3.259   3.880   2.438
 9787SOL    HW230261   3.359   3.770   2.505
 9788SOL     OW30262   1.080   0.591   3.592
 9788SOL    HW130263   1.126   0.638   3.667
 9788SOL    HW230264   1.022   0.518   3.629
 9789SOL     OW30265   1.971   5.881   0.544
 9789SOL    HW130266   1.876   5.912   0.534
 9789SOL    HW230267   2.010   5.867   0.453
 9790SOL     OW30268   6.720   4.456   6.287
 9790SOL    HW130269   6.738   4.462   6.189
 9790SOL    HW230270   6.658   4.530   6.314
 9791SOL     OW30271   0.138   0.978   0.983
 9791SOL    HW130272   0.127   1.059   1.041
 9791SOL    HW230273   0.100   0.898   1.029
 9792SOL     OW30274   4.213   4.558   0.415
 9792SOL    HW130275   4.264   4.490   0.468
 9792SOL    HW230276   4.233   4.546   0.318
 9793SOL     OW30277   4.530   6.712   2.767
 9793SOL    HW130278   4.500   6.666   2.851
 9793SOL    HW230279   4.546   6.644   2.696
 9794SOL     OW30280   0.388   4.097   0.022
 9794SOL    HW130281   0.460   4.118   6.981
 9794SOL    HW230282   0.417   4.126   0.113
 9795SOL     OW30283   2.086   1.932   4.679
 9795SOL    HW130284   2.106   1.842   4.717
 9795SOL    HW230285   2.029   1.922   4.597
 9796SOL     OW30286   3.397   2.871   2.493
 9796SOL    HW130287   3.464   2.804   2.524
 9796SOL    HW230288   3.371   2.850   2.399
 9797SOL     OW30289   1.919   5.798   6.922
 9797SOL    HW130290   2.018   5.808   6.917
 9797SOL    HW230291   1.891   5.798   7.018
 9798SOL     OW30292   2.683   0.258   2.258
 9798SOL    HW130293   2.587   0.234   2.271
 9798SOL    HW230294   2.694   0.306   2.171
 9799SOL     OW30295   3.063   3.477   4.950
 9799SOL    HW130296   3.026   3.552   4.896
 9799SOL    HW230297   3.123   3.513   5.021
 9800SOL     OW30298   3.975   5.332   4.577
 9800SOL    HW130299   3.920   5.352   4.658
 9800SOL    HW230300   3.918   5.291   4.507
 9801SOL     OW30301   4.442   4.228   0.170
 9801SOL    HW130302   4.486   4.306   0.215
 9801SOL    HW230303   4.420   4.253   0.076
 9802SOL     OW30304   6.994   4.029   1.786
 9802SOL    HW130305   6.958   3.992   1.700
 9802SOL    HW230306   0.040   4.096   1.765
 9803SOL     OW30307   1.637   2.480   6.702
 9803SOL    HW130308   1.601   2.572   6.716
 9803SOL    HW230309   1.568   2.413   6.731
 9804SOL     OW30310   1.336   5.722   3.137
 9804SOL    HW130311   1.410   5.690   3.196
 9804SOL    HW230312   1.360   5.707   3.042
 9805SOL     OW30313   1.281   6.405   4.247
 9805SOL    HW130314   1.313   6.320   4.204
 9805SOL    HW230315   1.290   6.480   4.182
 9806SOL     OW30316   1.261   1.267   6.593
 9806SOL    HW130317   1.302   1.195   6.649
 9806SOL    HW230318   1.161   1.259   6.595
 9807SOL     OW30319   3.033   4.531   0.203
 9807SOL    HW130320   3.089   4.546   0.284
 9807SOL    HW230321   3.021   4.433   0.189
 9808SOL     OW30322   3.967   0.354   5.548
 9808SOL    HW130323   4.051   0.301   5.537
 9808SOL    HW230324   3.901   0.301   5.602
 9809SOL     OW30325   1.643   2.628   6.166
 9809SOL    HW130326   1.641   2.529   6.179
 9809SOL    HW230327   1.626   2.673   6.253
 9810SOL     OW30328   1.875   2.699   3.691
 9810SOL    HW130329   1.965   2.705   3.736
 9810SOL    HW230330   1.869   2.769   3.620
 9811SOL     OW30331   5.398   4.715   3.280
 9811SOL    HW130332   5.348   4.799   3.261
 9811SOL    HW230333   5.348   4.660   3.347
 9812SOL     OW30334   3.650   2.470   6.153
 9812SOL    HW130335   3.664   2.372   6.146
 9812SOL    HW230336   3.565   2.496   6.105
 9813SOL     OW30337   5.543   1.443   0.832
 9813SOL    HW130338   5.620   1.381   0.850
 9813SOL    HW230339   5.566   1.502   0.754
 9814SOL     OW30340   0.005   0.182   0.328
 9814SOL    HW130341   6.933   0.171   0.307
 9814SOL    HW230342   0.050   0.093   0.323
 9815SOL     OW30343   5.434   4.536   3.953
 9815SOL    HW130344   5.485   4.622   3.944
 9815SOL    HW230345   5.354   4.551   4.010
 9816SOL     OW30346   0.762   1.181   6.304
 9816SOL    HW130347   0.684   1.233   6.270
 9816SOL    HW230348   0.749   1.160   6.401
 9817SOL     OW30349   3.108   7.024   3.552
 9817SOL    HW130350   3.084   0.071   3.617
 9817SOL    HW230351   3.028   7.004   3.494
 9818SOL     OW30352   1.412   0.522   4.464
 9818SOL    HW130353   1.444   0.604   4.511
 9818SOL    HW230354   1.324   0.542   4.420
 9819SOL     OW30355   4.936   3.137   3.841
 9819SOL    HW130356   4.922   3.230   3.877
 9819SOL    HW230357   5.022   3.133   3.791
 9820SOL     OW30358   4.150   3.448   6.785
 9820SOL    HW130359   4.172   3.351   6.801
 9820SOL    HW230360   4.150   3.497   6.872
 9821SOL     OW30361   5.193   0.731   6.635
 9821SOL    HW130362   5.223   0.800   6.701
 9821SOL    HW230363   5.261   0.659   6.629
 9822SOL     OW30364   2.665   6.223   3.552
 9822SOL    HW130365   2.657   6.307   3.606
 9822SOL    HW230366   2.761   6.210   3.524
 9823SOL     OW30367   2.511   1.313   6.878
 9823SOL    HW130368   2.582   1.352   6.819
 9823SOL    HW230369   2.459   1.386   6.921
 9824SOL     OW30370   1.833   4.920   4.561
 9824SOL    HW130371   1.891   4.926   4.479
 9824SOL    HW230372   1.887   4.949   4.641
 9825SOL     OW30373   5.232   5.560   4.856
 9825SOL    HW130374   5.234   5.536   4.759
 9825SOL    HW230375   5.141   5.596   4.880
 9826SOL     OW30376   4.593   5.123   5.701
 9826SOL    HW130377   4.606   5.064   5.622
 9826SOL    HW230378   4.512   5.094   5.751
 9827SOL     OW30379   2.123   3.572   3.752
 9827SOL    HW130380   2.126   3.538   3.658
 9827SOL    HW230381   2.152   3.667   3.754
 9828SOL     OW30382   2.207   2.393   5.571
 9828SOL    HW130383   2.274   2.372   5.642
 9828SOL    HW230384   2.149   2.469   5.602
 9829SOL     OW30385   3.948   5.356   6.069
 9829SOL    HW130386   3.963   5.397   6.159
 9829SOL    HW230387   3.990   5.413   5.999
 9830SOL     OW30388   5.412   2.236   2.335
 9830SOL    HW130389   5.317   2.267   2.331
 9830SOL    HW230390   5.443   2.208   2.244
 9831SOL     OW30391   2.071   5.128   1.491
 9831SOL    HW130392   2.110   5.150   1.402
 9831SOL    HW230393   2.023   5.208   1.528
 9832SOL     OW30394   4.884   6.288   2.159
 9832SOL    HW130395   4.956   6.355   2.171
 9832SOL    HW230396   4.908   6.226   2.084
 9833SOL     OW30397   2.897   3.623   4.748
 9833SOL    HW130398   2.984   3.607   4.701
 9833SOL    HW230399   2.827   3.564   4.709
 9834SOL     OW30400   2.477   4.285   5.234
 9834SOL    HW130401   2.572   4.292   5.263
 9834SOL    HW230402   2.457   4.191   5.207
 9835SOL     OW30403   4.045   3.226   4.780
 9835SOL    HW130404   3.969   3.289   4.767
 9835SOL    HW230405   4.016   3.133   4.758
 9836SOL     OW30406   6.719   4.051   3.589
 9836SOL    HW130407   6.729   4.102   3.504
 9836SOL    HW230408   6.622   4.041   3.611
 9837SOL     OW30409   3.670   0.343   2.520
 9837SOL    HW130410   3.610   0.311   2.594
 9837SOL    HW230411   3.617   0.394   2.453
 9838SOL     OW30412   1.595   6.825   0.213
 9838SOL    HW130413   1.574   6.910   0.260
 9838SOL    HW230414   1.512   6.770   0.204
 9839SOL     OW30415   5.143   0.053   3.468
 9839SOL    HW130416   5.043   0.061   3.466
 9839SOL    HW230417   5.180   0.121   3.532
 9840SOL     OW30418   5.475   2.008   0.771
 9840SOL    HW130419   5.569   2.024   0.741
 9840SOL    HW230420   5.438   1.929   0.722
 9841SOL     OW30421   1.432   4.795   4.541
 9841SOL    HW130422   1.487   4.862   4.490
 9841SOL    HW230423   1.402   4.836   4.627
 9842SOL     OW30424   3.238   3.528   1.720
 9842SOL    HW130425   3.189   3.460   1.776
 9842SOL    HW230426   3.257   3.489   1.630
 9843SOL     OW30427   6.435   0.699   1.788
 9843SOL    HW130428   6.529   0.732   1.791
 9843SOL    HW230429   6.423   0.626   1.854
 9844SOL     OW30430   6.479   0.787   2.645
 9844SOL    HW130431   6.414   0.715   2.622
 9844SOL    HW230432   6.493   0.847   2.566
 9845SOL     OW30433   2.337   2.803   3.240
 9845SOL    HW130434   2.346   2.704   3.246
 9845SOL    HW230435   2.373   2.845   3.323
 9846SOL     OW30436   3.755   2.934   2.021
 9846SOL    HW130437   3.795   2.908   2.109
 9846SOL    HW230438   3.765   3.033   2.008
 9847SOL     OW30439   3.570   2.888   3.584
 9847SOL    HW130440   3.561   2.864   3.680
 9847SOL    HW230441   3.632   2.967   3.575
 9848SOL     OW30442   4.223   3.268   5.314
 9848SOL    HW130443   4.293   3.339   5.319
 9848SOL    HW230444   4.190   3.261   5.220
 9849SOL     OW30445   0.692   6.881   6.466
 9849SOL    HW130446   0.769   6.871   6.403
 9849SOL    HW230447   0.702   6.814   6.541
 9850SOL     OW30448   6.202   6.863   4.410
 9850SOL    HW130449   6.218   6.773   4.450
 9850SOL    HW230450   6.274   6.926   4.440
 9851SOL     OW30451   6.931   0.570   4.624
 9851SOL    HW130452   6.959   0.474   4.631
 9851SOL    HW230453   6.957   0.606   4.534
 9852SOL     OW30454   3.456   1.457   3.820
 9852SOL    HW130455   3.420   1.460   3.914
 9852SOL    HW230456   3.381   1.472   3.755
 9853SOL     OW30457   5.051   4.105   4.763
 9853SOL    HW130458   4.960   4.081   4.796
 9853SOL    HW230459   5.092   4.173   4.824
 9854SOL     OW30460   6.532   5.810   4.973
 9854SOL    HW130461   6.437   5.799   4.946
 9854SOL    HW230462   6.572   5.721   4.996
 9855SOL     OW30463   1.719   3.833   1.016
 9855SOL    HW130464   1.648   3.837   1.087
 9855SOL    HW230465   1.679   3.795   0.932
 9856SOL     OW30466   4.690   4.207   4.597
 9856SOL    HW130467   4.706   4.136   4.666
 9856SOL    HW230468   4.636   4.281   4.637
 9857SOL     OW30469   4.780   2.464   2.824
 9857SOL    HW130470   4.832   2.536   2.778
 9857SOL    HW230471   4.828   2.435   2.906
 9858SOL     OW30472   0.023   0.710   1.953
 9858SOL    HW130473   0.119   0.732   1.966
 9858SOL    HW230474   0.014   0.614   1.928
 9859SOL     OW30475   6.209   6.185   2.976
 9859SOL    HW130476   6.139   6.257   2.977
 9859SOL    HW230477   6.297   6.225   2.949
 9860SOL     OW30478   1.823   1.983   3.629
 9860SOL    HW130479   1.921   1.978   3.648
 9860SOL    HW230480   1.804   2.065   3.576
 9861SOL     OW30481   3.034   0.681   3.478
 9861SOL    HW130482   3.068   0.666   3.385
 9861SOL    HW230483   3.087   0.754   3.522
 9862SOL     OW30484   3.631   3.162   6.798
 9862SOL    HW130485   3.546   3.173   6.746
 9862SOL    HW230486   3.705   3.211   6.751
 9863SOL     OW30487   3.829   6.915   2.423
 9863SOL    HW130488   3.840   6.872   2.333
 9863SOL    HW230489   3.909   6.973   2.441
 9864SOL     OW30490   3.779   6.611   3.564
 9864SOL    HW130491   3.766   6.650   3.655
 9864SOL    HW230492   3.711   6.648   3.501
 9865SOL     OW30493   1.834   6.833   4.662
 9865SOL    HW130494   1.890   6.772   4.607
 9865SOL    HW230495   1.737   6.816   4.643
 9866SOL     OW30496   4.536   4.621   6.339
 9866SOL    HW130497   4.442   4.630   6.307
 9866SOL    HW230498   4.570   4.712   6.366
 9867SOL     OW30499   6.850   1.604   1.214
 9867SOL    HW130500   6.757   1.571   1.194
 9867SOL    HW230501   6.894   1.542   1.278
 9868SOL     OW30502   0.927   3.512   5.376
 9868SOL    HW130503   0.870   3.434   5.350
 9868SOL    HW230504   0.871   3.582   5.418
 9869SOL     OW30505   0.668   2.385   1.764
 9869SOL    HW130506   0.683   2.398   1.862
 9869SOL    HW230507   0.688   2.290   1.740
 9870SOL     OW30508   3.853   5.709   2.369
 9870SOL    HW130509   3.842   5.651   2.288
 9870SOL    HW230510   3.804   5.667   2.446
 9871SOL     OW30511   6.819   5.314   6.190
 9871SOL    HW130512   6.829   5.412   6.211
 9871SOL    HW230513   6.750   5.302   6.118
 9872SOL     OW30514   2.718   5.306   5.082
 9872SOL    HW130515   2.630   5.268   5.109
 9872SOL    HW230516   2.718   5.404   5.097
 9873SOL     OW30517   2.267   2.686   0.393
 9873SOL    HW130518   2.320   2.613   0.436
 9873SOL    HW230519   2.230   2.653   0.306
 9874SOL     OW30520   5.391   3.597   4.906
 9874SOL    HW130521   5.445   3.680   4.919
 9874SOL    HW230522   5.352   3.597   4.814
 9875SOL     OW30523   5.925   5.677   1.581
 9875SOL    HW130524   5.996   5.735   1.543
 9875SOL    HW230525   5.962   5.587   1.602
 9876SOL     OW30526   5.576   0.891   4.047
 9876SOL    HW130527   5.512   0.814   4.048
 9876SOL    HW230528   5.632   0.887   3.964
 9877SOL     OW30529   6.378   4.990   4.479
 9877SOL    HW130530   6.471   5.025   4.478
 9877SOL    HW230531   6.368   4.921   4.407
 9878SOL     OW30532   3.046   4.344   5.574
 9878SOL    HW130533   3.047   4.328   5.673
 9878SOL    HW230534   2.961   4.309   5.536
 9879SOL     OW30535   5.181   5.910   5.365
 9879SOL    HW130536   5.158   5.832   5.306
 9879SOL    HW230537   5.240   5.973   5.314
 9880SOL     OW30538   3.718   0.750   0.305
 9880SOL    HW130539   3.750   0.841   0.277
 9880SOL    HW230540   3.679   0.756   0.398
 9881SOL     OW30541   1.470   1.442   4.983
 9881SOL    HW130542   1.479   1.347   4.953
 9881SOL    HW230543   1.435   1.498   4.908
 9882SOL     OW30544   1.799   3.677   4.911
 9882SOL    HW130545   1.807   3.579   4.929
 9882SOL    HW230546   1.884   3.710   4.870
 9883SOL     OW30547   1.416   6.236   0.743
 9883SOL    HW130548   1.508   6.261   0.712
 9883SOL    HW230549   1.371   6.318   0.779
 9884SOL     OW30550   4.721   2.463   1.222
 9884SOL    HW130551   4.818   2.475   1.200
 9884SOL    HW230552   4.690   2.374   1.187
 9885SOL     OW30553   0.099   1.984   4.558
 9885SOL    HW130554   0.172   2.022   4.615
 9885SOL    HW230555   0.093   2.034   4.472
 9886SOL     OW30556   1.243   5.222   2.070
 9886SOL    HW130557   1.255   5.213   2.169
 9886SOL    HW230558   1.276   5.139   2.025
 9887SOL     OW30559   4.157   0.456   6.940
 9887SOL    HW130560   4.116   0.367   6.919
 9887SOL    HW230561   4.141   0.518   6.863
 9888SOL     OW30562   5.233   5.023   2.751
 9888SOL    HW130563   5.138   5.038   2.725
 9888SOL    HW230564   5.266   4.937   2.711
 9889SOL     OW30565   6.197   4.475   0.925
 9889SOL    HW130566   6.114   4.527   0.908
 9889SOL    HW230567   6.276   4.537   0.925
 9890SOL     OW30568   0.645   2.636   1.303
 9890SOL    HW130569   0.675   2.543   1.327
 9890SOL    HW230570   0.562   2.658   1.353
 9891SOL     OW30571   6.011   3.066   1.698
 9891SOL    HW130572   5.964   3.059   1.786
 9891SOL    HW230573   5.952   3.031   1.625
 9892SOL     OW30574   1.704   5.019   2.602
 9892SOL    HW130575   1.775   5.062   2.658
 9892SOL    HW230576   1.617   5.020   2.652
 9893SOL     OW30577   6.436   0.505   2.549
 9893SOL    HW130578   6.511   0.439   2.551
 9893SOL    HW230579   6.376   0.490   2.628
 9894SOL     OW30580   3.110   2.099   6.690
 9894SOL    HW130581   3.119   2.002   6.713
 9894SOL    HW230582   3.109   2.154   6.774
 9895SOL     OW30583   5.129   3.793   5.321
 9895SOL    HW130584   5.064   3.758   5.389
 9895SOL    HW230585   5.148   3.722   5.253
 9896SOL     OW30586   5.431   1.497   1.067
 9896SOL    HW130587   5.476   1.471   0.982
 9896SOL    HW230588   5.455   1.431   1.138
 9897SOL     OW30589   5.679   0.097   2.322
 9897SOL    HW130590   5.659   0.023   2.258
 9897SOL    HW230591   5.724   0.172   2.274
 9898SOL     OW30592   0.633   4.648   6.271
 9898SOL    HW130593   0.723   4.674   6.236
 9898SOL    HW230594   0.610   4.556   6.240
 9899SOL     OW30595   1.148   4.935   2.041
 9899SOL    HW130596   1.210   4.914   2.116
 9899SOL    HW230597   1.081   4.861   2.032
 9900SOL     OW30598   1.488   3.244   1.978
 9900SOL    HW130599   1.389   3.250   1.995
 9900SOL    HW230600   1.530   3.188   2.050
 9901SOL     OW30601   3.191   0.780   6.873
 9901SOL    HW130602   3.232   0.790   6.963
 9901SOL    HW230603   3.169   0.684   6.856
 9902SOL     OW30604   3.770   4.189   1.358
 9902SOL    HW130605   3.742   4.146   1.273
 9902SOL    HW230606   3.749   4.129   1.435
 9903SOL     OW30607   5.461   1.668   1.484
 9903SOL    HW130608   5.462   1.736   1.557
 9903SOL    HW230609   5.479   1.712   1.397
 9904SOL     OW30610   0.342   4.069   6.518
 9904SOL    HW130611   0.336   4.161   6.556
 9904SOL    HW230612   0.254   4.023   6.530
 9905SOL     OW30613   2.401   0.385   5.830
 9905SOL    HW130614   2.501   0.389   5.825
 9905SOL    HW230615   2.371   0.419   5.920
 9906SOL     OW30616   1.832   3.549   0.919
 9906SOL    HW130617   1.899   3.558   0.993
 9906SOL    HW230618   1.795   3.639   0.897
 9907SOL     OW30619   1.147   0.577   1.611
 9907SOL    HW130620   1.221   0.576   1.678
 9907SOL    HW230621   1.086   0.499   1.627
 9908SOL     OW30622   6.674   2.711   5.293
 9908SOL    HW130623   6.731   2.633   5.317
 9908SOL    HW230624   6.720   2.795   5.322
 9909SOL     OW30625   3.932   0.680   2.509
 9909SOL    HW130626   3.914   0.582   2.516
 9909SOL    HW230627   3.856   0.731   2.548
 9910SOL     OW30628   1.492   5.364   1.247
 9910SOL    HW130629   1.430   5.428   1.292
 9910SOL    HW230630   1.476   5.365   1.148
 9911SOL     OW30631   2.702   5.873   1.870
 9911SOL    HW130632   2.759   5.876   1.788
 9911SOL    HW230633   2.627   5.807   1.856
 9912SOL     OW30634   3.787   1.010   1.077
 9912SOL    HW130635   3.788   0.998   0.978
 9912SOL    HW230636   3.803   0.922   1.121
 9913SOL     OW30637   6.075   3.001   1.255
 9913SOL    HW130638   6.002   3.061   1.289
 9913SOL    HW230639   6.058   2.978   1.159
 9914SOL     OW30640   7.014   6.891   5.713
 9914SOL    HW130641   7.018   6.792   5.716
 9914SOL    HW230642   6.959   6.925   5.789
 9915SOL     OW30643   5.565   1.045   3.636
 9915SOL    HW130644   5.553   0.956   3.592
 9915SOL    HW230645   5.497   1.109   3.601
 9916SOL     OW30646   1.849   2.365   3.128
 9916SOL    HW130647   1.793   2.405   3.200
 9916SOL    HW230648   1.924   2.313   3.168
 9917SOL     OW30649   3.387   3.626   5.467
 9917SOL    HW130650   3.378   3.667   5.376
 9917SOL    HW230651   3.469   3.568   5.469
 9918SOL     OW30652   1.286   2.978   2.541
 9918SOL    HW130653   1.193   2.973   2.506
 9918SOL    HW230654   1.292   3.050   2.609
 9919SOL     OW30655   2.536   5.503   2.044
 9919SOL    HW130656   2.593   5.454   1.978
 9919SOL    HW230657   2.594   5.551   2.110
 9920SOL     OW30658   5.032   0.530   2.493
 9920SOL    HW130659   5.106   0.573   2.545
 9920SOL    HW230660   5.002   0.591   2.421
 9921SOL     OW30661   4.513   6.789   4.589
 9921SOL    HW130662   4.593   6.826   4.636
 9921SOL    HW230663   4.482   6.855   4.520
 9922SOL     OW30664   4.026   4.265   1.251
 9922SOL    HW130665   4.018   4.196   1.180
 9922SOL    HW230666   3.952   4.253   1.318
 9923SOL     OW30667   6.025   3.702   0.279
 9923SOL    HW130668   5.935   3.737   0.253
 9923SOL    HW230669   6.082   3.777   0.312
 9924SOL     OW30670   5.138   1.559   3.166
 9924SOL    HW130671   5.160   1.656   3.179
 9924SOL    HW230672   5.116   1.543   3.069
 9925SOL     OW30673   0.619   4.714   3.825
 9925SOL    HW130674   0.532   4.756   3.850
 9925SOL    HW230675   0.659   4.669   3.905
 9926SOL     OW30676   3.789   2.786   0.621
 9926SOL    HW130677   3.711   2.769   0.561
 9926SOL    HW230678   3.804   2.706   0.680
 9927SOL     OW30679   1.145   1.192   0.615
 9927SOL    HW130680   1.169   1.154   0.526
 9927SOL    HW230681   1.203   1.271   0.635
 9928SOL     OW30682   5.562   4.070   3.485
 9928SOL    HW130683   5.532   4.049   3.392
 9928SOL    HW230684   5.576   4.169   3.493
 9929SOL     OW30685   3.795   4.017   4.484
 9929SOL    HW130686   3.816   4.025   4.387
 9929SOL    HW230687   3.880   4.012   4.537
 9930SOL     OW30688   0.582   6.697   6.007
 9930SOL    HW130689   0.553   6.674   6.100
 9930SOL    HW230690   0.680   6.716   6.006
 9931SOL     OW30691   6.874   6.074   4.036
 9931SOL    HW130692   6.915   6.001   3.982
 9931SOL    HW230693   6.775   6.060   4.041
 9932SOL     OW30694   2.630   2.376   5.800
 9932SOL    HW130695   2.622   2.475   5.788
 9932SOL    HW230696   2.661   2.357   5.893
 9933SOL     OW30697   1.803   6.680   4.029
 9933SOL    HW130698   1.879   6.743   4.010
 9933SOL    HW230699   1.835   6.586   4.019
 9934SOL     OW30700   7.007   1.853   6.242
 9934SOL    HW130701   6.909   1.849   6.222
 9934SOL    HW230702   7.022   1.919   6.316
 9935SOL     OW30703   2.643   6.993   1.302
 9935SOL    HW130704   2.653   0.035   1.376
 9935SOL    HW230705   2.607   0.013   1.220
 9936SOL     OW30706   6.650   4.885   0.458
 9936SOL    HW130707   6.558   4.848   0.471
 9936SOL    HW230708   6.715   4.809   0.448
 9937SOL     OW30709   0.656   1.372   2.024
 9937SOL    HW130710   0.653   1.390   2.123
 9937SOL    HW230711   0.569   1.330   1.996
 9938SOL     OW30712   5.916   5.465   4.061
 9938SOL    HW130713   5.832   5.423   4.095
 9938SOL    HW230714   5.903   5.492   3.966
 9939SOL     OW30715   3.206   2.804   0.911
 9939SOL    HW130716   3.232   2.881   0.969
 9939SOL    HW230717   3.233   2.823   0.817
 9940SOL     OW30718   1.185   0.325   2.174
 9940SOL    HW130719   1.091   0.351   2.194
 9940SOL    HW230720   1.236   0.318   2.260
 9941SOL     OW30721   3.289   4.508   6.104
 9941SOL    HW130722   3.311   4.578   6.172
 9941SOL    HW230723   3.199   4.527   6.065
 9942SOL     OW30724   3.936   5.381   2.321
 9942SOL    HW130725   3.846   5.393   2.281
 9942SOL    HW230726   3.976   5.471   2.341
 9943SOL     OW30727   0.959   4.988   6.637
 9943SOL    HW130728   0.919   5.079   6.626
 9943SOL    HW230729   0.916   4.924   6.572
 9944SOL     OW30730   0.846   4.630   6.647
 9944SOL    HW130731   0.746   4.631   6.658
 9944SOL    HW230732   0.870   4.578   6.565
 9945SOL     OW30733   4.635   5.599   0.253
 9945SOL    HW130734   4.541   5.597   0.220
 9945SOL    HW230735   4.664   5.507   0.280
 9946SOL     OW30736   6.637   0.092   3.135
 9946SOL    HW130737   6.693   0.172   3.114
 9946SOL    HW230738   6.541   0.116   3.128
 9947SOL     OW30739   2.894   2.227   4.952
 9947SOL    HW130740   2.851   2.296   5.010
 9947SOL    HW230741   2.993   2.227   4.967
 9948SOL     OW30742   6.315   5.707   4.837
 9948SOL    HW130743   6.272   5.629   4.881
 9948SOL    HW230744   6.324   5.690   4.739
 9949SOL     OW30745   0.404   4.849   3.928
 9949SOL    HW130746   0.421   4.860   4.026
 9949SOL    HW230747   0.305   4.843   3.912
 9950SOL     OW30748   5.985   6.262   6.950
 9950SOL    HW130749   5.921   6.186   6.940
 9950SOL    HW230750   5.942   6.336   7.000
 9951SOL     OW30751   0.902   2.741   3.097
 9951SOL    HW130752   0.869   2.803   3.168
 9951SOL    HW230753   0.825   2.689   3.060
 9952SOL     OW30754   1.594   4.191   0.678
 9952SOL    HW130755   1.687   4.226   0.668
 9952SOL    HW230756   1.570   4.187   0.775
 9953SOL     OW30757   6.067   1.628   3.543
 9953SOL    HW130758   6.083   1.538   3.584
 9953SOL    HW230759   6.089   1.700   3.610
 9954SOL     OW30760   1.248   0.118   5.230
 9954SOL    HW130761   1.340   0.116   5.268
 9954SOL    HW230762   1.249   0.080   5.138
 9955SOL     OW30763   4.547   3.858   6.455
 9955SOL    HW130764   4.551   3.927   6.384
 9955SOL    HW230765   4.554   3.767   6.414
 9956SOL     OW30766   0.442   5.088   3.777
 9956SOL    HW130767   0.421   5.154   3.849
 9956SOL    HW230768   0.452   4.997   3.817
 9957SOL     OW30769   5.981   0.344   1.899
 9957SOL    HW130770   6.076   0.317   1.887
 9957SOL    HW230771   5.925   0.262   1.910
 9958SOL     OW30772   2.688   5.935   6.995
 9958SOL    HW130773   2.648   5.997   0.037
 9958SOL    HW230774   2.733   5.989   6.924
 9959SOL     OW30775   4.104   3.623   3.500
 9959SOL    HW130776   4.036   3.611   3.428
 9959SOL    HW230777   4.194   3.599   3.465
 9960SOL     OW30778   0.641   6.873   2.583
 9960SOL    HW130779   0.598   6.795   2.536
 9960SOL    HW230780   0.636   6.954   2.524
 9961SOL     OW30781   1.465   5.107   4.182
 9961SOL    HW130782   1.375   5.147   4.200
 9961SOL    HW230783   1.517   5.167   4.122
 9962SOL     OW30784   4.606   0.572   2.875
 9962SOL    HW130785   4.677   0.516   2.832
 9962SOL    HW230786   4.625   0.668   2.858
 9963SOL     OW30787   2.039   2.389   6.441
 9963SOL    HW130788   2.075   2.345   6.523
 9963SOL    HW230789   2.009   2.481   6.463
 9964SOL     OW30790   4.307   4.493   6.071
 9964SOL    HW130791   4.376   4.427   6.099
 9964SOL    HW230792   4.271   4.539   6.152
 9965SOL     OW30793   3.680   5.073   5.387
 9965SOL    HW130794   3.608   5.031   5.331
 9965SOL    HW230795   3.658   5.061   5.484
 9966SOL     OW30796   2.831   5.119   2.206
 9966SOL    HW130797   2.759   5.148   2.268
 9966SOL    HW230798   2.792   5.100   2.116
 9967SOL     OW30799   5.771   5.765   1.163
 9967SOL    HW130800   5.699   5.710   1.206
 9967SOL    HW230801   5.767   5.858   1.199
 9968SOL     OW30802   3.343   5.374   6.254
 9968SOL    HW130803   3.394   5.309   6.309
 9968SOL    HW230804   3.406   5.422   6.192
 9969SOL     OW30805   0.968   2.752   4.145
 9969SOL    HW130806   1.045   2.762   4.207
 9969SOL    HW230807   0.944   2.655   4.137
 9970SOL     OW30808   6.479   4.484   2.031
 9970SOL    HW130809   6.551   4.453   1.969
 9970SOL    HW230810   6.488   4.582   2.046
 9971SOL     OW30811   2.310   3.864   0.354
 9971SOL    HW130812   2.240   3.846   0.285
 9971SOL    HW230813   2.362   3.780   0.372
 9972SOL     OW30814   3.280   4.265   0.000
 9972SOL    HW130815   3.254   4.221   0.086
 9972SOL    HW230816   3.351   4.212   6.980
 9973SOL     OW30817   4.390   2.095   4.795
 9973SOL    HW130818   4.382   2.054   4.704
 9973SOL    HW230819   4.336   2.042   4.861
 9974SOL     OW30820   5.697   3.346   3.476
 9974SOL    HW130821   5.735   3.302   3.395
 9974SOL    HW230822   5.737   3.305   3.558
 9975SOL     OW30823   0.073   4.539   0.147
 9975SOL    HW130824   0.016   4.510   0.223
 9975SOL    HW230825   0.086   4.463   0.084
 9976SOL     OW30826   6.802   5.758   5.615
 9976SOL    HW130827   6.779   5.781   5.521
 9976SOL    HW230828   6.865   5.681   5.616
 9977SOL     OW30829   6.722   4.795   5.646
 9977SOL    HW130830   6.650   4.783   5.578
 9977SOL    HW230831   6.810   4.769   5.606
 9978SOL     OW30832   6.078   2.132   3.713
 9978SOL    HW130833   6.085   2.194   3.635
 9978SOL    HW230834   6.083   2.038   3.681
 9979SOL     OW30835   6.723   5.286   6.467
 9979SOL    HW130836   6.772   5.264   6.383
 9979SOL    HW230837   6.755   5.375   6.502
 9980SOL     OW30838   1.630   1.324   6.489
 9980SOL    HW130839   1.602   1.418   6.510
 9980SOL    HW230840   1.671   1.283   6.570
 9981SOL     OW30841   2.777   1.907   1.107
 9981SOL    HW130842   2.797   1.809   1.114
 9981SOL    HW230843   2.855   1.959   1.143
 9982SOL     OW30844   0.732   1.492   2.945
 9982SOL    HW130845   0.713   1.566   3.010
 9982SOL    HW230846   0.661   1.422   2.954
 9983SOL     OW30847   1.554   1.864   2.032
 9983SOL    HW130848   1.647   1.839   2.058
 9983SOL    HW230849   1.545   1.855   1.932
 9984SOL     OW30850   1.161   0.040   0.474
 9984SOL    HW130851   1.097   0.035   0.398
 9984SOL    HW230852   1.235   6.999   0.460
 9985SOL     OW30853   2.920   0.725   1.391
 9985SOL    HW130854   2.910   0.720   1.491
 9985SOL    HW230855   3.008   0.685   1.365
 9986SOL     OW30856   5.517   4.066   6.525
 9986SOL    HW130857   5.499   4.145   6.467
 9986SOL    HW230858   5.470   3.986   6.488
 9987SOL     OW30859   5.199   1.600   2.832
 9987SOL    HW130860   5.292   1.603   2.869
 9987SOL    HW230861   5.195   1.649   2.745
 9988SOL     OW30862   0.156   5.677   5.132
 9988SOL    HW130863   0.057   5.661   5.126
 9988SOL    HW230864   0.175   5.774   5.117
 9989SOL     OW30865   5.348   3.618   2.711
 9989SOL    HW130866   5.268   3.650   2.661
 9989SOL    HW230867   5.324   3.603   2.807
 9990SOL     OW30868   2.750   6.690   3.061
 9990SOL    HW130869   2.767   6.616   3.126
 9990SOL    HW230870   2.815   6.765   3.077
 9991SOL     OW30871   1.359   3.153   5.250
 9991SOL    HW130872   1.297   3.228   5.227
 9991SOL    HW230873   1.393   3.111   5.166
 9992SOL     OW30874   4.964   3.681   0.472
 9992SOL    HW130875   5.002   3.601   0.519
 9992SOL    HW230876   4.903   3.730   0.534
 9993SOL     OW30877   4.613   6.870   2.515
 9993SOL    HW130878   4.597   6.824   2.602
 9993SOL    HW230879   4.707   6.853   2.485
 9994SOL     OW30880   6.772   3.808   4.159
 9994SOL    HW130881   6.720   3.787   4.242
 9994SOL    HW230882   6.868   3.786   4.173
 9995SOL     OW30883   2.761   6.939   2.619
 9995SOL    HW130884   2.751   6.982   2.708
 9995SOL    HW230885   2.765   7.009   2.548
 9996SOL     OW30886   2.794   2.350   1.070
 9996SOL    HW130887   2.867   2.295   1.029
 9996SOL    HW230888   2.832   2.437   1.102
 9997SOL     OW30889   4.018   2.362   1.171
 9997SOL    HW130890   4.099   2.401   1.127
 9997SOL    HW230891   3.936   2.409   1.138
 9998SOL     OW30892   6.591   3.703   2.128
 9998SOL    HW130893   6.625   3.625   2.075
 9998SOL    HW230894   6.654   3.722   2.203
 9999SOL     OW30895   6.577   4.575   4.406
 9999SOL    HW130896   6.547   4.502   4.344
 9999SOL    HW230897   6.676   4.589   4.397
10000SOL     OW30898   5.693   2.493   7.001
10000SOL    HW130899   5.724   2.482   6.906
10000SOL    HW230900   5.594   2.508   7.002
10001SOL     OW30901   4.870   1.265   1.769
10001SOL    HW130902   4.895   1.312   1.684
10001SOL    HW230903   4.816   1.184   1.748
10002SOL     OW30904   1.288   0.636   1.406
10002SOL    HW130905   1.331   0.726   1.405
10002SOL    HW230906   1.236   0.624   1.491
10003SOL     OW30907   3.863   2.092   3.668
10003SOL    HW130908   3.935   2.126   3.728
10003SOL    HW230909   3.846   1.995   3.689
10004SOL     OW30910   4.819   2.936   4.652
10004SOL    HW130911   4.808   2.913   4.555
10004SOL    HW230912   4.916   2.947   4.673
10005SOL     OW30913   5.138   5.926   3.385
10005SOL    HW130914   5.161   5.893   3.476
10005SOL    HW230915   5.042   5.907   3.366
10006SOL     OW30916   5.380   0.707   4.210
10006SOL    HW130917   5.324   0.701   4.292
10006SOL    HW230918   5.463   0.652   4.223
10007SOL     OW30919   0.662   4.547   5.199
10007SOL    HW130920   0.736   4.481   5.213
10007SOL    HW230921   0.616   4.563   5.286
10008SOL     OW30922   4.368   1.442   4.110
10008SOL    HW130923   4.294   1.508   4.119
10008SOL    HW230924   4.399   1.439   4.015
10009SOL     OW30925   1.949   3.616   1.367
10009SOL    HW130926   1.913   3.699   1.409
10009SOL    HW230927   1.944   3.541   1.433
10010SOL     OW30928   2.061   6.836   0.021
10010SOL    HW130929   2.094   6.776   6.974
10010SOL    HW230930   1.961   6.837   0.021
10011SOL     OW30931   0.134   2.465   4.974
10011SOL    HW130932   0.160   2.521   5.052
10011SOL    HW230933   0.161   2.370   4.991
10012SOL     OW30934   5.147   0.150   2.737
10012SOL    HW130935   5.219   0.083   2.717
10012SOL    HW230936   5.173   0.203   2.817
10013SOL     OW30937   2.031   1.468   4.364
10013SOL    HW130938   2.001   1.508   4.277
10013SOL    HW230939   2.039   1.369   4.354
10014SOL     OW30940   6.280   2.718   7.018
10014SOL    HW130941   6.184   2.703   6.993
10014SOL    HW230942   6.316   2.796   6.967
10015SOL     OW30943   2.952   4.277   0.191
10015SOL    HW130944   2.957   4.230   0.103
10015SOL    HW230945   2.955   4.209   0.265
10016SOL     OW30946   2.395   0.176   4.780
10016SOL    HW130947   2.376   0.216   4.869
10016SOL    HW230948   2.339   0.094   4.767
10017SOL     OW30949   1.996   2.680   2.321
10017SOL    HW130950   2.018   2.669   2.224
10017SOL    HW230951   1.978   2.776   2.340
10018SOL     OW30952   5.359   6.655   6.053
10018SOL    HW130953   5.309   6.656   5.967
10018SOL    HW230954   5.381   6.561   6.078
10019SOL     OW30955   1.408   1.605   3.108
10019SOL    HW130956   1.332   1.663   3.139
10019SOL    HW230957   1.387   1.570   3.017
10020SOL     OW30958   0.360   2.429   1.566
10020SOL    HW130959   0.450   2.386   1.564
10020SOL    HW230960   0.336   2.451   1.661
10021SOL     OW30961   0.650   3.068   1.641
10021SOL    HW130962   0.695   3.033   1.559
10021SOL    HW230963   0.706   3.140   1.682
10022SOL     OW30964   3.456   6.885   0.935
10022SOL    HW130965   3.375   6.853   0.886
10022SOL    HW230966   3.507   6.807   0.970
10023SOL     OW30967   1.671   5.210   5.783
10023SOL    HW130968   1.686   5.193   5.880
10023SOL    HW230969   1.757   5.204   5.734
10024SOL     OW30970   2.336   6.654   1.946
10024SOL    HW130971   2.328   6.555   1.957
10024SOL    HW230972   2.252   6.698   1.980
10025SOL     OW30973   1.062   0.894   1.224
10025SOL    HW130974   0.979   0.931   1.183
10025SOL    HW230975   1.139   0.956   1.206
10026SOL     OW30976   4.704   6.409   4.032
10026SOL    HW130977   4.765   6.481   3.999
10026SOL    HW230978   4.747   6.363   4.110
10027SOL     OW30979   0.358   4.462   5.011
10027SOL    HW130980   0.408   4.396   4.954
10027SOL    HW230981   0.423   4.508   5.072
10028SOL     OW30982   1.489   1.867   1.411
10028SOL    HW130983   1.530   1.892   1.323
10028SOL    HW230984   1.446   1.947   1.452
10029SOL     OW30985   3.129   2.026   3.573
10029SOL    HW130986   3.104   2.089   3.647
10029SOL    HW230987   3.129   1.932   3.608
10030SOL     OW30988   2.392   6.407   3.852
10030SOL    HW130989   2.460   6.447   3.913
10030SOL    HW230990   2.388   6.461   3.767
10031SOL     OW30991   6.015   5.196   3.607
10031SOL    HW130992   6.066   5.123   3.653
10031SOL    HW230993   5.946   5.156   3.547
10032SOL     OW30994   3.046   1.059   5.631
10032SOL    HW130995   2.989   1.011   5.698
10032SOL    HW230996   3.141   1.031   5.643
10033SOL     OW30997   4.857   2.360   4.112
10033SOL    HW130998   4.803   2.328   4.034
10033SOL    HW230999   4.945   2.395   4.080
10034SOL     OW31000   3.024   0.180   4.177
10034SOL    HW131001   3.049   0.260   4.230
10034SOL    HW231002   3.066   0.186   4.086
10035SOL     OW31003   6.896   4.516   2.250
10035SOL    HW131004   6.900   4.439   2.185
10035SOL    HW231005   6.928   4.485   2.339
10036SOL     OW31006   5.228   1.645   0.926
10036SOL    HW131007   5.284   1.702   0.865
10036SOL    HW231008   5.287   1.587   0.982
10037SOL     OW31009   5.917   1.298   1.084
10037SOL    HW131010   5.869   1.322   1.169
10037SOL    HW231011   5.913   1.199   1.071
10038SOL     OW31012   3.987   1.124   6.521
10038SOL    HW131013   3.890   1.102   6.526
10038SOL    HW231014   4.022   1.143   6.613
10039SOL     OW31015   3.397   0.279   3.623
10039SOL    HW131016   3.363   0.191   3.657
10039SOL    HW231017   3.348   0.303   3.540
10040SOL     OW31018   4.241   5.771   6.496
10040SOL    HW131019   4.314   5.704   6.482
10040SOL    HW231020   4.253   5.846   6.431
10041SOL     OW31021   3.913   6.507   6.466
10041SOL    HW131022   3.984   6.521   6.397
10041SOL    HW231023   3.956   6.473   6.550
10042SOL     OW31024   1.060   1.696   4.715
10042SOL    HW131025   0.997   1.769   4.740
10042SOL    HW231026   1.135   1.733   4.660
10043SOL     OW31027   6.824   1.912   4.598
10043SOL    HW131028   6.901   1.972   4.618
10043SOL    HW231029   6.816   1.843   4.670
10044SOL     OW31030   2.771   1.485   5.195
10044SOL    HW131031   2.823   1.567   5.170
10044SOL    HW231032   2.835   1.410   5.214
10045SOL     OW31033   3.642   0.628   3.351
10045SOL    HW131034   3.690   0.715   3.338
10045SOL    HW231035   3.575   0.616   3.278
10046SOL     OW31036   1.958   4.128   0.799
10046SOL    HW131037   2.006   4.046   0.827
10046SOL    HW231038   2.022   4.205   0.793
10047SOL     OW31039   0.868   3.888   4.888
10047SOL    HW131040   0.880   3.789   4.874
10047SOL    HW231041   0.952   3.936   4.862
10048SOL     OW31042   6.291   0.911   2.806
10048SOL    HW131043   6.374   0.907   2.749
10048SOL    HW231044   6.221   0.852   2.766
10049SOL     OW31045   0.770   1.838   6.420
10049SOL    HW131046   0.823   1.873   6.498
10049SOL    HW231047   0.799   1.744   6.400
10050SOL     OW31048   5.376   3.813   4.454
10050SOL    HW131049   5.412   3.720   4.461
10050SOL    HW231050   5.305   3.827   4.523
10051SOL     OW31051   6.325   3.844   5.775
10051SOL    HW131052   6.292   3.761   5.821
10051SOL    HW231053   6.263   3.867   5.700
10052SOL     OW31054   1.971   1.036   2.796
10052SOL    HW131055   1.959   0.957   2.736
10052SOL    HW231056   1.901   1.034   2.868
10053SOL     OW31057   3.732   5.493   3.101
10053SOL    HW131058   3.804   5.444   3.150
10053SOL    HW231059   3.721   5.584   3.140
10054SOL     OW31060   5.278   6.091   6.416
10054SOL    HW131061   5.214   6.016   6.398
10054SOL    HW231062   5.274   6.115   6.513
10055SOL     OW31063   6.154   1.148   5.003
10055SOL    HW131064   6.140   1.138   4.905
10055SOL    HW231065   6.156   1.245   5.027
10056SOL     OW31066   5.366   4.179   2.799
10056SOL    HW131067   5.410   4.092   2.823
10056SOL    HW231068   5.282   4.190   2.853
10057SOL     OW31069   4.167   2.650   5.622
10057SOL    HW131070   4.115   2.613   5.545
10057SOL    HW231071   4.175   2.581   5.694
10058SOL     OW31072   6.641   3.644   5.364
10058SOL    HW131073   6.735   3.615   5.382
10058SOL    HW231074   6.594   3.659   5.450
10059SOL     OW31075   0.136   1.529   0.635
10059SOL    HW131076   0.154   1.462   0.708
10059SOL    HW231077   0.216   1.588   0.624
10060SOL     OW31078   2.206   3.053   2.289
10060SOL    HW131079   2.237   3.092   2.203
10060SOL    HW231080   2.110   3.026   2.281
10061SOL     OW31081   4.822   1.378   4.385
10061SOL    HW131082   4.847   1.281   4.385
10061SOL    HW231083   4.723   1.387   4.385
10062SOL     OW31084   5.491   0.326   3.779
10062SOL    HW131085   5.563   0.297   3.843
10062SOL    HW231086   5.428   0.387   3.826
10063SOL     OW31087   2.789   1.130   4.129
10063SOL    HW131088   2.753   1.037   4.142
10063SOL    HW231089   2.844   1.133   4.045
10064SOL     OW31090   5.007   6.811   0.282
10064SOL    HW131091   5.033   6.898   0.241
10064SOL    HW231092   4.915   6.817   0.319
10065SOL     OW31093   2.583   0.257   2.814
10065SOL    HW131094   2.600   0.174   2.867
10065SOL    HW231095   2.564   0.233   2.719
10066SOL     OW31096   0.454   2.200   4.109
10066SOL    HW131097   0.433   2.291   4.147
10066SOL    HW231098   0.397   2.132   4.153
10067SOL     OW31099   0.270   3.476   5.039
10067SOL    HW131100   0.172   3.494   5.052
10067SOL    HW231101   0.284   3.377   5.028
10068SOL     OW31102   0.366   3.383   3.749
10068SOL    HW131103   0.462   3.409   3.741
10068SOL    HW231104   0.315   3.456   3.794
10069SOL     OW31105   3.390   4.811   1.402
10069SOL    HW131106   3.364   4.801   1.498
10069SOL    HW231107   3.473   4.867   1.396
10070SOL     OW31108   0.215   6.470   5.126
10070SOL    HW131109   0.116   6.458   5.137
10070SOL    HW231110   0.239   6.457   5.030
10071SOL     OW31111   7.021   5.839   4.211
10071SOL    HW131112   0.072   5.819   4.272
10071SOL    HW231113   0.026   5.902   4.140
10072SOL     OW31114   0.621   6.750   4.340
10072SOL    HW131115   0.650   6.757   4.245
10072SOL    HW231116   0.663   6.669   4.382
10073SOL     OW31117   6.827   4.093   4.161
10073SOL    HW131118   6.814   3.996   4.138
10073SOL    HW231119   6.830   4.104   4.260
10074SOL     OW31120   2.461   0.180   6.168
10074SOL    HW131121   2.416   0.098   6.204
10074SOL    HW231122   2.532   0.210   6.231
10075SOL     OW31123   1.581   2.607   1.982
10075SOL    HW131124   1.583   2.600   1.882
10075SOL    HW231125   1.551   2.520   2.021
10076SOL     OW31126   5.861   6.149   3.204
10076SOL    HW131127   5.952   6.117   3.232
10076SOL    HW231128   5.846   6.127   3.108
10077SOL     OW31129   4.561   3.729   0.400
10077SOL    HW131130   4.596   3.662   0.335
10077SOL    HW231131   4.497   3.791   0.353
10078SOL     OW31132   6.511   6.098   4.282
10078SOL    HW131133   6.445   6.062   4.347
10078SOL    HW231134   6.542   6.189   4.312
10079SOL     OW31135   6.052   3.225   3.212
10079SOL    HW131136   6.102   3.146   3.177
10079SOL    HW231137   5.964   3.233   3.164
10080SOL     OW31138   5.398   1.022   6.071
10080SOL    HW131139   5.378   0.993   5.977
10080SOL    HW231140   5.351   0.961   6.135
10081SOL     OW31141   0.598   1.588   0.239
10081SOL    HW131142   0.672   1.653   0.259
10081SOL    HW231143   0.609   1.553   0.146
10082SOL     OW31144   0.606   5.467   1.986
10082SOL    HW131145   0.635   5.393   1.926
10082SOL    HW231146   0.517   5.446   2.024
10083SOL     OW31147   3.761   0.234   3.867
10083SOL    HW131148   3.788   0.309   3.806
10083SOL    HW231149   3.712   0.272   3.946
10084SOL     OW31150   1.345   0.578   5.809
10084SOL    HW131151   1.321   0.647   5.876
10084SOL    HW231152   1.384   0.622   5.728
10085SOL     OW31153   3.222   6.886   0.595
10085SOL    HW131154   3.133   6.887   0.551
10085SOL    HW231155   3.265   6.976   0.584
10086SOL     OW31156   5.990   5.911   2.752
10086SOL    HW131157   6.022   5.925   2.846
10086SOL    HW231158   6.062   5.937   2.688
10087SOL     OW31159   6.251   5.653   3.924
10087SOL    HW131160   6.275   5.581   3.988
10087SOL    HW231161   6.330   5.675   3.866
10088SOL     OW31162   6.904   6.947   2.663
10088SOL    HW131163   6.833   7.016   2.674
10088SOL    HW231164   6.990   6.982   2.700
10089SOL     OW31165   2.795   2.147   3.467
10089SOL    HW131166   2.891   2.160   3.442
10089SOL    HW231167   2.763   2.059   3.431
10090SOL     OW31168   6.996   4.879   1.622
10090SOL    HW131169   6.984   4.916   1.714
10090SOL    HW231170   6.944   4.794   1.614
10091SOL     OW31171   6.567   5.756   6.651
10091SOL    HW131172   6.477   5.717   6.633
10091SOL    HW231173   6.571   5.848   6.613
10092SOL     OW31174   1.725   3.077   6.178
10092SOL    HW131175   1.683   3.163   6.205
10092SOL    HW231176   1.812   3.065   6.226
10093SOL     OW31177   4.761   3.381   5.326
10093SOL    HW131178   4.776   3.283   5.307
10093SOL    HW231179   4.714   3.422   5.248
10094SOL     OW31180   2.885   5.906   1.613
10094SOL    HW131181   2.799   5.949   1.585
10094SOL    HW231182   2.952   5.976   1.637
10095SOL     OW31183   5.329   1.251   4.332
10095SOL    HW131184   5.289   1.311   4.264
10095SOL    HW231185   5.327   1.295   4.421
10096SOL     OW31186   4.715   6.478   2.262
10096SOL    HW131187   4.774   6.403   2.231
10096SOL    HW231188   4.747   6.564   2.223
10097SOL     OW31189   1.233   1.903   0.038
10097SOL    HW131190   1.145   1.950   0.047
10097SOL    HW231191   1.227   1.834   6.991
10098SOL     OW31192   2.951   0.033   5.412
10098SOL    HW131193   2.881   6.995   5.444
10098SOL    HW231194   2.910   0.123   5.397
10099SOL     OW31195   0.978   4.724   1.095
10099SOL    HW131196   0.952   4.687   1.006
10099SOL    HW231197   1.001   4.821   1.085
10100SOL     OW31198   5.263   6.195   5.295
10100SOL    HW131199   5.197   6.266   5.321
10100SOL    HW231200   5.300   6.215   5.205
10101SOL     OW31201   7.001   3.035   2.098
10101SOL    HW131202   0.035   2.996   2.169
10101SOL    HW231203   6.909   3.049   2.135
10102SOL     OW31204   6.896   0.814   1.746
10102SOL    HW131205   6.936   0.852   1.663
10102SOL    HW231206   6.965   0.811   1.818
10103SOL     OW31207   2.226   0.133   5.430
10103SOL    HW131208   2.229   0.098   5.337
10103SOL    HW231209   2.215   0.232   5.428
10104SOL     OW31210   1.463   1.941   5.510
10104SOL    HW131211   1.525   2.006   5.466
10104SOL    HW231212   1.369   1.967   5.491
10105SOL     OW31213   2.222   0.309   6.281
10105SOL    HW131214   2.154   0.263   6.223
10105SOL    HW231215   2.314   0.284   6.251
10106SOL     OW31216   3.661   6.837   0.666
10106SOL    HW131217   3.614   6.829   0.754
10106SOL    HW231218   3.711   6.924   0.663
10107SOL     OW31219   5.392   1.542   6.078
10107SOL    HW131220   5.487   1.548   6.046
10107SOL    HW231221   5.336   1.499   6.007
10108SOL     OW31222   6.809   1.486   0.393
10108SOL    HW131223   6.821   1.551   0.468
10108SOL    HW231224   6.850   1.398   0.419
10109SOL     OW31225   0.322   0.761   0.857
10109SOL    HW131226   0.301   0.718   0.945
10109SOL    HW231227   0.242   0.813   0.826
10110SOL     OW31228   4.894   4.627   3.952
10110SOL    HW131229   4.880   4.559   4.024
10110SOL    HW231230   4.900   4.582   3.863
10111SOL     OW31231   6.979   3.793   3.555
10111SOL    HW131232   6.968   3.711   3.498
10111SOL    HW231233   6.921   3.785   3.637
10112SOL     OW31234   5.777   2.943   2.926
10112SOL    HW131235   5.820   2.857   2.953
10112SOL    HW231236   5.848   3.012   2.908
10113SOL     OW31237   4.729   6.832   0.429
10113SOL    HW131238   4.687   6.789   0.349
10113SOL    HW231239   4.681   6.917   0.451
10114SOL     OW31240   4.240   2.300   2.547
10114SOL    HW131241   4.228   2.289   2.646
10114SOL    HW231242   4.327   2.344   2.529
10115SOL     OW31243   4.390   2.081   5.135
10115SOL    HW131244   4.350   2.005   5.082
10115SOL    HW231245   4.488   2.066   5.145
10116SOL     OW31246   0.603   6.531   6.834
10116SOL    HW131247   0.602   6.630   6.820
10116SOL    HW231248   0.696   6.502   6.856
10117SOL     OW31249   6.745   6.633   5.765
10117SOL    HW131250   6.722   6.573   5.688
10117SOL    HW231251   6.803   6.584   5.830
10118SOL     OW31252   2.539   4.795   3.611
10118SOL    HW131253   2.629   4.785   3.567
10118SOL    HW231254   2.522   4.892   3.629
10119SOL     OW31255   6.633   4.891   3.930
10119SOL    HW131256   6.732   4.877   3.929
10119SOL    HW231257   6.605   4.917   4.022
10120SOL     OW31258   1.827   3.682   4.326
10120SOL    HW131259   1.819   3.686   4.227
10120SOL    HW231260   1.736   3.669   4.367
10121SOL     OW31261   5.618   3.406   6.723
10121SOL    HW131262   5.599   3.310   6.705
10121SOL    HW231263   5.708   3.429   6.686
10122SOL     OW31264   5.206   2.160   3.456
10122SOL    HW131265   5.222   2.194   3.363
10122SOL    HW231266   5.148   2.079   3.453
10123SOL     OW31267   5.690   6.149   0.833
10123SOL    HW131268   5.668   6.246   0.823
10123SOL    HW231269   5.644   6.113   0.915
10124SOL     OW31270   1.369   4.947   0.594
10124SOL    HW131271   1.340   4.939   0.499
10124SOL    HW231272   1.298   4.909   0.654
10125SOL     OW31273   2.336   1.033   1.007
10125SOL    HW131274   2.397   1.057   0.932
10125SOL    HW231275   2.243   1.023   0.972
10126SOL     OW31276   0.327   0.233   6.869
10126SOL    HW131277   0.376   0.319   6.858
10126SOL    HW231278   0.387   0.166   6.914
10127SOL     OW31279   2.228   3.550   0.648
10127SOL    HW131280   2.174   3.505   0.719
10127SOL    HW231281   2.169   3.611   0.595
10128SOL     OW31282   3.473   0.981   5.910
10128SOL    HW131283   3.430   0.971   5.820
10128SOL    HW231284   3.402   0.993   5.979
10129SOL     OW31285   6.909   1.198   2.485
10129SOL    HW131286   6.854   1.120   2.454
10129SOL    HW231287   6.947   1.246   2.406
10130SOL     OW31288   0.433   3.938   1.786
10130SOL    HW131289   0.441   3.955   1.688
10130SOL    HW231290   0.388   3.850   1.801
10131SOL     OW31291   1.982   0.067   4.480
10131SOL    HW131292   1.947   0.023   4.563
10131SOL    HW231293   1.920   0.142   4.454
10132SOL     OW31294   1.959   0.427   3.344
10132SOL    HW131295   1.903   0.510   3.346
10132SOL    HW231296   2.024   0.431   3.268
10133SOL     OW31297   4.553   6.570   1.040
10133SOL    HW131298   4.512   6.630   0.971
10133SOL    HW231299   4.562   6.619   1.126
10134SOL     OW31300   5.276   1.029   2.709
10134SOL    HW131301   5.274   1.108   2.769
10134SOL    HW231302   5.184   1.010   2.675
10135SOL     OW31303   5.071   2.238   4.370
10135SOL    HW131304   5.014   2.155   4.371
10135SOL    HW231305   5.021   2.312   4.415
10136SOL     OW31306   5.280   1.795   2.265
10136SOL    HW131307   5.361   1.737   2.277
10136SOL    HW231308   5.198   1.741   2.281
10137SOL     OW31309   0.462   4.701   5.391
10137SOL    HW131310   0.388   4.658   5.340
10137SOL    HW231311   0.480   4.649   5.475
10138SOL     OW31312   5.725   3.158   0.247
10138SOL    HW131313   5.763   3.185   0.158
10138SOL    HW231314   5.635   3.200   0.259
10139SOL     OW31315   3.000   3.864   4.555
10139SOL    HW131316   3.026   3.867   4.651
10139SOL    HW231317   2.974   3.770   4.530
10140SOL     OW31318   0.287   6.941   6.770
10140SOL    HW131319   0.355   7.007   6.736
10140SOL    HW231320   0.275   6.869   6.702
10141SOL     OW31321   4.561   1.258   5.176
10141SOL    HW131322   4.546   1.330   5.108
10141SOL    HW231323   4.474   1.234   5.219
10142SOL     OW31324   5.991   6.379   5.855
10142SOL    HW131325   5.983   6.424   5.766
10142SOL    HW231326   6.043   6.294   5.845
10143SOL     OW31327   5.523   2.557   0.399
10143SOL    HW131328   5.435   2.560   0.351
10143SOL    HW231329   5.538   2.465   0.434
10144SOL     OW31330   4.576   6.827   5.637
10144SOL    HW131331   4.548   6.861   5.727
10144SOL    HW231332   4.570   6.902   5.571
10145SOL     OW31333   3.599   5.573   2.864
10145SOL    HW131334   3.546   5.647   2.906
10145SOL    HW231335   3.661   5.534   2.932
10146SOL     OW31336   6.196   3.667   4.491
10146SOL    HW131337   6.177   3.664   4.589
10146SOL    HW231338   6.145   3.594   4.445
10147SOL     OW31339   4.956   3.910   6.687
10147SOL    HW131340   4.869   3.949   6.657
10147SOL    HW231341   4.985   3.955   6.772
10148SOL     OW31342   5.770   4.547   0.482
10148SOL    HW131343   5.796   4.574   0.390
10148SOL    HW231344   5.816   4.461   0.506
10149SOL     OW31345   5.251   4.102   1.144
10149SOL    HW131346   5.280   4.174   1.082
10149SOL    HW231347   5.290   4.118   1.235
10150SOL     OW31348   4.292   3.450   1.666
10150SOL    HW131349   4.239   3.524   1.707
10150SOL    HW231350   4.243   3.413   1.587
10151SOL     OW31351   1.305   6.835   6.581
10151SOL    HW131352   1.214   6.865   6.553
10151SOL    HW231353   1.305   6.735   6.591
10152SOL     OW31354   6.767   5.863   3.625
10152SOL    HW131355   6.681   5.879   3.673
10152SOL    HW231356   6.786   5.765   3.621
10153SOL     OW31357   5.048   6.008   4.318
10153SOL    HW131358   4.998   5.941   4.262
10153SOL    HW231359   5.089   6.077   4.258
10154SOL     OW31360   3.526   6.475   5.294
10154SOL    HW131361   3.530   6.564   5.250
10154SOL    HW231362   3.618   6.444   5.317
10155SOL     OW31363   4.970   2.638   5.232
10155SOL    HW131364   4.898   2.625   5.164
10155SOL    HW231365   5.003   2.732   5.230
10156SOL     OW31366   5.545   0.364   1.486
10156SOL    HW131367   5.518   0.451   1.445
10156SOL    HW231368   5.641   0.368   1.513
10157SOL     OW31369   6.850   2.504   0.244
10157SOL    HW131370   6.915   2.562   0.292
10157SOL    HW231371   6.864   2.409   0.271
10158SOL     OW31372   6.063   6.644   1.042
10158SOL    HW131373   6.004   6.609   1.116
10158SOL    HW231374   6.122   6.570   1.010
10159SOL     OW31375   3.653   3.447   2.368
10159SOL    HW131376   3.674   3.490   2.455
10159SOL    HW231377   3.570   3.487   2.330
10160SOL     OW31378   1.683   3.892   3.500
10160SOL    HW131379   1.626   3.974   3.512
10160SOL    HW231380   1.626   3.816   3.472
10161SOL     OW31381   3.606   4.593   6.464
10161SOL    HW131382   3.689   4.574   6.517
10161SOL    HW231383   3.631   4.631   6.375
10162SOL     OW31384   2.859   4.472   0.794
10162SOL    HW131385   2.851   4.526   0.878
10162SOL    HW231386   2.820   4.522   0.717
10163SOL     OW31387   0.436   4.711   6.783
10163SOL    HW131388   0.478   4.631   6.826
10163SOL    HW231389   0.393   4.767   6.853
10164SOL     OW31390   5.789   3.530   4.469
10164SOL    HW131391   5.700   3.554   4.508
10164SOL    HW231392   5.848   3.496   4.541
10165SOL     OW31393   6.658   2.207   3.346
10165SOL    HW131394   6.662   2.148   3.426
10165SOL    HW231395   6.703   2.294   3.366
10166SOL     OW31396   2.074   1.679   1.530
10166SOL    HW131397   2.131   1.611   1.485
10166SOL    HW231398   2.115   1.706   1.617
10167SOL     OW31399   6.832   5.726   6.910
10167SOL    HW131400   6.808   5.815   6.871
10167SOL    HW231401   6.925   5.701   6.884
10168SOL     OW31402   6.620   2.295   6.261
10168SOL    HW131403   6.573   2.223   6.313
10168SOL    HW231404   6.553   2.354   6.217
10169SOL     OW31405   6.160   3.410   2.950
10169SOL    HW131406   6.175   3.429   3.047
10169SOL    HW231407   6.067   3.374   2.937
10170SOL     OW31408   6.045   5.955   6.260
10170SOL    HW131409   5.958   5.973   6.214
10170SOL    HW231410   6.041   5.990   6.354
10171SOL     OW31411   0.755   2.233   3.890
10171SOL    HW131412   0.760   2.297   3.966
10171SOL    HW231413   0.683   2.261   3.826
10172SOL     OW31414   0.701   6.483   4.426
10172SOL    HW131415   0.608   6.474   4.461
10172SOL    HW231416   0.711   6.429   4.343
10173SOL     OW31417   2.218   3.237   6.606
10173SOL    HW131418   2.288   3.308   6.599
10173SOL    HW231419   2.228   3.189   6.693
10174SOL     OW31420   4.866   4.566   3.682
10174SOL    HW131421   4.879   4.480   3.631
10174SOL    HW231422   4.801   4.624   3.634
10175SOL     OW31423   5.808   1.668   3.670
10175SOL    HW131424   5.902   1.676   3.637
10175SOL    HW231425   5.766   1.586   3.632
10176SOL     OW31426   6.251   2.932   5.335
10176SOL    HW131427   6.267   2.838   5.304
10176SOL    HW231428   6.332   2.988   5.314
10177SOL     OW31429   1.694   0.274   0.596
10177SOL    HW131430   1.681   0.176   0.611
10177SOL    HW231431   1.792   0.295   0.601
10178SOL     OW31432   0.993   0.856   0.306
10178SOL    HW131433   0.941   0.940   0.289
10178SOL    HW231434   0.975   0.824   0.399
10179SOL     OW31435   0.781   3.524   6.401
10179SOL    HW131436   0.714   3.460   6.438
10179SOL    HW231437   0.844   3.553   6.473
10180SOL     OW31438   4.532   0.165   0.739
10180SOL    HW131439   4.533   0.244   0.801
10180SOL    HW231440   4.582   0.089   0.780
10181SOL     OW31441   0.649   3.093   1.193
10181SOL    HW131442   0.552   3.082   1.213
10181SOL    HW231443   0.689   3.003   1.175
10182SOL     OW31444   4.944   1.161   6.912
10182SOL    HW131445   4.948   1.149   6.812
10182SOL    HW231446   4.854   1.197   6.937
10183SOL     OW31447   5.854   2.940   5.877
10183SOL    HW131448   5.791   2.946   5.800
10183SOL    HW231449   5.946   2.965   5.846
10184SOL     OW31450   4.798   2.849   0.042
10184SOL    HW131451   4.735   2.772   0.033
10184SOL    HW231452   4.796   2.904   6.984
10185SOL     OW31453   6.193   5.647   2.189
10185SOL    HW131454   6.147   5.613   2.271
10185SOL    HW231455   6.274   5.699   2.215
10186SOL     OW31456   4.940   3.634   4.796
10186SOL    HW131457   4.878   3.656   4.871
10186SOL    HW231458   4.935   3.536   4.777
10187SOL     OW31459   1.824   3.570   5.743
10187SOL    HW131460   1.814   3.490   5.684
10187SOL    HW231461   1.746   3.574   5.806
10188SOL     OW31462   2.378   4.905   6.290
10188SOL    HW131463   2.279   4.901   6.299
10188SOL    HW231464   2.418   4.934   6.377
10189SOL     OW31465   1.115   0.868   6.116
10189SOL    HW131466   1.083   0.952   6.161
10189SOL    HW231467   1.036   0.811   6.091
10190SOL     OW31468   4.122   2.992   1.644
10190SOL    HW131469   4.060   2.921   1.613
10190SOL    HW231470   4.215   2.955   1.650
10191SOL     OW31471   5.061   5.299   0.145
10191SOL    HW131472   5.062   5.389   0.189
10191SOL    HW231473   5.073   5.228   0.215
10192SOL     OW31474   3.350   1.895   5.152
10192SOL    HW131475   3.419   1.942   5.098
10192SOL    HW231476   3.388   1.810   5.189
10193SOL     OW31477   3.028   3.900   2.342
10193SOL    HW131478   3.042   3.815   2.291
10193SOL    HW231479   2.952   3.951   2.300
10194SOL     OW31480   4.732   0.624   4.285
10194SOL    HW131481   4.660   0.691   4.268
10194SOL    HW231482   4.807   0.639   4.220
10195SOL     OW31483   6.925   6.987   2.025
10195SOL    HW131484   6.943   6.951   1.934
10195SOL    HW231485   6.916   0.061   2.020
10196SOL     OW31486   4.602   1.959   3.629
10196SOL    HW131487   4.575   1.995   3.539
10196SOL    HW231488   4.695   1.990   3.651
10197SOL     OW31489   4.581   1.888   4.012
10197SOL    HW131490   4.528   1.909   3.930
10197SOL    HW231491   4.576   1.790   4.031
10198SOL     OW31492   4.020   6.609   0.682
10198SOL    HW131493   4.076   6.534   0.716
10198SOL    HW231494   4.074   6.693   0.680
10199SOL     OW31495   0.763   2.169   0.026
10199SOL    HW131496   0.785   2.265   0.011
10199SOL    HW231497   0.664   2.156   0.020
10200SOL     OW31498   5.400   3.528   5.315
10200SOL    HW131499   5.482   3.471   5.322
10200SOL    HW231500   5.415   3.616   5.359
10201SOL     OW31501   0.490   6.233   0.978
10201SOL    HW131502   0.437   6.151   0.999
10201SOL    HW231503   0.580   6.227   1.022
10202SOL     OW31504   1.298   4.357   0.097
10202SOL    HW131505   1.269   4.372   0.002
10202SOL    HW231506   1.218   4.367   0.157
10203SOL     OW31507   1.220   2.991   1.832
10203SOL    HW131508   1.165   2.920   1.788
10203SOL    HW231509   1.194   2.998   1.928
10204SOL     OW31510   3.237   5.687   6.484
10204SOL    HW131511   3.181   5.604   6.481
10204SOL    HW231512   3.333   5.663   6.469
10205SOL     OW31513   3.044   1.166   2.306
10205SOL    HW131514   3.045   1.135   2.211
10205SOL    HW231515   2.955   1.204   2.328
10206SOL     OW31516   5.321   0.012   6.244
10206SOL    HW131517   5.348   0.049   6.333
10206SOL    HW231518   5.301   0.087   6.181
10207SOL     OW31519   2.374   1.250   0.165
10207SOL    HW131520   2.440   1.199   0.110
10207SOL    HW231521   2.389   1.231   0.262
10208SOL     OW31522   6.548   4.593   3.633
10208SOL    HW131523   6.531   4.503   3.675
10208SOL    HW231524   6.521   4.664   3.697
10209SOL     OW31525   0.532   0.561   5.788
10209SOL    HW131526   0.448   0.609   5.811
10209SOL    HW231527   0.512   0.490   5.720
10210SOL     OW31528   5.300   7.023   1.484
10210SOL    HW131529   5.368   7.009   1.412
10210SOL    HW231530   5.319   0.084   1.531
10211SOL     OW31531   3.899   6.536   5.203
10211SOL    HW131532   3.969   6.531   5.132
10211SOL    HW231533   3.831   6.464   5.188
10212SOL     OW31534   7.016   0.644   4.890
10212SOL    HW131535   6.965   0.729   4.901
10212SOL    HW231536   6.995   0.603   4.802
10213SOL     OW31537   5.154   2.682   2.619
10213SOL    HW131538   5.182   2.587   2.606
10213SOL    HW231539   5.062   2.685   2.657
10214SOL     OW31540   1.111   2.017   2.559
10214SOL    HW131541   1.171   2.057   2.490
10214SOL    HW231542   1.048   1.953   2.515
10215SOL     OW31543   3.686   2.923   3.842
10215SOL    HW131544   3.602   2.966   3.873
10215SOL    HW231545   3.740   2.894   3.921
10216SOL     OW31546   0.659   0.309   0.837
10216SOL    HW131547   0.637   0.244   0.765
10216SOL    HW231548   0.751   0.292   0.871
10217SOL     OW31549   2.403   1.737   3.360
10217SOL    HW131550   2.307   1.728   3.335
10217SOL    HW231551   2.414   1.716   3.458
10218SOL     OW31552   1.643   0.443   2.017
10218SOL    HW131553   1.730   0.426   1.970
10218SOL    HW231554   1.596   0.357   2.033
10219SOL     OW31555   0.178   3.391   2.007
10219SOL    HW131556   0.094   3.379   1.954
10219SOL    HW231557   0.256   3.364   1.951
10220SOL     OW31558   4.382   1.631   1.635
10220SOL    HW131559   4.382   1.618   1.535
10220SOL    HW231560   4.365   1.543   1.679
10221SOL     OW31561   1.814   2.855   4.453
10221SOL    HW131562   1.826   2.947   4.417
10221SOL    HW231563   1.804   2.791   4.377
10222SOL     OW31564   2.526   3.420   6.020
10222SOL    HW131565   2.584   3.404   6.100
10222SOL    HW231566   2.568   3.491   5.962
10223SOL     OW31567   1.489   5.831   6.550
10223SOL    HW131568   1.503   5.928   6.527
10223SOL    HW231569   1.573   5.794   6.589
10224SOL     OW31570   0.221   1.702   5.207
10224SOL    HW131571   0.164   1.739   5.281
10224SOL    HW231572   0.240   1.606   5.224
10225SOL     OW31573   1.863   6.163   6.605
10225SOL    HW131574   1.838   6.259   6.618
10225SOL    HW231575   1.945   6.158   6.548
10226SOL     OW31576   2.439   0.133   6.893
10226SOL    HW131577   2.420   0.217   6.944
10226SOL    HW231578   2.402   0.141   6.801
10227SOL     OW31579   5.061   4.920   0.893
10227SOL    HW131580   4.984   4.857   0.886
10227SOL    HW231581   5.107   4.907   0.981
10228SOL     OW31582   0.876   5.474   2.040
10228SOL    HW131583   0.909   5.511   2.127
10228SOL    HW231584   0.776   5.474   2.041
10229SOL     OW31585   1.353   1.709   4.163
10229SOL    HW131586   1.287   1.717   4.089
10229SOL    HW231587   1.401   1.795   4.175
10230SOL     OW31588   6.271   6.238   3.344
10230SOL    HW131589   6.270   6.293   3.261
10230SOL    HW231590   6.363   6.240   3.384
10231SOL     OW31591   6.280   5.782   5.372
10231SOL    HW131592   6.211   5.793   5.300
10231SOL    HW231593   6.364   5.746   5.331
10232SOL     OW31594   2.829   0.657   4.668
10232SOL    HW131595   2.846   0.655   4.569
10232SOL    HW231596   2.895   0.718   4.712
10233SOL     OW31597   4.640   3.768   5.375
10233SOL    HW131598   4.732   3.805   5.364
10233SOL    HW231599   4.627   3.693   5.310
10234SOL     OW31600   5.076   1.120   0.386
10234SOL    HW131601   5.062   1.182   0.308
10234SOL    HW231602   4.987   1.090   0.421
10235SOL     OW31603   4.583   3.073   0.060
10235SOL    HW131604   4.522   3.152   0.069
10235SOL    HW231605   4.640   3.065   0.142
10236SOL     OW31606   2.350   0.262   1.826
10236SOL    HW131607   2.304   0.232   1.743
10236SOL    HW231608   2.283   0.299   1.890
10237SOL     OW31609   6.488   4.310   0.910
10237SOL    HW131610   6.526   4.306   1.002
10237SOL    HW231611   6.479   4.405   0.881
10238SOL     OW31612   3.339   4.056   3.656
10238SOL    HW131613   3.433   4.054   3.622
10238SOL    HW231614   3.340   4.069   3.755
10239SOL     OW31615   1.542   3.899   5.367
10239SOL    HW131616   1.620   3.864   5.315
10239SOL    HW231617   1.575   3.949   5.447
10240SOL     OW31618   2.274   4.760   3.435
10240SOL    HW131619   2.360   4.761   3.486
10240SOL    HW231620   2.239   4.853   3.426
10241SOL     OW31621   6.536   0.272   2.293
10241SOL    HW131622   6.586   0.292   2.209
10241SOL    HW231623   6.571   0.330   2.367
10242SOL     OW31624   0.016   0.942   7.010
10242SOL    HW131625   6.987   0.911   6.933
10242SOL    HW231626   0.095   0.881   7.022
10243SOL     OW31627   1.129   4.857   1.495
10243SOL    HW131628   1.160   4.865   1.590
10243SOL    HW231629   1.035   4.890   1.488
10244SOL     OW31630   0.885   4.123   0.675
10244SOL    HW131631   0.918   4.129   0.769
10244SOL    HW231632   0.960   4.144   0.612
10245SOL     OW31633   2.720   4.590   6.692
10245SOL    HW131634   2.770   4.521   6.744
10245SOL    HW231635   2.708   4.560   6.597
10246SOL     OW31636   3.331   4.095   3.930
10246SOL    HW131637   3.422   4.131   3.950
10246SOL    HW231638   3.293   4.051   4.011
10247SOL     OW31639   0.240   5.288   5.732
10247SOL    HW131640   0.277   5.377   5.703
10247SOL    HW231641   0.159   5.303   5.788
10248SOL     OW31642   3.418   6.787   2.169
10248SOL    HW131643   3.319   6.785   2.155
10248SOL    HW231644   3.442   6.859   2.233
10249SOL     OW31645   3.303   1.100   6.092
10249SOL    HW131646   3.344   1.109   6.183
10249SOL    HW231647   3.209   1.068   6.101
10250SOL     OW31648   6.977   2.884   0.989
10250SOL    HW131649   6.886   2.879   1.029
10250SOL    HW231650   7.014   2.792   0.977
10251SOL     OW31651   2.307   2.205   5.419
10251SOL    HW131652   2.351   2.247   5.339
10251SOL    HW231653   2.283   2.276   5.485
10252SOL     OW31654   4.934   4.805   6.889
10252SOL    HW131655   5.031   4.798   6.910
10252SOL    HW231656   4.914   4.754   6.805
10253SOL     OW31657   3.963   5.712   0.424
10253SOL    HW131658   3.920   5.754   0.504
10253SOL    HW231659   3.926   5.753   0.341
10254SOL     OW31660   5.170   2.019   5.237
10254SOL    HW131661   5.255   2.071   5.244
10254SOL    HW231662   5.122   2.046   5.154
10255SOL     OW31663   1.714   6.580   1.421
10255SOL    HW131664   1.795   6.627   1.455
10255SOL    HW231665   1.641   6.647   1.407
10256SOL     OW31666   5.891   0.762   1.793
10256SOL    HW131667   5.967   0.701   1.768
10256SOL    HW231668   5.921   0.857   1.786
10257SOL     OW31669   2.108   5.608   4.221
10257SOL    HW131670   2.125   5.565   4.309
10257SOL    HW231671   2.176   5.679   4.205
10258SOL     OW31672   3.921   0.885   4.572
10258SOL    HW131673   3.895   0.909   4.479
10258SOL    HW231674   3.875   0.801   4.599
10259SOL     OW31675   0.548   4.347   3.307
10259SOL    HW131676   0.607   4.360   3.227
10259SOL    HW231677   0.483   4.422   3.313
10260SOL     OW31678   0.673   0.510   3.427
10260SOL    HW131679   0.701   0.555   3.512
10260SOL    HW231680   0.574   0.497   3.428
10261SOL     OW31681   6.916   5.497   2.892
10261SOL    HW131682   6.854   5.567   2.927
10261SOL    HW231683   6.887   5.407   2.926
10262SOL     OW31684   2.287   6.533   4.389
10262SOL    HW131685   2.221   6.484   4.446
10262SOL    HW231686   2.291   6.491   4.298
10263SOL     OW31687   5.120   0.930   6.445
10263SOL    HW131688   5.090   0.912   6.352
10263SOL    HW231689   5.142   0.844   6.490
10264SOL     OW31690   5.914   2.701   6.053
10264SOL    HW131691   5.892   2.754   5.971
10264SOL    HW231692   5.849   2.625   6.061
10265SOL     OW31693   3.121   2.165   2.889
10265SOL    HW131694   3.075   2.097   2.947
10265SOL    HW231695   3.058   2.198   2.819
10266SOL     OW31696   3.088   3.114   4.813
10266SOL    HW131697   3.045   3.023   4.812
10266SOL    HW231698   3.090   3.149   4.906
10267SOL     OW31699   6.341   1.530   0.111
10267SOL    HW131700   6.300   1.487   0.031
10267SOL    HW231701   6.285   1.510   0.192
10268SOL     OW31702   5.213   5.237   1.859
10268SOL    HW131703   5.228   5.160   1.798
10268SOL    HW231704   5.192   5.203   1.951
10269SOL     OW31705   0.605   2.769   5.109
10269SOL    HW131706   0.565   2.858   5.133
10269SOL    HW231707   0.704   2.779   5.097
10270SOL     OW31708   3.329   5.172   3.202
10270SOL    HW131709   3.409   5.205   3.153
10270SOL    HW231710   3.249   5.174   3.142
10271SOL     OW31711   3.654   2.643   0.187
10271SOL    HW131712   3.650   2.596   0.099
10271SOL    HW231713   3.651   2.742   0.172
10272SOL     OW31714   0.572   0.076   5.260
10272SOL    HW131715   0.506   0.014   5.302
10272SOL    HW231716   0.558   0.078   5.161
10273SOL     OW31717   3.994   5.353   3.093
10273SOL    HW131718   4.040   5.439   3.071
10273SOL    HW231719   3.953   5.314   3.011
10274SOL     OW31720   6.895   4.832   4.586
10274SOL    HW131721   6.905   4.919   4.539
10274SOL    HW231722   6.985   4.800   4.617
10275SOL     OW31723   0.702   6.714   1.807
10275SOL    HW131724   0.621   6.702   1.865
10275SOL    HW231725   0.767   6.640   1.827
10276SOL     OW31726   5.717   5.486   5.683
10276SOL    HW131727   5.619   5.502   5.695
10276SOL    HW231728   5.766   5.572   5.700
10277SOL     OW31729   2.402   5.317   4.078
10277SOL    HW131730   2.407   5.228   4.032
10277SOL    HW231731   2.321   5.366   4.047
10278SOL     OW31732   6.671   1.244   4.606
10278SOL    HW131733   6.732   1.305   4.555
10278SOL    HW231734   6.653   1.162   4.552
10279SOL     OW31735   2.241   5.961   4.862
10279SOL    HW131736   2.326   5.911   4.876
10279SOL    HW231737   2.258   6.039   4.802
10280SOL     OW31738   1.165   4.145   1.348
10280SOL    HW131739   1.233   4.204   1.392
10280SOL    HW231740   1.160   4.058   1.396
10281SOL     OW31741   6.108   1.056   2.945
10281SOL    HW131742   6.124   1.155   2.934
10281SOL    HW231743   6.162   1.006   2.878
10282SOL     OW31744   6.407   4.316   4.328
10282SOL    HW131745   6.429   4.231   4.280
10282SOL    HW231746   6.323   4.355   4.291
10283SOL     OW31747   0.568   3.707   1.096
10283SOL    HW131748   0.483   3.671   1.057
10283SOL    HW231749   0.642   3.641   1.080
10284SOL     OW31750   5.688   3.556   5.137
10284SOL    HW131751   5.605   3.500   5.141
10284SOL    HW231752   5.670   3.639   5.085
10285SOL     OW31753   4.847   0.910   1.007
10285SOL    HW131754   4.798   0.921   1.093
10285SOL    HW231755   4.785   0.931   0.931
10286SOL     OW31756   3.113   1.932   4.016
10286SOL    HW131757   3.046   1.963   4.083
10286SOL    HW231758   3.081   1.847   3.974
10287SOL     OW31759   2.560   5.964   0.576
10287SOL    HW131760   2.497   5.942   0.501
10287SOL    HW231761   2.558   5.890   0.643
10288SOL     OW31762   5.106   5.895   2.169
10288SOL    HW131763   5.156   5.810   2.185
10288SOL    HW231764   5.166   5.973   2.190
10289SOL     OW31765   3.402   0.970   2.134
10289SOL    HW131766   3.354   0.963   2.221
10289SOL    HW231767   3.347   1.024   2.070
10290SOL     OW31768   3.012   3.861   1.841
10290SOL    HW131769   3.065   3.863   1.756
10290SOL    HW231770   3.061   3.914   1.911
10291SOL     OW31771   3.597   0.883   3.617
10291SOL    HW131772   3.616   0.972   3.576
10291SOL    HW231773   3.546   0.896   3.702
10292SOL     OW31774   1.932   0.450   4.892
10292SOL    HW131775   1.870   0.505   4.948
10292SOL    HW231776   1.970   0.507   4.819
10293SOL     OW31777   1.882   5.408   3.367
10293SOL    HW131778   1.831   5.324   3.350
10293SOL    HW231779   1.825   5.472   3.419
10294SOL     OW31780   5.334   3.889   2.371
10294SOL    HW131781   5.388   3.806   2.383
10294SOL    HW231782   5.250   3.867   2.320
10295SOL     OW31783   5.606   5.465   6.100
10295SOL    HW131784   5.605   5.512   6.189
10295SOL    HW231785   5.699   5.440   6.076
10296SOL     OW31786   4.705   3.109   0.317
10296SOL    HW131787   4.721   3.024   0.366
10296SOL    HW231788   4.616   3.146   0.344
10297SOL     OW31789   1.938   6.599   6.506
10297SOL    HW131790   1.880   6.632   6.432
10297SOL    HW231791   2.034   6.608   6.479
10298SOL     OW31792   3.490   5.027   1.708
10298SOL    HW131793   3.400   4.985   1.695
10298SOL    HW231794   3.561   4.958   1.693
10299SOL     OW31795   4.798   5.128   2.516
10299SOL    HW131796   4.806   5.227   2.516
10299SOL    HW231797   4.703   5.102   2.530
10300SOL     OW31798   1.772   4.750   3.253
10300SOL    HW131799   1.762   4.835   3.305
10300SOL    HW231800   1.868   4.738   3.227
10301SOL     OW31801   5.848   2.039   3.887
10301SOL    HW131802   5.765   1.996   3.852
10301SOL    HW231803   5.892   2.090   3.813
10302SOL     OW31804   0.800   5.589   3.799
10302SOL    HW131805   0.751   5.606   3.884
10302SOL    HW231806   0.737   5.552   3.731
10303SOL     OW31807   1.968   5.947   2.429
10303SOL    HW131808   1.908   5.879   2.386
10303SOL    HW231809   1.949   5.951   2.527
10304SOL     OW31810   5.104   0.840   2.532
10304SOL    HW131811   5.150   0.767   2.583
10304SOL    HW231812   5.082   0.808   2.440
10305SOL     OW31813   7.006   4.723   6.845
10305SOL    HW131814   6.991   4.624   6.837
10305SOL    HW231815   0.047   4.752   6.776
10306SOL     OW31816   4.284   6.490   7.007
10306SOL    HW131817   4.278   6.429   6.927
10306SOL    HW231818   4.324   6.439   0.058
10307SOL     OW31819   2.162   2.353   4.775
10307SOL    HW131820   2.175   2.339   4.873
10307SOL    HW231821   2.222   2.290   4.724
10308SOL     OW31822   2.782   5.217   4.534
10308SOL    HW131823   2.754   5.241   4.627
10308SOL    HW231824   2.701   5.189   4.481
10309SOL     OW31825   5.847   0.932   4.139
10309SOL    HW131826   5.871   1.027   4.118
10309SOL    HW231827   5.750   0.918   4.123
10310SOL     OW31828   4.327   2.835   1.712
10310SOL    HW131829   4.347   2.760   1.649
10310SOL    HW231830   4.413   2.872   1.748
10311SOL     OW31831   0.675   6.165   1.162
10311SOL    HW131832   0.642   6.075   1.133
10311SOL    HW231833   0.758   6.154   1.216
10312SOL     OW31834   2.487   6.265   1.033
10312SOL    HW131835   2.508   6.237   0.940
10312SOL    HW231836   2.570   6.299   1.077
10313SOL     OW31837   4.234   0.130   1.180
10313SOL    HW131838   4.176   0.180   1.244
10313SOL    HW231839   4.312   0.188   1.153
10314SOL     OW31840   0.021   0.473   2.456
10314SOL    HW131841   0.057   0.555   2.500
10314SOL    HW231842   0.003   0.490   2.360
10315SOL     OW31843   6.268   5.344   4.001
10315SOL    HW131844   6.319   5.259   4.007
10315SOL    HW231845   6.227   5.352   3.909
10316SOL     OW31846   6.905   2.611   4.934
10316SOL    HW131847   6.816   2.564   4.932
10316SOL    HW231848   6.977   2.544   4.952
10317SOL     OW31849   3.462   5.807   5.492
10317SOL    HW131850   3.447   5.902   5.464
10317SOL    HW231851   3.549   5.800   5.541
10318SOL     OW31852   5.012   5.975   6.721
10318SOL    HW131853   4.914   5.964   6.740
10318SOL    HW231854   5.025   6.055   6.662
10319SOL     OW31855   2.036   2.583   5.679
10319SOL    HW131856   2.104   2.598   5.750
10319SOL    HW231857   2.022   2.667   5.627
10320SOL     OW31858   0.872   0.536   1.802
10320SOL    HW131859   0.925   0.572   1.878
10320SOL    HW231860   0.804   0.471   1.836
10321SOL     OW31861   4.382   0.546   3.312
10321SOL    HW131862   4.371   0.531   3.214
10321SOL    HW231863   4.305   0.599   3.347
10322SOL     OW31864   6.502   6.039   6.240
10322SOL    HW131865   6.541   6.121   6.282
10322SOL    HW231866   6.438   5.996   6.304
10323SOL     OW31867   6.495   3.709   5.589
10323SOL    HW131868   6.421   3.654   5.551
10323SOL    HW231869   6.461   3.762   5.666
10324SOL     OW31870   2.975   3.313   3.075
10324SOL    HW131871   2.957   3.221   3.041
10324SOL    HW231872   3.039   3.309   3.152
10325SOL     OW31873   6.288   3.880   3.030
10325SOL    HW131874   6.356   3.900   3.100
10325SOL    HW231875   6.296   3.945   2.955
10326SOL     OW31876   4.003   3.220   0.304
10326SOL    HW131877   3.942   3.215   0.225
10326SOL    HW231878   3.998   3.310   0.345
10327SOL     OW31879   2.632   1.872   1.679
10327SOL    HW131880   2.715   1.888   1.732
10327SOL    HW231881   2.565   1.821   1.734
10328SOL     OW31882   6.332   3.575   1.496
10328SOL    HW131883   6.237   3.545   1.492
10328SOL    HW231884   6.382   3.519   1.562
10329SOL     OW31885   3.483   0.021   4.666
10329SOL    HW131886   3.512   0.043   4.572
10329SOL    HW231887   3.506   0.097   4.727
10330SOL     OW31888   3.673   5.423   2.258
10330SOL    HW131889   3.615   5.467   2.190
10330SOL    HW231890   3.619   5.403   2.340
10331SOL     OW31891   6.517   0.589   4.121
10331SOL    HW131892   6.467   0.634   4.046
10331SOL    HW231893   6.496   0.636   4.207
10332SOL     OW31894   6.112   1.447   0.265
10332SOL    HW131895   6.122   1.528   0.323
10332SOL    HW231896   6.034   1.458   0.205
10333SOL     OW31897   6.657   4.298   4.354
10333SOL    HW131898   6.689   4.234   4.423
10333SOL    HW231899   6.564   4.329   4.377
10334SOL     OW31900   2.335   5.712   3.928
10334SOL    HW131901   2.324   5.618   3.959
10334SOL    HW231902   2.296   5.774   3.996
10335SOL     OW31903   2.667   4.641   7.006
10335SOL    HW131904   2.692   4.577   6.933
10335SOL    HW231905   2.568   4.652   7.009
10336SOL     OW31906   5.776   6.791   3.159
10336SOL    HW131907   5.730   6.802   3.247
10336SOL    HW231908   5.709   6.775   3.087
10337SOL     OW31909   6.580   6.775   6.082
10337SOL    HW131910   6.602   6.824   6.167
10337SOL    HW231911   6.662   6.727   6.050
10338SOL     OW31912   3.117   6.071   1.823
10338SOL    HW131913   3.066   6.045   1.905
10338SOL    HW231914   3.182   5.999   1.800
10339SOL     OW31915   3.276   5.608   0.585
10339SOL    HW131916   3.250   5.599   0.489
10339SOL    HW231917   3.348   5.678   0.593
10340SOL     OW31918   1.590   5.401   0.505
10340SOL    HW131919   1.556   5.496   0.507
10340SOL    HW231920   1.519   5.340   0.541
10341SOL     OW31921   2.118   3.396   1.751
10341SOL    HW131922   2.164   3.389   1.840
10341SOL    HW231923   2.185   3.384   1.678
10342SOL     OW31924   1.993   6.132   5.727
10342SOL    HW131925   2.065   6.074   5.764
10342SOL    HW231926   2.033   6.202   5.667
10343SOL     OW31927   1.832   4.050   0.372
10343SOL    HW131928   1.889   4.119   0.327
10343SOL    HW231929   1.742   4.090   0.391
10344SOL     OW31930   4.137   3.475   1.945
10344SOL    HW131931   4.124   3.456   2.042
10344SOL    HW231932   4.132   3.573   1.929
10345SOL     OW31933   1.858   0.645   6.058
10345SOL    HW131934   1.904   0.570   6.011
10345SOL    HW231935   1.796   0.691   5.994
10346SOL     OW31936   6.187   1.087   1.218
10346SOL    HW131937   6.093   1.085   1.186
10346SOL    HW231938   6.236   1.006   1.185
10347SOL     OW31939   5.324   2.464   2.553
10347SOL    HW131940   5.287   2.408   2.479
10347SOL    HW231941   5.397   2.522   2.517
10348SOL     OW31942   6.731   1.704   6.783
10348SOL    HW131943   6.665   1.629   6.782
10348SOL    HW231944   6.689   1.785   6.822
10349SOL     OW31945   6.969   1.797   0.250
10349SOL    HW131946   7.004   1.889   0.266
10349SOL    HW231947   7.016   1.732   0.310
10350SOL     OW31948   2.644   6.644   4.732
10350SOL    HW131949   2.694   6.669   4.649
10350SOL    HW231950   2.679   6.696   4.809
10351SOL     OW31951   5.750   5.365   6.352
10351SOL    HW131952   5.803   5.329   6.429
10351SOL    HW231953   5.724   5.459   6.370
10352SOL     OW31954   5.610   1.465   6.740
10352SOL    HW131955   5.708   1.446   6.747
10352SOL    HW231956   5.596   1.547   6.684
10353SOL     OW31957   6.752   2.930   4.557
10353SOL    HW131958   6.741   3.029   4.550
10353SOL    HW231959   6.838   2.902   4.514
10354SOL     OW31960   0.417   2.138   1.789
10354SOL    HW131961   0.344   2.097   1.844
10354SOL    HW231962   0.503   2.093   1.809
10355SOL     OW31963   1.348   0.552   0.926
10355SOL    HW131964   1.334   0.528   1.022
10355SOL    HW231965   1.415   0.490   0.886
10356SOL     OW31966   6.988   3.793   5.745
10356SOL    HW131967   6.983   3.759   5.839
10356SOL    HW231968   0.057   3.788   5.713
10357SOL     OW31969   4.058   2.785   6.565
10357SOL    HW131970   4.091   2.762   6.473
10357SOL    HW231971   3.976   2.842   6.558
10358SOL     OW31972   0.191   2.771   3.751
10358SOL    HW131973   0.187   2.672   3.746
10358SOL    HW231974   0.212   2.799   3.845
10359SOL     OW31975   5.107   1.920   1.623
10359SOL    HW131976   5.097   1.899   1.720
10359SOL    HW231977   5.145   2.012   1.613
10360SOL     OW31978   5.075   5.848   1.821
10360SOL    HW131979   5.146   5.806   1.878
10360SOL    HW231980   4.988   5.848   1.871
10361SOL     OW31981   2.442   0.999   2.931
10361SOL    HW131982   2.518   0.935   2.917
10361SOL    HW231983   2.363   0.950   2.966
10362SOL     OW31984   0.762   4.956   3.184
10362SOL    HW131985   0.783   4.875   3.239
10362SOL    HW231986   0.719   5.025   3.243
10363SOL     OW31987   5.102   2.687   1.543
10363SOL    HW131988   5.077   2.728   1.456
10363SOL    HW231989   5.090   2.588   1.539
10364SOL     OW31990   4.591   4.204   1.382
10364SOL    HW131991   4.643   4.140   1.325
10364SOL    HW231992   4.647   4.283   1.403
10365SOL     OW31993   5.808   4.058   6.812
10365SOL    HW131994   5.746   3.984   6.786
10365SOL    HW231995   5.857   4.090   6.731
10366SOL     OW31996   3.367   6.524   3.730
10366SOL    HW131997   3.303   6.576   3.787
10366SOL    HW231998   3.370   6.563   3.638
10367SOL     OW31999   6.971   1.605   1.913
10367SOL    HW132000   0.031   1.553   1.904
10367SOL    HW232001   6.962   1.638   2.006
10368SOL     OW32002   1.743   1.408   2.395
10368SOL    HW132003   1.772   1.330   2.450
10368SOL    HW232004   1.709   1.375   2.307
10369SOL     OW32005   3.208   6.942   6.143
10369SOL    HW132006   3.132   6.992   6.185
10369SOL    HW232007   3.178   6.851   6.117
10370SOL     OW32008   0.104   1.012   5.057
10370SOL    HW132009   0.111   1.106   5.089
10370SOL    HW232010   0.180   0.991   4.996
10371SOL     OW32011   2.225   6.413   4.828
10371SOL    HW132012   2.275   6.488   4.785
10371SOL    HW232013   2.127   6.429   4.819
10372SOL     OW32014   2.371   1.519   0.010
10372SOL    HW132015   2.422   1.595   0.049
10372SOL    HW232016   2.369   1.442   0.074
10373SOL     OW32017   1.420   6.505   5.145
10373SOL    HW132018   1.406   6.567   5.068
10373SOL    HW232019   1.344   6.441   5.151
10374SOL     OW32020   3.455   0.485   3.792
10374SOL    HW132021   3.433   0.404   3.737
10374SOL    HW232022   3.536   0.530   3.753
10375SOL     OW32023   2.330   2.514   6.329
10375SOL    HW132024   2.306   2.591   6.271
10375SOL    HW232025   2.249   2.459   6.348
10376SOL     OW32026   1.478   6.047   4.412
10376SOL    HW132027   1.570   6.082   4.426
10376SOL    HW232028   1.444   6.006   4.497
10377SOL     OW32029   0.370   0.842   2.084
10377SOL    HW132030   0.361   0.801   1.994
10377SOL    HW232031   0.424   0.926   2.078
10378SOL     OW32032   5.956   5.772   5.310
10378SOL    HW132033   5.934   5.868   5.331
10378SOL    HW232034   5.876   5.715   5.328
10379SOL     OW32035   3.474   5.766   4.365
10379SOL    HW132036   3.405   5.800   4.301
10379SOL    HW232037   3.461   5.810   4.454
10380SOL     OW32038   0.773   2.493   4.564
10380SOL    HW132039   0.731   2.574   4.604
10380SOL    HW232040   0.865   2.481   4.602
10381SOL     OW32041   4.574   3.783   1.152
10381SOL    HW132042   4.592   3.738   1.064
10381SOL    HW232043   4.476   3.777   1.173
10382SOL     OW32044   2.397   5.259   1.454
10382SOL    HW132045   2.307   5.296   1.430
10382SOL    HW232046   2.398   5.160   1.437
10383SOL     OW32047   1.307   4.097   0.647
10383SOL    HW132048   1.280   4.026   0.712
10383SOL    HW232049   1.361   4.167   0.694
10384SOL     OW32050   6.755   6.895   0.922
10384SOL    HW132051   6.712   6.898   0.832
10384SOL    HW232052   6.714   6.965   0.981
10385SOL     OW32053   3.946   6.122   6.563
10385SOL    HW132054   3.980   6.214   6.580
10385SOL    HW232055   3.959   6.099   6.466
10386SOL     OW32056   6.898   1.232   5.571
10386SOL    HW132057   6.932   1.167   5.502
10386SOL    HW232058   6.801   1.217   5.585
10387SOL     OW32059   4.618   2.132   3.406
10387SOL    HW132060   4.698   2.079   3.380
10387SOL    HW232061   4.614   2.216   3.351
10388SOL     OW32062   2.026   5.810   1.881
10388SOL    HW132063   2.096   5.811   1.809
10388SOL    HW232064   2.070   5.812   1.970
10389SOL     OW32065   6.628   5.024   0.694
10389SOL    HW132066   6.623   5.123   0.678
10389SOL    HW232067   6.639   4.977   0.607
10390SOL     OW32068   2.056   3.712   0.500
10390SOL    HW132069   2.052   3.748   0.406
10390SOL    HW232070   2.007   3.773   0.561
10391SOL     OW32071   0.295   6.086   3.508
10391SOL    HW132072   0.387   6.098   3.546
10391SOL    HW232073   0.227   6.091   3.581
10392SOL     OW32074   6.206   4.491   5.702
10392SOL    HW132075   6.168   4.568   5.651
10392SOL    HW232076   6.254   4.429   5.639
10393SOL     OW32077   2.392   2.535   3.297
10393SOL    HW132078   2.472   2.493   3.253
10393SOL    HW232079   2.386   2.502   3.392
10394SOL     OW32080   2.367   5.244   5.605
10394SOL    HW132081   2.293   5.250   5.538
10394SOL    HW232082   2.437   5.312   5.585
10395SOL     OW32083   1.027   0.949   1.674
10395SOL    HW132084   0.998   0.916   1.584
10395SOL    HW232085   1.122   0.979   1.669
10396SOL     OW32086   3.819   1.191   3.905
10396SOL    HW132087   3.851   1.167   3.813
10396SOL    HW232088   3.736   1.139   3.925
10397SOL     OW32089   3.567   1.137   4.843
10397SOL    HW132090   3.572   1.171   4.937
10397SOL    HW232091   3.659   1.137   4.803
10398SOL     OW32092   5.820   2.233   0.749
10398SOL    HW132093   5.831   2.310   0.812
10398SOL    HW232094   5.902   2.176   0.750
10399SOL     OW32095   5.103   1.715   3.538
10399SOL    HW132096   5.130   1.631   3.491
10399SOL    HW232097   5.016   1.700   3.586
10400SOL     OW32098   4.255   5.838   0.375
10400SOL    HW132099   4.242   5.923   0.426
10400SOL    HW232100   4.221   5.761   0.430
10401SOL     OW32101   0.129   6.613   2.081
10401SOL    HW132102   0.160   6.705   2.103
10401SOL    HW232103   0.042   6.595   2.127
10402SOL     OW32104   0.162   1.555   5.777
10402SOL    HW132105   0.202   1.561   5.686
10402SOL    HW232106   0.089   1.486   5.777
10403SOL     OW32107   4.174   2.254   3.032
10403SOL    HW132108   4.105   2.310   3.078
10403SOL    HW232109   4.228   2.205   3.101
10404SOL     OW32110   6.694   5.896   4.386
10404SOL    HW132111   6.654   5.980   4.349
10404SOL    HW232112   6.759   5.859   4.320
10405SOL     OW32113   1.214   6.054   5.003
10405SOL    HW132114   1.277   5.978   4.986
10405SOL    HW232115   1.217   6.117   4.925
10406SOL     OW32116   1.868   3.132   4.825
10406SOL    HW132117   1.958   3.123   4.868
10406SOL    HW232118   1.842   3.044   4.785
10407SOL     OW32119   3.022   0.080   6.259
10407SOL    HW132120   3.054   0.143   6.188
10407SOL    HW232121   2.997   0.132   6.341
10408SOL     OW32122   4.633   0.186   1.296
10408SOL    HW132123   4.538   0.202   1.268
10408SOL    HW232124   4.687   0.268   1.279
10409SOL     OW32125   6.664   4.479   1.178
10409SOL    HW132126   6.565   4.485   1.180
10409SOL    HW232127   6.692   4.390   1.142
10410SOL     OW32128   5.155   2.157   1.775
10410SOL    HW132129   5.122   2.083   1.832
10410SOL    HW232130   5.134   2.245   1.819
10411SOL     OW32131   3.290   6.108   3.422
10411SOL    HW132132   3.275   6.182   3.487
10411SOL    HW232133   3.372   6.128   3.368
10412SOL     OW32134   0.774   1.136   1.178
10412SOL    HW132135   0.726   1.125   1.265
10412SOL    HW232136   0.722   1.089   1.106
10413SOL     OW32137   6.240   2.931   1.588
10413SOL    HW132138   6.213   2.892   1.500
10413SOL    HW232139   6.160   2.971   1.633
10414SOL     OW32140   3.304   4.883   5.926
10414SOL    HW132141   3.254   4.868   5.840
10414SOL    HW232142   3.394   4.840   5.920
10415SOL     OW32143   1.715   4.392   3.865
10415SOL    HW132144   1.623   4.421   3.837
10415SOL    HW232145   1.725   4.402   3.963
10416SOL     OW32146   5.948   0.128   5.042
10416SOL    HW132147   5.925   0.101   5.135
10416SOL    HW232148   6.044   0.155   5.037
10417SOL     OW32149   3.993   5.177   3.626
10417SOL    HW132150   4.052   5.178   3.707
10417SOL    HW232151   3.978   5.082   3.597
10418SOL     OW32152   6.603   4.653   5.872
10418SOL    HW132153   6.649   4.683   5.788
10418SOL    HW232154   6.506   4.675   5.866
10419SOL     OW32155   3.337   6.771   6.361
10419SOL    HW132156   3.335   6.826   6.444
10419SOL    HW232157   3.384   6.822   6.289
10420SOL     OW32158   0.366   3.637   3.912
10420SOL    HW132159   0.449   3.693   3.906
10420SOL    HW232160   0.348   3.615   4.008
10421SOL     OW32161   1.007   3.367   3.920
10421SOL    HW132162   1.044   3.452   3.883
10421SOL    HW232163   1.081   3.300   3.932
10422SOL     OW32164   6.225   3.571   5.213
10422SOL    HW132165   6.129   3.579   5.186
10422SOL    HW232166   6.283   3.580   5.132
10423SOL     OW32167   5.946   5.151   5.952
10423SOL    HW132168   5.911   5.121   5.863
10423SOL    HW232169   6.023   5.212   5.939
10424SOL     OW32170   3.972   3.094   0.998
10424SOL    HW132171   3.930   3.008   1.028
10424SOL    HW232172   3.948   3.112   0.902
10425SOL     OW32173   1.017   6.443   2.448
10425SOL    HW132174   0.937   6.497   2.476
10425SOL    HW232175   1.007   6.416   2.353
10426SOL     OW32176   5.569   4.677   0.100
10426SOL    HW132177   5.544   4.599   0.042
10426SOL    HW232178   5.665   4.670   0.126
10427SOL     OW32179   3.859   1.388   0.437
10427SOL    HW132180   3.846   1.486   0.430
10427SOL    HW232181   3.817   1.343   0.359
10428SOL     OW32182   3.415   0.814   3.844
10428SOL    HW132183   3.398   0.738   3.907
10428SOL    HW232184   3.330   0.840   3.799
10429SOL     OW32185   6.735   4.188   2.296
10429SOL    HW132186   6.752   4.113   2.359
10429SOL    HW232187   6.801   4.261   2.313
10430SOL     OW32188   5.122   0.093   5.088
10430SOL    HW132189   5.128   0.180   5.040
10430SOL    HW232190   5.214   0.058   5.105
10431SOL     OW32191   2.561   5.704   4.217
10431SOL    HW132192   2.491   5.645   4.258
10431SOL    HW232193   2.538   5.720   4.121
10432SOL     OW32194   6.128   0.309   4.501
10432SOL    HW132195   6.070   0.231   4.480
10432SOL    HW232196   6.096   0.389   4.449
10433SOL     OW32197   0.975   6.015   2.430
10433SOL    HW132198   0.937   6.102   2.461
10433SOL    HW232199   0.926   5.985   2.348
10434SOL     OW32200   3.582   5.927   2.717
10434SOL    HW132201   3.542   5.866   2.649
10434SOL    HW232202   3.672   5.894   2.744
10435SOL     OW32203   0.668   1.483   5.482
10435SOL    HW132204   0.733   1.480   5.559
10435SOL    HW232205   0.718   1.492   5.396
10436SOL     OW32206   6.164   4.796   5.278
10436SOL    HW132207   6.258   4.761   5.273
10436SOL    HW232208   6.165   4.889   5.315
10437SOL     OW32209   4.621   4.174   6.056
10437SOL    HW132210   4.613   4.265   6.096
10437SOL    HW232211   4.534   4.148   6.015
10438SOL     OW32212   0.375   6.260   6.798
10438SOL    HW132213   0.399   6.343   6.849
10438SOL    HW232214   0.419   6.263   6.708
10439SOL     OW32215   4.268   1.465   4.513
10439SOL    HW132216   4.343   1.474   4.447
10439SOL    HW232217   4.305   1.476   4.606
10440SOL     OW32218   0.347   6.649   0.794
10440SOL    HW132219   0.367   6.552   0.776
10440SOL    HW232220   0.307   6.691   0.713
10441SOL     OW32221   4.245   1.267   1.363
10441SOL    HW132222   4.284   1.230   1.447
10441SOL    HW232223   4.148   1.245   1.358
10442SOL     OW32224   4.193   6.716   6.762
10442SOL    HW132225   4.217   6.652   6.689
10442SOL    HW232226   4.221   6.678   6.850
10443SOL     OW32227   4.952   3.384   3.950
10443SOL    HW132228   5.022   3.339   4.006
10443SOL    HW232229   4.932   3.474   3.988
10444SOL     OW32230   4.505   5.787   3.310
10444SOL    HW132231   4.541   5.741   3.392
10444SOL    HW232232   4.460   5.872   3.337
10445SOL     OW32233   0.395   4.280   4.334
10445SOL    HW132234   0.336   4.319   4.262
10445SOL    HW232235   0.460   4.217   4.293
10446SOL     OW32236   2.471   3.215   5.834
10446SOL    HW132237   2.397   3.265   5.789
10446SOL    HW232238   2.476   3.243   5.930
10447SOL     OW32239   0.340   0.944   2.787
10447SOL    HW132240   0.241   0.953   2.785
10447SOL    HW232241   0.381   1.035   2.787
10448SOL     OW32242   4.642   0.766   2.628
10448SOL    HW132243   4.660   0.840   2.563
10448SOL    HW232244   4.648   0.678   2.580
10449SOL     OW32245   1.836   5.076   5.214
10449SOL    HW132246   1.793   5.024   5.288
10449SOL    HW232247   1.782   5.157   5.194
10450SOL     OW32248   0.495   1.084   0.753
10450SOL    HW132249   0.480   1.071   0.851
10450SOL    HW232250   0.561   1.157   0.738
10451SOL     OW32251   2.271   5.533   2.628
10451SOL    HW132252   2.260   5.626   2.592
10451SOL    HW232253   2.357   5.527   2.677
10452SOL     OW32254   6.585   3.198   1.991
10452SOL    HW132255   6.579   3.109   1.947
10452SOL    HW232256   6.494   3.237   2.001
10453SOL     OW32257   4.804   7.015   1.230
10453SOL    HW132258   4.726   0.050   1.249
10453SOL    HW232259   4.770   6.926   1.199
10454SOL     OW32260   5.203   3.054   0.456
10454SOL    HW132261   5.149   3.134   0.428
10454SOL    HW232262   5.153   2.971   0.433
10455SOL     OW32263   6.086   6.727   3.851
10455SOL    HW132264   6.140   6.703   3.771
10455SOL    HW232265   6.116   6.674   3.930
10456SOL     OW32266   1.778   5.604   0.409
10456SOL    HW132267   1.735   5.687   0.446
10456SOL    HW232268   1.750   5.525   0.463
10457SOL     OW32269   3.365   2.889   1.534
10457SOL    HW132270   3.464   2.877   1.521
10457SOL    HW232271   3.326   2.804   1.566
10458SOL     OW32272   6.393   0.616   6.482
10458SOL    HW132273   6.320   0.553   6.458
10458SOL    HW232274   6.376   0.705   6.439
10459SOL     OW32275   4.438   6.196   1.644
10459SOL    HW132276   4.359   6.138   1.665
10459SOL    HW232277   4.514   6.139   1.615
10460SOL     OW32278   0.422   4.204   2.486
10460SOL    HW132279   0.494   4.148   2.445
10460SOL    HW232280   0.395   4.165   2.574
10461SOL     OW32281   6.610   5.050   5.773
10461SOL    HW132282   6.676   5.107   5.724
10461SOL    HW232283   6.633   4.954   5.759
10462SOL     OW32284   5.402   1.250   3.575
10462SOL    HW132285   5.304   1.235   3.567
10462SOL    HW232286   5.422   1.294   3.663
10463SOL     OW32287   4.740   3.341   5.933
10463SOL    HW132288   4.652   3.387   5.924
10463SOL    HW232289   4.774   3.317   5.841
10464SOL     OW32290   6.626   6.581   1.577
10464SOL    HW132291   6.584   6.644   1.643
10464SOL    HW232292   6.717   6.556   1.609
10465SOL     OW32293   6.107   6.183   0.686
10465SOL    HW132294   6.164   6.163   0.766
10465SOL    HW232295   6.148   6.140   0.605
10466SOL     OW32296   4.877   5.110   5.720
10466SOL    HW132297   4.892   5.198   5.674
10466SOL    HW232298   4.780   5.098   5.740
10467SOL     OW32299   2.811   1.242   6.993
10467SOL    HW132300   2.752   1.279   6.922
10467SOL    HW232301   2.892   1.299   7.003
10468SOL     OW32302   4.021   5.112   3.216
10468SOL    HW132303   4.011   5.104   3.315
10468SOL    HW232304   3.989   5.202   3.186
10469SOL     OW32305   3.827   4.611   5.586
10469SOL    HW132306   3.822   4.525   5.636
10469SOL    HW232307   3.860   4.683   5.646
10470SOL     OW32308   2.286   2.774   3.608
10470SOL    HW132309   2.227   2.823   3.671
10470SOL    HW232310   2.257   2.792   3.514
10471SOL     OW32311   3.342   1.462   0.867
10471SOL    HW132312   3.394   1.425   0.944
10471SOL    HW232313   3.395   1.448   0.783
10472SOL     OW32314   3.578   5.516   0.222
10472SOL    HW132315   3.640   5.571   0.166
10472SOL    HW232316   3.495   5.569   0.242
10473SOL     OW32317   6.850   0.075   0.029
10473SOL    HW132318   6.809   0.144   0.088
10473SOL    HW232319   6.810   7.011   0.048
10474SOL     OW32320   3.352   2.105   4.261
10474SOL    HW132321   3.392   2.193   4.288
10474SOL    HW232322   3.254   2.116   4.247
10475SOL     OW32323   4.891   6.364   0.875
10475SOL    HW132324   4.943   6.337   0.956
10475SOL    HW232325   4.799   6.325   0.879
10476SOL     OW32326   6.800   6.131   0.045
10476SOL    HW132327   6.848   6.165   0.126
10476SOL    HW232328   6.708   6.104   0.070
10477SOL     OW32329   0.458   1.435   4.979
10477SOL    HW132330   0.482   1.439   5.076
10477SOL    HW232331   0.362   1.411   4.970
10478SOL     OW32332   6.912   0.455   1.266
10478SOL    HW132333   6.988   0.439   1.203
10478SOL    HW232334   6.826   0.431   1.222
10479SOL     OW32335   0.082   2.213   2.647
10479SOL    HW132336   7.025   2.245   2.693
10479SOL    HW232337   0.073   2.229   2.549
10480SOL     OW32338   6.255   0.255   2.049
10480SOL    HW132339   6.311   0.338   2.056
10480SOL    HW232340   6.248   0.212   2.139
10481SOL     OW32341   2.905   0.011   4.393
10481SOL    HW132342   2.900   0.109   4.412
10481SOL    HW232343   2.856   7.017   4.308
10482SOL     OW32344   6.385   4.774   4.303
10482SOL    HW132345   6.288   4.756   4.319
10482SOL    HW232346   6.439   4.700   4.342
10483SOL     OW32347   6.623   4.767   0.098
10483SOL    HW132348   6.597   4.706   0.173
10483SOL    HW232349   6.544   4.781   0.038
10484SOL     OW32350   5.854   1.317   2.151
10484SOL    HW132351   5.779   1.335   2.088
10484SOL    HW232352   5.932   1.375   2.126
10485SOL     OW32353   3.076   3.765   0.862
10485SOL    HW132354   3.078   3.858   0.898
10485SOL    HW232355   3.167   3.739   0.832
10486SOL     OW32356   0.099   0.894   0.321
10486SOL    HW132357   0.031   0.968   0.318
10486SOL    HW232358   0.053   0.806   0.332
10487SOL     OW32359   4.757   1.881   1.970
10487SOL    HW132360   4.718   1.965   2.006
10487SOL    HW232361   4.684   1.823   1.933
10488SOL     OW32362   3.093   1.721   5.450
10488SOL    HW132363   3.005   1.711   5.496
10488SOL    HW232364   3.165   1.682   5.508
10489SOL     OW32365   0.006   0.239   4.599
10489SOL    HW132366   0.098   0.252   4.637
10489SOL    HW232367   0.003   0.274   4.505
10490SOL     OW32368   5.726   1.977   0.657
10490SOL    HW132369   5.780   2.051   0.698
10490SOL    HW232370   5.773   1.890   0.671
10491SOL     OW32371   2.474   1.984   5.819
10491SOL    HW132372   2.462   2.030   5.907
10491SOL    HW232373   2.570   1.992   5.790
10492SOL     OW32374   5.750   5.583   0.572
10492SOL    HW132375   5.691   5.508   0.604
10492SOL    HW232376   5.763   5.575   0.473
10493SOL     OW32377   3.338   0.035   1.940
10493SOL    HW132378   3.297   6.990   1.881
10493SOL    HW232379   3.427   0.061   1.904
10494SOL     OW32380   5.884   4.546   5.550
10494SOL    HW132381   5.882   4.498   5.637
10494SOL    HW232382   5.827   4.497   5.484
10495SOL     OW32383   1.078   6.402   1.381
10495SOL    HW132384   1.034   6.431   1.297
10495SOL    HW232385   1.176   6.421   1.376
10496SOL     OW32386   6.296   3.278   6.180
10496SOL    HW132387   6.276   3.309   6.273
10496SOL    HW232388   6.212   3.281   6.126
10497SOL     OW32389   2.052   0.095   1.991
10497SOL    HW132390   2.027   0.162   2.061
10497SOL    HW232391   1.985   0.096   1.917
10498SOL     OW32392   4.779   5.305   0.612
10498SOL    HW132393   4.774   5.314   0.512
10498SOL    HW232394   4.852   5.242   0.637
10499SOL     OW32395   4.399   0.083   2.085
10499SOL    HW132396   4.316   0.139   2.082
10499SOL    HW232397   4.431   0.065   1.992
10500SOL     OW32398   6.007   1.191   5.875
10500SOL    HW132399   5.975   1.210   5.968
10500SOL    HW232400   5.930   1.198   5.812
10501SOL     OW32401   2.156   5.870   2.229
10501SOL    HW132402   2.082   5.890   2.292
10501SOL    HW232403   2.211   5.795   2.264
10502SOL     OW32404   2.407   1.784   1.850
10502SOL    HW132405   2.432   1.862   1.908
10502SOL    HW232406   2.307   1.778   1.844
10503SOL     OW32407   4.801   2.768   1.408
10503SOL    HW132408   4.808   2.813   1.497
10503SOL    HW232409   4.711   2.785   1.369
10504SOL     OW32410   1.286   2.739   5.772
10504SOL    HW132411   1.308   2.721   5.676
10504SOL    HW232412   1.301   2.657   5.826
10505SOL     OW32413   5.429   5.162   0.624
10505SOL    HW132414   5.502   5.167   0.692
10505SOL    HW232415   5.372   5.243   0.630
10506SOL     OW32416   0.258   3.649   0.494
10506SOL    HW132417   0.350   3.628   0.460
10506SOL    HW232418   0.210   3.564   0.517
10507SOL     OW32419   1.656   6.550   0.947
10507SOL    HW132420   1.649   6.645   0.919
10507SOL    HW232421   1.747   6.532   0.983
10508SOL     OW32422   6.559   5.536   4.680
10508SOL    HW132423   6.567   5.439   4.702
10508SOL    HW232424   6.493   5.548   4.605
10509SOL     OW32425   0.026   5.892   5.447
10509SOL    HW132426   7.010   5.951   5.516
10509SOL    HW232427   6.979   5.848   5.393
10510SOL     OW32428   4.813   5.894   6.911
10510SOL    HW132429   4.748   5.843   6.855
10510SOL    HW232430   4.826   5.848   6.998
10511SOL     OW32431   2.829   1.340   1.822
10511SOL    HW132432   2.843   1.316   1.726
10511SOL    HW232433   2.787   1.431   1.827
10512SOL     OW32434   4.228   0.355   6.007
10512SOL    HW132435   4.276   0.391   5.927
10512SOL    HW232436   4.292   0.350   6.084
10513SOL     OW32437   6.500   2.536   3.969
10513SOL    HW132438   6.403   2.529   3.947
10513SOL    HW232439   6.523   2.467   4.038
10514SOL     OW32440   0.640   3.426   1.308
10514SOL    HW132441   0.605   3.345   1.356
10514SOL    HW232442   0.734   3.408   1.278
10515SOL     OW32443   0.752   3.288   3.963
10515SOL    HW132444   0.842   3.322   3.936
10515SOL    HW232445   0.738   3.197   3.924
10516SOL     OW32446   4.089   1.545   0.641
10516SOL    HW132447   4.022   1.506   0.703
10516SOL    HW232448   4.138   1.620   0.687
10517SOL     OW32449   0.388   3.432   1.148
10517SOL    HW132450   0.457   3.430   1.220
10517SOL    HW232451   0.382   3.524   1.109
10518SOL     OW32452   6.886   5.901   0.607
10518SOL    HW132453   6.883   5.899   0.706
10518SOL    HW232454   6.849   5.987   0.573
10519SOL     OW32455   3.164   3.246   0.742
10519SOL    HW132456   3.076   3.207   0.768
10519SOL    HW232457   3.210   3.282   0.824
10520SOL     OW32458   0.711   2.230   6.119
10520SOL    HW132459   0.762   2.251   6.035
10520SOL    HW232460   0.705   2.130   6.129
10521SOL     OW32461   6.477   5.732   1.583
10521SOL    HW132462   6.490   5.647   1.635
10521SOL    HW232463   6.532   5.805   1.624
10522SOL     OW32464   0.248   0.297   4.688
10522SOL    HW132465   0.284   0.273   4.778
10522SOL    HW232466   0.324   0.320   4.627
10523SOL     OW32467   0.754   4.662   2.781
10523SOL    HW132468   0.845   4.664   2.741
10523SOL    HW232469   0.733   4.752   2.820
10524SOL     OW32470   0.638   6.490   3.751
10524SOL    HW132471   0.601   6.579   3.777
10524SOL    HW232472   0.727   6.502   3.706
10525SOL     OW32473   4.389   0.493   5.823
10525SOL    HW132474   4.461   0.490   5.754
10525SOL    HW232475   4.340   0.580   5.816
10526SOL     OW32476   1.327   6.296   2.907
10526SOL    HW132477   1.376   6.370   2.953
10526SOL    HW232478   1.244   6.332   2.864
10527SOL     OW32479   0.919   0.835   5.565
10527SOL    HW132480   0.978   0.843   5.645
10527SOL    HW232481   0.834   0.788   5.590
10528SOL     OW32482   1.405   3.446   6.078
10528SOL    HW132483   1.474   3.517   6.064
10528SOL    HW232484   1.349   3.437   5.995
10529SOL     OW32485   3.083   6.495   4.085
10529SOL    HW132486   3.072   6.488   4.184
10529SOL    HW232487   3.174   6.531   4.064
10530SOL     OW32488   1.161   0.376   6.510
10530SOL    HW132489   1.163   0.447   6.439
10530SOL    HW232490   1.255   0.350   6.534
10531SOL     OW32491   1.810   2.653   4.271
10531SOL    HW132492   1.854   2.564   4.259
10531SOL    HW232493   1.791   2.693   4.181
10532SOL     OW32494   0.835   6.820   6.010
10532SOL    HW132495   0.823   6.916   6.034
10532SOL    HW232496   0.894   6.813   5.930
10533SOL     OW32497   3.066   6.483   3.357
10533SOL    HW132498   3.044   6.389   3.331
10533SOL    HW232499   3.135   6.520   3.294
10534SOL     OW32500   6.640   5.382   2.246
10534SOL    HW132501   6.664   5.286   2.256
10534SOL    HW232502   6.698   5.437   2.306
10535SOL     OW32503   1.438   2.092   2.131
10535SOL    HW132504   1.383   2.057   2.206
10535SOL    HW232505   1.489   2.017   2.088
10536SOL     OW32506   4.224   0.739   4.311
10536SOL    HW132507   4.221   0.658   4.370
10536SOL    HW232508   4.191   0.818   4.363
10537SOL     OW32509   4.326   6.359   4.454
10537SOL    HW132510   4.257   6.349   4.382
10537SOL    HW232511   4.288   6.326   4.541
10538SOL     OW32512   5.973   3.467   0.565
10538SOL    HW132513   5.896   3.527   0.543
10538SOL    HW232514   6.034   3.462   0.487
10539SOL     OW32515   0.501   4.798   0.050
10539SOL    HW132516   0.546   4.772   0.135
10539SOL    HW232517   0.442   4.877   0.067
10540SOL     OW32518   1.630   3.040   5.630
10540SOL    HW132519   1.729   3.055   5.629
10540SOL    HW232520   1.601   3.022   5.724
10541SOL     OW32521   3.444   3.674   1.775
10541SOL    HW132522   3.362   3.617   1.769
10541SOL    HW232523   3.499   3.662   1.692
10542SOL     OW32524   0.350   0.939   5.287
10542SOL    HW132525   0.370   0.899   5.377
10542SOL    HW232526   0.372   0.874   5.215
10543SOL     OW32527   0.457   1.509   4.718
10543SOL    HW132528   0.542   1.556   4.697
10543SOL    HW232529   0.449   1.498   4.817
10544SOL     OW32530   2.680   6.868   1.974
10544SOL    HW132531   2.600   6.917   1.939
10544SOL    HW232532   2.688   6.780   1.927
10545SOL     OW32533   0.410   1.916   1.185
10545SOL    HW132534   0.371   1.826   1.206
10545SOL    HW232535   0.339   1.986   1.196
10546SOL     OW32536   1.505   0.048   0.633
10546SOL    HW132537   1.442   0.059   0.710
10546SOL    HW232538   1.587   0.000   0.664
10547SOL     OW32539   5.098   3.172   3.166
10547SOL    HW132540   5.169   3.112   3.202
10547SOL    HW232541   5.023   3.179   3.232
10548SOL     OW32542   5.723   4.453   4.427
10548SOL    HW132543   5.758   4.530   4.481
10548SOL    HW232544   5.679   4.487   4.345
10549SOL     OW32545   0.757   0.355   1.995
10549SOL    HW132546   0.665   0.347   1.956
10549SOL    HW232547   0.814   0.282   1.958
10550SOL     OW32548   4.671   6.743   3.846
10550SOL    HW132549   4.573   6.724   3.851
10550SOL    HW232550   4.709   6.702   3.763
10551SOL     OW32551   1.446   2.703   0.157
10551SOL    HW132552   1.400   2.722   0.243
10551SOL    HW232553   1.518   2.770   0.141
10552SOL     OW32554   2.483   1.237   5.595
10552SOL    HW132555   2.399   1.277   5.557
10552SOL    HW232556   2.510   1.290   5.676
10553SOL     OW32557   0.580   4.638   1.355
10553SOL    HW132558   0.571   4.716   1.292
10553SOL    HW232559   0.627   4.563   1.308
10554SOL     OW32560   5.659   4.513   1.105
10554SOL    HW132561   5.647   4.441   1.036
10554SOL    HW232562   5.648   4.603   1.062
10555SOL     OW32563   2.013   2.366   0.395
10555SOL    HW132564   2.064   2.401   0.473
10555SOL    HW232565   2.046   2.275   0.371
10556SOL     OW32566   1.534   1.584   4.331
10556SOL    HW132567   1.503   1.627   4.416
10556SOL    HW232568   1.472   1.609   4.256
10557SOL     OW32569   1.697   3.016   3.056
10557SOL    HW132570   1.618   3.025   3.115
10557SOL    HW232571   1.750   3.100   3.058
10558SOL     OW32572   4.229   6.795   5.003
10558SOL    HW132573   4.179   6.874   4.966
10558SOL    HW232574   4.238   6.725   4.932
10559SOL     OW32575   4.943   0.760   1.639
10559SOL    HW132576   4.998   0.834   1.599
10559SOL    HW232577   5.001   0.680   1.655
10560SOL     OW32578   4.854   6.740   2.228
10560SOL    HW132579   4.848   6.785   2.317
10560SOL    HW232580   4.827   6.804   2.157
10561SOL     OW32581   3.656   4.370   1.726
10561SOL    HW132582   3.570   4.354   1.678
10561SOL    HW232583   3.656   4.461   1.767
10562SOL     OW32584   3.893   5.495   6.927
10562SOL    HW132585   3.795   5.508   6.908
10562SOL    HW232586   3.910   5.400   6.953
10563SOL     OW32587   0.667   0.820   3.261
10563SOL    HW132588   0.610   0.897   3.288
10563SOL    HW232589   0.715   0.784   3.341
10564SOL     OW32590   5.815   6.070   2.949
10564SOL    HW132591   5.728   6.056   2.902
10564SOL    HW232592   5.890   6.060   2.884
10565SOL     OW32593   0.658   6.616   5.770
10565SOL    HW132594   0.755   6.597   5.784
10565SOL    HW232595   0.614   6.634   5.858
10566SOL     OW32596   3.416   1.822   6.773
10566SOL    HW132597   3.511   1.816   6.803
10566SOL    HW232598   3.372   1.733   6.783
10567SOL     OW32599   2.215   2.010   5.046
10567SOL    HW132600   2.201   1.933   5.108
10567SOL    HW232601   2.139   2.016   4.982
10568SOL     OW32602   6.780   2.913   1.414
10568SOL    HW132603   6.753   2.820   1.390
10568SOL    HW232604   6.699   2.972   1.418
10569SOL     OW32605   5.510   1.249   2.234
10569SOL    HW132606   5.445   1.200   2.176
10569SOL    HW232607   5.580   1.291   2.176
10570SOL     OW32608   1.006   4.686   3.023
10570SOL    HW132609   0.991   4.780   3.055
10570SOL    HW232610   0.930   4.629   3.051
10571SOL     OW32611   6.961   4.406   4.908
10571SOL    HW132612   6.944   4.501   4.880
10571SOL    HW232613   6.909   4.344   4.848
10572SOL     OW32614   6.730   4.552   2.898
10572SOL    HW132615   6.633   4.573   2.909
10572SOL    HW232616   6.748   4.458   2.927
10573SOL     OW32617   5.654   0.418   5.123
10573SOL    HW132618   5.717   0.447   5.195
10573SOL    HW232619   5.570   0.472   5.129
10574SOL     OW32620   1.016   1.540   4.073
10574SOL    HW132621   0.982   1.633   4.072
10574SOL    HW232622   1.052   1.518   4.164
10575SOL     OW32623   0.135   0.866   3.946
10575SOL    HW132624   0.130   0.934   4.018
10575SOL    HW232625   0.230   0.842   3.928
10576SOL     OW32626   6.923   5.658   4.999
10576SOL    HW132627   6.893   5.580   4.944
10576SOL    HW232628   6.882   5.742   4.963
10577SOL     OW32629   1.903   4.477   0.143
10577SOL    HW132630   1.864   4.505   0.056
10577SOL    HW232631   1.905   4.554   0.206
10578SOL     OW32632   4.664   1.568   3.095
10578SOL    HW132633   4.578   1.619   3.091
10578SOL    HW232634   4.659   1.489   3.034
10579SOL     OW32635   4.555   3.086   1.609
10579SOL    HW132636   4.550   3.185   1.597
10579SOL    HW232637   4.558   3.064   1.706
10580SOL     OW32638   6.562   0.631   6.732
10580SOL    HW132639   6.517   0.559   6.783
10580SOL    HW232640   6.494   0.682   6.678
10581SOL     OW32641   5.459   7.024   3.004
10581SOL    HW132642   5.423   7.016   3.097
10581SOL    HW232643   5.524   6.950   2.987
10582SOL     OW32644   4.506   4.556   5.623
10582SOL    HW132645   4.573   4.481   5.624
10582SOL    HW232646   4.422   4.527   5.668
10583SOL     OW32647   3.351   1.198   3.901
10583SOL    HW132648   3.355   1.129   3.830
10583SOL    HW232649   3.402   1.279   3.871
10584SOL     OW32650   6.956   0.648   0.436
10584SOL    HW132651   6.906   0.562   0.443
10584SOL    HW232652   6.987   0.661   0.341
10585SOL     OW32653   2.633   2.000   5.280
10585SOL    HW132654   2.721   1.982   5.236
10585SOL    HW232655   2.595   2.086   5.244
10586SOL     OW32656   5.973   4.878   5.053
10586SOL    HW132657   5.884   4.909   5.085
10586SOL    HW232658   6.021   4.830   5.127
10587SOL     OW32659   6.403   4.847   6.969
10587SOL    HW132660   6.310   4.812   6.978
10587SOL    HW232661   6.402   4.934   6.920
10588SOL     OW32662   1.587   3.356   4.536
10588SOL    HW132663   1.545   3.330   4.623
10588SOL    HW232664   1.678   3.395   4.552
10589SOL     OW32665   6.265   1.219   4.705
10589SOL    HW132666   6.172   1.194   4.676
10589SOL    HW232667   6.294   1.301   4.655
10590SOL     OW32668   0.277   0.595   1.057
10590SOL    HW132669   0.361   0.567   1.104
10590SOL    HW232670   0.221   0.514   1.039
10591SOL     OW32671   1.451   2.123   0.127
10591SOL    HW132672   1.538   2.138   0.081
10591SOL    HW232673   1.401   2.050   0.080
10592SOL     OW32674   5.920   3.697   2.903
10592SOL    HW132675   5.975   3.761   2.957
10592SOL    HW232676   5.882   3.745   2.824
10593SOL     OW32677   2.100   5.818   0.271
10593SOL    HW132678   2.023   5.880   0.255
10593SOL    HW232679   2.112   5.759   0.191
10594SOL     OW32680   5.228   1.104   3.207
10594SOL    HW132681   5.203   1.035   3.140
10594SOL    HW232682   5.233   1.194   3.164
10595SOL     OW32683   5.400   6.623   6.996
10595SOL    HW132684   5.372   6.710   6.956
10595SOL    HW232685   5.324   6.584   0.023
10596SOL     OW32686   4.514   1.220   0.278
10596SOL    HW132687   4.572   1.139   0.277
10596SOL    HW232688   4.510   1.258   0.370
10597SOL     OW32689   2.921   1.318   5.766
10597SOL    HW132690   2.840   1.337   5.821
10597SOL    HW232691   2.940   1.220   5.768
10598SOL     OW32692   3.245   2.657   0.064
10598SOL    HW132693   3.315   2.714   0.021
10598SOL    HW232694   3.196   2.710   0.133
10599SOL     OW32695   5.387   3.454   6.410
10599SOL    HW132696   5.307   3.482   6.357
10599SOL    HW232697   5.429   3.535   6.451
10600SOL     OW32698   3.282   2.598   0.687
10600SOL    HW132699   3.188   2.569   0.707
10600SOL    HW232700   3.322   2.639   0.769
10601SOL     OW32701   1.494   4.600   5.235
10601SOL    HW132702   1.467   4.585   5.140
10601SOL    HW232703   1.567   4.668   5.239
10602SOL     OW32704   2.333   0.644   2.148
10602SOL    HW132705   2.282   0.730   2.143
10602SOL    HW232706   2.427   0.663   2.176
10603SOL     OW32707   3.849   0.387   3.196
10603SOL    HW132708   3.810   0.452   3.261
10603SOL    HW232709   3.829   0.418   3.103
10604SOL     OW32710   6.363   5.856   5.695
10604SOL    HW132711   6.359   5.799   5.613
10604SOL    HW232712   6.323   5.946   5.675
10605SOL     OW32713   2.068   6.753   6.785
10605SOL    HW132714   2.116   6.728   6.701
10605SOL    HW232715   1.969   6.751   6.768
10606SOL     OW32716   0.331   0.153   1.674
10606SOL    HW132717   0.270   0.147   1.753
10606SOL    HW232718   0.303   0.230   1.616
10607SOL     OW32719   4.216   5.291   5.840
10607SOL    HW132720   4.243   5.342   5.922
10607SOL    HW232721   4.129   5.328   5.805
10608SOL     OW32722   6.246   3.279   5.235
10608SOL    HW132723   6.158   3.241   5.207
10608SOL    HW232724   6.257   3.371   5.197
10609SOL     OW32725   2.584   6.232   6.914
10609SOL    HW132726   2.670   6.205   6.871
10609SOL    HW232727   2.509   6.217   6.850
10610SOL     OW32728   1.072   2.141   4.230
10610SOL    HW132729   1.153   2.179   4.187
10610SOL    HW232730   1.015   2.214   4.267
10611SOL     OW32731   2.141   3.864   6.719
10611SOL    HW132732   2.047   3.892   6.740
10611SOL    HW232733   2.143   3.820   6.629
10612SOL     OW32734   3.425   1.936   4.590
10612SOL    HW132735   3.369   1.866   4.636
10612SOL    HW232736   3.383   2.025   4.603
10613SOL     OW32737   5.433   6.215   5.503
10613SOL    HW132738   5.365   6.189   5.434
10613SOL    HW232739   5.520   6.235   5.458
10614SOL     OW32740   5.076   2.115   5.008
10614SOL    HW132741   4.996   2.079   4.960
10614SOL    HW232742   5.107   2.199   4.963
10615SOL     OW32743   4.525   0.532   5.575
10615SOL    HW132744   4.622   0.508   5.562
10615SOL    HW232745   4.475   0.512   5.491
10616SOL     OW32746   1.961   0.020   0.411
10616SOL    HW132747   1.887   0.080   0.381
10616SOL    HW232748   1.943   6.952   0.381
10617SOL     OW32749   3.024   4.076   1.205
10617SOL    HW132750   2.992   3.981   1.208
10617SOL    HW232751   2.945   4.137   1.203
10618SOL     OW32752   0.967   3.713   5.955
10618SOL    HW132753   1.009   3.782   5.897
10618SOL    HW232754   0.972   3.742   6.051
10619SOL     OW32755   0.274   2.914   2.554
10619SOL    HW132756   0.321   2.835   2.515
10619SOL    HW232757   0.206   2.884   2.621
10620SOL     OW32758   1.103   6.378   5.455
10620SOL    HW132759   1.142   6.376   5.363
10620SOL    HW232760   1.023   6.319   5.458
10621SOL     OW32761   0.555   5.177   1.595
10621SOL    HW132762   0.642   5.127   1.593
10621SOL    HW232763   0.532   5.200   1.689
10622SOL     OW32764   5.121   1.911   1.900
10622SOL    HW132765   5.193   1.941   1.963
10622SOL    HW232766   5.056   1.853   1.949
10623SOL     OW32767   0.481   4.979   5.630
10623SOL    HW132768   0.389   5.007   5.601
10623SOL    HW232769   0.544   5.055   5.619
10624SOL     OW32770   1.052   2.456   4.648
10624SOL    HW132771   1.011   2.406   4.725
10624SOL    HW232772   1.112   2.528   4.684
10625SOL     OW32773   0.194   4.770   0.886
10625SOL    HW132774   0.276   4.819   0.915
10625SOL    HW232775   0.126   4.835   0.854
10626SOL     OW32776   2.435   2.896   0.331
10626SOL    HW132777   2.434   2.885   0.232
10626SOL    HW232778   2.385   2.821   0.373
10627SOL     OW32779   5.022   0.322   0.601
10627SOL    HW132780   5.117   0.348   0.616
10627SOL    HW232781   5.017   0.224   0.581
10628SOL     OW32782   5.049   6.409   0.156
10628SOL    HW132783   5.005   6.329   0.115
10628SOL    HW232784   5.008   6.429   0.245
10629SOL     OW32785   2.468   4.874   4.869
10629SOL    HW132786   2.430   4.965   4.852
10629SOL    HW232787   2.543   4.881   4.936
10630SOL     OW32788   6.202   1.045   3.909
10630SOL    HW132789   6.206   1.055   3.810
10630SOL    HW232790   6.132   1.106   3.946
10631SOL     OW32791   3.308   5.181   5.324
10631SOL    HW132792   3.374   5.119   5.281
10631SOL    HW232793   3.226   5.130   5.349
10632SOL     OW32794   5.233   0.255   3.615
10632SOL    HW132795   5.320   0.295   3.585
10632SOL    HW232796   5.212   0.285   3.707
10633SOL     OW32797   2.048   2.771   0.518
10633SOL    HW132798   2.009   2.843   0.461
10633SOL    HW232799   2.120   2.723   0.467
10634SOL     OW32800   2.964   4.098   0.420
10634SOL    HW132801   2.971   4.132   0.514
10634SOL    HW232802   2.977   3.998   0.420
10635SOL     OW32803   1.943   3.378   0.123
10635SOL    HW132804   1.936   3.428   0.209
10635SOL    HW232805   2.039   3.369   0.097
10636SOL     OW32806   0.740   2.199   1.170
10636SOL    HW132807   0.690   2.120   1.205
10636SOL    HW232808   0.757   2.264   1.245
10637SOL     OW32809   2.020   4.556   5.580
10637SOL    HW132810   2.081   4.525   5.652
10637SOL    HW232811   2.073   4.584   5.500
10638SOL     OW32812   5.862   5.640   2.676
10638SOL    HW132813   5.856   5.704   2.753
10638SOL    HW232814   5.948   5.590   2.682
10639SOL     OW32815   1.001   3.503   3.224
10639SOL    HW132816   0.911   3.477   3.257
10639SOL    HW232817   0.993   3.573   3.154
10640SOL     OW32818   4.401   0.026   4.898
10640SOL    HW132819   4.431   0.117   4.927
10640SOL    HW232820   4.302   0.022   4.900
10641SOL     OW32821   2.512   2.003   1.990
10641SOL    HW132822   2.608   2.010   2.016
10641SOL    HW232823   2.474   2.094   1.975
10642SOL     OW32824   6.561   2.523   1.675
10642SOL    HW132825   6.656   2.542   1.700
10642SOL    HW232826   6.527   2.597   1.617
10643SOL     OW32827   1.600   5.393   4.544
10643SOL    HW132828   1.622   5.307   4.497
10643SOL    HW232829   1.515   5.430   4.507
10644SOL     OW32830   5.346   2.850   2.748
10644SOL    HW132831   5.324   2.838   2.845
10644SOL    HW232832   5.289   2.790   2.693
10645SOL     OW32833   1.959   2.646   4.541
10645SOL    HW132834   1.914   2.731   4.514
10645SOL    HW232835   2.006   2.660   4.629
10646SOL     OW32836   1.134   0.229   6.913
10646SOL    HW132837   1.219   0.178   6.920
10646SOL    HW232838   1.143   0.300   6.842
10647SOL     OW32839   2.940   5.417   4.953
10647SOL    HW132840   2.870   5.348   4.970
10647SOL    HW232841   2.903   5.488   4.893
10648SOL     OW32842   6.032   4.017   6.043
10648SOL    HW132843   5.936   3.993   6.061
10648SOL    HW232844   6.068   4.070   6.120
10649SOL     OW32845   0.118   4.512   2.732
10649SOL    HW132846   0.123   4.518   2.633
10649SOL    HW232847   0.067   4.590   2.768
10650SOL     OW32848   1.099   0.282   4.037
10650SOL    HW132849   1.055   0.201   3.999
10650SOL    HW232850   1.088   0.282   4.137
10651SOL     OW32851   5.557   6.758   0.233
10651SOL    HW132852   5.479   6.700   0.208
10651SOL    HW232853   5.568   6.757   0.332
10652SOL     OW32854   3.497   0.043   5.357
10652SOL    HW132855   3.595   0.049   5.341
10652SOL    HW232856   3.474   6.977   5.389
10653SOL     OW32857   4.034   5.356   3.410
10653SOL    HW132858   4.009   5.300   3.490
10653SOL    HW232859   3.953   5.371   3.354
10654SOL     OW32860   5.096   0.941   1.188
10654SOL    HW132861   5.172   1.002   1.168
10654SOL    HW232862   5.101   0.860   1.129
10655SOL     OW32863   2.328   5.550   0.658
10655SOL    HW132864   2.272   5.471   0.632
10655SOL    HW232865   2.409   5.554   0.600
10656SOL     OW32866   6.768   1.808   2.876
10656SOL    HW132867   6.678   1.847   2.897
10656SOL    HW232868   6.767   1.773   2.782
10657SOL     OW32869   6.314   0.724   5.500
10657SOL    HW132870   6.335   0.764   5.588
10657SOL    HW232871   6.232   0.667   5.507
10658SOL     OW32872   6.506   4.975   5.076
10658SOL    HW132873   6.419   5.012   5.110
10658SOL    HW232874   6.495   4.947   4.981
10659SOL     OW32875   0.443   5.427   1.468
10659SOL    HW132876   0.479   5.520   1.459
10659SOL    HW232877   0.509   5.362   1.430
10660SOL     OW32878   5.199   4.105   6.384
10660SOL    HW132879   5.169   4.177   6.446
10660SOL    HW232880   5.144   4.109   6.300
10661SOL     OW32881   1.080   6.678   1.542
10661SOL    HW132882   1.097   6.639   1.632
10661SOL    HW232883   1.082   6.604   1.474
10662SOL     OW32884   5.373   6.566   3.171
10662SOL    HW132885   5.352   6.468   3.178
10662SOL    HW232886   5.405   6.586   3.078
10663SOL     OW32887   0.360   2.014   2.250
10663SOL    HW132888   0.311   2.087   2.297
10663SOL    HW232889   0.437   1.983   2.306
10664SOL     OW32890   6.641   4.207   5.040
10664SOL    HW132891   6.592   4.217   4.954
10664SOL    HW232892   6.723   4.151   5.026
10665SOL     OW32893   1.135   1.741   0.803
10665SOL    HW132894   1.113   1.656   0.755
10665SOL    HW232895   1.165   1.721   0.896
10666SOL     OW32896   3.477   4.082   1.622
10666SOL    HW132897   3.574   4.060   1.614
10666SOL    HW232898   3.438   4.035   1.701
10667SOL     OW32899   4.538   3.359   5.676
10667SOL    HW132900   4.497   3.448   5.655
10667SOL    HW232901   4.534   3.343   5.774
10668SOL     OW32902   2.738   0.312   5.057
10668SOL    HW132903   2.756   0.215   5.040
10668SOL    HW232904   2.663   0.343   4.999
10669SOL     OW32905   5.267   6.919   1.144
10669SOL    HW132906   5.235   6.833   1.183
10669SOL    HW232907   5.213   6.940   1.062
10670SOL     OW32908   5.470   4.208   5.114
10670SOL    HW132909   5.463   4.281   5.182
10670SOL    HW232910   5.383   4.158   5.110
10671SOL     OW32911   2.611   2.431   3.184
10671SOL    HW132912   2.609   2.332   3.193
10671SOL    HW232913   2.639   2.455   3.091
10672SOL     OW32914   6.698   3.068   0.853
10672SOL    HW132915   6.749   3.024   0.927
10672SOL    HW232916   6.710   3.016   0.769
10673SOL     OW32917   1.209   1.254   6.305
10673SOL    HW132918   1.233   1.342   6.265
10673SOL    HW232919   1.248   1.247   6.397
10674SOL     OW32920   3.881   4.037   2.240
10674SOL    HW132921   3.809   3.967   2.235
10674SOL    HW232922   3.897   4.074   2.148
10675SOL     OW32923   1.725   0.321   6.483
10675SOL    HW132924   1.813   0.277   6.502
10675SOL    HW232925   1.726   0.359   6.390
10676SOL     OW32926   6.568   6.419   6.161
10676SOL    HW132927   6.585   6.330   6.119
10676SOL    HW232928   6.636   6.485   6.130
10677SOL     OW32929   1.267   0.562   2.503
10677SOL    HW132930   1.340   0.498   2.524
10677SOL    HW232931   1.212   0.580   2.585
10678SOL     OW32932   3.720   5.791   4.202
10678SOL    HW132933   3.624   5.817   4.202
10678SOL    HW232934   3.753   5.783   4.296
10679SOL     OW32935   4.595   5.822   6.025
10679SOL    HW132936   4.681   5.785   5.988
10679SOL    HW232937   4.616   5.888   6.097
10680SOL     OW32938   3.149   1.759   2.912
10680SOL    HW132939   3.247   1.762   2.896
10680SOL    HW232940   3.104   1.827   2.854
10681SOL     OW32941   0.575   3.300   0.410
10681SOL    HW132942   0.591   3.375   0.475
10681SOL    HW232943   0.627   3.220   0.439
10682SOL     OW32944   1.339   1.052   4.753
10682SOL    HW132945   1.259   1.005   4.790
10682SOL    HW232946   1.333   1.055   4.653
10683SOL     OW32947   3.483   1.847   3.648
10683SOL    HW132948   3.397   1.797   3.649
10683SOL    HW232949   3.469   1.937   3.690
10684SOL     OW32950   5.605   4.144   1.194
10684SOL    HW132951   5.565   4.137   1.285
10684SOL    HW232952   5.704   4.156   1.202
10685SOL     OW32953   0.728   5.491   2.477
10685SOL    HW132954   0.744   5.413   2.417
10685SOL    HW232955   0.702   5.458   2.568
10686SOL     OW32956   0.883   4.856   5.984
10686SOL    HW132957   0.905   4.790   6.056
10686SOL    HW232958   0.910   4.947   6.013
10687SOL     OW32959   6.709   5.237   1.591
10687SOL    HW132960   6.666   5.292   1.519
10687SOL    HW232961   6.684   5.141   1.579
10688SOL     OW32962   6.518   4.287   3.009
10688SOL    HW132963   6.454   4.277   3.086
10688SOL    HW232964   6.471   4.266   2.924
10689SOL     OW32965   0.539   5.833   3.451
10689SOL    HW132966   0.556   5.875   3.362
10689SOL    HW232967   0.525   5.904   3.519
10690SOL     OW32968   0.336   6.333   3.173
10690SOL    HW132969   0.336   6.362   3.269
10690SOL    HW232970   0.264   6.266   3.158
10691SOL     OW32971   0.530   2.202   2.452
10691SOL    HW132972   0.536   2.169   2.547
10691SOL    HW232973   0.616   2.181   2.404
10692SOL     OW32974   2.709   5.845   2.935
10692SOL    HW132975   2.806   5.865   2.945
10692SOL    HW232976   2.660   5.928   2.907
10693SOL     OW32977   2.516   6.990   0.060
10693SOL    HW132978   2.492   0.012   7.000
10693SOL    HW232979   2.438   6.936   0.091
10694SOL     OW32980   5.204   6.412   1.608
10694SOL    HW132981   5.152   6.373   1.685
10694SOL    HW232982   5.189   6.511   1.605
10695SOL     OW32983   5.227   1.846   3.128
10695SOL    HW132984   5.288   1.895   3.191
10695SOL    HW232985   5.223   1.894   3.041
10696SOL     OW32986   6.862   3.788   3.818
10696SOL    HW132987   6.765   3.793   3.795
10696SOL    HW232988   6.882   3.697   3.857
10697SOL     OW32989   0.188   6.201   4.386
10697SOL    HW132990   0.200   6.294   4.422
10697SOL    HW232991   0.151   6.143   4.458
10698SOL     OW32992   4.443   5.787   5.200
10698SOL    HW132993   4.465   5.739   5.115
10698SOL    HW232994   4.454   5.885   5.186
10699SOL     OW32995   4.105   3.132   1.916
10699SOL    HW132996   4.115   3.065   1.843
10699SOL    HW232997   4.148   3.218   1.889
10700SOL     OW32998   6.833   6.828   1.583
10700SOL    HW132999   6.846   6.819   1.484
10700SOL    HW233000   6.735   6.833   1.604
10701SOL     OW33001   3.188   6.127   6.939
10701SOL    HW133002   3.116   6.195   6.923
10701SOL    HW233003   3.264   6.170   6.988
10702SOL     OW33004   5.532   3.209   2.249
10702SOL    HW133005   5.555   3.144   2.321
10702SOL    HW233006   5.614   3.261   2.223
10703SOL     OW33007   3.395   4.143   4.989
10703SOL    HW133008   3.323   4.183   5.046
10703SOL    HW233009   3.484   4.177   5.018
10704SOL     OW33010   6.512   5.515   1.744
10704SOL    HW133011   6.556   5.425   1.736
10704SOL    HW233012   6.414   5.503   1.756
10705SOL     OW33013   6.213   4.703   1.761
10705SOL    HW133014   6.130   4.703   1.704
10705SOL    HW233015   6.187   4.684   1.855
10706SOL     OW33016   4.885   6.821   2.482
10706SOL    HW133017   4.927   6.738   2.517
10706SOL    HW233018   4.956   6.884   2.449
10707SOL     OW33019   0.424   6.287   3.717
10707SOL    HW133020   0.495   6.351   3.686
10707SOL    HW233021   0.415   6.292   3.816
10708SOL     OW33022   4.203   0.883   2.513
10708SOL    HW133023   4.149   0.940   2.574
10708SOL    HW233024   4.182   0.787   2.529
10709SOL     OW33025   6.248   6.603   5.051
10709SOL    HW133026   6.158   6.574   5.082
10709SOL    HW233027   6.266   6.696   5.084
10710SOL     OW33028   0.302   6.778   5.249
10710SOL    HW133029   0.364   6.736   5.182
10710SOL    HW233030   0.349   6.785   5.337
10711SOL     OW33031   1.703   6.082   3.929
10711SOL    HW133032   1.626   6.125   3.976
10711SOL    HW233033   1.669   6.018   3.860
10712SOL     OW33034   2.639   1.095   1.418
10712SOL    HW133035   2.582   1.056   1.490
10712SOL    HW233036   2.594   1.176   1.380
10713SOL     OW33037   1.209   4.076   2.070
10713SOL    HW133038   1.157   4.095   1.987
10713SOL    HW233039   1.152   4.093   2.151
10714SOL     OW33040   6.130   3.841   4.771
10714SOL    HW133041   6.103   3.868   4.863
10714SOL    HW233042   6.144   3.742   4.768
10715SOL     OW33043   4.577   6.961   3.065
10715SOL    HW133044   4.671   6.932   3.044
10715SOL    HW233045   4.578   7.021   3.145
10716SOL     OW33046   5.773   2.642   4.843
10716SOL    HW133047   5.739   2.606   4.756
10716SOL    HW233048   5.830   2.574   4.888
10717SOL     OW33049   1.002   2.730   1.104
10717SOL    HW133050   1.020   2.653   1.042
10717SOL    HW233051   1.069   2.729   1.178
10718SOL     OW33052   1.379   2.908   6.355
10718SOL    HW133053   1.286   2.877   6.339
10718SOL    HW233054   1.393   2.997   6.311
10719SOL     OW33055   4.978   5.553   0.257
10719SOL    HW133056   4.951   5.581   0.349
10719SOL    HW233057   5.056   5.608   0.226
10720SOL     OW33058   6.533   3.408   5.247
10720SOL    HW133059   6.472   3.437   5.321
10720SOL    HW233060   6.617   3.462   5.251
10721SOL     OW33061   6.097   4.431   5.380
10721SOL    HW133062   6.057   4.341   5.392
10721SOL    HW233063   6.050   4.497   5.439
10722SOL     OW33064   0.217   3.405   0.638
10722SOL    HW133065   0.165   3.323   0.614
10722SOL    HW233066   0.294   3.380   0.696
10723SOL     OW33067   0.399   3.931   5.933
10723SOL    HW133068   0.416   4.005   5.868
10723SOL    HW233069   0.480   3.874   5.941
10724SOL     OW33070   4.264   1.081   6.999
10724SOL    HW133071   4.236   0.997   0.021
10724SOL    HW233072   4.321   1.058   6.921
10725SOL     OW33073   6.925   4.926   4.215
10725SOL    HW133074   6.924   4.826   4.203
10725SOL    HW233075   7.019   4.958   4.219
10726SOL     OW33076   5.496   6.898   6.086
10726SOL    HW133077   5.459   6.939   6.169
10726SOL    HW233078   5.457   6.807   6.073
10727SOL     OW33079   0.500   5.209   4.280
10727SOL    HW133080   0.542   5.157   4.355
10727SOL    HW233081   0.523   5.306   4.290
10728SOL     OW33082   6.182   6.116   1.255
10728SOL    HW133083   6.206   6.167   1.172
10728SOL    HW233084   6.115   6.169   1.309
10729SOL     OW33085   5.865   1.035   2.435
10729SOL    HW133086   5.816   0.951   2.411
10729SOL    HW233087   5.816   1.114   2.396
10730SOL     OW33088   2.302   0.428   1.569
10730SOL    HW133089   2.232   0.358   1.554
10730SOL    HW233090   2.258   0.514   1.594
10731SOL     OW33091   2.822   5.509   0.443
10731SOL    HW133092   2.865   5.595   0.414
10731SOL    HW233093   2.892   5.438   0.452
10732SOL     OW33094   4.796   5.432   2.238
10732SOL    HW133095   4.832   5.459   2.149
10732SOL    HW233096   4.749   5.510   2.280
10733SOL     OW33097   5.070   1.793   6.845
10733SOL    HW133098   5.128   1.806   6.925
10733SOL    HW233099   5.127   1.783   6.763
10734SOL     OW33100   1.206   0.326   0.210
10734SOL    HW133101   1.128   0.277   0.172
10734SOL    HW233102   1.284   0.264   0.217
10735SOL     OW33103   1.451   4.622   2.785
10735SOL    HW133104   1.531   4.682   2.780
10735SOL    HW233105   1.395   4.646   2.864
10736SOL     OW33106   0.403   0.531   3.423
10736SOL    HW133107   0.364   0.614   3.462
10736SOL    HW233108   0.373   0.451   3.475
10737SOL     OW33109   1.462   1.639   0.572
10737SOL    HW133110   1.513   1.697   0.508
10737SOL    HW233111   1.491   1.659   0.665
10738SOL     OW33112   2.487   0.591   3.039
10738SOL    HW133113   2.439   0.551   2.961
10738SOL    HW233114   2.475   0.531   3.119
10739SOL     OW33115   0.084   1.380   1.734
10739SOL    HW133116   0.141   1.361   1.655
10739SOL    HW233117   0.141   1.382   1.817
10740SOL     OW33118   1.264   4.686   5.367
10740SOL    HW133119   1.235   4.630   5.444
10740SOL    HW233120   1.349   4.650   5.329
10741SOL     OW33121   0.348   0.583   3.109
10741SOL    HW133122   0.436   0.544   3.136
10741SOL    HW233123   0.321   0.652   3.175
10742SOL     OW33124   6.055   0.452   1.305
10742SOL    HW133125   5.980   0.434   1.241
10742SOL    HW233126   6.057   0.549   1.328
10743SOL     OW33127   2.399   1.764   4.559
10743SOL    HW133128   2.376   1.737   4.466
10743SOL    HW233129   2.322   1.746   4.620
10744SOL     OW33130   2.826   1.302   2.384
10744SOL    HW133131   2.806   1.386   2.333
10744SOL    HW233132   2.878   1.324   2.466
10745SOL     OW33133   1.198   4.893   1.090
10745SOL    HW133134   1.269   4.893   1.020
10745SOL    HW233135   1.188   4.801   1.128
10746SOL     OW33136   1.605   3.549   1.439
10746SOL    HW133137   1.675   3.504   1.384
10746SOL    HW233138   1.542   3.480   1.476
10747SOL     OW33139   4.375   0.821   3.082
10747SOL    HW133140   4.472   0.831   3.059
10747SOL    HW233141   4.320   0.836   3.001
10748SOL     OW33142   3.403   0.564   1.083
10748SOL    HW133143   3.398   0.593   1.179
10748SOL    HW233144   3.477   0.612   1.037
10749SOL     OW33145   0.134   4.848   3.964
10749SOL    HW133146   0.056   4.882   3.911
10749SOL    HW233147   0.106   4.768   4.017
10750SOL     OW33148   4.006   6.092   4.624
10750SOL    HW133149   3.914   6.114   4.591
10750SOL    HW233150   4.005   6.001   4.667
10751SOL     OW33151   0.843   3.872   5.178
10751SOL    HW133152   0.836   3.869   5.079
10751SOL    HW233153   0.932   3.910   5.204
10752SOL     OW33154   6.490   3.929   6.348
10752SOL    HW133155   6.542   3.883   6.276
10752SOL    HW233156   6.413   3.978   6.307
10753SOL     OW33157   5.084   0.474   4.272
10753SOL    HW133158   5.098   0.530   4.190
10753SOL    HW233159   5.164   0.415   4.286
10754SOL     OW33160   1.368   2.071   3.887
10754SOL    HW133161   1.325   2.054   3.798
10754SOL    HW233162   1.467   2.076   3.875
10755SOL     OW33163   0.651   2.354   0.489
10755SOL    HW133164   0.561   2.313   0.477
10755SOL    HW233165   0.718   2.303   0.434
10756SOL     OW33166   6.497   4.643   6.771
10756SOL    HW133167   6.443   4.695   6.837
10756SOL    HW233168   6.542   4.706   6.708
10757SOL     OW33169   1.163   3.142   0.531
10757SOL    HW133170   1.228   3.165   0.603
10757SOL    HW233171   1.212   3.125   0.446
10758SOL     OW33172   0.948   6.831   5.195
10758SOL    HW133173   0.877   6.834   5.265
10758SOL    HW233174   0.955   6.738   5.157
10759SOL     OW33175   1.715   3.206   6.852
10759SOL    HW133176   1.664   3.184   6.936
10759SOL    HW233177   1.758   3.295   6.862
10760SOL     OW33178   6.962   1.261   0.430
10760SOL    HW133179   6.934   1.218   0.344
10760SOL    HW233180   0.025   1.223   0.458
10761SOL     OW33181   1.085   2.044   6.240
10761SOL    HW133182   1.013   2.063   6.174
10761SOL    HW233183   1.104   1.946   6.242
10762SOL     OW33184   3.872   1.691   5.083
10762SOL    HW133185   3.911   1.751   5.152
10762SOL    HW233186   3.898   1.722   4.991
10763SOL     OW33187   4.598   6.367   1.237
10763SOL    HW133188   4.578   6.375   1.139
10763SOL    HW233189   4.639   6.278   1.255
10764SOL     OW33190   5.932   1.864   5.216
10764SOL    HW133191   5.908   1.775   5.177
10764SOL    HW233192   5.853   1.899   5.267
10765SOL     OW33193   5.675   2.983   1.237
10765SOL    HW133194   5.749   3.049   1.251
10765SOL    HW233195   5.603   3.026   1.182
10766SOL     OW33196   3.390   3.232   1.015
10766SOL    HW133197   3.357   3.316   0.971
10766SOL    HW233198   3.489   3.236   1.025
10767SOL     OW33199   1.515   0.469   6.889
10767SOL    HW133200   1.424   0.501   6.916
10767SOL    HW233201   1.550   0.527   6.816
10768SOL     OW33202   4.216   5.390   1.081
10768SOL    HW133203   4.169   5.312   1.041
10768SOL    HW233204   4.192   5.398   1.178
10769SOL     OW33205   1.914   5.253   4.808
10769SOL    HW133206   1.951   5.161   4.789
10769SOL    HW233207   1.880   5.293   4.723
10770SOL     OW33208   5.822   0.376   4.885
10770SOL    HW133209   5.872   0.290   4.890
10770SOL    HW233210   5.767   0.387   4.968
10771SOL     OW33211   5.063   1.229   4.807
10771SOL    HW133212   5.124   1.306   4.791
10771SOL    HW233213   5.004   1.215   4.728
10772SOL     OW33214   6.419   6.346   4.686
10772SOL    HW133215   6.517   6.367   4.684
10772SOL    HW233216   6.398   6.277   4.617
10773SOL     OW33217   6.326   5.465   6.274
10773SOL    HW133218   6.250   5.493   6.333
10773SOL    HW233219   6.391   5.541   6.266
10774SOL     OW33220   1.730   1.617   6.798
10774SOL    HW133221   1.691   1.688   6.740
10774SOL    HW233222   1.670   1.537   6.798
10775SOL     OW33223   0.337   2.916   0.631
10775SOL    HW133224   0.426   2.905   0.676
10775SOL    HW233225   0.344   2.889   0.535
10776SOL     OW33226   1.699   6.339   7.016
10776SOL    HW133227   1.645   6.272   6.965
10776SOL    HW233228   1.796   6.325   6.996
10777SOL     OW33229   4.152   6.406   4.236
10777SOL    HW133230   4.126   6.311   4.222
10777SOL    HW233231   4.071   6.460   4.260
10778SOL     OW33232   5.690   6.179   5.066
10778SOL    HW133233   5.748   6.102   5.039
10778SOL    HW233234   5.602   6.173   5.019
10779SOL     OW33235   6.251   4.851   3.542
10779SOL    HW133236   6.329   4.815   3.594
10779SOL    HW233237   6.178   4.876   3.605
10780SOL     OW33238   1.225   0.336   3.673
10780SOL    HW133239   1.143   0.359   3.620
10780SOL    HW233240   1.199   0.310   3.766
10781SOL     OW33241   4.034   1.752   2.934
10781SOL    HW133242   3.937   1.778   2.935
10781SOL    HW233243   4.089   1.829   2.966
10782SOL     OW33244   6.905   1.437   3.608
10782SOL    HW133245   6.903   1.354   3.553
10782SOL    HW233246   6.995   1.480   3.601
10783SOL     OW33247   0.824   3.530   3.552
10783SOL    HW133248   0.829   3.629   3.569
10783SOL    HW233249   0.771   3.513   3.469
10784SOL     OW33250   3.222   0.180   2.940
10784SOL    HW133251   3.264   0.151   2.854
10784SOL    HW233252   3.154   0.251   2.922
10785SOL     OW33253   0.663   5.021   0.825
10785SOL    HW133254   0.568   4.999   0.850
10785SOL    HW233255   0.697   5.093   0.885
10786SOL     OW33256   4.904   4.577   2.528
10786SOL    HW133257   4.916   4.654   2.590
10786SOL    HW233258   4.921   4.606   2.434
10787SOL     OW33259   3.176   1.646   4.173
10787SOL    HW133260   3.098   1.707   4.179
10787SOL    HW233261   3.261   1.698   4.185
10788SOL     OW33262   2.440   4.570   6.382
10788SOL    HW133263   2.449   4.642   6.313
10788SOL    HW233264   2.353   4.581   6.430
10789SOL     OW33265   5.989   2.832   0.184
10789SOL    HW133266   5.964   2.769   0.110
10789SOL    HW233267   6.054   2.900   0.150
10790SOL     OW33268   1.463   0.461   3.119
10790SOL    HW133269   1.501   0.532   3.179
10790SOL    HW233270   1.415   0.503   3.043
10791SOL     OW33271   0.075   0.389   1.058
10791SOL    HW133272   0.142   0.316   1.074
10791SOL    HW233273   0.004   0.356   0.996
10792SOL     OW33274   3.769   3.657   2.057
10792SOL    HW133275   3.844   3.610   2.104
10792SOL    HW233276   3.784   3.653   1.959
10793SOL     OW33277   5.549   2.486   4.609
10793SOL    HW133278   5.554   2.388   4.588
10793SOL    HW233279   5.454   2.515   4.610
10794SOL     OW33280   2.974   3.784   3.501
10794SOL    HW133281   3.025   3.698   3.508
10794SOL    HW233282   3.008   3.848   3.569
10795SOL     OW33283   6.977   3.566   3.396
10795SOL    HW133284   6.961   3.501   3.470
10795SOL    HW233285   6.892   3.586   3.349
10796SOL     OW33286   5.134   6.659   0.097
10796SOL    HW133287   5.082   6.717   0.160
10796SOL    HW233288   5.089   6.571   0.086
10797SOL     OW33289   3.625   2.033   1.033
10797SOL    HW133290   3.592   2.070   0.946
10797SOL    HW233291   3.565   2.063   1.107
10798SOL     OW33292   2.315   6.307   0.663
10798SOL    HW133293   2.361   6.353   0.587
10798SOL    HW233294   2.384   6.267   0.724
10799SOL     OW33295   3.637   0.854   2.363
10799SOL    HW133296   3.709   0.829   2.299
10799SOL    HW233297   3.649   0.949   2.392
10800SOL     OW33298   0.746   0.123   0.370
10800SOL    HW133299   0.686   0.201   0.352
10800SOL    HW233300   0.830   0.155   0.415
10801SOL     OW33301   0.867   6.590   5.473
10801SOL    HW133302   0.916   6.556   5.392
10801SOL    HW233303   0.933   6.610   5.546
10802SOL     OW33304   1.463   2.978   3.429
10802SOL    HW133305   1.539   3.038   3.405
10802SOL    HW233306   1.379   3.013   3.386
10803SOL     OW33307   3.863   4.324   5.601
10803SOL    HW133308   3.846   4.299   5.506
10803SOL    HW233309   3.913   4.250   5.646
10804SOL     OW33310   5.809   3.697   1.856
10804SOL    HW133311   5.876   3.650   1.798
10804SOL    HW233312   5.717   3.668   1.829
10805SOL     OW33313   4.023   0.243   6.796
10805SOL    HW133314   4.034   0.144   6.790
10805SOL    HW233315   4.033   0.283   6.705
10806SOL     OW33316   4.673   4.441   6.175
10806SOL    HW133317   4.763   4.405   6.201
10806SOL    HW233318   4.635   4.492   6.252
10807SOL     OW33319   1.295   6.461   3.314
10807SOL    HW133320   1.320   6.365   3.313
10807SOL    HW233321   1.286   6.495   3.220
10808SOL     OW33322   6.456   3.808   6.614
10808SOL    HW133323   6.540   3.811   6.668
10808SOL    HW233324   6.469   3.860   6.530
10809SOL     OW33325   3.233   5.856   3.447
10809SOL    HW133326   3.208   5.820   3.537
10809SOL    HW233327   3.251   5.954   3.454
10810SOL     OW33328   2.213   0.320   4.933
10810SOL    HW133329   2.231   0.238   4.987
10810SOL    HW233330   2.114   0.332   4.922
10811SOL     OW33331   4.217   4.600   5.718
10811SOL    HW133332   4.214   4.691   5.760
10811SOL    HW233333   4.174   4.603   5.628
10812SOL     OW33334   1.029   3.620   1.692
10812SOL    HW133335   1.119   3.641   1.729
10812SOL    HW233336   0.979   3.561   1.757
10813SOL     OW33337   1.859   5.607   0.110
10813SOL    HW133338   1.837   5.612   0.207
10813SOL    HW233339   1.945   5.558   0.097
10814SOL     OW33340   1.571   6.389   6.611
10814SOL    HW133341   1.626   6.439   6.677
10814SOL    HW233342   1.620   6.384   6.524
10815SOL     OW33343   4.767   4.526   3.268
10815SOL    HW133344   4.751   4.597   3.199
10815SOL    HW233345   4.679   4.494   3.304
10816SOL     OW33346   1.519   2.260   1.472
10816SOL    HW133347   1.582   2.325   1.428
10816SOL    HW233348   1.489   2.193   1.404
10817SOL     OW33349   5.493   6.506   2.597
10817SOL    HW133350   5.551   6.588   2.592
10817SOL    HW233351   5.450   6.502   2.687
10818SOL     OW33352   4.442   4.553   5.361
10818SOL    HW133353   4.390   4.470   5.342
10818SOL    HW233354   4.438   4.573   5.459
10819SOL     OW33355   6.780   4.359   0.101
10819SOL    HW133356   6.817   4.443   0.060
10819SOL    HW233357   6.681   4.356   0.086
10820SOL     OW33358   5.931   5.564   3.815
10820SOL    HW133359   5.934   5.574   3.716
10820SOL    HW233360   6.023   5.550   3.850
10821SOL     OW33361   5.703   6.332   1.993
10821SOL    HW133362   5.715   6.289   2.083
10821SOL    HW233363   5.668   6.265   1.928
10822SOL     OW33364   1.216   3.064   3.304
10822SOL    HW133365   1.129   3.023   3.332
10822SOL    HW233366   1.202   3.162   3.285
10823SOL     OW33367   1.859   5.332   1.555
10823SOL    HW133368   1.790   5.287   1.612
10823SOL    HW233369   1.903   5.405   1.608
10824SOL     OW33370   5.739   0.873   3.826
10824SOL    HW133371   5.771   0.791   3.779
10824SOL    HW233372   5.695   0.934   3.760
10825SOL     OW33373   3.454   6.899   6.176
10825SOL    HW133374   3.513   6.900   6.095
10825SOL    HW233375   3.361   6.927   6.150
10826SOL     OW33376   0.362   3.338   3.477
10826SOL    HW133377   0.327   3.415   3.425
10826SOL    HW233378   0.343   3.352   3.574
10827SOL     OW33379   6.110   4.046   4.451
10827SOL    HW133380   6.097   4.143   4.432
10827SOL    HW233381   6.113   3.995   4.366
10828SOL     OW33382   0.756   4.862   1.915
10828SOL    HW133383   0.831   4.813   1.959
10828SOL    HW233384   0.669   4.824   1.945
10829SOL     OW33385   3.502   2.421   0.846
10829SOL    HW133386   3.508   2.391   0.942
10829SOL    HW233387   3.505   2.521   0.842
10830SOL     OW33388   5.207   1.738   3.947
10830SOL    HW133389   5.117   1.697   3.963
10830SOL    HW233390   5.267   1.670   3.904
10831SOL     OW33391   3.926   5.916   2.159
10831SOL    HW133392   3.945   5.979   2.235
10831SOL    HW233393   3.931   5.822   2.193
10832SOL     OW33394   0.885   2.509   0.555
10832SOL    HW133395   0.933   2.436   0.602
10832SOL    HW233396   0.798   2.474   0.518
10833SOL     OW33397   1.379   1.306   2.215
10833SOL    HW133398   1.472   1.317   2.179
10833SOL    HW233399   1.335   1.229   2.171
10834SOL     OW33400   1.319   2.264   6.544
10834SOL    HW133401   1.273   2.186   6.500
10834SOL    HW233402   1.326   2.247   6.642
10835SOL     OW33403   6.566   2.230   0.249
10835SOL    HW133404   6.559   2.189   0.340
10835SOL    HW233405   6.571   2.329   0.258
10836SOL     OW33406   0.143   1.721   4.631
10836SOL    HW133407   0.121   1.809   4.590
10836SOL    HW233408   0.156   1.732   4.729
10837SOL     OW33409   6.888   4.674   0.459
10837SOL    HW133410   6.860   4.671   0.555
10837SOL    HW233411   6.907   4.581   0.427
10838SOL     OW33412   6.017   6.363   4.747
10838SOL    HW133413   5.981   6.335   4.658
10838SOL    HW233414   6.075   6.444   4.735
10839SOL     OW33415   3.527   2.982   0.805
10839SOL    HW133416   3.551   3.010   0.898
10839SOL    HW233417   3.438   3.022   0.780
10840SOL     OW33418   3.926   5.651   2.094
10840SOL    HW133419   3.912   5.720   2.023
10840SOL    HW233420   3.961   5.567   2.052
10841SOL     OW33421   4.636   6.277   0.501
10841SOL    HW133422   4.668   6.193   0.457
10841SOL    HW233423   4.573   6.324   0.439
10842SOL     OW33424   5.098   2.972   1.341
10842SOL    HW133425   5.016   3.026   1.362
10842SOL    HW233426   5.072   2.888   1.295
10843SOL     OW33427   0.707   2.132   1.496
10843SOL    HW133428   0.698   2.058   1.430
10843SOL    HW233429   0.617   2.172   1.513
10844SOL     OW33430   0.390   6.920   4.066
10844SOL    HW133431   0.392   6.995   4.133
10844SOL    HW233432   0.313   6.933   4.004
10845SOL     OW33433   3.105   0.508   5.925
10845SOL    HW133434   3.060   0.595   5.948
10845SOL    HW233435   3.202   0.513   5.948
10846SOL     OW33436   4.360   2.864   1.126
10846SOL    HW133437   4.334   2.802   1.052
10846SOL    HW233438   4.392   2.811   1.204
10847SOL     OW33439   3.755   3.624   6.487
10847SOL    HW133440   3.713   3.551   6.432
10847SOL    HW233441   3.828   3.668   6.433
10848SOL     OW33442   2.479   2.536   0.050
10848SOL    HW133443   2.461   2.510   6.981
10848SOL    HW233444   2.542   2.614   0.053
10849SOL     OW33445   2.604   5.007   2.928
10849SOL    HW133446   2.683   5.061   2.957
10849SOL    HW233447   2.604   4.919   2.976
10850SOL     OW33448   3.442   5.774   0.327
10850SOL    HW133449   3.388   5.824   0.395
10850SOL    HW233450   3.518   5.831   0.297
10851SOL     OW33451   3.006   3.056   6.495
10851SOL    HW133452   3.032   3.139   6.445
10851SOL    HW233453   2.914   3.029   6.469
10852SOL     OW33454   0.912   6.583   6.910
10852SOL    HW133455   1.009   6.562   6.915
10852SOL    HW233456   0.883   6.632   6.992
10853SOL     OW33457   3.484   2.387   5.701
10853SOL    HW133458   3.464   2.320   5.772
10853SOL    HW233459   3.399   2.418   5.659
10854SOL     OW33460   5.206   0.260   5.349
10854SOL    HW133461   5.256   0.344   5.332
10854SOL    HW233462   5.237   0.189   5.286
10855SOL     OW33463   2.886   6.569   1.666
10855SOL    HW133464   2.805   6.518   1.638
10855SOL    HW233465   2.957   6.506   1.697
10856SOL     OW33466   5.742   1.889   2.095
10856SOL    HW133467   5.677   1.876   2.021
10856SOL    HW233468   5.714   1.834   2.174
10857SOL     OW33469   5.952   2.599   3.265
10857SOL    HW133470   6.020   2.631   3.330
10857SOL    HW233471   5.988   2.606   3.172
10858SOL     OW33472   0.586   2.208   6.729
10858SOL    HW133473   0.512   2.254   6.679
10858SOL    HW233474   0.564   2.203   6.826
10859SOL     OW33475   2.140   3.393   3.958
10859SOL    HW133476   2.137   3.297   3.928
10859SOL    HW233477   2.136   3.452   3.878
10860SOL     OW33478   6.338   0.876   5.730
10860SOL    HW133479   6.277   0.950   5.702
10860SOL    HW233480   6.424   0.915   5.763
10861SOL     OW33481   3.985   3.123   3.115
10861SOL    HW133482   3.944   3.040   3.152
10861SOL    HW233483   4.056   3.156   3.177
10862SOL     OW33484   2.669   1.902   6.153
10862SOL    HW133485   2.744   1.857   6.106
10862SOL    HW233486   2.689   1.907   6.251
10863SOL     OW33487   3.785   0.479   2.922
10863SOL    HW133488   3.687   0.500   2.923
10863SOL    HW233489   3.830   0.535   2.852
10864SOL     OW33490   3.347   5.092   0.475
10864SOL    HW133491   3.416   5.165   0.466
10864SOL    HW233492   3.304   5.098   0.565
10865SOL     OW33493   5.891   1.387   3.010
10865SOL    HW133494   5.925   1.357   2.921
10865SOL    HW233495   5.909   1.485   3.022
10866SOL     OW33496   4.448   5.006   0.212
10866SOL    HW133497   4.400   5.039   0.132
10866SOL    HW233498   4.386   5.003   0.290
10867SOL     OW33499   3.015   3.825   0.393
10867SOL    HW133500   2.940   3.798   0.332
10867SOL    HW233501   2.998   3.789   0.484
10868SOL     OW33502   2.637   2.104   3.731
10868SOL    HW133503   2.546   2.121   3.693
10868SOL    HW233504   2.705   2.113   3.659
10869NA      NA33505   0.537   2.358   6.287
10870NA      NA33506   4.259   4.691   5.282
10871NA      NA33507   2.121   4.203   2.255
10872NA      NA33508   5.016   4.150   3.561
10873NA      NA33509   4.313   2.299   5.167
10874NA      NA33510   3.100   4.385   1.566
10875NA      NA33511   0.275   4.621   0.281
10876NA      NA33512   3.277   3.539   2.951
10877NA      NA33513   5.026   5.190   0.963
10878NA      NA33514   3.339   0.222   5.375
10879NA      NA33515   5.869   5.666   0.765
10880NA      NA33516   2.427   0.768   4.991
10881NA      NA33517   4.076   4.913   1.828
10882NA      NA33518   3.983   3.167   1.556
   7.02535   7.02535   7.02535
