Generated by trjconv : CNT in water t= 449.00000
33518
    1C        C    1   2.840   2.763   4.746
    1C        C    2   2.897   2.715   4.866
    1C        C    3   2.837   2.767   4.982
    1C        C    4   2.843   2.768   4.258
    1C        C    5   2.895   2.719   4.380
    1C        C    6   2.842   2.766   4.502
    1C        C    7   3.006   2.633   4.623
    1C        C    8   2.889   2.712   4.623
    1C        C    9   3.073   2.602   4.744
    1C        C   10   3.006   2.626   4.865
    1C        C   11   3.181   2.491   4.973
    1C        C   12   3.057   2.555   4.975
    1C        C   13   2.845   2.765   3.768
    1C        C   14   2.895   2.716   3.890
    1C        C   15   2.851   2.773   4.012
    1C        C   16   3.013   2.642   4.136
    1C        C   17   2.898   2.724   4.136
    1C        C   18   3.074   2.605   4.258
    1C        C   19   3.016   2.646   4.380
    1C        C   20   3.206   2.556   4.503
    1C        C   21   3.073   2.604   4.502
    1C        C   22   3.277   2.536   4.623
    1C        C   23   3.205   2.548   4.744
    1C        C   24   3.410   2.476   4.863
    1C        C   25   3.269   2.498   4.860
    1C        C   26   3.488   2.483   4.980
    1C        C   27   2.849   2.767   3.279
    1C        C   28   2.898   2.716   3.401
    1C        C   29   2.846   2.765   3.523
    1C        C   30   3.016   2.639   3.647
    1C        C   31   2.900   2.721   3.646
    1C        C   32   3.073   2.599   3.770
    1C        C   33   3.010   2.634   3.892
    1C        C   34   3.201   2.543   4.016
    1C        C   35   3.072   2.599   4.014
    1C        C   36   3.273   2.532   4.137
    1C        C   37   3.207   2.558   4.259
    1C        C   38   3.412   2.501   4.382
    1C        C   39   3.274   2.532   4.381
    1C        C   40   3.485   2.494   4.502
    1C        C   41   3.414   2.504   4.624
    1C        C   42   3.628   2.484   4.742
    1C        C   43   3.486   2.480   4.743
    1C        C   44   3.703   2.484   4.861
    1C        C   45   3.627   2.474   4.978
    1C        C   46   2.834   2.749   2.791
    1C        C   47   2.890   2.706   2.913
    1C        C   48   2.840   2.758   3.034
    1C        C   49   3.012   2.633   3.156
    1C        C   50   2.899   2.718   3.156
    1C        C   51   3.073   2.598   3.279
    1C        C   52   3.013   2.634   3.402
    1C        C   53   3.204   2.544   3.524
    1C        C   54   3.076   2.603   3.525
    1C        C   55   3.269   2.520   3.647
    1C        C   56   3.202   2.542   3.770
    1C        C   57   3.409   2.506   3.893
    1C        C   58   3.269   2.527   3.893
    1C        C   59   3.481   2.505   4.015
    1C        C   60   3.412   2.507   4.138
    1C        C   61   3.624   2.500   4.256
    1C        C   62   3.483   2.496   4.260
    1C        C   63   3.697   2.508   4.376
    1C        C   64   3.627   2.498   4.498
    1C        C   65   3.832   2.546   4.619
    1C        C   66   3.697   2.503   4.620
    1C        C   67   3.902   2.565   4.740
    1C        C   68   3.839   2.522   4.858
    1C        C   69   4.050   2.579   4.975
    1C        C   70   3.920   2.528   4.973
    1C        C   71   2.821   2.733   2.306
    1C        C   72   2.879   2.689   2.427
    1C        C   73   2.827   2.740   2.548
    1C        C   74   3.002   2.618   2.670
    1C        C   75   2.885   2.697   2.670
    1C        C   76   3.070   2.589   2.790
    1C        C   77   3.008   2.628   2.911
    1C        C   78   3.202   2.542   3.034
    1C        C   79   3.072   2.596   3.033
    1C        C   80   3.271   2.525   3.157
    1C        C   81   3.204   2.545   3.279
    1C        C   82   3.409   2.493   3.402
    1C        C   83   3.271   2.522   3.402
    1C        C   84   3.479   2.494   3.525
    1C        C   85   3.409   2.504   3.647
    1C        C   86   3.620   2.501   3.768
    1C        C   87   3.478   2.501   3.770
    1C        C   88   3.691   2.514   3.889
    1C        C   89   3.622   2.509   4.013
    1C        C   90   3.831   2.550   4.131
    1C        C   91   3.694   2.515   4.134
    1C        C   92   3.899   2.572   4.253
    1C        C   93   3.832   2.550   4.376
    1C        C   94   4.027   2.634   4.492
    1C        C   95   3.899   2.573   4.498
    1C        C   96   4.085   2.671   4.615
    1C        C   97   4.030   2.627   4.738
    1C        C   98   4.188   2.762   4.858
    1C        C   99   4.096   2.652   4.861
    1C        C  100   4.218   2.835   4.973
    1C        C  101   2.819   2.725   2.068
    1C        C  102   2.985   2.585   2.186
    1C        C  103   2.873   2.674   2.187
    1C        C  104   3.056   2.566   2.308
    1C        C  105   2.996   2.610   2.428
    1C        C  106   3.199   2.538   2.546
    1C        C  107   3.065   2.584   2.548
    1C        C  108   3.265   2.512   2.668
    1C        C  109   3.199   2.532   2.791
    1C        C  110   3.409   2.495   2.912
    1C        C  111   3.270   2.518   2.912
    1C        C  112   3.480   2.487   3.034
    1C        C  113   3.409   2.495   3.155
    1C        C  114   3.617   2.504   3.279
    1C        C  115   3.477   2.488   3.279
    1C        C  116   3.687   2.518   3.401
    1C        C  117   3.620   2.507   3.524
    1C        C  118   3.828   2.548   3.644
    1C        C  119   3.691   2.513   3.647
    1C        C  120   3.894   2.574   3.766
    1C        C  121   3.826   2.556   3.888
    1C        C  122   4.020   2.646   4.008
    1C        C  123   3.896   2.577   4.008
    1C        C  124   4.084   2.680   4.130
    1C        C  125   4.024   2.638   4.251
    1C        C  126   4.196   2.766   4.372
    1C        C  127   4.089   2.673   4.371
    1C        C  128   4.240   2.819   4.495
    1C        C  129   4.193   2.762   4.616
    1C        C  130   4.326   2.930   4.736
    1C        C  131   4.241   2.816   4.737
    1C        C  132   4.360   2.996   4.856
    1C        C  133   4.293   2.952   4.971
    1C        C  134   3.171   2.465   2.076
    1C        C  135   3.038   2.510   2.076
    1C        C  136   3.256   2.471   2.187
    1C        C  137   3.190   2.518   2.303
    1C        C  138   3.401   2.483   2.424
    1C        C  139   3.262   2.506   2.423
    1C        C  140   3.474   2.482   2.545
    1C        C  141   3.405   2.492   2.668
    1C        C  142   3.620   2.492   2.790
    1C        C  143   3.479   2.492   2.789
    1C        C  144   3.690   2.506   2.913
    1C        C  145   3.621   2.497   3.036
    1C        C  146   3.828   2.542   3.155
    1C        C  147   3.691   2.507   3.158
    1C        C  148   3.895   2.568   3.277
    1C        C  149   3.825   2.549   3.398
    1C        C  150   4.020   2.631   3.518
    1C        C  151   3.893   2.571   3.520
    1C        C  152   4.078   2.673   3.640
    1C        C  153   4.018   2.642   3.764
    1C        C  154   4.193   2.764   3.882
    1C        C  155   4.079   2.682   3.885
    1C        C  156   4.250   2.806   4.005
    1C        C  157   4.200   2.760   4.129
    1C        C  158   4.342   2.919   4.249
    1C        C  159   4.252   2.810   4.250
    1C        C  160   4.378   2.980   4.371
    1C        C  161   4.330   2.928   4.493
    1C        C  162   4.433   3.115   4.614
    1C        C  163   4.366   2.991   4.615
    1C        C  164   4.466   3.180   4.735
    1C        C  165   4.435   3.115   4.856
    1C        C  166   4.514   3.317   4.972
    1C        C  167   4.478   3.183   4.971
    1C        C  168   3.474   2.440   2.070
    1C        C  169   3.396   2.455   2.185
    1C        C  170   3.615   2.466   2.304
    1C        C  171   3.473   2.463   2.303
    1C        C  172   3.688   2.487   2.423
    1C        C  173   3.615   2.488   2.544
    1C        C  174   3.820   2.545   2.664
    1C        C  175   3.685   2.505   2.666
    1C        C  176   3.887   2.571   2.786
    1C        C  177   3.825   2.545   2.910
    1C        C  178   4.020   2.628   3.029
    1C        C  179   3.893   2.567   3.032
    1C        C  180   4.082   2.664   3.151
    1C        C  181   4.022   2.631   3.274
    1C        C  182   4.197   2.751   3.395
    1C        C  183   4.082   2.668   3.396
    1C        C  184   4.247   2.802   3.517
    1C        C  185   4.192   2.757   3.639
    1C        C  186   4.340   2.914   3.759
    1C        C  187   4.245   2.810   3.758
    1C        C  188   4.380   2.971   3.882
    1C        C  189   4.339   2.916   4.005
    1C        C  190   4.451   3.099   4.126
    1C        C  191   4.381   2.976   4.126
    1C        C  192   4.477   3.168   4.247
    1C        C  193   4.441   3.106   4.369
    1C        C  194   4.507   3.310   4.490
    1C        C  195   4.467   3.174   4.490
    1C        C  196   4.521   3.382   4.610
    1C        C  197   4.508   3.316   4.734
    1C        C  198   4.552   3.531   4.848
    1C        C  199   4.535   3.389   4.853
    1C        C  200   4.577   3.616   4.960
    1C        C  201   3.612   2.416   2.070
    1C        C  202   3.823   2.510   2.183
    1C        C  203   3.689   2.459   2.183
    1C        C  204   3.897   2.538   2.301
    1C        C  205   3.825   2.519   2.422
    1C        C  206   4.017   2.618   2.541
    1C        C  207   3.889   2.559   2.542
    1C        C  208   4.080   2.655   2.662
    1C        C  209   4.017   2.626   2.785
    1C        C  210   4.195   2.745   2.903
    1C        C  211   4.081   2.661   2.906
    1C        C  212   4.245   2.797   3.025
    1C        C  213   4.195   2.749   3.148
    1C        C  214   4.339   2.902   3.269
    1C        C  215   4.249   2.793   3.271
    1C        C  216   4.377   2.965   3.390
    1C        C  217   4.338   2.911   3.514
    1C        C  218   4.447   3.093   3.636
    1C        C  219   4.384   2.967   3.636
    1C        C  220   4.472   3.161   3.758
    1C        C  221   4.448   3.095   3.881
    1C        C  222   4.503   3.301   4.000
    1C        C  223   4.474   3.162   4.002
    1C        C  224   4.512   3.373   4.121
    1C        C  225   4.508   3.306   4.245
    1C        C  226   4.524   3.519   4.364
    1C        C  227   4.521   3.377   4.366
    1C        C  228   4.522   3.593   4.484
    1C        C  229   4.532   3.523   4.606
    1C        C  230   4.494   3.736   4.725
    1C        C  231   4.535   3.600   4.725
    1C        C  232   4.491   3.816   4.841
    1C        C  233   4.537   3.750   4.956
    1C        C  234   4.011   2.606   2.062
    1C        C  235   3.890   2.538   2.063
    1C        C  236   4.080   2.644   2.178
    1C        C  237   4.024   2.602   2.300
    1C        C  238   4.198   2.732   2.419
    1C        C  239   4.083   2.648   2.420
    1C        C  240   4.251   2.784   2.539
    1C        C  241   4.191   2.743   2.660
    1C        C  242   4.340   2.897   2.780
    1C        C  243   4.250   2.788   2.780
    1C        C  244   4.382   2.955   2.902
    1C        C  245   4.340   2.902   3.026
    1C        C  246   4.445   3.086   3.146
    1C        C  247   4.379   2.962   3.148
    1C        C  248   4.467   3.152   3.269
    1C        C  249   4.445   3.090   3.393
    1C        C  250   4.502   3.296   3.511
    1C        C  251   4.473   3.158   3.514
    1C        C  252   4.510   3.368   3.633
    1C        C  253   4.501   3.299   3.755
    1C        C  254   4.519   3.511   3.875
    1C        C  255   4.512   3.370   3.877
    1C        C  256   4.515   3.584   3.996
    1C        C  257   4.516   3.514   4.118
    1C        C  258   4.489   3.725   4.238
    1C        C  259   4.514   3.586   4.240
    1C        C  260   4.468   3.795   4.358
    1C        C  261   4.487   3.730   4.482
    1C        C  262   4.416   3.933   4.598
    1C        C  263   4.472   3.803   4.602
    1C        C  264   4.393   4.002   4.719
    1C        C  265   4.427   3.942   4.842
    1C        C  266   4.325   4.135   4.955
    1C        C  267   4.390   4.012   4.957
    1C        C  268   4.255   2.775   2.059
    1C        C  269   4.194   2.728   2.176
    1C        C  270   4.342   2.885   2.294
    1C        C  271   4.252   2.775   2.296
    1C        C  272   4.384   2.948   2.414
    1C        C  273   4.349   2.886   2.536
    1C        C  274   4.443   3.079   2.657
    1C        C  275   4.383   2.951   2.657
    1C        C  276   4.471   3.146   2.778
    1C        C  277   4.447   3.080   2.901
    1C        C  278   4.504   3.285   3.024
    1C        C  279   4.476   3.147   3.022
    1C        C  280   4.510   3.360   3.144
    1C        C  281   4.499   3.290   3.266
    1C        C  282   4.515   3.504   3.386
    1C        C  283   4.512   3.362   3.386
    1C        C  284   4.509   3.577   3.506
    1C        C  285   4.510   3.509   3.630
    1C        C  286   4.491   3.720   3.750
    1C        C  287   4.511   3.581   3.752
    1C        C  288   4.475   3.792   3.871
    1C        C  289   4.487   3.723   3.994
    1C        C  290   4.416   3.924   4.113
    1C        C  291   4.467   3.792   4.115
    1C        C  292   4.388   3.992   4.234
    1C        C  293   4.422   3.929   4.356
    1C        C  294   4.317   4.119   4.475
    1C        C  295   4.389   3.997   4.475
    1C        C  296   4.280   4.183   4.595
    1C        C  297   4.324   4.127   4.717
    1C        C  298   4.201   4.311   4.834
    1C        C  299   4.284   4.195   4.835
    1C        C  300   4.170   4.402   4.940
    1C        C  301   4.352   2.876   2.056
    1C        C  302   4.465   3.065   2.171
    1C        C  303   4.390   2.943   2.173
    1C        C  304   4.477   3.138   2.292
    1C        C  305   4.446   3.075   2.414
    1C        C  306   4.508   3.280   2.534
    1C        C  307   4.473   3.143   2.535
    1C        C  308   4.519   3.352   2.656
    1C        C  309   4.504   3.284   2.779
    1C        C  310   4.523   3.495   2.898
    1C        C  311   4.518   3.354   2.901
    1C        C  312   4.518   3.570   3.018
    1C        C  313   4.519   3.501   3.141
    1C        C  314   4.483   3.711   3.261
    1C        C  315   4.510   3.573   3.263
    1C        C  316   4.467   3.783   3.382
    1C        C  317   4.486   3.717   3.505
    1C        C  318   4.420   3.918   3.626
    1C        C  319   4.472   3.787   3.627
    1C        C  320   4.390   3.985   3.747
    1C        C  321   4.423   3.923   3.869
    1C        C  322   4.309   4.105   3.990
    1C        C  323   4.386   3.986   3.990
    1C        C  324   4.270   4.166   4.111
    1C        C  325   4.314   4.112   4.234
    1C        C  326   4.184   4.285   4.350
    1C        C  327   4.274   4.176   4.354
    1C        C  328   4.134   4.340   4.470
    1C        C  329   4.189   4.291   4.591
    1C        C  330   4.024   4.430   4.712
    1C        C  331   4.137   4.344   4.712
    1C        C  332   3.968   4.491   4.827
    1C        C  333   4.051   4.476   4.939
    1C        C  334   4.549   3.268   2.057
    1C        C  335   4.523   3.130   2.058
    1C        C  336   4.539   3.346   2.174
    1C        C  337   4.515   3.275   2.293
    1C        C  338   4.526   3.491   2.408
    1C        C  339   4.522   3.350   2.413
    1C        C  340   4.520   3.563   2.530
    1C        C  341   4.521   3.493   2.653
    1C        C  342   4.486   3.702   2.771
    1C        C  343   4.514   3.563   2.775
    1C        C  344   4.469   3.772   2.892
    1C        C  345   4.487   3.708   3.017
    1C        C  346   4.415   3.909   3.136
    1C        C  347   4.470   3.779   3.138
    1C        C  348   4.382   3.976   3.256
    1C        C  349   4.414   3.914   3.379
    1C        C  350   4.315   4.100   3.501
    1C        C  351   4.390   3.980   3.502
    1C        C  352   4.271   4.160   3.621
    1C        C  353   4.313   4.104   3.743
    1C        C  354   4.173   4.264   3.867
    1C        C  355   4.268   4.159   3.866
    1C        C  356   4.121   4.319   3.986
    1C        C  357   4.173   4.269   4.107
    1C        C  358   4.013   4.409   4.229
    1C        C  359   4.128   4.326   4.228
    1C        C  360   3.952   4.450   4.349
    1C        C  361   4.017   4.419   4.471
    1C        C  362   3.824   4.512   4.592
    1C        C  363   3.954   4.455   4.592
    1C        C  364   3.758   4.541   4.712
    1C        C  365   3.835   4.537   4.830
    1C        C  366   3.624   4.590   4.949
    1C        C  367   3.763   4.577   4.944
    1C        C  368   4.505   3.558   2.050
    1C        C  369   4.529   3.486   2.169
    1C        C  370   4.499   3.703   2.287
    1C        C  371   4.520   3.563   2.287
    1C        C  372   4.479   3.774   2.407
    1C        C  373   4.495   3.702   2.528
    1C        C  374   4.420   3.903   2.647
    1C        C  375   4.470   3.771   2.648
    1C        C  376   4.390   3.969   2.768
    1C        C  377   4.417   3.903   2.890
    1C        C  378   4.309   4.086   3.008
    1C        C  379   4.384   3.967   3.011
    1C        C  380   4.264   4.145   3.128
    1C        C  381   4.302   4.092   3.254
    1C        C  382   4.175   4.256   3.376
    1C        C  383   4.270   4.152   3.378
    1C        C  384   4.120   4.307   3.496
    1C        C  385   4.171   4.260   3.618
    1C        C  386   4.010   4.393   3.738
    1C        C  387   4.125   4.310   3.742
    1C        C  388   3.944   4.429   3.857
    1C        C  389   4.004   4.397   3.981
    1C        C  390   3.817   4.488   4.105
    1C        C  391   3.949   4.436   4.106
    1C        C  392   3.752   4.512   4.228
    1C        C  393   3.821   4.502   4.351
    1C        C  394   3.613   4.555   4.471
    1C        C  395   3.752   4.530   4.471
    1C        C  396   3.544   4.561   4.594
    1C        C  397   3.617   4.559   4.715
    1C        C  398   3.406   4.546   4.836
    1C        C  399   3.545   4.570   4.835
    1C        C  400   3.340   4.506   4.953
    1C        C  401   4.506   3.697   2.050
    1C        C  402   4.452   3.911   2.165
    1C        C  403   4.487   3.774   2.165
    1C        C  404   4.407   3.976   2.282
    1C        C  405   4.433   3.907   2.402
    1C        C  406   4.323   4.089   2.521
    1C        C  407   4.399   3.970   2.524
    1C        C  408   4.271   4.143   2.641
    1C        C  409   4.313   4.088   2.764
    1C        C  410   4.169   4.246   2.887
    1C        C  411   4.266   4.143   2.886
    1C        C  412   4.120   4.298   3.008
    1C        C  413   4.171   4.252   3.132
    1C        C  414   4.002   4.380   3.248
    1C        C  415   4.118   4.299   3.254
    1C        C  416   3.945   4.420   3.371
    1C        C  417   4.006   4.391   3.495
    1C        C  418   3.812   4.474   3.617
    1C        C  419   3.944   4.426   3.618
    1C        C  420   3.743   4.499   3.738
    1C        C  421   3.813   4.483   3.860
    1C        C  422   3.610   4.537   3.982
    1C        C  423   3.748   4.507   3.983
    1C        C  424   3.541   4.540   4.106
    1C        C  425   3.612   4.529   4.228
    1C        C  426   3.401   4.545   4.352
    1C        C  427   3.543   4.551   4.349
    1C        C  428   3.332   4.536   4.474
    1C        C  429   3.403   4.550   4.595
    1C        C  430   3.191   4.515   4.720
    1C        C  431   3.331   4.542   4.716
    1C        C  432   3.121   4.489   4.841
    1C        C  433   3.202   4.488   4.956
    1C        C  434   4.381   4.117   2.047
    1C        C  435   4.444   3.993   2.051
    1C        C  436   4.298   4.157   2.157
    1C        C  437   4.326   4.092   2.281
    1C        C  438   4.180   4.250   2.398
    1C        C  439   4.279   4.149   2.401
    1C        C  440   4.123   4.295   2.519
    1C        C  441   4.173   4.245   2.641
    1C        C  442   4.004   4.374   2.760
    1C        C  443   4.118   4.291   2.763
    1C        C  444   3.945   4.416   2.881
    1C        C  445   4.005   4.379   3.003
    1C        C  446   3.812   4.469   3.126
    1C        C  447   3.942   4.415   3.125
    1C        C  448   3.747   4.492   3.249
    1C        C  449   3.814   4.472   3.372
    1C        C  450   3.607   4.521   3.494
    1C        C  451   3.747   4.497   3.494
    1C        C  452   3.538   4.539   3.616
    1C        C  453   3.607   4.535   3.740
    1C        C  454   3.395   4.544   3.862
    1C        C  455   3.537   4.545   3.862
    1C        C  456   3.328   4.531   3.986
    1C        C  457   3.400   4.538   4.108
    1C        C  458   3.195   4.493   4.234
    1C        C  459   3.331   4.532   4.230
    1C        C  460   3.128   4.474   4.357
    1C        C  461   3.194   4.503   4.478
    1C        C  462   2.996   4.428   4.601
    1C        C  463   3.122   4.492   4.599
    1C        C  464   2.929   4.397   4.721
    1C        C  465   2.986   4.442   4.842
    1C        C  466   2.798   4.334   4.957
    1C        C  467   2.908   4.422   4.960
    1C        C  468   4.124   4.286   2.035
    1C        C  469   4.187   4.247   2.155
    1C        C  470   4.007   4.369   2.273
    1C        C  471   4.128   4.295   2.275
    1C        C  472   3.940   4.401   2.394
    1C        C  473   4.003   4.371   2.517
    1C        C  474   3.812   4.465   2.638
    1C        C  475   3.940   4.407   2.638
    1C        C  476   3.745   4.488   2.761
    1C        C  477   3.813   4.467   2.882
    1C        C  478   3.605   4.514   3.006
    1C        C  479   3.744   4.489   3.004
    1C        C  480   3.536   4.523   3.129
    1C        C  481   3.608   4.519   3.250
    1C        C  482   3.395   4.527   3.371
    1C        C  483   3.537   4.523   3.372
    1C        C  484   3.327   4.520   3.495
    1C        C  485   3.397   4.537   3.616
    1C        C  486   3.191   4.495   3.744
    1C        C  487   3.327   4.533   3.739
    1C        C  488   3.126   4.468   3.866
    1C        C  489   3.193   4.490   3.989
    1C        C  490   3.002   4.406   4.113
    1C        C  491   3.127   4.470   4.112
    1C        C  492   2.943   4.371   4.237
    1C        C  493   3.001   4.412   4.359
    1C        C  494   2.826   4.294   4.479
    1C        C  495   2.936   4.384   4.481
    1C        C  496   2.773   4.250   4.602
    1C        C  497   2.815   4.311   4.722
    1C        C  498   2.658   4.166   4.842
    1C        C  499   2.748   4.275   4.841
    1C        C  500   2.598   4.115   4.958
    1C        C  501   4.002   4.352   2.036
    1C        C  502   3.815   4.462   2.151
    1C        C  503   3.944   4.404   2.152
    1C        C  504   3.744   4.482   2.271
    1C        C  505   3.810   4.456   2.393
    1C        C  506   3.606   4.510   2.518
    1C        C  507   3.745   4.483   2.515
    1C        C  508   3.535   4.516   2.640
    1C        C  509   3.606   4.513   2.762
    1C        C  510   3.393   4.522   2.883
    1C        C  511   3.534   4.522   2.884
    1C        C  512   3.322   4.518   3.005
    1C        C  513   3.395   4.525   3.126
    1C        C  514   3.188   4.489   3.253
    1C        C  515   3.325   4.522   3.249
    1C        C  516   3.120   4.468   3.375
    1C        C  517   3.188   4.491   3.497
    1C        C  518   3.002   4.401   3.623
    1C        C  519   3.125   4.471   3.622
    1C        C  520   2.940   4.366   3.744
    1C        C  521   3.000   4.404   3.866
    1C        C  522   2.834   4.277   3.990
    1C        C  523   2.942   4.368   3.990
    1C        C  524   2.785   4.229   4.114
    1C        C  525   2.832   4.285   4.235
    1C        C  526   2.689   4.130   4.362
    1C        C  527   2.778   4.240   4.358
    1C        C  528   2.647   4.074   4.485
    1C        C  529   2.686   4.139   4.604
    1C        C  530   2.579   3.959   4.732
    1C        C  531   2.634   4.090   4.726
    1C        C  532   2.539   3.896   4.853
    1C        C  533   2.528   3.994   4.957
    1C        C  534   3.614   4.555   2.036
    1C        C  535   3.748   4.514   2.039
    1C        C  536   3.533   4.532   2.153
    1C        C  537   3.605   4.514   2.274
    1C        C  538   3.394   4.510   2.397
    1C        C  539   3.535   4.512   2.396
    1C        C  540   3.322   4.508   2.518
    1C        C  541   3.394   4.513   2.640
    1C        C  542   3.185   4.474   2.764
    1C        C  543   3.323   4.507   2.762
    1C        C  544   3.120   4.452   2.887
    1C        C  545   3.187   4.475   3.009
    1C        C  546   2.996   4.392   3.133
    1C        C  547   3.120   4.461   3.133
    1C        C  548   2.938   4.360   3.257
    1C        C  549   2.996   4.401   3.379
    1C        C  550   2.827   4.275   3.504
    1C        C  551   2.939   4.362   3.503
    1C        C  552   2.777   4.227   3.627
    1C        C  553   2.832   4.275   3.748
    1C        C  554   2.695   4.114   3.875
    1C        C  555   2.781   4.225   3.870
    1C        C  556   2.655   4.058   3.999
    1C        C  557   2.693   4.122   4.119
    1C        C  558   2.586   3.941   4.245
    1C        C  559   2.654   4.065   4.242
    1C        C  560   2.558   3.877   4.368
    1C        C  561   2.589   3.945   4.488
    1C        C  562   2.528   3.748   4.613
    1C        C  563   2.560   3.885   4.612
    1C        C  564   2.515   3.678   4.735
    1C        C  565   2.517   3.755   4.855
    1C        C  566   2.527   3.541   4.973
    1C        C  567   2.514   3.680   4.973
    1C        C  568   3.324   4.474   2.036
    1C        C  569   3.395   4.501   2.154
    1C        C  570   3.184   4.467   2.278
    1C        C  571   3.322   4.502   2.276
    1C        C  572   3.114   4.449   2.399
    1C        C  573   3.185   4.473   2.519
    1C        C  574   2.989   4.398   2.645
    1C        C  575   3.117   4.456   2.641
    1C        C  576   2.931   4.354   2.766
    1C        C  577   2.993   4.390   2.888
    1C        C  578   2.824   4.266   3.012
    1C        C  579   2.933   4.355   3.012
    1C        C  580   2.776   4.219   3.137
    1C        C  581   2.829   4.270   3.258
    1C        C  582   2.692   4.113   3.382
    1C        C  583   2.778   4.224   3.381
    1C        C  584   2.652   4.058   3.506
    1C        C  585   2.689   4.116   3.629
    1C        C  586   2.587   3.933   3.753
    1C        C  587   2.653   4.058   3.753
    1C        C  588   2.562   3.869   3.877
    1C        C  589   2.589   3.934   4.000
    1C        C  590   2.524   3.736   4.123
    1C        C  591   2.564   3.871   4.124
    1C        C  592   2.508   3.670   4.247
    1C        C  593   2.524   3.740   4.369
    1C        C  594   2.510   3.533   4.496
    1C        C  595   2.516   3.674   4.493
    1C        C  596   2.511   3.461   4.618
    1C        C  597   2.513   3.536   4.737
    1C        C  598   2.535   3.322   4.862
    1C        C  599   2.523   3.462   4.858
    1C        C  600   2.527   3.245   4.980
    1C        C  601   3.192   4.435   2.042
    1C        C  602   2.979   4.387   2.156
    1C        C  603   3.114   4.434   2.159
    1C        C  604   2.920   4.354   2.281
    1C        C  605   2.986   4.389   2.401
    1C        C  606   2.819   4.263   2.526
    1C        C  607   2.928   4.354   2.525
    1C        C  608   2.769   4.216   2.648
    1C        C  609   2.821   4.266   2.769
    1C        C  610   2.682   4.106   2.892
    1C        C  611   2.770   4.217   2.891
    1C        C  612   2.650   4.047   3.016
    1C        C  613   2.688   4.109   3.137
    1C        C  614   2.589   3.925   3.261
    1C        C  615   2.653   4.051   3.261
    1C        C  616   2.568   3.863   3.386
    1C        C  617   2.595   3.928   3.508
    1C        C  618   2.532   3.728   3.634
    1C        C  619   2.568   3.865   3.631
    1C        C  620   2.515   3.660   3.757
    1C        C  621   2.526   3.732   3.878
    1C        C  622   2.504   3.524   4.007
    1C        C  623   2.513   3.665   4.001
    1C        C  624   2.512   3.456   4.131
    1C        C  625   2.510   3.529   4.252
    1C        C  626   2.538   3.320   4.377
    1C        C  627   2.515   3.460   4.375
    1C        C  628   2.552   3.250   4.498
    1C        C  629   2.534   3.322   4.619
    1C        C  630   2.596   3.117   4.739
    1C        C  631   2.552   3.252   4.741
    1C        C  632   2.613   3.046   4.861
    1C        C  633   2.557   3.108   4.977
    1C        C  634   2.783   4.296   2.046
    1C        C  635   2.893   4.382   2.042
    1C        C  636   2.744   4.230   2.163
    1C        C  637   2.804   4.272   2.284
    1C        C  638   2.673   4.106   2.406
    1C        C  639   2.759   4.218   2.406
    1C        C  640   2.632   4.048   2.529
    1C        C  641   2.676   4.108   2.648
    1C        C  642   2.577   3.921   2.774
    1C        C  643   2.643   4.045   2.770
    1C        C  644   2.555   3.853   2.896
    1C        C  645   2.587   3.920   3.017
    1C        C  646   2.528   3.720   3.146
    1C        C  647   2.561   3.857   3.140
    1C        C  648   2.513   3.654   3.271
    1C        C  649   2.528   3.727   3.390
    1C        C  650   2.508   3.516   3.514
    1C        C  651   2.516   3.657   3.513
    1C        C  652   2.510   3.449   3.638
    1C        C  653   2.505   3.519   3.761
    1C        C  654   2.531   3.313   3.886
    1C        C  655   2.508   3.453   3.886
    1C        C  656   2.556   3.249   4.010
    1C        C  657   2.540   3.317   4.133
    1C        C  658   2.607   3.118   4.255
    1C        C  659   2.554   3.249   4.256
    1C        C  660   2.634   3.052   4.377
    1C        C  661   2.603   3.118   4.498
    1C        C  662   2.711   2.935   4.622
    1C        C  663   2.630   3.051   4.619
    1C        C  664   2.753   2.875   4.743
    1C        C  665   2.693   2.927   4.861
    1C        C  666   2.740   2.867   4.979
    1C        C  667   2.672   4.023   2.048
    1C        C  668   2.686   4.101   2.164
    1C        C  669   2.584   3.913   2.289
    1C        C  670   2.640   4.044   2.284
    1C        C  671   2.552   3.846   2.409
    1C        C  672   2.578   3.918   2.528
    1C        C  673   2.516   3.718   2.655
    1C        C  674   2.555   3.854   2.652
    1C        C  675   2.506   3.648   2.777
    1C        C  676   2.522   3.716   2.900
    1C        C  677   2.498   3.509   3.025
    1C        C  678   2.514   3.649   3.025
    1C        C  679   2.498   3.442   3.150
    1C        C  680   2.497   3.514   3.272
    1C        C  681   2.528   3.303   3.396
    1C        C  682   2.503   3.442   3.394
    1C        C  683   2.552   3.241   3.521
    1C        C  684   2.534   3.310   3.642
    1C        C  685   2.606   3.112   3.766
    1C        C  686   2.552   3.243   3.765
    1C        C  687   2.637   3.050   3.889
    1C        C  688   2.609   3.118   4.009
    1C        C  689   2.706   2.932   4.135
    1C        C  690   2.636   3.055   4.132
    1C        C  691   2.750   2.875   4.257
    1C        C  692   2.709   2.932   4.379
    1C        C  693   2.753   2.876   4.500
    1C        C  694   2.617   3.894   2.050
    1C        C  695   2.525   3.705   2.173
    1C        C  696   2.575   3.837   2.171
    1C        C  697   2.500   3.636   2.294
    1C        C  698   2.509   3.711   2.413
    1C        C  699   2.484   3.503   2.539
    1C        C  700   2.498   3.643   2.536
    1C        C  701   2.496   3.433   2.661
    1C        C  702   2.495   3.507   2.781
    1C        C  703   2.526   3.298   2.908
    1C        C  704   2.499   3.437   2.904
    1C        C  705   2.548   3.232   3.031
    1C        C  706   2.528   3.304   3.151
    1C        C  707   2.595   3.104   3.277
    1C        C  708   2.544   3.236   3.274
    1C        C  709   2.630   3.042   3.399
    1C        C  710   2.605   3.110   3.521
    1C        C  711   2.708   2.926   3.646
    1C        C  712   2.636   3.047   3.644
    1C        C  713   2.756   2.875   3.769
    1C        C  714   2.712   2.930   3.892
    1C        C  715   2.755   2.877   4.015
    1C        C  716   2.450   3.497   2.059
    1C        C  717   2.492   3.630   2.059
    1C        C  718   2.465   3.419   2.178
    1C        C  719   2.474   3.496   2.297
    1C        C  720   2.513   3.289   2.421
    1C        C  721   2.482   3.427   2.420
    1C        C  722   2.534   3.222   2.544
    1C        C  723   2.525   3.295   2.664
    1C        C  724   2.592   3.095   2.788
    1C        C  725   2.541   3.227   2.787
    1C        C  726   2.621   3.033   2.911
    1C        C  727   2.593   3.098   3.033
    1C        C  728   2.706   2.921   3.154
    1C        C  729   2.628   3.039   3.156
    1C        C  730   2.750   2.868   3.278
    1C        C  731   2.708   2.924   3.400
    1C        C  732   2.751   2.870   3.524
    1C        C  733   2.485   3.195   2.069
    1C        C  734   2.487   3.278   2.181
    1C        C  735   2.583   3.083   2.302
    1C        C  736   2.527   3.214   2.302
    1C        C  737   2.615   3.021   2.425
    1C        C  738   2.586   3.091   2.544
    1C        C  739   2.695   2.909   2.666
    1C        C  740   2.618   3.028   2.666
    1C        C  741   2.744   2.858   2.788
    1C        C  742   2.700   2.916   2.909
    1C        C  743   2.747   2.863   3.032
    1C        C  744   2.548   3.070   2.066
    1C        C  745   2.691   2.902   2.179
    1C        C  746   2.609   3.017   2.180
    1C        C  747   2.733   2.844   2.301
    1C        C  748   2.687   2.899   2.423
    1C        C  749   2.733   2.846   2.545
    1C        C  750   2.738   2.838   2.064
    1C        C  751   3.656   2.300   1.989
    1C        O  752   3.643   2.185   2.037
    1C        O  753   3.618   2.293   1.854
    1C        C  754   4.596   3.057   1.952
    1C        O  755   4.558   3.056   1.832
    1C        O  756   4.729   3.016   1.968
    1C        C  757   4.447   4.212   1.955
    1C        O  758   4.533   4.298   1.989
    1C        O  759   4.431   4.213   1.816
    1C        C  760   3.568   4.645   1.927
    1C        O  761   3.575   4.768   1.951
    1C        O  762   3.546   4.602   1.796
    1C        C  763   2.863   4.503   1.962
    1C        O  764   2.862   4.497   1.836
    1C        O  765   2.780   4.608   2.001
    1C        C  766   2.328   3.483   1.977
    1C        O  767   2.342   3.439   1.859
    1C        O  768   2.200   3.454   2.028
    1C        C  769   4.697   3.589   5.043
    1C        O  770   4.686   3.568   5.167
    1C        O  771   4.809   3.527   4.988
    1C        C  772   4.286   4.466   5.006
    1C        O  773   4.300   4.445   5.130
    1C        O  774   4.343   4.579   4.947
    1C        C  775   4.138   2.528   5.083
    1C        O  776   4.197   2.419   5.062
    1C        O  777   4.085   2.528   5.213
    1C        C  778   2.898   4.512   5.077
    1C        O  779   2.857   4.630   5.060
    1C        O  780   2.906   4.479   5.213
    1C        C  781   2.480   3.028   5.075
    1C        O  782   2.384   2.954   5.040
    1C        O  783   2.442   3.069   5.203
    1C        C  784   2.446   3.982   5.080
    1C        O  785   2.321   3.991   5.069
    1C        O  786   2.496   3.934   5.202
    1C        C  787   2.959   2.439   1.974
    1C        O  788   2.941   2.479   1.856
    1C        O  789   2.929   2.303   1.980
    1C        C  790   3.166   2.354   5.028
    1C        O  791   3.168   2.252   4.954
    1C        O  792   3.177   2.331   5.166
    1C        H  793   4.270   3.023   5.048
    1C        H  794   4.136   2.836   5.042
    1C        H  795   4.481   3.129   5.064
    1C        H  796   4.480   3.376   5.054
    1C        H  797   4.494   3.777   5.050
    1C        H  798   4.416   3.977   5.055
    1C        H  799   4.275   4.157   5.047
    1C        H  800   4.016   4.506   5.036
    1C        H  801   3.817   4.632   5.018
    1C        H  802   3.585   4.664   5.015
    1C        H  803   3.393   4.435   5.014
    1C        H  804   3.163   4.489   5.055
    1C        H  805   3.901   2.447   5.040
    1C        H  806   3.663   2.396   5.041
    1C        H  807   2.997   2.548   5.064
    1C        H  808   3.443   2.506   5.074
    1C        H  809   2.837   2.707   5.070
    1C        H  810   2.702   2.895   5.075
    1C        H  811   2.457   3.276   5.054
    1C        H  812   2.492   3.497   5.064
    1C        H  813   2.477   3.726   5.062
    1C        H  814   2.597   4.181   5.042
    1C        H  815   2.766   4.302   5.054
    1C        H  816   2.707   2.875   1.968
    1C        H  817   2.836   2.674   1.976
    1C        H  818   3.202   2.396   2.001
    1C        H  819   3.424   2.413   1.979
    1C        H  820   3.833   2.545   1.973
    1C        H  821   4.058   2.616   1.966
    1C        H  822   4.283   2.700   1.989
    1C        H  823   4.343   2.943   1.973
    1C        H  824   4.629   3.299   1.994
    1C        H  825   4.490   3.512   1.955
    1C        H  826   4.478   3.739   1.956
    1C        H  827   3.793   4.498   1.944
    1C        H  828   3.946   4.344   1.944
    1C        H  829   4.190   4.317   1.957
    1C        H  830   4.476   3.951   1.958
    1C        H  831   2.642   3.837   1.963
    1C        H  832   2.695   4.060   1.950
    1C        H  833   2.715   4.297   1.963
    1C        H  834   3.360   4.500   1.938
    1C        H  835   3.151   4.389   1.955
    1C        H  836   2.532   3.010   1.979
    1C        H  837   2.402   3.203   2.001
    1C        H  838   2.496   3.677   1.963
    2V3OU   H29  839   2.799   3.541   5.126
    2V3OU   C27  840   2.778   3.497   5.226
    2V3OU   H27  841   2.719   3.569   5.288
    2V3OU   H28  842   2.726   3.399   5.215
    2V3OU   O11  843   2.907   3.471   5.283
    2V3OU   C15  844   2.919   3.390   5.394
    2V3OU   C13  845   3.049   3.367   5.445
    2V3OU   C14  846   3.069   3.260   5.533
    2V3OU   C16  847   2.968   3.179   5.582
    2V3OU    H6  848   2.990   3.098   5.653
    2V3OU   C12  849   3.206   3.227   5.577
    2V3OU    O2  850   3.239   3.116   5.626
    2V3OU   C10  851   3.318   3.307   5.525
    2V3OU    C8  852   3.452   3.271   5.539
    2V3OU   O10  853   3.486   3.153   5.598
    2V3OU   H26  854   3.400   3.115   5.621
    2V3OU    C6  855   3.560   3.343   5.478
    2V3OU    C5  856   3.532   3.460   5.409
    2V3OU    C4  857   3.700   3.293   5.473
    2V3OU    H4  858   3.714   3.223   5.561
    2V3OU    H5  859   3.703   3.227   5.382
    2V3OU    C2  860   3.812   3.396   5.470
    2V3OU    O6  861   3.810   3.477   5.587
    2V3OU   H21  862   3.759   3.556   5.562
    2V3OU    C3  863   3.782   3.494   5.356
    2V3OU    H2  864   3.863   3.572   5.353
    2V3OU    H3  865   3.785   3.442   5.256
    2V3OU   C25  866   3.949   3.329   5.455
    2V3OU    O7  867   3.994   3.293   5.346
    2V3OU   C26  868   4.024   3.289   5.581
    2V3OU   H22  869   4.063   3.386   5.621
    2V3OU   H23  870   4.110   3.222   5.556
    2V3OU    O8  871   3.963   3.204   5.676
    2V3OU   H24  872   3.928   3.263   5.744
    2V3OU    C1  873   3.643   3.553   5.373
    2V3OU    H1  874   3.621   3.613   5.279
    2V3OU    O3  875   3.655   3.652   5.475
    2V3OU   C19  876   3.614   3.789   5.469
    2V3OU    H9  877   3.512   3.800   5.421
    2V3OU    O4  878   3.710   3.849   5.386
    2V3OU   C20  879   3.843   3.873   5.431
    2V3OU   H10  880   3.892   3.772   5.443
    2V3OU   C24  881   3.606   3.854   5.608
    2V3OU   H16  882   3.539   3.793   5.674
    2V3OU   H17  883   3.564   3.956   5.590
    2V3OU   C23  884   3.746   3.872   5.667
    2V3OU   H15  885   3.784   3.766   5.684
    2V3OU    N1  886   3.733   3.946   5.791
    2V3OU   H19  887   3.806   3.931   5.858
    2V3OU   H20  888   3.647   3.921   5.834
    2V3OU   C21  889   3.841   3.944   5.567
    2V3OU   H11  890   3.947   3.928   5.602
    2V3OU    O5  891   3.817   4.084   5.572
    2V3OU   H18  892   3.784   4.097   5.662
    2V3OU   C22  893   3.911   3.949   5.318
    2V3OU   H12  894   3.857   4.045   5.300
    2V3OU   H13  895   3.906   3.888   5.224
    2V3OU   H14  896   4.021   3.959   5.339
    2V3OU   C11  897   3.154   3.469   5.435
    2V3OU    O1  898   3.136   3.582   5.385
    2V3OU    C9  899   3.294   3.422   5.446
    2V3OU    C7  900   3.396   3.501   5.392
    2V3OU    O9  901   3.384   3.613   5.313
    2V3OU   H25  902   3.288   3.630   5.317
    2V3OU   C17  903   2.815   3.312   5.449
    2V3OU    H7  904   2.714   3.342   5.418
    2V3OU   C18  905   2.839   3.209   5.539
    2V3OU    H8  906   2.754   3.147   5.571
    3SOL     OW  907   4.076   3.764   4.061
    3SOL    HW1  908   3.977   3.750   4.054
    3SOL    HW2  909   4.119   3.748   3.972
    4SOL     OW  910   7.006   0.226   0.333
    4SOL    HW1  911   6.988   0.275   0.418
    4SOL    HW2  912   6.928   0.235   0.272
    5SOL     OW  913   5.017   1.900   1.425
    5SOL    HW1  914   5.011   2.000   1.418
    5SOL    HW2  915   4.931   1.859   1.396
    6SOL     OW  916   5.903   0.618   2.673
    6SOL    HW1  917   5.818   0.565   2.683
    6SOL    HW2  918   5.968   0.591   2.744
    7SOL     OW  919   1.519   3.862   4.637
    7SOL    HW1  920   1.496   3.912   4.721
    7SOL    HW2  921   1.548   3.926   4.567
    8SOL     OW  922   1.731   3.804   5.306
    8SOL    HW1  923   1.778   3.731   5.256
    8SOL    HW2  924   1.739   3.788   5.404
    9SOL     OW  925   6.714   0.854   6.228
    9SOL    HW1  926   6.712   0.823   6.323
    9SOL    HW2  927   6.745   0.949   6.225
   10SOL     OW  928   5.000   4.251   2.740
   10SOL    HW1  929   4.934   4.193   2.691
   10SOL    HW2  930   4.987   4.346   2.712
   11SOL     OW  931   2.268   1.517   0.125
   11SOL    HW1  932   2.287   1.614   0.106
   11SOL    HW2  933   2.266   1.503   0.224
   12SOL     OW  934   3.088   4.975   3.390
   12SOL    HW1  935   3.136   4.932   3.467
   12SOL    HW2  936   3.140   5.055   3.360
   13SOL     OW  937   4.850   6.475   1.200
   13SOL    HW1  938   4.913   6.420   1.254
   13SOL    HW2  939   4.900   6.551   1.157
   14SOL     OW  940   4.418   5.453   5.006
   14SOL    HW1  941   4.465   5.368   5.029
   14SOL    HW2  942   4.430   5.519   5.079
   15SOL     OW  943   6.617   6.219   5.912
   15SOL    HW1  944   6.639   6.259   5.823
   15SOL    HW2  945   6.635   6.285   5.984
   16SOL     OW  946   0.961   3.936   4.974
   16SOL    HW1  947   0.904   3.864   4.935
   16SOL    HW2  948   0.907   4.021   4.981
   17SOL     OW  949   6.212   1.964   5.270
   17SOL    HW1  950   6.188   1.868   5.255
   17SOL    HW2  951   6.269   1.995   5.194
   18SOL     OW  952   2.685   1.113   5.724
   18SOL    HW1  953   2.689   1.140   5.820
   18SOL    HW2  954   2.735   1.179   5.668
   19SOL     OW  955   2.419   1.043   3.022
   19SOL    HW1  956   2.489   0.979   2.989
   19SOL    HW2  957   2.356   1.066   2.948
   20SOL     OW  958   6.471   1.699   5.619
   20SOL    HW1  959   6.490   1.745   5.532
   20SOL    HW2  960   6.376   1.668   5.620
   21SOL     OW  961   2.720   4.730   3.568
   21SOL    HW1  962   2.634   4.703   3.524
   21SOL    HW2  963   2.789   4.747   3.499
   22SOL     OW  964   1.720   6.920   6.553
   22SOL    HW1  965   1.718   6.868   6.639
   22SOL    HW2  966   1.722   6.857   6.476
   23SOL     OW  967   6.019   4.644   1.123
   23SOL    HW1  968   5.974   4.632   1.035
   23SOL    HW2  969   6.037   4.741   1.139
   24SOL     OW  970   4.466   1.292   0.907
   24SOL    HW1  971   4.548   1.259   0.861
   24SOL    HW2  972   4.477   1.388   0.930
   25SOL     OW  973   1.253   0.843   4.723
   25SOL    HW1  974   1.203   0.887   4.798
   25SOL    HW2  975   1.332   0.794   4.760
   26SOL     OW  976   1.125   2.807   6.820
   26SOL    HW1  977   1.151   2.774   6.911
   26SOL    HW2  978   1.198   2.864   6.782
   27SOL     OW  979   6.340   0.787   1.029
   27SOL    HW1  980   6.319   0.848   0.952
   27SOL    HW2  981   6.417   0.824   1.080
   28SOL     OW  982   2.708   0.681   5.183
   28SOL    HW1  983   2.793   0.629   5.189
   28SOL    HW2  984   2.630   0.620   5.190
   29SOL     OW  985   0.712   0.625   0.966
   29SOL    HW1  986   0.673   0.711   0.933
   29SOL    HW2  987   0.704   0.620   1.065
   30SOL     OW  988   4.332   0.382   5.212
   30SOL    HW1  989   4.423   0.375   5.253
   30SOL    HW2  990   4.265   0.402   5.284
   31SOL     OW  991   1.050   4.013   5.758
   31SOL    HW1  992   0.964   3.963   5.745
   31SOL    HW2  993   1.124   3.965   5.711
   32SOL     OW  994   3.162   0.482   1.050
   32SOL    HW1  995   3.124   0.429   1.126
   32SOL    HW2  996   3.110   0.462   0.966
   33SOL     OW  997   1.305   5.461   5.850
   33SOL    HW1  998   1.332   5.513   5.931
   33SOL    HW2  999   1.206   5.458   5.844
   34SOL     OW 1000   2.289   5.457   5.513
   34SOL    HW1 1001   2.373   5.416   5.550
   34SOL    HW2 1002   2.235   5.386   5.467
   35SOL     OW 1003   2.728   3.326   6.785
   35SOL    HW1 1004   2.646   3.269   6.786
   35SOL    HW2 1005   2.707   3.415   6.744
   36SOL     OW 1006   4.566   1.201   4.962
   36SOL    HW1 1007   4.615   1.190   4.875
   36SOL    HW2 1008   4.571   1.116   5.014
   37SOL     OW 1009   2.911   0.686   4.374
   37SOL    HW1 1010   2.901   0.610   4.438
   37SOL    HW2 1011   2.875   0.659   4.284
   38SOL     OW 1012   0.115   4.387   2.839
   38SOL    HW1 1013   0.144   4.335   2.919
   38SOL    HW2 1014   0.119   4.485   2.860
   39SOL     OW 1015   6.764   5.431   6.986
   39SOL    HW1 1016   6.740   5.518   6.943
   39SOL    HW2 1017   6.689   5.366   6.975
   40SOL     OW 1018   4.026   0.986   6.397
   40SOL    HW1 1019   4.075   1.067   6.428
   40SOL    HW2 1020   3.993   0.935   6.476
   41SOL     OW 1021   5.910   3.914   1.513
   41SOL    HW1 1022   5.912   3.981   1.439
   41SOL    HW2 1023   5.963   3.948   1.590
   42SOL     OW 1024   2.315   5.757   6.242
   42SOL    HW1 1025   2.266   5.687   6.191
   42SOL    HW2 1026   2.301   5.846   6.199
   43SOL     OW 1027   3.901   6.998   4.431
   43SOL    HW1 1028   3.954   0.065   4.419
   43SOL    HW2 1029   3.953   6.935   4.489
   44SOL     OW 1030   6.920   1.053   5.844
   44SOL    HW1 1031   6.950   1.123   5.909
   44SOL    HW2 1032   6.888   1.096   5.761
   45SOL     OW 1033   2.909   5.321   0.242
   45SOL    HW1 1034   3.002   5.284   0.232
   45SOL    HW2 1035   2.853   5.289   0.165
   46SOL     OW 1036   0.538   2.725   4.198
   46SOL    HW1 1037   0.633   2.748   4.218
   46SOL    HW2 1038   0.510   2.770   4.113
   47SOL     OW 1039   5.675   3.094   0.626
   47SOL    HW1 1040   5.710   3.058   0.713
   47SOL    HW2 1041   5.683   3.024   0.555
   48SOL     OW 1042   6.980   3.579   1.045
   48SOL    HW1 1043   0.040   3.552   1.102
   48SOL    HW2 1044   6.895   3.562   1.096
   49SOL     OW 1045   3.919   4.235   0.115
   49SOL    HW1 1046   3.823   4.207   0.107
   49SOL    HW2 1047   3.954   4.206   0.204
   50SOL     OW 1048   6.360   3.038   0.033
   50SOL    HW1 1049   6.401   3.074   6.967
   50SOL    HW2 1050   6.305   3.109   0.077
   51SOL     OW 1051   2.536   5.970   3.124
   51SOL    HW1 1052   2.531   5.872   3.106
   51SOL    HW2 1053   2.626   6.004   3.096
   52SOL     OW 1054   5.451   2.698   1.229
   52SOL    HW1 1055   5.414   2.611   1.196
   52SOL    HW2 1056   5.496   2.683   1.317
   53SOL     OW 1057   4.308   0.108   2.400
   53SOL    HW1 1058   4.353   0.167   2.333
   53SOL    HW2 1059   4.352   0.018   2.400
   54SOL     OW 1060   5.590   6.852   6.692
   54SOL    HW1 1061   5.501   6.824   6.728
   54SOL    HW2 1062   5.577   6.922   6.623
   55SOL     OW 1063   0.851   3.357   6.961
   55SOL    HW1 1064   0.915   3.289   6.925
   55SOL    HW2 1065   0.892   3.448   6.953
   56SOL     OW 1066   0.874   2.730   7.000
   56SOL    HW1 1067   0.803   2.771   0.038
   56SOL    HW2 1068   0.962   2.775   0.001
   57SOL     OW 1069   4.394   6.652   6.903
   57SOL    HW1 1070   4.453   6.595   6.960
   57SOL    HW2 1071   4.438   6.667   6.814
   58SOL     OW 1072   0.774   0.353   6.810
   58SOL    HW1 1073   0.790   0.289   6.885
   58SOL    HW2 1074   0.680   0.343   6.778
   59SOL     OW 1075   5.144   2.932   5.975
   59SOL    HW1 1076   5.212   2.920   5.903
   59SOL    HW2 1077   5.181   2.990   6.047
   60SOL     OW 1078   5.404   0.753   2.876
   60SOL    HW1 1079   5.345   0.809   2.934
   60SOL    HW2 1080   5.489   0.733   2.925
   61SOL     OW 1081   6.393   5.756   4.759
   61SOL    HW1 1082   6.483   5.714   4.755
   61SOL    HW2 1083   6.330   5.707   4.699
   62SOL     OW 1084   6.266   2.747   2.042
   62SOL    HW1 1085   6.355   2.716   2.006
   62SOL    HW2 1086   6.198   2.675   2.028
   63SOL     OW 1087   4.334   6.550   4.967
   63SOL    HW1 1088   4.330   6.649   4.959
   63SOL    HW2 1089   4.245   6.510   4.945
   64SOL     OW 1090   0.762   4.196   6.030
   64SOL    HW1 1091   0.681   4.209   6.087
   64SOL    HW2 1092   0.840   4.240   6.074
   65SOL     OW 1093   0.691   6.750   5.619
   65SOL    HW1 1094   0.615   6.776   5.679
   65SOL    HW2 1095   0.751   6.829   5.605
   66SOL     OW 1096   4.302   0.792   2.082
   66SOL    HW1 1097   4.271   0.886   2.100
   66SOL    HW2 1098   4.228   0.741   2.039
   67SOL     OW 1099   0.473   2.906   1.327
   67SOL    HW1 1100   0.548   2.954   1.373
   67SOL    HW2 1101   0.498   2.888   1.232
   68SOL     OW 1102   6.952   1.996   5.152
   68SOL    HW1 1103   6.921   2.013   5.059
   68SOL    HW2 1104   6.874   2.005   5.215
   69SOL     OW 1105   0.632   6.063   6.255
   69SOL    HW1 1106   0.608   6.113   6.338
   69SOL    HW2 1107   0.675   6.126   6.190
   70SOL     OW 1108   5.018   3.221   4.374
   70SOL    HW1 1109   5.117   3.224   4.361
   70SOL    HW2 1110   4.976   3.172   4.297
   71SOL     OW 1111   5.018   1.561   4.671
   71SOL    HW1 1112   4.968   1.546   4.756
   71SOL    HW2 1113   4.977   1.637   4.621
   72SOL     OW 1114   0.133   0.743   3.475
   72SOL    HW1 1115   0.138   0.843   3.467
   72SOL    HW2 1116   0.210   0.702   3.427
   73SOL     OW 1117   3.030   0.888   1.269
   73SOL    HW1 1118   2.985   0.818   1.324
   73SOL    HW2 1119   2.963   0.958   1.243
   74SOL     OW 1120   1.804   2.102   0.712
   74SOL    HW1 1121   1.849   2.015   0.733
   74SOL    HW2 1122   1.848   2.144   0.633
   75SOL     OW 1123   3.513   3.659   0.304
   75SOL    HW1 1124   3.436   3.718   0.280
   75SOL    HW2 1125   3.516   3.646   0.403
   76SOL     OW 1126   3.257   4.822   5.231
   76SOL    HW1 1127   3.281   4.888   5.302
   76SOL    HW2 1128   3.165   4.785   5.249
   77SOL     OW 1129   1.044   4.556   4.553
   77SOL    HW1 1130   1.112   4.601   4.495
   77SOL    HW2 1131   1.087   4.525   4.637
   78SOL     OW 1132   4.847   1.859   0.763
   78SOL    HW1 1133   4.762   1.894   0.725
   78SOL    HW2 1134   4.841   1.760   0.772
   79SOL     OW 1135   1.345   4.491   3.069
   79SOL    HW1 1136   1.272   4.473   3.003
   79SOL    HW2 1137   1.420   4.428   3.053
   80SOL     OW 1138   4.090   0.922   5.134
   80SOL    HW1 1139   4.122   0.948   5.043
   80SOL    HW2 1140   3.990   0.924   5.137
   81SOL     OW 1141   3.922   5.834   1.121
   81SOL    HW1 1142   3.965   5.922   1.138
   81SOL    HW2 1143   3.840   5.825   1.178
   82SOL     OW 1144   2.426   6.250   1.990
   82SOL    HW1 1145   2.493   6.198   2.044
   82SOL    HW2 1146   2.432   6.223   1.894
   83SOL     OW 1147   5.283   0.722   4.499
   83SOL    HW1 1148   5.340   0.691   4.423
   83SOL    HW2 1149   5.338   0.725   4.582
   84SOL     OW 1150   5.197   2.067   1.828
   84SOL    HW1 1151   5.151   2.015   1.756
   84SOL    HW2 1152   5.274   2.014   1.863
   85SOL     OW 1153   2.061   0.253   4.169
   85SOL    HW1 1154   2.118   0.236   4.088
   85SOL    HW2 1155   2.117   0.240   4.251
   86SOL     OW 1156   6.178   0.177   6.896
   86SOL    HW1 1157   6.208   0.217   6.809
   86SOL    HW2 1158   6.168   0.249   6.964
   87SOL     OW 1159   2.721   4.347   6.524
   87SOL    HW1 1160   2.690   4.252   6.529
   87SOL    HW2 1161   2.755   4.365   6.431
   88SOL     OW 1162   3.437   4.160   6.857
   88SOL    HW1 1163   3.514   4.189   6.801
   88SOL    HW2 1164   3.461   4.075   6.905
   89SOL     OW 1165   3.045   3.877   4.089
   89SOL    HW1 1166   3.058   3.930   4.005
   89SOL    HW2 1167   3.073   3.932   4.167
   90SOL     OW 1168   4.852   3.860   2.546
   90SOL    HW1 1169   4.827   3.764   2.537
   90SOL    HW2 1170   4.834   3.907   2.460
   91SOL     OW 1171   4.650   5.297   5.443
   91SOL    HW1 1172   4.570   5.356   5.449
   91SOL    HW2 1173   4.728   5.350   5.409
   92SOL     OW 1174   5.809   3.511   6.238
   92SOL    HW1 1175   5.890   3.535   6.291
   92SOL    HW2 1176   5.759   3.593   6.212
   93SOL     OW 1177   2.891   3.625   2.462
   93SOL    HW1 1178   2.882   3.530   2.434
   93SOL    HW2 1179   2.871   3.684   2.383
   94SOL     OW 1180   2.535   1.581   5.031
   94SOL    HW1 1181   2.524   1.491   4.988
   94SOL    HW2 1182   2.460   1.596   5.095
   95SOL     OW 1183   0.705   0.786   4.148
   95SOL    HW1 1184   0.766   0.721   4.194
   95SOL    HW2 1185   0.611   0.751   4.151
   96SOL     OW 1186   6.159   5.043   0.427
   96SOL    HW1 1187   6.091   5.029   0.499
   96SOL    HW2 1188   6.154   4.968   0.361
   97SOL     OW 1189   1.993   5.098   5.848
   97SOL    HW1 1190   2.015   5.194   5.832
   97SOL    HW2 1191   1.911   5.091   5.904
   98SOL     OW 1192   1.630   2.129   3.293
   98SOL    HW1 1193   1.682   2.212   3.272
   98SOL    HW2 1194   1.638   2.064   3.217
   99SOL     OW 1195   3.723   3.604   5.045
   99SOL    HW1 1196   3.670   3.680   5.009
   99SOL    HW2 1197   3.819   3.630   5.051
  100SOL     OW 1198   6.607   1.221   4.716
  100SOL    HW1 1199   6.615   1.280   4.636
  100SOL    HW2 1200   6.529   1.159   4.705
  101SOL     OW 1201   6.645   3.455   2.455
  101SOL    HW1 1202   6.610   3.391   2.387
  101SOL    HW2 1203   6.688   3.532   2.409
  102SOL     OW 1204   4.116   0.026   0.053
  102SOL    HW1 1205   4.175   7.007   7.000
  102SOL    HW2 1206   4.169   0.083   0.115
  103SOL     OW 1207   3.497   0.918   2.192
  103SOL    HW1 1208   3.402   0.948   2.180
  103SOL    HW2 1209   3.557   0.998   2.198
  104SOL     OW 1210   6.828   4.368   2.104
  104SOL    HW1 1211   6.878   4.293   2.059
  104SOL    HW2 1212   6.863   4.381   2.196
  105SOL     OW 1213   6.206   1.120   5.455
  105SOL    HW1 1214   6.127   1.150   5.402
  105SOL    HW2 1215   6.284   1.181   5.437
  106SOL     OW 1216   5.297   4.841   1.708
  106SOL    HW1 1217   5.242   4.917   1.674
  106SOL    HW2 1218   5.333   4.864   1.799
  107SOL     OW 1219   6.124   6.892   1.300
  107SOL    HW1 1220   6.218   6.910   1.270
  107SOL    HW2 1221   6.069   6.974   1.289
  108SOL     OW 1222   2.108   1.196   4.781
  108SOL    HW1 1223   2.050   1.271   4.814
  108SOL    HW2 1224   2.076   1.166   4.691
  109SOL     OW 1225   1.808   1.306   4.197
  109SOL    HW1 1226   1.903   1.317   4.227
  109SOL    HW2 1227   1.768   1.226   4.243
  110SOL     OW 1228   3.560   4.291   5.616
  110SOL    HW1 1229   3.621   4.272   5.539
  110SOL    HW2 1230   3.465   4.294   5.584
  111SOL     OW 1231   6.471   1.865   1.346
  111SOL    HW1 1232   6.455   1.952   1.300
  111SOL    HW2 1233   6.404   1.852   1.419
  112SOL     OW 1234   4.968   6.286   6.881
  112SOL    HW1 1235   4.973   6.241   6.792
  112SOL    HW2 1236   4.976   6.385   6.868
  113SOL     OW 1237   0.543   6.075   2.209
  113SOL    HW1 1238   0.566   5.981   2.185
  113SOL    HW2 1239   0.585   6.099   2.296
  114SOL     OW 1240   0.362   3.791   2.779
  114SOL    HW1 1241   0.357   3.695   2.752
  114SOL    HW2 1242   0.411   3.799   2.865
  115SOL     OW 1243   5.612   0.179   3.817
  115SOL    HW1 1244   5.535   0.152   3.875
  115SOL    HW2 1245   5.667   0.098   3.795
  116SOL     OW 1246   0.061   4.942   0.224
  116SOL    HW1 1247   7.003   5.007   0.223
  116SOL    HW2 1248   0.144   4.988   0.258
  117SOL     OW 1249   2.013   2.316   0.446
  117SOL    HW1 1250   2.075   2.361   0.381
  117SOL    HW2 1251   2.051   2.227   0.470
  118SOL     OW 1252   1.384   2.109   3.864
  118SOL    HW1 1253   1.323   2.057   3.804
  118SOL    HW2 1254   1.466   2.056   3.884
  119SOL     OW 1255   6.281   6.649   6.055
  119SOL    HW1 1256   6.213   6.687   5.993
  119SOL    HW2 1257   6.313   6.561   6.020
  120SOL     OW 1258   4.968   2.628   4.680
  120SOL    HW1 1259   4.897   2.616   4.610
  120SOL    HW2 1260   5.018   2.713   4.662
  121SOL     OW 1261   1.161   4.849   6.793
  121SOL    HW1 1262   1.189   4.860   6.888
  121SOL    HW2 1263   1.179   4.933   6.742
  122SOL     OW 1264   0.579   4.418   6.469
  122SOL    HW1 1265   0.541   4.505   6.437
  122SOL    HW2 1266   0.548   4.400   6.562
  123SOL     OW 1267   1.150   1.587   1.676
  123SOL    HW1 1268   1.193   1.576   1.766
  123SOL    HW2 1269   1.144   1.684   1.654
  124SOL     OW 1270   2.023   2.633   0.519
  124SOL    HW1 1271   1.966   2.560   0.557
  124SOL    HW2 1272   1.972   2.684   0.450
  125SOL     OW 1273   3.866   3.804   0.377
  125SOL    HW1 1274   3.837   3.720   0.331
  125SOL    HW2 1275   3.894   3.784   0.470
  126SOL     OW 1276   3.975   3.775   4.616
  126SOL    HW1 1277   4.045   3.750   4.683
  126SOL    HW2 1278   4.015   3.780   4.525
  127SOL     OW 1279   0.488   5.531   5.387
  127SOL    HW1 1280   0.505   5.464   5.459
  127SOL    HW2 1281   0.443   5.611   5.426
  128SOL     OW 1282   4.231   3.231   6.901
  128SOL    HW1 1283   4.157   3.248   6.966
  128SOL    HW2 1284   4.248   3.132   6.897
  129SOL     OW 1285   1.279   5.434   1.775
  129SOL    HW1 1286   1.213   5.409   1.704
  129SOL    HW2 1287   1.361   5.473   1.732
  130SOL     OW 1288   6.055   2.953   4.544
  130SOL    HW1 1289   6.004   2.943   4.630
  130SOL    HW2 1290   6.153   2.953   4.564
  131SOL     OW 1291   0.570   2.211   3.649
  131SOL    HW1 1292   0.492   2.166   3.605
  131SOL    HW2 1293   0.647   2.214   3.585
  132SOL     OW 1294   3.891   3.637   2.558
  132SOL    HW1 1295   3.891   3.729   2.520
  132SOL    HW2 1296   3.947   3.635   2.641
  133SOL     OW 1297   5.533   6.224   6.484
  133SOL    HW1 1298   5.594   6.156   6.524
  133SOL    HW2 1299   5.583   6.277   6.415
  134SOL     OW 1300   5.318   1.520   1.771
  134SOL    HW1 1301   5.239   1.514   1.832
  134SOL    HW2 1302   5.384   1.449   1.793
  135SOL     OW 1303   4.815   2.707   3.521
  135SOL    HW1 1304   4.866   2.621   3.511
  135SOL    HW2 1305   4.850   2.774   3.455
  136SOL     OW 1306   3.450   6.956   6.467
  136SOL    HW1 1307   3.470   6.887   6.538
  136SOL    HW2 1308   3.354   6.982   6.472
  137SOL     OW 1309   3.127   2.866   5.984
  137SOL    HW1 1310   3.131   2.963   6.007
  137SOL    HW2 1311   3.109   2.856   5.886
  138SOL     OW 1312   0.559   5.476   6.346
  138SOL    HW1 1313   0.645   5.460   6.296
  138SOL    HW2 1314   0.514   5.558   6.309
  139SOL     OW 1315   2.266   6.158   0.905
  139SOL    HW1 1316   2.352   6.121   0.941
  139SOL    HW2 1317   2.281   6.195   0.814
  140SOL     OW 1318   3.210   0.272   1.255
  140SOL    HW1 1319   3.136   0.209   1.232
  140SOL    HW2 1320   3.195   0.309   1.347
  141SOL     OW 1321   6.642   2.968   0.621
  141SOL    HW1 1322   6.572   3.037   0.602
  141SOL    HW2 1323   6.662   2.967   0.719
  142SOL     OW 1324   1.295   4.391   2.105
  142SOL    HW1 1325   1.386   4.434   2.099
  142SOL    HW2 1326   1.238   4.426   2.031
  143SOL     OW 1327   4.997   6.225   2.037
  143SOL    HW1 1328   5.000   6.247   1.940
  143SOL    HW2 1329   4.995   6.126   2.049
  144SOL     OW 1330   3.455   5.253   4.081
  144SOL    HW1 1331   3.526   5.197   4.124
  144SOL    HW2 1332   3.370   5.200   4.076
  145SOL     OW 1333   6.717   4.998   3.145
  145SOL    HW1 1334   6.770   4.987   3.229
  145SOL    HW2 1335   6.763   4.951   3.070
  146SOL     OW 1336   5.722   1.174   6.343
  146SOL    HW1 1337   5.706   1.151   6.247
  146SOL    HW2 1338   5.813   1.215   6.353
  147SOL     OW 1339   5.256   0.774   5.109
  147SOL    HW1 1340   5.246   0.848   5.042
  147SOL    HW2 1341   5.281   0.690   5.062
  148SOL     OW 1342   0.842   5.293   0.769
  148SOL    HW1 1343   0.839   5.235   0.687
  148SOL    HW2 1344   0.751   5.295   0.811
  149SOL     OW 1345   2.104   2.712   5.263
  149SOL    HW1 1346   2.058   2.748   5.182
  149SOL    HW2 1347   2.194   2.755   5.272
  150SOL     OW 1348   4.152   1.537   4.933
  150SOL    HW1 1349   4.112   1.498   4.850
  150SOL    HW2 1350   4.104   1.621   4.957
  151SOL     OW 1351   3.660   2.550   0.940
  151SOL    HW1 1352   3.684   2.553   0.843
  151SOL    HW2 1353   3.606   2.631   0.964
  152SOL     OW 1354   0.549   2.535   0.810
  152SOL    HW1 1355   0.628   2.582   0.849
  152SOL    HW2 1356   0.559   2.528   0.711
  153SOL     OW 1357   3.083   1.125   3.582
  153SOL    HW1 1358   3.062   1.109   3.679
  153SOL    HW2 1359   3.011   1.182   3.542
  154SOL     OW 1360   6.434   1.666   2.343
  154SOL    HW1 1361   6.523   1.668   2.390
  154SOL    HW2 1362   6.383   1.585   2.373
  155SOL     OW 1363   0.694   6.728   2.120
  155SOL    HW1 1364   0.637   6.651   2.092
  155SOL    HW2 1365   0.757   6.752   2.046
  156SOL     OW 1366   5.005   2.370   0.554
  156SOL    HW1 1367   4.911   2.404   0.559
  156SOL    HW2 1368   5.068   2.447   0.555
  157SOL     OW 1369   3.907   5.351   0.616
  157SOL    HW1 1370   3.826   5.362   0.558
  157SOL    HW2 1371   3.987   5.331   0.559
  158SOL     OW 1372   0.428   2.635   3.541
  158SOL    HW1 1373   0.431   2.683   3.453
  158SOL    HW2 1374   0.517   2.592   3.558
  159SOL     OW 1375   5.989   5.035   0.673
  159SOL    HW1 1376   6.075   5.081   0.698
  159SOL    HW2 1377   5.916   5.065   0.734
  160SOL     OW 1378   6.656   6.911   1.948
  160SOL    HW1 1379   6.661   7.007   1.976
  160SOL    HW2 1380   6.562   6.878   1.957
  161SOL     OW 1381   0.254   6.637   0.817
  161SOL    HW1 1382   0.345   6.678   0.821
  161SOL    HW2 1383   0.233   6.609   0.723
  162SOL     OW 1384   4.573   6.901   0.079
  162SOL    HW1 1385   4.583   6.893   6.998
  162SOL    HW2 1386   4.476   6.899   0.103
  163SOL     OW 1387   6.968   3.937   3.026
  163SOL    HW1 1388   6.903   3.862   3.035
  163SOL    HW2 1389   6.946   4.009   3.092
  164SOL     OW 1390   2.321   2.541   3.653
  164SOL    HW1 1391   2.387   2.557   3.579
  164SOL    HW2 1392   2.359   2.474   3.717
  165SOL     OW 1393   0.264   6.122   3.220
  165SOL    HW1 1394   0.337   6.139   3.287
  165SOL    HW2 1395   0.176   6.122   3.267
  166SOL     OW 1396   6.968   4.303   3.639
  166SOL    HW1 1397   6.900   4.303   3.712
  166SOL    HW2 1398   6.974   4.212   3.599
  167SOL     OW 1399   3.330   1.983   6.959
  167SOL    HW1 1400   3.260   2.038   7.004
  167SOL    HW2 1401   3.298   1.954   6.869
  168SOL     OW 1402   5.086   4.171   1.796
  168SOL    HW1 1403   4.995   4.162   1.755
  168SOL    HW2 1404   5.119   4.080   1.821
  169SOL     OW 1405   5.094   2.804   1.066
  169SOL    HW1 1406   5.135   2.887   1.027
  169SOL    HW2 1407   5.008   2.827   1.111
  170SOL     OW 1408   0.175   6.219   2.480
  170SOL    HW1 1409   0.112   6.226   2.403
  170SOL    HW2 1410   0.161   6.131   2.526
  171SOL     OW 1411   3.391   3.970   0.432
  171SOL    HW1 1412   3.482   3.979   0.391
  171SOL    HW2 1413   3.366   4.057   0.475
  172SOL     OW 1414   6.662   2.176   6.832
  172SOL    HW1 1415   6.714   2.116   6.893
  172SOL    HW2 1416   6.725   2.225   6.771
  173SOL     OW 1417   6.685   1.957   4.002
  173SOL    HW1 1418   6.707   1.983   3.908
  173SOL    HW2 1419   6.594   1.916   4.005
  174SOL     OW 1420   5.626   5.231   5.251
  174SOL    HW1 1421   5.583   5.149   5.289
  174SOL    HW2 1422   5.636   5.221   5.152
  175SOL     OW 1423   0.557   0.266   0.958
  175SOL    HW1 1424   0.611   0.329   0.903
  175SOL    HW2 1425   0.544   0.181   0.908
  176SOL     OW 1426   5.676   4.234   1.801
  176SOL    HW1 1427   5.723   4.274   1.880
  176SOL    HW2 1428   5.702   4.283   1.718
  177SOL     OW 1429   5.849   2.838   4.358
  177SOL    HW1 1430   5.893   2.870   4.442
  177SOL    HW2 1431   5.760   2.882   4.347
  178SOL     OW 1432   1.818   6.039   5.377
  178SOL    HW1 1433   1.887   5.969   5.398
  178SOL    HW2 1434   1.771   6.014   5.292
  179SOL     OW 1435   3.357   4.867   1.379
  179SOL    HW1 1436   3.385   4.797   1.445
  179SOL    HW2 1437   3.294   4.828   1.312
  180SOL     OW 1438   4.095   1.509   0.725
  180SOL    HW1 1439   4.187   1.541   0.746
  180SOL    HW2 1440   4.100   1.430   0.665
  181SOL     OW 1441   3.215   2.271   5.455
  181SOL    HW1 1442   3.290   2.319   5.409
  181SOL    HW2 1443   3.128   2.307   5.420
  182SOL     OW 1444   4.317   2.458   0.050
  182SOL    HW1 1445   4.219   2.476   0.059
  182SOL    HW2 1446   4.352   2.418   0.135
  183SOL     OW 1447   3.498   1.374   3.347
  183SOL    HW1 1448   3.554   1.346   3.425
  183SOL    HW2 1449   3.403   1.382   3.376
  184SOL     OW 1450   5.372   5.966   3.499
  184SOL    HW1 1451   5.434   5.891   3.522
  184SOL    HW2 1452   5.289   5.928   3.458
  185SOL     OW 1453   6.513   0.957   3.908
  185SOL    HW1 1454   6.425   0.981   3.948
  185SOL    HW2 1455   6.527   0.858   3.913
  186SOL     OW 1456   4.294   6.454   3.787
  186SOL    HW1 1457   4.235   6.422   3.861
  186SOL    HW2 1458   4.304   6.382   3.718
  187SOL     OW 1459   4.495   6.355   1.925
  187SOL    HW1 1460   4.523   6.395   1.838
  187SOL    HW2 1461   4.527   6.260   1.929
  188SOL     OW 1462   1.327   3.494   3.386
  188SOL    HW1 1463   1.383   3.424   3.431
  188SOL    HW2 1464   1.341   3.582   3.431
  189SOL     OW 1465   6.127   4.988   6.386
  189SOL    HW1 1466   6.085   5.025   6.303
  189SOL    HW2 1467   6.217   4.949   6.364
  190SOL     OW 1468   5.882   0.407   0.054
  190SOL    HW1 1469   5.930   0.428   0.140
  190SOL    HW2 1470   5.844   0.490   0.016
  191SOL     OW 1471   6.835   1.425   5.187
  191SOL    HW1 1472   6.763   1.378   5.136
  191SOL    HW2 1473   6.856   1.512   5.143
  192SOL     OW 1474   0.649   5.501   0.906
  192SOL    HW1 1475   0.630   5.584   0.958
  192SOL    HW2 1476   0.651   5.524   0.808
  193SOL     OW 1477   2.766   6.072   6.863
  193SOL    HW1 1478   2.683   6.055   6.917
  193SOL    HW2 1479   2.841   6.098   6.925
  194SOL     OW 1480   4.021   6.526   2.185
  194SOL    HW1 1481   3.927   6.500   2.162
  194SOL    HW2 1482   4.083   6.493   2.115
  195SOL     OW 1483   3.780   1.036   0.974
  195SOL    HW1 1484   3.708   0.990   1.025
  195SOL    HW2 1485   3.868   1.021   1.019
  196SOL     OW 1486   2.663   1.739   0.097
  196SOL    HW1 1487   2.663   1.646   0.135
  196SOL    HW2 1488   2.697   1.802   0.166
  197SOL     OW 1489   2.289   6.760   0.620
  197SOL    HW1 1490   2.372   6.800   0.660
  197SOL    HW2 1491   2.305   6.740   0.523
  198SOL     OW 1492   4.749   0.638   6.283
  198SOL    HW1 1493   4.652   0.665   6.281
  198SOL    HW2 1494   4.765   0.569   6.212
  199SOL     OW 1495   0.224   0.078   3.352
  199SOL    HW1 1496   0.230   0.014   3.275
  199SOL    HW2 1497   0.169   0.157   3.326
  200SOL     OW 1498   0.560   4.203   3.227
  200SOL    HW1 1499   0.485   4.172   3.285
  200SOL    HW2 1500   0.614   4.272   3.276
  201SOL     OW 1501   4.183   0.812   6.249
  201SOL    HW1 1502   4.123   0.873   6.300
  201SOL    HW2 1503   4.220   0.742   6.311
  202SOL     OW 1504   2.945   0.188   3.042
  202SOL    HW1 1505   3.033   0.230   3.061
  202SOL    HW2 1506   2.880   0.211   3.115
  203SOL     OW 1507   5.585   2.979   6.554
  203SOL    HW1 1508   5.605   3.062   6.607
  203SOL    HW2 1509   5.670   2.940   6.520
  204SOL     OW 1510   2.260   6.918   1.082
  204SOL    HW1 1511   2.250   6.852   1.156
  204SOL    HW2 1512   2.354   6.917   1.049
  205SOL     OW 1513   6.227   1.321   0.368
  205SOL    HW1 1514   6.252   1.227   0.392
  205SOL    HW2 1515   6.305   1.366   0.325
  206SOL     OW 1516   1.273   4.416   1.801
  206SOL    HW1 1517   1.295   4.446   1.708
  206SOL    HW2 1518   1.260   4.317   1.801
  207SOL     OW 1519   4.823   0.361   5.496
  207SOL    HW1 1520   4.865   0.433   5.552
  207SOL    HW2 1521   4.879   0.278   5.501
  208SOL     OW 1522   4.017   4.859   6.253
  208SOL    HW1 1523   4.011   4.937   6.315
  208SOL    HW2 1524   4.112   4.848   6.223
  209SOL     OW 1525   6.847   5.680   5.577
  209SOL    HW1 1526   6.940   5.703   5.606
  209SOL    HW2 1527   6.781   5.721   5.639
  210SOL     OW 1528   3.886   2.810   1.432
  210SOL    HW1 1529   3.819   2.754   1.382
  210SOL    HW2 1530   3.976   2.799   1.390
  211SOL     OW 1531   1.604   1.834   1.601
  211SOL    HW1 1532   1.539   1.795   1.535
  211SOL    HW2 1533   1.693   1.790   1.589
  212SOL     OW 1534   0.527   5.601   3.491
  212SOL    HW1 1535   0.617   5.591   3.449
  212SOL    HW2 1536   0.489   5.511   3.512
  213SOL     OW 1537   5.094   2.353   6.987
  213SOL    HW1 1538   5.083   2.340   0.068
  213SOL    HW2 1539   5.034   2.427   6.956
  214SOL     OW 1540   1.285   0.741   3.246
  214SOL    HW1 1541   1.277   0.653   3.199
  214SOL    HW2 1542   1.375   0.780   3.228
  215SOL     OW 1543   3.547   3.107   2.626
  215SOL    HW1 1544   3.474   3.150   2.573
  215SOL    HW2 1545   3.516   3.089   2.719
  216SOL     OW 1546   0.628   6.532   5.996
  216SOL    HW1 1547   0.642   6.590   6.077
  216SOL    HW2 1548   0.717   6.508   5.957
  217SOL     OW 1549   1.200   2.919   3.176
  217SOL    HW1 1550   1.233   2.852   3.243
  217SOL    HW2 1551   1.180   2.872   3.090
  218SOL     OW 1552   1.311   4.302   5.333
  218SOL    HW1 1553   1.403   4.293   5.294
  218SOL    HW2 1554   1.308   4.255   5.422
  219SOL     OW 1555   4.908   5.149   0.058
  219SOL    HW1 1556   4.963   5.232   0.057
  219SOL    HW2 1557   4.955   5.076   0.008
  220SOL     OW 1558   3.071   4.759   0.794
  220SOL    HW1 1559   3.120   4.843   0.819
  220SOL    HW2 1560   2.978   4.762   0.831
  221SOL     OW 1561   5.707   2.463   4.509
  221SOL    HW1 1562   5.692   2.364   4.512
  221SOL    HW2 1563   5.665   2.505   4.590
  222SOL     OW 1564   0.968   6.519   5.278
  222SOL    HW1 1565   0.992   6.591   5.213
  222SOL    HW2 1566   1.051   6.478   5.316
  223SOL     OW 1567   6.547   3.687   1.723
  223SOL    HW1 1568   6.599   3.772   1.719
  223SOL    HW2 1569   6.607   3.613   1.753
  224SOL     OW 1570   3.110   2.223   1.774
  224SOL    HW1 1571   3.206   2.239   1.797
  224SOL    HW2 1572   3.051   2.270   1.840
  225SOL     OW 1573   6.317   0.309   6.699
  225SOL    HW1 1574   6.308   0.249   6.619
  225SOL    HW2 1575   6.308   0.404   6.671
  226SOL     OW 1576   6.329   5.976   1.003
  226SOL    HW1 1577   6.300   6.071   1.008
  226SOL    HW2 1578   6.414   5.969   0.951
  227SOL     OW 1579   1.828   3.174   3.990
  227SOL    HW1 1580   1.810   3.185   4.088
  227SOL    HW2 1581   1.924   3.191   3.972
  228SOL     OW 1582   4.001   0.062   3.595
  228SOL    HW1 1583   3.909   0.088   3.567
  228SOL    HW2 1584   4.002   0.043   3.693
  229SOL     OW 1585   5.896   5.494   2.736
  229SOL    HW1 1586   5.911   5.507   2.834
  229SOL    HW2 1587   5.851   5.406   2.721
  230SOL     OW 1588   1.931   4.408   5.035
  230SOL    HW1 1589   1.991   4.455   5.100
  230SOL    HW2 1590   1.986   4.352   4.974
  231SOL     OW 1591   0.525   2.190   6.767
  231SOL    HW1 1592   0.520   2.281   6.808
  231SOL    HW2 1593   0.607   2.143   6.798
  232SOL     OW 1594   1.905   4.582   6.647
  232SOL    HW1 1595   1.834   4.524   6.685
  232SOL    HW2 1596   1.885   4.600   6.551
  233SOL     OW 1597   2.154   0.776   6.170
  233SOL    HW1 1598   2.210   0.855   6.148
  233SOL    HW2 1599   2.090   0.759   6.095
  234SOL     OW 1600   2.607   5.749   0.356
  234SOL    HW1 1601   2.532   5.788   0.302
  234SOL    HW2 1602   2.694   5.777   0.317
  235SOL     OW 1603   3.126   3.542   5.102
  235SOL    HW1 1604   3.064   3.615   5.071
  235SOL    HW2 1605   3.078   3.484   5.168
  236SOL     OW 1606   0.124   2.214   4.860
  236SOL    HW1 1607   0.146   2.243   4.954
  236SOL    HW2 1608   0.205   2.174   4.818
  237SOL     OW 1609   0.308   0.256   1.377
  237SOL    HW1 1610   0.282   0.171   1.424
  237SOL    HW2 1611   0.364   0.234   1.297
  238SOL     OW 1612   5.915   2.332   2.535
  238SOL    HW1 1613   5.882   2.253   2.585
  238SOL    HW2 1614   5.950   2.400   2.600
  239SOL     OW 1615   0.085   5.933   0.305
  239SOL    HW1 1616   0.097   6.028   0.334
  239SOL    HW2 1617   0.003   5.895   0.347
  240SOL     OW 1618   6.817   3.621   5.890
  240SOL    HW1 1619   6.750   3.688   5.859
  240SOL    HW2 1620   6.895   3.619   5.827
  241SOL     OW 1621   0.665   0.708   3.234
  241SOL    HW1 1622   0.738   0.762   3.192
  241SOL    HW2 1623   0.684   0.696   3.331
  242SOL     OW 1624   1.669   3.597   3.977
  242SOL    HW1 1625   1.675   3.499   3.994
  242SOL    HW2 1626   1.574   3.627   3.983
  243SOL     OW 1627   4.749   0.086   5.300
  243SOL    HW1 1628   4.844   0.063   5.278
  243SOL    HW2 1629   4.728   0.056   5.393
  244SOL     OW 1630   6.464   2.424   5.612
  244SOL    HW1 1631   6.455   2.381   5.702
  244SOL    HW2 1632   6.533   2.376   5.559
  245SOL     OW 1633   6.104   1.493   3.881
  245SOL    HW1 1634   6.084   1.591   3.887
  245SOL    HW2 1635   6.169   1.476   3.807
  246SOL     OW 1636   5.317   3.483   3.377
  246SOL    HW1 1637   5.412   3.499   3.404
  246SOL    HW2 1638   5.293   3.545   3.302
  247SOL     OW 1639   2.746   1.606   3.407
  247SOL    HW1 1640   2.697   1.678   3.358
  247SOL    HW2 1641   2.772   1.640   3.498
  248SOL     OW 1642   5.920   1.457   2.940
  248SOL    HW1 1643   5.835   1.423   2.899
  248SOL    HW2 1644   5.982   1.380   2.956
  249SOL     OW 1645   3.621   0.221   4.129
  249SOL    HW1 1646   3.575   0.160   4.194
  249SOL    HW2 1647   3.670   0.166   4.062
  250SOL     OW 1648   4.896   2.850   5.894
  250SOL    HW1 1649   4.885   2.859   5.795
  250SOL    HW2 1650   4.986   2.886   5.920
  251SOL     OW 1651   3.236   2.283   0.979
  251SOL    HW1 1652   3.217   2.193   0.940
  251SOL    HW2 1653   3.150   2.333   0.993
  252SOL     OW 1654   0.530   1.175   5.840
  252SOL    HW1 1655   0.557   1.147   5.748
  252SOL    HW2 1656   0.595   1.242   5.875
  253SOL     OW 1657   3.016   3.609   6.106
  253SOL    HW1 1658   2.924   3.610   6.067
  253SOL    HW2 1659   3.072   3.542   6.058
  254SOL     OW 1660   5.687   3.232   5.242
  254SOL    HW1 1661   5.771   3.225   5.295
  254SOL    HW2 1662   5.614   3.270   5.299
  255SOL     OW 1663   3.219   2.207   4.426
  255SOL    HW1 1664   3.207   2.248   4.517
  255SOL    HW2 1665   3.159   2.253   4.361
  256SOL     OW 1666   6.292   5.367   6.527
  256SOL    HW1 1667   6.314   5.297   6.594
  256SOL    HW2 1668   6.213   5.420   6.558
  257SOL     OW 1669   3.267   6.232   5.955
  257SOL    HW1 1670   3.205   6.224   6.033
  257SOL    HW2 1671   3.241   6.165   5.886
  258SOL     OW 1672   5.207   4.301   4.090
  258SOL    HW1 1673   5.123   4.341   4.126
  258SOL    HW2 1674   5.279   4.369   4.090
  259SOL     OW 1675   1.059   2.610   2.566
  259SOL    HW1 1676   1.110   2.694   2.588
  259SOL    HW2 1677   1.038   2.609   2.468
  260SOL     OW 1678   6.135   0.373   6.028
  260SOL    HW1 1679   6.121   0.472   6.034
  260SOL    HW2 1680   6.086   0.338   5.949
  261SOL     OW 1681   0.718   2.829   2.487
  261SOL    HW1 1682   0.722   2.738   2.447
  261SOL    HW2 1683   0.777   2.891   2.434
  262SOL     OW 1684   0.507   5.050   2.106
  262SOL    HW1 1685   0.519   5.139   2.150
  262SOL    HW2 1686   0.464   4.986   2.171
  263SOL     OW 1687   1.339   2.176   4.135
  263SOL    HW1 1688   1.429   2.166   4.176
  263SOL    HW2 1689   1.345   2.161   4.036
  264SOL     OW 1690   2.885   5.205   6.467
  264SOL    HW1 1691   2.970   5.170   6.428
  264SOL    HW2 1692   2.896   5.218   6.566
  265SOL     OW 1693   5.276   4.571   4.852
  265SOL    HW1 1694   5.357   4.516   4.832
  265SOL    HW2 1695   5.209   4.515   4.901
  266SOL     OW 1696   3.850   2.175   0.611
  266SOL    HW1 1697   3.834   2.262   0.657
  266SOL    HW2 1698   3.763   2.135   0.584
  267SOL     OW 1699   1.160   2.309   5.812
  267SOL    HW1 1700   1.089   2.241   5.795
  267SOL    HW2 1701   1.155   2.340   5.907
  268SOL     OW 1702   3.595   5.004   4.445
  268SOL    HW1 1703   3.657   4.986   4.522
  268SOL    HW2 1704   3.510   5.043   4.480
  269SOL     OW 1705   1.096   1.534   5.277
  269SOL    HW1 1706   1.119   1.625   5.312
  269SOL    HW2 1707   1.001   1.513   5.299
  270SOL     OW 1708   4.910   0.825   3.850
  270SOL    HW1 1709   4.912   0.755   3.779
  270SOL    HW2 1710   4.943   0.912   3.812
  271SOL     OW 1711   1.689   0.945   6.887
  271SOL    HW1 1712   1.774   0.894   6.896
  271SOL    HW2 1713   1.696   1.031   6.938
  272SOL     OW 1714   3.731   5.706   2.881
  272SOL    HW1 1715   3.749   5.773   2.953
  272SOL    HW2 1716   3.787   5.624   2.897
  273SOL     OW 1717   2.912   6.851   5.391
  273SOL    HW1 1718   2.915   6.846   5.490
  273SOL    HW2 1719   2.825   6.891   5.362
  274SOL     OW 1720   5.639   2.355   1.327
  274SOL    HW1 1721   5.663   2.335   1.422
  274SOL    HW2 1722   5.540   2.345   1.315
  275SOL     OW 1723   6.069   6.127   5.124
  275SOL    HW1 1724   6.050   6.034   5.093
  275SOL    HW2 1725   6.094   6.125   5.221
  276SOL     OW 1726   6.345   6.010   3.590
  276SOL    HW1 1727   6.441   6.022   3.614
  276SOL    HW2 1728   6.338   5.974   3.498
  277SOL     OW 1729   5.149   1.146   5.084
  277SOL    HW1 1730   5.058   1.129   5.122
  277SOL    HW2 1731   5.209   1.181   5.156
  278SOL     OW 1732   6.366   2.669   2.733
  278SOL    HW1 1733   6.267   2.675   2.743
  278SOL    HW2 1734   6.411   2.710   2.812
  279SOL     OW 1735   0.075   3.184   4.048
  279SOL    HW1 1736   0.091   3.092   4.012
  279SOL    HW2 1737   7.003   3.189   4.090
  280SOL     OW 1738   3.383   0.948   3.753
  280SOL    HW1 1739   3.478   0.919   3.740
  280SOL    HW2 1740   3.332   0.931   3.669
  281SOL     OW 1741   5.428   5.479   3.553
  281SOL    HW1 1742   5.335   5.489   3.519
  281SOL    HW2 1743   5.428   5.488   3.653
  282SOL     OW 1744   2.775   1.553   0.379
  282SOL    HW1 1745   2.834   1.523   0.304
  282SOL    HW2 1746   2.773   1.653   0.382
  283SOL     OW 1747   6.456   1.917   4.826
  283SOL    HW1 1748   6.548   1.943   4.799
  283SOL    HW2 1749   6.391   1.988   4.798
  284SOL     OW 1750   5.548   5.695   3.244
  284SOL    HW1 1751   5.602   5.767   3.202
  284SOL    HW2 1752   5.539   5.712   3.342
  285SOL     OW 1753   4.707   0.259   5.735
  285SOL    HW1 1754   4.754   0.255   5.647
  285SOL    HW2 1755   4.769   0.229   5.807
  286SOL     OW 1756   2.072   5.122   5.129
  286SOL    HW1 1757   2.156   5.080   5.095
  286SOL    HW2 1758   2.056   5.208   5.081
  287SOL     OW 1759   3.264   0.365   6.295
  287SOL    HW1 1760   3.332   0.325   6.234
  287SOL    HW2 1761   3.242   0.458   6.264
  288SOL     OW 1762   4.031   0.667   0.848
  288SOL    HW1 1763   3.954   0.662   0.784
  288SOL    HW2 1764   4.009   0.732   0.921
  289SOL     OW 1765   6.140   5.804   3.349
  289SOL    HW1 1766   6.240   5.810   3.342
  289SOL    HW2 1767   6.100   5.893   3.327
  290SOL     OW 1768   3.400   0.626   6.139
  290SOL    HW1 1769   3.421   0.569   6.218
  290SOL    HW2 1770   3.459   0.707   6.139
  291SOL     OW 1771   3.244   6.763   5.061
  291SOL    HW1 1772   3.311   6.794   4.993
  291SOL    HW2 1773   3.264   6.806   5.149
  292SOL     OW 1774   4.689   6.792   3.707
  292SOL    HW1 1775   4.623   6.729   3.666
  292SOL    HW2 1776   4.732   6.748   3.785
  293SOL     OW 1777   5.952   0.010   2.198
  293SOL    HW1 1778   5.938   0.041   2.292
  293SOL    HW2 1779   6.018   0.069   2.153
  294SOL     OW 1780   6.375   0.790   6.054
  294SOL    HW1 1781   6.400   0.838   6.138
  294SOL    HW2 1782   6.423   0.830   5.977
  295SOL     OW 1783   1.462   1.222   5.016
  295SOL    HW1 1784   1.491   1.314   4.991
  295SOL    HW2 1785   1.407   1.226   5.099
  296SOL     OW 1786   6.825   2.496   1.413
  296SOL    HW1 1787   6.885   2.424   1.446
  296SOL    HW2 1788   6.857   2.529   1.325
  297SOL     OW 1789   5.093   3.193   3.994
  297SOL    HW1 1790   5.139   3.134   3.927
  297SOL    HW2 1791   5.151   3.274   4.012
  298SOL     OW 1792   4.275   0.613   6.396
  298SOL    HW1 1793   4.317   0.609   6.487
  298SOL    HW2 1794   4.241   0.522   6.371
  299SOL     OW 1795   1.262   0.734   6.840
  299SOL    HW1 1796   1.349   0.709   6.883
  299SOL    HW2 1797   1.219   0.808   6.891
  300SOL     OW 1798   4.197   6.913   3.567
  300SOL    HW1 1799   4.134   6.988   3.586
  300SOL    HW2 1800   4.207   6.856   3.649
  301SOL     OW 1801   6.716   5.412   1.136
  301SOL    HW1 1802   6.718   5.509   1.114
  301SOL    HW2 1803   6.726   5.358   1.052
  302SOL     OW 1804   0.181   5.558   2.077
  302SOL    HW1 1805   0.135   5.469   2.072
  302SOL    HW2 1806   0.249   5.563   2.004
  303SOL     OW 1807   5.501   5.704   2.403
  303SOL    HW1 1808   5.554   5.677   2.484
  303SOL    HW2 1809   5.406   5.677   2.415
  304SOL     OW 1810   2.172   5.563   4.502
  304SOL    HW1 1811   2.235   5.605   4.437
  304SOL    HW2 1812   2.179   5.610   4.590
  305SOL     OW 1813   0.895   3.388   1.951
  305SOL    HW1 1814   0.836   3.462   1.984
  305SOL    HW2 1815   0.989   3.420   1.947
  306SOL     OW 1816   6.953   6.467   2.586
  306SOL    HW1 1817   6.920   6.562   2.581
  306SOL    HW2 1818   6.976   6.435   2.494
  307SOL     OW 1819   3.042   3.157   3.217
  307SOL    HW1 1820   3.094   3.122   3.295
  307SOL    HW2 1821   2.988   3.236   3.245
  308SOL     OW 1822   5.175   2.086   3.924
  308SOL    HW1 1823   5.198   2.024   3.849
  308SOL    HW2 1824   5.221   2.173   3.910
  309SOL     OW 1825   0.992   6.339   6.426
  309SOL    HW1 1826   1.087   6.353   6.398
  309SOL    HW2 1827   0.990   6.285   6.510
  310SOL     OW 1828   5.126   6.842   5.070
  310SOL    HW1 1829   5.048   6.781   5.089
  310SOL    HW2 1830   5.211   6.790   5.077
  311SOL     OW 1831   2.003   5.842   2.910
  311SOL    HW1 1832   1.959   5.822   2.823
  311SOL    HW2 1833   2.066   5.767   2.933
  312SOL     OW 1834   4.816   2.078   2.883
  312SOL    HW1 1835   4.786   2.016   2.956
  312SOL    HW2 1836   4.911   2.105   2.900
  313SOL     OW 1837   4.102   3.696   2.990
  313SOL    HW1 1838   4.147   3.750   2.918
  313SOL    HW2 1839   4.074   3.756   3.064
  314SOL     OW 1840   2.370   5.889   5.908
  314SOL    HW1 1841   2.329   5.947   5.977
  314SOL    HW2 1842   2.380   5.940   5.822
  315SOL     OW 1843   6.399   1.576   3.109
  315SOL    HW1 1844   6.452   1.492   3.093
  315SOL    HW2 1845   6.370   1.614   3.021
  316SOL     OW 1846   3.472   1.217   5.559
  316SOL    HW1 1847   3.428   1.289   5.504
  316SOL    HW2 1848   3.451   1.128   5.519
  317SOL     OW 1849   1.414   1.431   2.022
  317SOL    HW1 1850   1.365   1.516   2.000
  317SOL    HW2 1851   1.362   1.380   2.091
  318SOL     OW 1852   0.802   0.667   5.316
  318SOL    HW1 1853   0.789   0.740   5.250
  318SOL    HW2 1854   0.847   0.589   5.272
  319SOL     OW 1855   1.757   1.537   2.531
  319SOL    HW1 1856   1.773   1.484   2.614
  319SOL    HW2 1857   1.786   1.484   2.452
  320SOL     OW 1858   6.098   1.762   6.037
  320SOL    HW1 1859   6.046   1.823   6.096
  320SOL    HW2 1860   6.195   1.762   6.064
  321SOL     OW 1861   4.135   3.452   0.600
  321SOL    HW1 1862   4.178   3.367   0.631
  321SOL    HW2 1863   4.145   3.460   0.501
  322SOL     OW 1864   3.471   3.043   5.901
  322SOL    HW1 1865   3.424   3.098   5.970
  322SOL    HW2 1866   3.409   3.028   5.824
  323SOL     OW 1867   0.407   3.536   2.700
  323SOL    HW1 1868   0.499   3.497   2.703
  323SOL    HW2 1869   0.358   3.499   2.621
  324SOL     OW 1870   0.050   0.027   4.039
  324SOL    HW1 1871   0.079   0.115   4.077
  324SOL    HW2 1872   0.112   0.001   3.965
  325SOL     OW 1873   0.309   4.090   2.530
  325SOL    HW1 1874   0.344   3.998   2.513
  325SOL    HW2 1875   0.341   4.121   2.619
  326SOL     OW 1876   0.822   6.330   6.213
  326SOL    HW1 1877   0.879   6.341   6.295
  326SOL    HW2 1878   0.849   6.398   6.145
  327SOL     OW 1879   4.631   5.381   4.105
  327SOL    HW1 1880   4.614   5.283   4.093
  327SOL    HW2 1881   4.549   5.432   4.082
  328SOL     OW 1882   2.234   4.024   2.412
  328SOL    HW1 1883   2.134   4.032   2.407
  328SOL    HW2 1884   2.272   4.021   2.320
  329SOL     OW 1885   3.191   3.734   2.140
  329SOL    HW1 1886   3.287   3.727   2.169
  329SOL    HW2 1887   3.171   3.663   2.073
  330SOL     OW 1888   3.462   5.744   0.696
  330SOL    HW1 1889   3.431   5.764   0.789
  330SOL    HW2 1890   3.459   5.828   0.641
  331SOL     OW 1891   5.287   5.105   6.959
  331SOL    HW1 1892   5.219   5.043   6.918
  331SOL    HW2 1893   5.326   5.163   6.888
  332SOL     OW 1894   5.404   2.153   3.246
  332SOL    HW1 1895   5.466   2.231   3.253
  332SOL    HW2 1896   5.453   2.070   3.272
  333SOL     OW 1897   3.311   0.932   5.704
  333SOL    HW1 1898   3.226   0.952   5.655
  333SOL    HW2 1899   3.387   0.928   5.639
  334SOL     OW 1900   4.114   3.422   3.155
  334SOL    HW1 1901   4.068   3.335   3.139
  334SOL    HW2 1902   4.073   3.493   3.099
  335SOL     OW 1903   3.638   0.153   6.554
  335SOL    HW1 1904   3.583   0.088   6.502
  335SOL    HW2 1905   3.579   0.225   6.591
  336SOL     OW 1906   2.429   2.278   3.750
  336SOL    HW1 1907   2.375   2.196   3.769
  336SOL    HW2 1908   2.503   2.285   3.816
  337SOL     OW 1909   2.095   0.184   6.096
  337SOL    HW1 1910   2.124   0.263   6.043
  337SOL    HW2 1911   2.146   0.181   6.182
  338SOL     OW 1912   4.420   1.800   1.468
  338SOL    HW1 1913   4.486   1.837   1.534
  338SOL    HW2 1914   4.434   1.701   1.459
  339SOL     OW 1915   4.063   5.388   5.270
  339SOL    HW1 1916   4.110   5.443   5.338
  339SOL    HW2 1917   3.972   5.426   5.252
  340SOL     OW 1918   4.657   2.135   3.584
  340SOL    HW1 1919   4.672   2.172   3.676
  340SOL    HW2 1920   4.606   2.200   3.529
  341SOL     OW 1921   5.571   6.772   2.868
  341SOL    HW1 1922   5.533   6.750   2.957
  341SOL    HW2 1923   5.662   6.730   2.859
  342SOL     OW 1924   4.398   2.391   2.316
  342SOL    HW1 1925   4.442   2.426   2.399
  342SOL    HW2 1926   4.427   2.445   2.237
  343SOL     OW 1927   0.085   6.121   2.859
  343SOL    HW1 1928   0.070   6.089   2.953
  343SOL    HW2 1929   0.062   6.048   2.795
  344SOL     OW 1930   2.104   1.850   1.564
  344SOL    HW1 1931   2.198   1.869   1.591
  344SOL    HW2 1932   2.043   1.921   1.600
  345SOL     OW 1933   6.449   3.596   4.084
  345SOL    HW1 1934   6.442   3.575   4.182
  345SOL    HW2 1935   6.527   3.657   4.068
  346SOL     OW 1936   1.725   6.883   3.322
  346SOL    HW1 1937   1.638   6.933   3.318
  346SOL    HW2 1938   1.757   6.864   3.229
  347SOL     OW 1939   2.915   5.070   0.652
  347SOL    HW1 1940   2.957   5.154   0.619
  347SOL    HW2 1941   2.936   5.058   0.749
  348SOL     OW 1942   4.371   5.513   1.846
  348SOL    HW1 1943   4.295   5.449   1.839
  348SOL    HW2 1944   4.360   5.569   1.928
  349SOL     OW 1945   6.255   4.470   1.532
  349SOL    HW1 1946   6.304   4.427   1.608
  349SOL    HW2 1947   6.319   4.494   1.459
  350SOL     OW 1948   3.229   3.038   0.550
  350SOL    HW1 1949   3.317   3.073   0.582
  350SOL    HW2 1950   3.161   3.110   0.552
  351SOL     OW 1951   3.134   4.381   0.935
  351SOL    HW1 1952   3.106   4.385   0.839
  351SOL    HW2 1953   3.058   4.413   0.992
  352SOL     OW 1954   3.805   7.002   3.170
  352SOL    HW1 1955   3.890   6.980   3.120
  352SOL    HW2 1956   3.824   7.003   3.268
  353SOL     OW 1957   1.754   6.083   0.134
  353SOL    HW1 1958   1.732   5.991   0.164
  353SOL    HW2 1959   1.670   6.136   0.124
  354SOL     OW 1960   6.877   2.667   0.290
  354SOL    HW1 1961   6.946   2.668   0.363
  354SOL    HW2 1962   6.808   2.737   0.308
  355SOL     OW 1963   2.247   1.771   2.262
  355SOL    HW1 1964   2.151   1.772   2.235
  355SOL    HW2 1965   2.277   1.677   2.276
  356SOL     OW 1966   0.927   6.522   6.043
  356SOL    HW1 1967   0.934   6.532   5.944
  356SOL    HW2 1968   0.909   6.611   6.085
  357SOL     OW 1969   5.884   6.202   4.493
  357SOL    HW1 1970   5.858   6.252   4.411
  357SOL    HW2 1971   5.980   6.173   4.485
  358SOL     OW 1972   4.635   5.557   0.061
  358SOL    HW1 1973   4.678   5.514   0.140
  358SOL    HW2 1974   4.637   5.495   7.001
  359SOL     OW 1975   2.371   2.279   2.541
  359SOL    HW1 1976   2.427   2.243   2.466
  359SOL    HW2 1977   2.417   2.262   2.628
  360SOL     OW 1978   1.398   4.812   4.405
  360SOL    HW1 1979   1.394   4.899   4.454
  360SOL    HW2 1980   1.428   4.828   4.310
  361SOL     OW 1981   6.268   6.862   3.285
  361SOL    HW1 1982   6.244   6.781   3.340
  361SOL    HW2 1983   6.332   6.919   3.335
  362SOL     OW 1984   3.920   4.905   1.127
  362SOL    HW1 1985   3.937   4.882   1.031
  362SOL    HW2 1986   3.971   4.988   1.150
  363SOL     OW 1987   5.075   5.437   2.150
  363SOL    HW1 1988   4.990   5.436   2.098
  363SOL    HW2 1989   5.153   5.432   2.087
  364SOL     OW 1990   0.655   5.800   6.532
  364SOL    HW1 1991   0.579   5.862   6.550
  364SOL    HW2 1992   0.658   5.778   6.434
  365SOL     OW 1993   5.213   2.125   2.650
  365SOL    HW1 1994   5.204   2.161   2.558
  365SOL    HW2 1995   5.144   2.166   2.709
  366SOL     OW 1996   5.746   2.602   0.171
  366SOL    HW1 1997   5.765   2.567   0.263
  366SOL    HW2 1998   5.652   2.580   0.146
  367SOL     OW 1999   4.600   2.201   5.086
  367SOL    HW1 2000   4.501   2.187   5.081
  367SOL    HW2 2001   4.619   2.299   5.094
  368SOL     OW 2002   6.481   2.298   5.876
  368SOL    HW1 2003   6.418   2.338   5.944
  368SOL    HW2 2004   6.573   2.334   5.892
  369SOL     OW 2005   5.759   3.005   2.473
  369SOL    HW1 2006   5.684   2.998   2.539
  369SOL    HW2 2007   5.726   3.051   2.390
  370SOL     OW 2008   2.138   3.432   4.428
  370SOL    HW1 2009   2.154   3.403   4.523
  370SOL    HW2 2010   2.155   3.530   4.420
  371SOL     OW 2011   1.186   4.319   6.838
  371SOL    HW1 2012   1.256   4.261   6.797
  371SOL    HW2 2013   1.225   4.410   6.856
  372SOL     OW 2014   3.522   6.782   6.636
  372SOL    HW1 2015   3.619   6.777   6.660
  372SOL    HW2 2016   3.481   6.690   6.642
  373SOL     OW 2017   5.530   5.898   3.909
  373SOL    HW1 2018   5.593   5.839   3.860
  373SOL    HW2 2019   5.562   5.993   3.904
  374SOL     OW 2020   2.860   1.806   2.756
  374SOL    HW1 2021   2.853   1.798   2.855
  374SOL    HW2 2022   2.902   1.894   2.732
  375SOL     OW 2023   1.256   4.670   5.115
  375SOL    HW1 2024   1.259   4.764   5.150
  375SOL    HW2 2025   1.174   4.624   5.150
  376SOL     OW 2026   2.067   0.759   4.695
  376SOL    HW1 2027   2.096   0.670   4.730
  376SOL    HW2 2028   2.031   0.814   4.771
  377SOL     OW 2029   1.283   2.347   6.375
  377SOL    HW1 2030   1.204   2.297   6.340
  377SOL    HW2 2031   1.363   2.287   6.376
  378SOL     OW 2032   3.612   1.508   1.522
  378SOL    HW1 2033   3.622   1.430   1.461
  378SOL    HW2 2034   3.654   1.589   1.481
  379SOL     OW 2035   6.042   1.768   5.777
  379SOL    HW1 2036   6.064   1.749   5.873
  379SOL    HW2 2037   5.997   1.857   5.770
  380SOL     OW 2038   4.232   1.869   0.777
  380SOL    HW1 2039   4.158   1.805   0.799
  380SOL    HW2 2040   4.243   1.934   0.852
  381SOL     OW 2041   1.294   4.518   3.341
  381SOL    HW1 2042   1.284   4.422   3.364
  381SOL    HW2 2043   1.375   4.530   3.282
  382SOL     OW 2044   5.402   0.784   0.379
  382SOL    HW1 2045   5.479   0.774   0.316
  382SOL    HW2 2046   5.331   0.840   0.336
  383SOL     OW 2047   3.893   3.181   0.829
  383SOL    HW1 2048   3.992   3.175   0.841
  383SOL    HW2 2049   3.858   3.259   0.881
  384SOL     OW 2050   6.055   4.044   4.665
  384SOL    HW1 2051   5.982   4.060   4.599
  384SOL    HW2 2052   6.101   4.131   4.685
  385SOL     OW 2053   4.631   4.810   0.451
  385SOL    HW1 2054   4.647   4.790   0.548
  385SOL    HW2 2055   4.664   4.734   0.396
  386SOL     OW 2056   3.029   6.707   3.967
  386SOL    HW1 2057   3.022   6.765   4.049
  386SOL    HW2 2058   2.939   6.696   3.926
  387SOL     OW 2059   1.946   5.853   4.049
  387SOL    HW1 2060   1.959   5.783   3.979
  387SOL    HW2 2061   1.981   5.941   4.016
  388SOL     OW 2062   2.338   2.895   6.430
  388SOL    HW1 2063   2.300   2.846   6.352
  388SOL    HW2 2064   2.281   2.975   6.450
  389SOL     OW 2065   3.048   3.901   3.594
  389SOL    HW1 2066   3.143   3.873   3.580
  389SOL    HW2 2067   2.994   3.876   3.514
  390SOL     OW 2068   1.711   1.517   4.435
  390SOL    HW1 2069   1.783   1.495   4.369
  390SOL    HW2 2070   1.704   1.444   4.502
  391SOL     OW 2071   0.860   2.948   0.311
  391SOL    HW1 2072   0.842   3.047   0.314
  391SOL    HW2 2073   0.905   2.919   0.396
  392SOL     OW 2074   2.332   4.835   2.443
  392SOL    HW1 2075   2.410   4.874   2.491
  392SOL    HW2 2076   2.356   4.818   2.348
  393SOL     OW 2077   5.936   4.210   5.423
  393SOL    HW1 2078   5.999   4.251   5.357
  393SOL    HW2 2079   5.956   4.113   5.434
  394SOL     OW 2080   0.876   6.718   1.028
  394SOL    HW1 2081   0.919   6.698   1.116
  394SOL    HW2 2082   0.782   6.750   1.043
  395SOL     OW 2083   5.287   3.901   1.929
  395SOL    HW1 2084   5.293   3.814   1.977
  395SOL    HW2 2085   5.237   3.888   1.843
  396SOL     OW 2086   3.076   4.020   3.844
  396SOL    HW1 2087   3.169   4.041   3.875
  396SOL    HW2 2088   3.080   3.980   3.752
  397SOL     OW 2089   4.183   2.334   5.520
  397SOL    HW1 2090   4.241   2.326   5.439
  397SOL    HW2 2091   4.088   2.345   5.492
  398SOL     OW 2092   1.238   5.210   2.142
  398SOL    HW1 2093   1.242   5.126   2.196
  398SOL    HW2 2094   1.289   5.282   2.189
  399SOL     OW 2095   4.816   5.282   1.517
  399SOL    HW1 2096   4.849   5.276   1.611
  399SOL    HW2 2097   4.720   5.253   1.514
  400SOL     OW 2098   0.062   6.232   5.382
  400SOL    HW1 2099   0.143   6.217   5.439
  400SOL    HW2 2100   0.091   6.246   5.287
  401SOL     OW 2101   4.886   1.793   6.429
  401SOL    HW1 2102   4.909   1.804   6.332
  401SOL    HW2 2103   4.952   1.843   6.485
  402SOL     OW 2104   6.131   5.741   1.955
  402SOL    HW1 2105   6.094   5.764   2.045
  402SOL    HW2 2106   6.152   5.643   1.951
  403SOL     OW 2107   4.847   2.051   5.817
  403SOL    HW1 2108   4.822   1.955   5.803
  403SOL    HW2 2109   4.938   2.068   5.779
  404SOL     OW 2110   0.667   6.961   4.709
  404SOL    HW1 2111   0.589   7.017   4.681
  404SOL    HW2 2112   0.634   6.875   4.749
  405SOL     OW 2113   1.443   1.876   0.697
  405SOL    HW1 2114   1.493   1.944   0.751
  405SOL    HW2 2115   1.347   1.878   0.722
  406SOL     OW 2116   1.463   2.509   4.478
  406SOL    HW1 2117   1.461   2.564   4.561
  406SOL    HW2 2118   1.378   2.456   4.470
  407SOL     OW 2119   2.899   0.152   5.343
  407SOL    HW1 2120   2.838   0.151   5.263
  407SOL    HW2 2121   2.994   0.153   5.312
  408SOL     OW 2122   1.959   6.934   3.893
  408SOL    HW1 2123   1.914   7.011   3.940
  408SOL    HW2 2124   1.898   6.855   3.893
  409SOL     OW 2125   5.903   3.022   3.230
  409SOL    HW1 2126   5.991   3.066   3.244
  409SOL    HW2 2127   5.852   3.021   3.316
  410SOL     OW 2128   2.423   0.352   6.985
  410SOL    HW1 2129   2.467   0.421   6.929
  410SOL    HW2 2130   2.369   0.290   6.927
  411SOL     OW 2131   5.974   4.044   5.789
  411SOL    HW1 2132   6.033   4.097   5.728
  411SOL    HW2 2133   5.880   4.047   5.755
  412SOL     OW 2134   3.408   6.998   2.628
  412SOL    HW1 2135   3.479   6.980   2.560
  412SOL    HW2 2136   3.431   6.950   2.713
  413SOL     OW 2137   3.368   5.815   0.943
  413SOL    HW1 2138   3.378   5.910   0.970
  413SOL    HW2 2139   3.404   5.756   1.016
  414SOL     OW 2140   4.677   4.785   1.138
  414SOL    HW1 2141   4.727   4.845   1.201
  414SOL    HW2 2142   4.682   4.823   1.045
  415SOL     OW 2143   1.682   6.118   1.511
  415SOL    HW1 2144   1.682   6.151   1.606
  415SOL    HW2 2145   1.610   6.050   1.500
  416SOL     OW 2146   4.195   6.356   4.540
  416SOL    HW1 2147   4.222   6.452   4.538
  416SOL    HW2 2148   4.096   6.350   4.525
  417SOL     OW 2149   3.449   6.290   2.504
  417SOL    HW1 2150   3.450   6.310   2.406
  417SOL    HW2 2151   3.535   6.319   2.545
  418SOL     OW 2152   5.018   6.006   0.458
  418SOL    HW1 2153   5.033   6.069   0.534
  418SOL    HW2 2154   4.924   6.015   0.426
  419SOL     OW 2155   0.398   0.176   1.154
  419SOL    HW1 2156   0.363   0.089   1.118
  419SOL    HW2 2157   0.451   0.222   1.083
  420SOL     OW 2158   5.601   3.954   0.485
  420SOL    HW1 2159   5.579   3.881   0.550
  420SOL    HW2 2160   5.698   3.977   0.494
  421SOL     OW 2161   2.408   5.581   6.660
  421SOL    HW1 2162   2.414   5.577   6.760
  421SOL    HW2 2163   2.477   5.644   6.625
  422SOL     OW 2164   6.206   4.159   0.038
  422SOL    HW1 2165   6.269   4.206   6.995
  422SOL    HW2 2166   6.150   4.226   0.087
  423SOL     OW 2167   6.407   2.793   6.707
  423SOL    HW1 2168   6.370   2.882   6.681
  423SOL    HW2 2169   6.504   2.803   6.729
  424SOL     OW 2170   3.411   4.272   0.318
  424SOL    HW1 2171   3.334   4.235   0.369
  424SOL    HW2 2172   3.413   4.372   0.328
  425SOL     OW 2173   4.846   1.678   1.220
  425SOL    HW1 2174   4.842   1.597   1.279
  425SOL    HW2 2175   4.915   1.663   1.149
  426SOL     OW 2176   4.978   2.508   5.586
  426SOL    HW1 2177   4.922   2.521   5.667
  426SOL    HW2 2178   5.053   2.575   5.586
  427SOL     OW 2179   5.336   4.029   1.431
  427SOL    HW1 2180   5.384   4.089   1.367
  427SOL    HW2 2181   5.246   4.068   1.451
  428SOL     OW 2182   4.181   0.463   5.446
  428SOL    HW1 2183   4.118   0.526   5.401
  428SOL    HW2 2184   4.204   0.498   5.537
  429SOL     OW 2185   1.735   4.890   0.034
  429SOL    HW1 2186   1.768   4.842   6.971
  429SOL    HW2 2187   1.674   4.830   0.086
  430SOL     OW 2188   1.248   0.006   4.568
  430SOL    HW1 2189   1.199   0.013   4.655
  430SOL    HW2 2190   1.345   7.006   4.586
  431SOL     OW 2191   3.647   1.650   6.971
  431SOL    HW1 2192   3.619   1.734   7.017
  431SOL    HW2 2193   3.585   1.576   6.996
  432SOL     OW 2194   6.534   1.767   0.515
  432SOL    HW1 2195   6.465   1.829   0.476
  432SOL    HW2 2196   6.625   1.795   0.484
  433SOL     OW 2197   2.877   6.767   4.698
  433SOL    HW1 2198   2.870   6.717   4.784
  433SOL    HW2 2199   2.901   6.704   4.624
  434SOL     OW 2200   6.160   3.781   0.879
  434SOL    HW1 2201   6.158   3.719   0.957
  434SOL    HW2 2202   6.177   3.875   0.911
  435SOL     OW 2203   3.155   3.424   5.972
  435SOL    HW1 2204   3.232   3.368   6.003
  435SOL    HW2 2205   3.082   3.365   5.938
  436SOL     OW 2206   1.860   0.104   1.638
  436SOL    HW1 2207   1.899   0.012   1.627
  436SOL    HW2 2208   1.905   0.166   1.574
  437SOL     OW 2209   0.111   0.089   6.328
  437SOL    HW1 2210   0.165   0.080   6.412
  437SOL    HW2 2211   0.172   0.107   6.251
  438SOL     OW 2212   1.536   2.909   1.794
  438SOL    HW1 2213   1.590   2.969   1.734
  438SOL    HW2 2214   1.595   2.839   1.833
  439SOL     OW 2215   6.495   4.799   2.381
  439SOL    HW1 2216   6.547   4.729   2.333
  439SOL    HW2 2217   6.558   4.862   2.427
  440SOL     OW 2218   0.947   2.575   4.106
  440SOL    HW1 2219   0.971   2.617   4.019
  440SOL    HW2 2220   1.021   2.514   4.136
  441SOL     OW 2221   2.032   1.574   3.345
  441SOL    HW1 2222   2.088   1.578   3.262
  441SOL    HW2 2223   2.091   1.588   3.425
  442SOL     OW 2224   0.202   4.048   6.814
  442SOL    HW1 2225   0.301   4.067   6.814
  442SOL    HW2 2226   0.155   4.117   6.759
  443SOL     OW 2227   1.483   4.499   5.123
  443SOL    HW1 2228   1.476   4.399   5.123
  443SOL    HW2 2229   1.407   4.538   5.175
  444SOL     OW 2230   4.077   2.718   6.151
  444SOL    HW1 2231   4.063   2.816   6.165
  444SOL    HW2 2232   4.170   2.694   6.178
  445SOL     OW 2233   2.164   5.067   3.655
  445SOL    HW1 2234   2.155   4.982   3.706
  445SOL    HW2 2235   2.095   5.133   3.687
  446SOL     OW 2236   3.447   4.930   3.925
  446SOL    HW1 2237   3.480   4.917   4.019
  446SOL    HW2 2238   3.367   4.872   3.910
  447SOL     OW 2239   0.149   4.447   0.015
  447SOL    HW1 2240   0.095   4.384   0.071
  447SOL    HW2 2241   0.101   4.534   0.007
  448SOL     OW 2242   3.779   0.962   5.242
  448SOL    HW1 2243   3.735   0.880   5.206
  448SOL    HW2 2244   3.811   1.019   5.166
  449SOL     OW 2245   5.809   1.294   4.621
  449SOL    HW1 2246   5.756   1.321   4.541
  449SOL    HW2 2247   5.853   1.374   4.660
  450SOL     OW 2248   6.966   5.832   3.607
  450SOL    HW1 2249   0.032   5.881   3.581
  450SOL    HW2 2250   6.896   5.848   3.538
  451SOL     OW 2251   0.878   2.035   2.367
  451SOL    HW1 2252   0.847   1.941   2.377
  451SOL    HW2 2253   0.802   2.098   2.387
  452SOL     OW 2254   6.956   5.363   0.395
  452SOL    HW1 2255   7.017   5.407   0.460
  452SOL    HW2 2256   6.888   5.429   0.363
  453SOL     OW 2257   3.339   1.009   0.036
  453SOL    HW1 2258   3.414   1.068   0.068
  453SOL    HW2 2259   3.293   0.968   0.115
  454SOL     OW 2260   0.039   5.881   6.108
  454SOL    HW1 2261   0.014   5.958   6.050
  454SOL    HW2 2262   0.043   5.797   6.053
  455SOL     OW 2263   5.743   6.974   4.112
  455SOL    HW1 2264   5.757   6.990   4.015
  455SOL    HW2 2265   5.654   7.012   4.139
  456SOL     OW 2266   4.110   6.007   6.301
  456SOL    HW1 2267   4.060   5.921   6.296
  456SOL    HW2 2268   4.058   6.078   6.253
  457SOL     OW 2269   2.175   3.948   3.382
  457SOL    HW1 2270   2.117   3.964   3.462
  457SOL    HW2 2271   2.197   3.851   3.375
  458SOL     OW 2272   5.484   5.627   5.721
  458SOL    HW1 2273   5.466   5.581   5.634
  458SOL    HW2 2274   5.581   5.617   5.744
  459SOL     OW 2275   1.019   0.061   2.950
  459SOL    HW1 2276   1.023   7.015   3.026
  459SOL    HW2 2277   1.112   0.092   2.928
  460SOL     OW 2278   0.318   1.888   1.850
  460SOL    HW1 2279   0.395   1.863   1.792
  460SOL    HW2 2280   0.337   1.976   1.895
  461SOL     OW 2281   4.569   6.929   4.902
  461SOL    HW1 2282   4.647   6.868   4.890
  461SOL    HW2 2283   4.600   0.002   4.926
  462SOL     OW 2284   3.364   2.653   5.997
  462SOL    HW1 2285   3.457   2.638   6.031
  462SOL    HW2 2286   3.367   2.717   5.920
  463SOL     OW 2287   6.122   5.291   3.039
  463SOL    HW1 2288   6.031   5.256   3.062
  463SOL    HW2 2289   6.139   5.376   3.088
  464SOL     OW 2290   1.923   1.207   6.551
  464SOL    HW1 2291   2.007   1.174   6.507
  464SOL    HW2 2292   1.928   1.188   6.649
  465SOL     OW 2293   0.934   1.439   4.465
  465SOL    HW1 2294   0.934   1.538   4.453
  465SOL    HW2 2295   0.978   1.395   4.386
  466SOL     OW 2296   0.298   6.883   3.543
  466SOL    HW1 2297   0.285   6.960   3.481
  466SOL    HW2 2298   0.345   6.914   3.626
  467SOL     OW 2299   0.633   0.394   6.318
  467SOL    HW1 2300   0.697   0.437   6.382
  467SOL    HW2 2301   0.682   0.365   6.236
  468SOL     OW 2302   4.112   5.767   0.732
  468SOL    HW1 2303   4.196   5.775   0.679
  468SOL    HW2 2304   4.051   5.843   0.709
  469SOL     OW 2305   2.284   5.262   0.337
  469SOL    HW1 2306   2.278   5.164   0.354
  469SOL    HW2 2307   2.292   5.311   0.424
  470SOL     OW 2308   4.369   0.398   2.018
  470SOL    HW1 2309   4.351   0.432   2.110
  470SOL    HW2 2310   4.455   0.346   2.018
  471SOL     OW 2311   1.486   2.687   4.287
  471SOL    HW1 2312   1.505   2.603   4.339
  471SOL    HW2 2313   1.522   2.766   4.337
  472SOL     OW 2314   4.623   4.091   6.016
  472SOL    HW1 2315   4.615   4.175   6.069
  472SOL    HW2 2316   4.709   4.091   5.966
  473SOL     OW 2317   0.220   2.871   1.726
  473SOL    HW1 2318   0.166   2.789   1.744
  473SOL    HW2 2319   0.162   2.940   1.684
  474SOL     OW 2320   4.089   5.167   3.950
  474SOL    HW1 2321   4.105   5.068   3.941
  474SOL    HW2 2322   4.093   5.193   4.047
  475SOL     OW 2323   6.603   0.034   6.475
  475SOL    HW1 2324   6.523   6.994   6.492
  475SOL    HW2 2325   6.574   0.130   6.470
  476SOL     OW 2326   6.618   3.785   2.448
  476SOL    HW1 2327   6.690   3.741   2.395
  476SOL    HW2 2328   6.583   3.721   2.517
  477SOL     OW 2329   2.260   5.212   4.433
  477SOL    HW1 2330   2.225   5.239   4.523
  477SOL    HW2 2331   2.198   5.244   4.362
  478SOL     OW 2332   2.990   6.200   2.723
  478SOL    HW1 2333   2.944   6.287   2.734
  478SOL    HW2 2334   3.088   6.215   2.710
  479SOL     OW 2335   3.174   1.998   0.233
  479SOL    HW1 2336   3.181   2.097   0.234
  479SOL    HW2 2337   3.228   1.960   0.308
  480SOL     OW 2338   1.557   0.215   1.458
  480SOL    HW1 2339   1.547   0.123   1.421
  480SOL    HW2 2340   1.545   0.213   1.558
  481SOL     OW 2341   2.281   1.132   1.675
  481SOL    HW1 2342   2.306   1.036   1.665
  481SOL    HW2 2343   2.253   1.169   1.587
  482SOL     OW 2344   4.919   4.454   2.563
  482SOL    HW1 2345   4.829   4.489   2.537
  482SOL    HW2 2346   4.940   4.372   2.511
  483SOL     OW 2347   5.408   2.422   1.719
  483SOL    HW1 2348   5.499   2.455   1.694
  483SOL    HW2 2349   5.372   2.364   1.645
  484SOL     OW 2350   0.821   2.877   4.515
  484SOL    HW1 2351   0.801   2.890   4.418
  484SOL    HW2 2352   0.854   2.963   4.554
  485SOL     OW 2353   3.520   4.922   2.154
  485SOL    HW1 2354   3.459   4.997   2.130
  485SOL    HW2 2355   3.519   4.853   2.082
  486SOL     OW 2356   1.035   1.436   0.868
  486SOL    HW1 2357   0.955   1.377   0.870
  486SOL    HW2 2358   1.118   1.381   0.880
  487SOL     OW 2359   0.817   1.874   6.840
  487SOL    HW1 2360   0.736   1.914   6.798
  487SOL    HW2 2361   0.839   1.788   6.794
  488SOL     OW 2362   0.978   1.352   1.369
  488SOL    HW1 2363   0.927   1.306   1.442
  488SOL    HW2 2364   1.069   1.376   1.403
  489SOL     OW 2365   3.294   5.539   0.096
  489SOL    HW1 2366   3.321   5.444   0.080
  489SOL    HW2 2367   3.373   5.598   0.081
  490SOL     OW 2368   6.365   6.179   4.350
  490SOL    HW1 2369   6.402   6.110   4.287
  490SOL    HW2 2370   6.437   6.209   4.413
  491SOL     OW 2371   0.103   2.774   2.796
  491SOL    HW1 2372   0.176   2.754   2.730
  491SOL    HW2 2373   0.120   2.863   2.837
  492SOL     OW 2374   3.382   0.495   5.812
  492SOL    HW1 2375   3.376   0.518   5.909
  492SOL    HW2 2376   3.358   0.574   5.757
  493SOL     OW 2377   6.399   4.771   6.676
  493SOL    HW1 2378   6.328   4.780   6.606
  493SOL    HW2 2379   6.406   4.856   6.727
  494SOL     OW 2380   0.148   6.015   6.751
  494SOL    HW1 2381   0.214   6.041   6.822
  494SOL    HW2 2382   0.099   6.097   6.720
  495SOL     OW 2383   4.995   5.467   2.540
  495SOL    HW1 2384   5.012   5.512   2.627
  495SOL    HW2 2385   4.902   5.486   2.510
  496SOL     OW 2386   5.220   2.784   2.834
  496SOL    HW1 2387   5.155   2.787   2.758
  496SOL    HW2 2388   5.198   2.857   2.899
  497SOL     OW 2389   3.263   1.136   5.202
  497SOL    HW1 2390   3.359   1.156   5.220
  497SOL    HW2 2391   3.225   1.205   5.139
  498SOL     OW 2392   1.217   3.484   1.941
  498SOL    HW1 2393   1.301   3.439   1.970
  498SOL    HW2 2394   1.216   3.578   1.975
  499SOL     OW 2395   3.052   1.123   4.280
  499SOL    HW1 2396   2.997   1.079   4.352
  499SOL    HW2 2397   3.048   1.069   4.197
  500SOL     OW 2398   0.656   4.520   4.087
  500SOL    HW1 2399   0.564   4.481   4.082
  500SOL    HW2 2400   0.699   4.516   3.997
  501SOL     OW 2401   2.712   1.866   6.863
  501SOL    HW1 2402   2.795   1.922   6.858
  501SOL    HW2 2403   2.717   1.808   6.944
  502SOL     OW 2404   5.513   4.321   5.699
  502SOL    HW1 2405   5.537   4.411   5.737
  502SOL    HW2 2406   5.451   4.273   5.761
  503SOL     OW 2407   6.555   4.301   5.934
  503SOL    HW1 2408   6.561   4.275   5.838
  503SOL    HW2 2409   6.466   4.274   5.970
  504SOL     OW 2410   2.360   6.487   4.208
  504SOL    HW1 2411   2.399   6.539   4.284
  504SOL    HW2 2412   2.266   6.517   4.192
  505SOL     OW 2413   3.983   0.495   5.652
  505SOL    HW1 2414   4.009   0.581   5.695
  505SOL    HW2 2415   4.015   0.418   5.708
  506SOL     OW 2416   1.785   5.066   4.668
  506SOL    HW1 2417   1.755   4.971   4.669
  506SOL    HW2 2418   1.807   5.095   4.762
  507SOL     OW 2419   2.916   0.008   4.447
  507SOL    HW1 2420   2.845   0.024   4.516
  507SOL    HW2 2421   3.006   0.014   4.490
  508SOL     OW 2422   5.968   3.237   2.978
  508SOL    HW1 2423   6.016   3.259   2.893
  508SOL    HW2 2424   5.869   3.244   2.963
  509SOL     OW 2425   3.842   0.924   1.428
  509SOL    HW1 2426   3.933   0.913   1.387
  509SOL    HW2 2427   3.780   0.856   1.390
  510SOL     OW 2428   6.905   4.787   5.700
  510SOL    HW1 2429   6.902   4.885   5.678
  510SOL    HW2 2430   6.913   4.775   5.799
  511SOL     OW 2431   0.125   6.571   6.808
  511SOL    HW1 2432   0.123   6.652   6.865
  511SOL    HW2 2433   0.157   6.596   6.716
  512SOL     OW 2434   0.521   2.656   0.156
  512SOL    HW1 2435   0.505   2.696   0.247
  512SOL    HW2 2436   0.438   2.666   0.101
  513SOL     OW 2437   5.717   6.378   2.658
  513SOL    HW1 2438   5.779   6.310   2.618
  513SOL    HW2 2439   5.726   6.464   2.608
  514SOL     OW 2440   6.571   2.521   4.048
  514SOL    HW1 2441   6.579   2.442   4.108
  514SOL    HW2 2442   6.480   2.523   4.006
  515SOL     OW 2443   2.552   6.707   5.950
  515SOL    HW1 2444   2.573   6.667   6.039
  515SOL    HW2 2445   2.617   6.673   5.882
  516SOL     OW 2446   2.837   4.692   1.674
  516SOL    HW1 2447   2.898   4.701   1.596
  516SOL    HW2 2448   2.868   4.617   1.733
  517SOL     OW 2449   5.081   6.152   2.318
  517SOL    HW1 2450   5.078   6.239   2.366
  517SOL    HW2 2451   5.171   6.141   2.274
  518SOL     OW 2452   2.466   2.443   1.481
  518SOL    HW1 2453   2.371   2.414   1.496
  518SOL    HW2 2454   2.493   2.505   1.554
  519SOL     OW 2455   6.809   0.699   4.886
  519SOL    HW1 2456   6.869   0.748   4.823
  519SOL    HW2 2457   6.715   0.704   4.853
  520SOL     OW 2458   5.490   4.464   6.351
  520SOL    HW1 2459   5.524   4.557   6.367
  520SOL    HW2 2460   5.530   4.402   6.419
  521SOL     OW 2461   5.951   1.984   6.200
  521SOL    HW1 2462   5.960   1.982   6.299
  521SOL    HW2 2463   5.865   1.942   6.172
  522SOL     OW 2464   4.010   3.062   5.218
  522SOL    HW1 2465   4.089   3.015   5.257
  522SOL    HW2 2466   3.989   3.142   5.274
  523SOL     OW 2467   6.700   5.724   3.939
  523SOL    HW1 2468   6.713   5.741   4.037
  523SOL    HW2 2469   6.653   5.637   3.926
  524SOL     OW 2470   2.748   0.876   6.725
  524SOL    HW1 2471   2.745   0.871   6.824
  524SOL    HW2 2472   2.678   0.939   6.692
  525SOL     OW 2473   2.406   3.713   6.481
  525SOL    HW1 2474   2.417   3.808   6.451
  525SOL    HW2 2475   2.469   3.654   6.429
  526SOL     OW 2476   2.423   5.648   4.834
  526SOL    HW1 2477   2.331   5.649   4.795
  526SOL    HW2 2478   2.419   5.615   4.928
  527SOL     OW 2479   6.422   2.013   5.963
  527SOL    HW1 2480   6.345   2.066   5.928
  527SOL    HW2 2481   6.448   2.046   6.054
  528SOL     OW 2482   1.486   1.542   4.273
  528SOL    HW1 2483   1.508   1.619   4.212
  528SOL    HW2 2484   1.562   1.528   4.337
  529SOL     OW 2485   1.034   4.920   4.804
  529SOL    HW1 2486   0.968   4.881   4.868
  529SOL    HW2 2487   1.111   4.857   4.793
  530SOL     OW 2488   2.560   3.053   5.444
  530SOL    HW1 2489   2.498   2.998   5.501
  530SOL    HW2 2490   2.514   3.078   5.359
  531SOL     OW 2491   0.651   1.036   1.047
  531SOL    HW1 2492   0.641   1.127   1.087
  531SOL    HW2 2493   0.734   0.993   1.082
  532SOL     OW 2494   0.553   2.043   6.021
  532SOL    HW1 2495   0.510   2.010   6.105
  532SOL    HW2 2496   0.484   2.053   5.950
  533SOL     OW 2497   5.140   6.123   4.131
  533SOL    HW1 2498   5.187   6.036   4.111
  533SOL    HW2 2499   5.041   6.107   4.131
  534SOL     OW 2500   4.835   5.531   3.907
  534SOL    HW1 2501   4.931   5.502   3.913
  534SOL    HW2 2502   4.777   5.459   3.944
  535SOL     OW 2503   1.081   4.547   4.015
  535SOL    HW1 2504   1.106   4.475   4.080
  535SOL    HW2 2505   1.063   4.632   4.065
  536SOL     OW 2506   0.391   5.595   1.606
  536SOL    HW1 2507   0.465   5.578   1.541
  536SOL    HW2 2508   0.357   5.688   1.595
  537SOL     OW 2509   2.229   6.206   3.659
  537SOL    HW1 2510   2.240   6.226   3.756
  537SOL    HW2 2511   2.290   6.131   3.633
  538SOL     OW 2512   1.187   5.546   3.555
  538SOL    HW1 2513   1.122   5.511   3.487
  538SOL    HW2 2514   1.139   5.609   3.617
  539SOL     OW 2515   0.995   5.170   1.472
  539SOL    HW1 2516   1.076   5.118   1.445
  539SOL    HW2 2517   0.916   5.137   1.422
  540SOL     OW 2518   0.656   2.198   2.314
  540SOL    HW1 2519   0.650   2.201   2.215
  540SOL    HW2 2520   0.618   2.283   2.353
  541SOL     OW 2521   3.274   6.518   4.658
  541SOL    HW1 2522   3.253   6.499   4.754
  541SOL    HW2 2523   3.357   6.470   4.632
  542SOL     OW 2524   6.610   6.508   0.083
  542SOL    HW1 2525   6.570   6.425   0.044
  542SOL    HW2 2526   6.694   6.485   0.133
  543SOL     OW 2527   0.735   5.174   6.536
  543SOL    HW1 2528   0.796   5.227   6.596
  543SOL    HW2 2529   0.641   5.207   6.547
  544SOL     OW 2530   1.248   4.529   1.263
  544SOL    HW1 2531   1.339   4.537   1.223
  544SOL    HW2 2532   1.213   4.621   1.284
  545SOL     OW 2533   3.834   1.707   3.295
  545SOL    HW1 2534   3.773   1.762   3.352
  545SOL    HW2 2535   3.886   1.643   3.353
  546SOL     OW 2536   1.518   3.379   1.766
  546SOL    HW1 2537   1.532   3.477   1.779
  546SOL    HW2 2538   1.452   3.364   1.692
  547SOL     OW 2539   2.064   1.979   0.063
  547SOL    HW1 2540   2.105   1.914   7.016
  547SOL    HW2 2541   2.116   1.977   0.149
  548SOL     OW 2542   4.100   3.618   3.360
  548SOL    HW1 2543   4.114   3.558   3.281
  548SOL    HW2 2544   4.110   3.564   3.444
  549SOL     OW 2545   4.974   3.648   1.340
  549SOL    HW1 2546   4.961   3.570   1.278
  549SOL    HW2 2547   4.977   3.615   1.434
  550SOL     OW 2548   0.135   3.097   2.918
  550SOL    HW1 2549   0.135   3.190   2.881
  550SOL    HW2 2550   0.074   3.093   2.997
  551SOL     OW 2551   6.638   1.595   0.709
  551SOL    HW1 2552   6.670   1.648   0.787
  551SOL    HW2 2553   6.610   1.657   0.636
  552SOL     OW 2554   4.124   5.172   0.969
  552SOL    HW1 2555   4.162   5.250   0.919
  552SOL    HW2 2556   4.029   5.158   0.942
  553SOL     OW 2557   1.730   0.440   2.661
  553SOL    HW1 2558   1.756   0.442   2.565
  553SOL    HW2 2559   1.810   0.420   2.717
  554SOL     OW 2560   5.731   6.170   6.138
  554SOL    HW1 2561   5.635   6.198   6.138
  554SOL    HW2 2562   5.781   6.220   6.067
  555SOL     OW 2563   1.924   4.996   4.245
  555SOL    HW1 2564   1.966   5.000   4.336
  555SOL    HW2 2565   1.967   5.065   4.186
  556SOL     OW 2566   6.212   2.193   4.009
  556SOL    HW1 2567   6.235   2.158   4.100
  556SOL    HW2 2568   6.122   2.236   4.012
  557SOL     OW 2569   6.774   5.994   6.556
  557SOL    HW1 2570   6.816   5.974   6.468
  557SOL    HW2 2571   6.676   6.012   6.543
  558SOL     OW 2572   4.138   3.464   5.202
  558SOL    HW1 2573   4.076   3.389   5.227
  558SOL    HW2 2574   4.092   3.551   5.214
  559SOL     OW 2575   6.860   5.918   6.323
  559SOL    HW1 2576   6.927   5.857   6.282
  559SOL    HW2 2577   6.783   5.929   6.261
  560SOL     OW 2578   4.547   6.193   6.993
  560SOL    HW1 2579   4.535   6.149   0.064
  560SOL    HW2 2580   4.462   6.240   6.968
  561SOL     OW 2581   6.037   6.761   0.421
  561SOL    HW1 2582   6.133   6.749   0.396
  561SOL    HW2 2583   6.024   6.737   0.517
  562SOL     OW 2584   5.145   0.951   5.976
  562SOL    HW1 2585   5.186   0.954   6.067
  562SOL    HW2 2586   5.188   1.020   5.918
  563SOL     OW 2587   2.461   6.487   3.783
  563SOL    HW1 2588   2.556   6.519   3.786
  563SOL    HW2 2589   2.411   6.525   3.860
  564SOL     OW 2590   1.930   2.027   6.138
  564SOL    HW1 2591   1.998   1.959   6.167
  564SOL    HW2 2592   1.977   2.106   6.099
  565SOL     OW 2593   4.309   3.292   5.781
  565SOL    HW1 2594   4.246   3.366   5.805
  565SOL    HW2 2595   4.338   3.302   5.686
  566SOL     OW 2596   4.008   4.739   3.205
  566SOL    HW1 2597   3.984   4.797   3.126
  566SOL    HW2 2598   4.084   4.680   3.180
  567SOL     OW 2599   3.500   3.343   4.262
  567SOL    HW1 2600   3.410   3.343   4.218
  567SOL    HW2 2601   3.523   3.251   4.293
  568SOL     OW 2602   2.834   2.376   0.231
  568SOL    HW1 2603   2.820   2.475   0.219
  568SOL    HW2 2604   2.816   2.329   0.145
  569SOL     OW 2605   1.587   2.831   0.647
  569SOL    HW1 2606   1.630   2.744   0.669
  569SOL    HW2 2607   1.527   2.819   0.567
  570SOL     OW 2608   1.357   6.526   0.794
  570SOL    HW1 2609   1.439   6.473   0.774
  570SOL    HW2 2610   1.301   6.477   0.861
  571SOL     OW 2611   3.555   5.338   2.684
  571SOL    HW1 2612   3.572   5.431   2.652
  571SOL    HW2 2613   3.505   5.341   2.770
  572SOL     OW 2614   2.249   3.825   5.653
  572SOL    HW1 2615   2.319   3.754   5.651
  572SOL    HW2 2616   2.234   3.855   5.747
  573SOL     OW 2617   4.340   1.280   5.537
  573SOL    HW1 2618   4.293   1.221   5.603
  573SOL    HW2 2619   4.305   1.262   5.445
  574SOL     OW 2620   2.032   2.105   4.436
  574SOL    HW1 2621   2.127   2.129   4.452
  574SOL    HW2 2622   1.981   2.186   4.405
  575SOL     OW 2623   6.472   3.194   0.278
  575SOL    HW1 2624   6.406   3.218   0.349
  575SOL    HW2 2625   6.439   3.226   0.189
  576SOL     OW 2626   0.864   2.546   1.821
  576SOL    HW1 2627   0.820   2.616   1.877
  576SOL    HW2 2628   0.849   2.456   1.862
  577SOL     OW 2629   2.230   2.111   3.830
  577SOL    HW1 2630   2.147   2.164   3.811
  577SOL    HW2 2631   2.225   2.074   3.923
  578SOL     OW 2632   0.417   3.110   3.363
  578SOL    HW1 2633   0.323   3.143   3.365
  578SOL    HW2 2634   0.418   3.014   3.333
  579SOL     OW 2635   3.839   1.965   0.825
  579SOL    HW1 2636   3.869   2.006   0.738
  579SOL    HW2 2637   3.918   1.950   0.884
  580SOL     OW 2638   0.920   5.329   6.694
  580SOL    HW1 2639   1.012   5.298   6.669
  580SOL    HW2 2640   0.898   5.299   6.787
  581SOL     OW 2641   3.771   2.913   3.010
  581SOL    HW1 2642   3.746   2.825   2.971
  581SOL    HW2 2643   3.690   2.971   3.017
  582SOL     OW 2644   5.590   3.910   2.570
  582SOL    HW1 2645   5.527   3.846   2.613
  582SOL    HW2 2646   5.562   4.004   2.592
  583SOL     OW 2647   2.358   4.719   0.044
  583SOL    HW1 2648   2.271   4.695   0.086
  583SOL    HW2 2649   2.409   4.781   0.104
  584SOL     OW 2650   0.508   4.904   5.201
  584SOL    HW1 2651   0.477   4.838   5.269
  584SOL    HW2 2652   0.486   4.870   5.109
  585SOL     OW 2653   0.185   2.233   5.731
  585SOL    HW1 2654   0.225   2.196   5.815
  585SOL    HW2 2655   0.258   2.273   5.675
  586SOL     OW 2656   2.877   6.512   1.146
  586SOL    HW1 2657   2.838   6.601   1.167
  586SOL    HW2 2658   2.855   6.488   1.051
  587SOL     OW 2659   1.137   3.156   6.140
  587SOL    HW1 2660   1.206   3.129   6.207
  587SOL    HW2 2661   1.080   3.078   6.117
  588SOL     OW 2662   3.756   6.697   1.238
  588SOL    HW1 2663   3.828   6.652   1.290
  588SOL    HW2 2664   3.667   6.679   1.281
  589SOL     OW 2665   3.640   4.943   2.680
  589SOL    HW1 2666   3.599   4.860   2.642
  589SOL    HW2 2667   3.686   4.993   2.607
  590SOL     OW 2668   6.921   2.506   2.257
  590SOL    HW1 2669   6.873   2.448   2.323
  590SOL    HW2 2670   7.018   2.513   2.283
  591SOL     OW 2671   3.812   0.211   3.767
  591SOL    HW1 2672   3.773   0.270   3.697
  591SOL    HW2 2673   3.864   0.267   3.832
  592SOL     OW 2674   4.907   0.687   0.540
  592SOL    HW1 2675   4.948   0.655   0.454
  592SOL    HW2 2676   4.856   0.771   0.523
  593SOL     OW 2677   4.738   2.731   3.785
  593SOL    HW1 2678   4.762   2.687   3.699
  593SOL    HW2 2679   4.745   2.664   3.859
  594SOL     OW 2680   4.322   3.571   0.809
  594SOL    HW1 2681   4.230   3.548   0.777
  594SOL    HW2 2682   4.344   3.517   0.890
  595SOL     OW 2683   3.845   6.102   3.583
  595SOL    HW1 2684   3.922   6.043   3.608
  595SOL    HW2 2685   3.772   6.046   3.544
  596SOL     OW 2686   0.903   4.790   2.798
  596SOL    HW1 2687   0.814   4.751   2.823
  596SOL    HW2 2688   0.890   4.856   2.724
  597SOL     OW 2689   4.505   0.138   6.535
  597SOL    HW1 2690   4.447   0.182   6.604
  597SOL    HW2 2691   4.490   0.181   6.446
  598SOL     OW 2692   3.855   4.781   0.534
  598SOL    HW1 2693   3.809   4.694   0.547
  598SOL    HW2 2694   3.954   4.768   0.538
  599SOL     OW 2695   6.765   0.336   2.596
  599SOL    HW1 2696   6.730   0.248   2.562
  599SOL    HW2 2697   6.802   0.388   2.520
  600SOL     OW 2698   1.438   6.995   0.654
  600SOL    HW1 2699   1.400   6.923   0.713
  600SOL    HW2 2700   1.474   6.954   0.571
  601SOL     OW 2701   2.486   5.434   3.627
  601SOL    HW1 2702   2.543   5.391   3.558
  601SOL    HW2 2703   2.431   5.507   3.584
  602SOL     OW 2704   1.734   0.335   1.284
  602SOL    HW1 2705   1.731   0.434   1.269
  602SOL    HW2 2706   1.668   0.309   1.354
  603SOL     OW 2707   4.501   1.943   3.259
  603SOL    HW1 2708   4.548   1.907   3.340
  603SOL    HW2 2709   4.452   2.027   3.284
  604SOL     OW 2710   1.007   3.423   6.353
  604SOL    HW1 2711   1.086   3.365   6.369
  604SOL    HW2 2712   0.981   3.468   6.439
  605SOL     OW 2713   6.625   6.298   3.182
  605SOL    HW1 2714   6.711   6.309   3.132
  605SOL    HW2 2715   6.557   6.363   3.147
  606SOL     OW 2716   3.943   0.488   4.313
  606SOL    HW1 2717   3.861   0.501   4.258
  606SOL    HW2 2718   4.018   0.541   4.274
  607SOL     OW 2719   5.338   1.221   3.963
  607SOL    HW1 2720   5.340   1.125   3.993
  607SOL    HW2 2721   5.385   1.229   3.875
  608SOL     OW 2722   3.726   0.943   0.675
  608SOL    HW1 2723   3.727   0.983   0.766
  608SOL    HW2 2724   3.783   0.998   0.614
  609SOL     OW 2725   3.424   2.897   4.037
  609SOL    HW1 2726   3.414   2.900   4.137
  609SOL    HW2 2727   3.421   2.802   4.007
  610SOL     OW 2728   5.348   1.910   4.208
  610SOL    HW1 2729   5.341   1.821   4.253
  610SOL    HW2 2730   5.437   1.917   4.163
  611SOL     OW 2731   0.200   0.501   0.518
  611SOL    HW1 2732   0.143   0.562   0.463
  611SOL    HW2 2733   0.249   0.554   0.587
  612SOL     OW 2734   3.587   5.664   6.278
  612SOL    HW1 2735   3.577   5.574   6.235
  612SOL    HW2 2736   3.638   5.725   6.218
  613SOL     OW 2737   4.449   1.482   6.096
  613SOL    HW1 2738   4.432   1.467   6.193
  613SOL    HW2 2739   4.406   1.568   6.068
  614SOL     OW 2740   6.101   4.458   0.647
  614SOL    HW1 2741   6.155   4.541   0.638
  614SOL    HW2 2742   6.160   4.382   0.673
  615SOL     OW 2743   0.652   0.120   0.725
  615SOL    HW1 2744   0.655   0.199   0.664
  615SOL    HW2 2745   0.745   0.093   0.749
  616SOL     OW 2746   5.652   1.834   4.494
  616SOL    HW1 2747   5.741   1.790   4.485
  616SOL    HW2 2748   5.599   1.788   4.565
  617SOL     OW 2749   0.023   4.983   5.458
  617SOL    HW1 2750   0.010   4.992   5.359
  617SOL    HW2 2751   0.054   4.890   5.479
  618SOL     OW 2752   5.723   3.734   0.217
  618SOL    HW1 2753   5.663   3.656   0.236
  618SOL    HW2 2754   5.791   3.742   0.290
  619SOL     OW 2755   3.473   0.500   0.666
  619SOL    HW1 2756   3.540   0.565   0.631
  619SOL    HW2 2757   3.423   0.459   0.590
  620SOL     OW 2758   5.665   2.958   1.980
  620SOL    HW1 2759   5.761   2.977   1.996
  620SOL    HW2 2760   5.637   2.877   2.032
  621SOL     OW 2761   2.628   0.563   6.900
  621SOL    HW1 2762   2.716   0.547   6.944
  621SOL    HW2 2763   2.625   0.511   6.814
  622SOL     OW 2764   0.952   2.110   5.380
  622SOL    HW1 2765   0.942   2.138   5.284
  622SOL    HW2 2766   1.049   2.105   5.403
  623SOL     OW 2767   5.775   6.267   4.213
  623SOL    HW1 2768   5.698   6.205   4.230
  623SOL    HW2 2769   5.846   6.219   4.161
  624SOL     OW 2770   6.538   1.217   6.302
  624SOL    HW1 2771   6.482   1.293   6.270
  624SOL    HW2 2772   6.553   1.225   6.400
  625SOL     OW 2773   2.998   0.815   0.648
  625SOL    HW1 2774   3.085   0.769   0.661
  625SOL    HW2 2775   2.944   0.810   0.732
  626SOL     OW 2776   0.689   5.599   3.856
  626SOL    HW1 2777   0.695   5.653   3.940
  626SOL    HW2 2778   0.762   5.531   3.855
  627SOL     OW 2779   6.341   7.003   6.993
  627SOL    HW1 2780   6.321   0.044   6.914
  627SOL    HW2 2781   6.306   6.911   6.976
  628SOL     OW 2782   5.183   4.267   5.300
  628SOL    HW1 2783   5.086   4.291   5.292
  628SOL    HW2 2784   5.198   4.219   5.386
  629SOL     OW 2785   6.864   0.697   6.533
  629SOL    HW1 2786   6.850   0.796   6.540
  629SOL    HW2 2787   6.935   0.670   6.598
  630SOL     OW 2788   6.524   1.627   1.248
  630SOL    HW1 2789   6.510   1.721   1.277
  630SOL    HW2 2790   6.608   1.591   1.288
  631SOL     OW 2791   1.884   2.925   4.837
  631SOL    HW1 2792   1.877   2.826   4.839
  631SOL    HW2 2793   1.978   2.953   4.857
  632SOL     OW 2794   3.863   3.279   0.281
  632SOL    HW1 2795   3.769   3.250   0.301
  632SOL    HW2 2796   3.864   3.377   0.261
  633SOL     OW 2797   1.191   5.851   1.656
  633SOL    HW1 2798   1.273   5.815   1.611
  633SOL    HW2 2799   1.193   5.951   1.653
  634SOL     OW 2800   2.924   3.353   4.175
  634SOL    HW1 2801   2.918   3.449   4.203
  634SOL    HW2 2802   2.917   3.347   4.075
  635SOL     OW 2803   5.740   0.959   6.518
  635SOL    HW1 2804   5.693   1.029   6.464
  635SOL    HW2 2805   5.801   1.003   6.584
  636SOL     OW 2806   3.160   0.391   6.616
  636SOL    HW1 2807   3.197   0.367   6.526
  636SOL    HW2 2808   3.189   0.483   6.640
  637SOL     OW 2809   6.774   1.113   1.437
  637SOL    HW1 2810   6.830   1.038   1.474
  637SOL    HW2 2811   6.779   1.112   1.337
  638SOL     OW 2812   6.242   3.351   4.226
  638SOL    HW1 2813   6.334   3.313   4.213
  638SOL    HW2 2814   6.246   3.425   4.294
  639SOL     OW 2815   4.404   4.854   3.346
  639SOL    HW1 2816   4.410   4.950   3.372
  639SOL    HW2 2817   4.394   4.798   3.429
  640SOL     OW 2818   0.418   2.898   2.431
  640SOL    HW1 2819   0.403   2.969   2.362
  640SOL    HW2 2820   0.507   2.911   2.473
  641SOL     OW 2821   2.131   4.585   4.616
  641SOL    HW1 2822   2.202   4.520   4.643
  641SOL    HW2 2823   2.150   4.674   4.656
  642SOL     OW 2824   0.823   3.350   4.902
  642SOL    HW1 2825   0.755   3.277   4.897
  642SOL    HW2 2826   0.841   3.386   4.810
  643SOL     OW 2827   4.513   5.662   6.775
  643SOL    HW1 2828   4.581   5.691   6.708
  643SOL    HW2 2829   4.421   5.677   6.738
  644SOL     OW 2830   6.456   0.064   4.798
  644SOL    HW1 2831   6.499   7.007   4.748
  644SOL    HW2 2832   6.484   0.061   4.894
  645SOL     OW 2833   3.996   5.085   2.336
  645SOL    HW1 2834   3.989   4.987   2.319
  645SOL    HW2 2835   3.938   5.110   2.414
  646SOL     OW 2836   4.253   0.686   4.925
  646SOL    HW1 2837   4.154   0.692   4.918
  646SOL    HW2 2838   4.290   0.774   4.956
  647SOL     OW 2839   5.059   1.842   4.745
  647SOL    HW1 2840   5.121   1.778   4.791
  647SOL    HW2 2841   4.998   1.884   4.812
  648SOL     OW 2842   6.063   2.191   2.996
  648SOL    HW1 2843   5.995   2.129   3.034
  648SOL    HW2 2844   6.067   2.275   3.051
  649SOL     OW 2845   2.436   4.940   0.264
  649SOL    HW1 2846   2.509   4.888   0.309
  649SOL    HW2 2847   2.357   4.946   0.326
  650SOL     OW 2848   6.855   5.834   0.897
  650SOL    HW1 2849   6.861   5.917   0.842
  650SOL    HW2 2850   6.854   5.754   0.837
  651SOL     OW 2851   1.262   0.084   5.329
  651SOL    HW1 2852   1.298   0.177   5.316
  651SOL    HW2 2853   1.167   0.090   5.358
  652SOL     OW 2854   4.340   0.219   1.754
  652SOL    HW1 2855   4.371   0.138   1.803
  652SOL    HW2 2856   4.339   0.297   1.816
  653SOL     OW 2857   0.580   6.475   1.482
  653SOL    HW1 2858   0.626   6.492   1.569
  653SOL    HW2 2859   0.482   6.491   1.492
  654SOL     OW 2860   0.022   0.017   5.522
  654SOL    HW1 2861   0.038   7.011   5.427
  654SOL    HW2 2862   0.102   7.009   5.577
  655SOL     OW 2863   7.002   4.506   1.857
  655SOL    HW1 2864   0.082   4.504   1.878
  655SOL    HW2 2865   6.950   4.504   1.943
  656SOL     OW 2866   3.425   6.357   0.806
  656SOL    HW1 2867   3.459   6.429   0.746
  656SOL    HW2 2868   3.503   6.315   0.853
  657SOL     OW 2869   3.629   2.769   1.945
  657SOL    HW1 2870   3.646   2.673   1.921
  657SOL    HW2 2871   3.532   2.789   1.931
  658SOL     OW 2872   2.057   4.037   4.325
  658SOL    HW1 2873   2.008   3.964   4.372
  658SOL    HW2 2874   2.055   4.120   4.381
  659SOL     OW 2875   2.471   6.440   5.632
  659SOL    HW1 2876   2.446   6.377   5.705
  659SOL    HW2 2877   2.548   6.496   5.661
  660SOL     OW 2878   4.582   4.406   2.227
  660SOL    HW1 2879   4.570   4.348   2.146
  660SOL    HW2 2880   4.564   4.352   2.310
  661SOL     OW 2881   4.206   4.678   4.076
  661SOL    HW1 2882   4.200   4.628   3.990
  661SOL    HW2 2883   4.270   4.632   4.137
  662SOL     OW 2884   4.808   3.504   0.353
  662SOL    HW1 2885   4.854   3.503   0.441
  662SOL    HW2 2886   4.852   3.569   0.292
  663SOL     OW 2887   0.012   4.570   0.453
  663SOL    HW1 2888   0.097   4.616   0.427
  663SOL    HW2 2889   6.960   4.638   0.473
  664SOL     OW 2890   1.253   6.744   6.294
  664SOL    HW1 2891   1.334   6.794   6.264
  664SOL    HW2 2892   1.234   6.670   6.230
  665SOL     OW 2893   3.796   5.876   0.886
  665SOL    HW1 2894   3.832   5.844   0.973
  665SOL    HW2 2895   3.799   5.976   0.884
  666SOL     OW 2896   3.841   1.815   0.270
  666SOL    HW1 2897   3.929   1.820   0.223
  666SOL    HW2 2898   3.771   1.861   0.215
  667SOL     OW 2899   0.831   3.451   2.978
  667SOL    HW1 2900   0.842   3.500   2.891
  667SOL    HW2 2901   0.849   3.354   2.964
  668SOL     OW 2902   5.184   6.564   0.469
  668SOL    HW1 2903   5.266   6.617   0.491
  668SOL    HW2 2904   5.118   6.624   0.423
  669SOL     OW 2905   0.850   6.567   4.004
  669SOL    HW1 2906   0.861   6.495   4.072
  669SOL    HW2 2907   0.756   6.599   4.004
  670SOL     OW 2908   3.086   3.565   3.562
  670SOL    HW1 2909   3.067   3.625   3.484
  670SOL    HW2 2910   3.160   3.604   3.617
  671SOL     OW 2911   2.251   0.110   6.327
  671SOL    HW1 2912   2.196   0.065   6.398
  671SOL    HW2 2913   2.322   0.165   6.370
  672SOL     OW 2914   2.150   3.752   4.110
  672SOL    HW1 2915   2.199   3.665   4.096
  672SOL    HW2 2916   2.064   3.750   4.059
  673SOL     OW 2917   5.047   0.588   0.333
  673SOL    HW1 2918   5.116   0.597   0.262
  673SOL    HW2 2919   4.961   0.557   0.293
  674SOL     OW 2920   0.543   2.008   3.379
  674SOL    HW1 2921   0.535   1.955   3.464
  674SOL    HW2 2922   0.509   2.101   3.394
  675SOL     OW 2923   0.434   2.268   4.084
  675SOL    HW1 2924   0.358   2.254   4.148
  675SOL    HW2 2925   0.410   2.342   4.021
  676SOL     OW 2926   2.566   4.825   4.566
  676SOL    HW1 2927   2.585   4.734   4.529
  676SOL    HW2 2928   2.504   4.874   4.504
  677SOL     OW 2929   6.566   0.377   0.828
  677SOL    HW1 2930   6.608   0.295   0.791
  677SOL    HW2 2931   6.467   0.372   0.815
  678SOL     OW 2932   2.259   0.716   6.495
  678SOL    HW1 2933   2.235   0.690   6.402
  678SOL    HW2 2934   2.209   0.657   6.560
  679SOL     OW 2935   4.237   0.466   2.808
  679SOL    HW1 2936   4.293   0.539   2.848
  679SOL    HW2 2937   4.273   0.441   2.718
  680SOL     OW 2938   4.947   3.695   5.808
  680SOL    HW1 2939   4.853   3.679   5.840
  680SOL    HW2 2940   5.011   3.668   5.880
  681SOL     OW 2941   0.667   6.526   1.237
  681SOL    HW1 2942   0.765   6.516   1.220
  681SOL    HW2 2943   0.647   6.504   1.332
  682SOL     OW 2944   1.648   5.876   0.344
  682SOL    HW1 2945   1.679   5.955   0.397
  682SOL    HW2 2946   1.593   5.816   0.402
  683SOL     OW 2947   3.921   1.360   6.612
  683SOL    HW1 2948   4.001   1.307   6.642
  683SOL    HW2 2949   3.915   1.444   6.666
  684SOL     OW 2950   0.508   6.107   5.690
  684SOL    HW1 2951   0.518   6.021   5.639
  684SOL    HW2 2952   0.568   6.176   5.650
  685SOL     OW 2953   5.159   0.094   5.823
  685SOL    HW1 2954   5.193   0.004   5.853
  685SOL    HW2 2955   5.237   0.152   5.800
  686SOL     OW 2956   5.058   3.573   2.989
  686SOL    HW1 2957   5.031   3.509   2.917
  686SOL    HW2 2958   4.976   3.621   3.022
  687SOL     OW 2959   6.974   3.259   5.673
  687SOL    HW1 2960   6.877   3.282   5.684
  687SOL    HW2 2961   6.988   3.219   5.582
  688SOL     OW 2962   1.069   4.035   6.047
  688SOL    HW1 2963   1.037   4.059   5.955
  688SOL    HW2 2964   1.014   3.959   6.083
  689SOL     OW 2965   6.489   3.840   5.850
  689SOL    HW1 2966   6.397   3.802   5.840
  689SOL    HW2 2967   6.554   3.784   5.799
  690SOL     OW 2968   1.816   2.076   3.498
  690SOL    HW1 2969   1.727   2.067   3.453
  690SOL    HW2 2970   1.818   2.018   3.579
  691SOL     OW 2971   1.003   2.334   6.977
  691SOL    HW1 2972   0.953   2.399   6.920
  691SOL    HW2 2973   1.101   2.348   6.965
  692SOL     OW 2974   2.477   0.352   2.725
  692SOL    HW1 2975   2.561   0.302   2.745
  692SOL    HW2 2976   2.490   0.409   2.644
  693SOL     OW 2977   6.704   2.589   2.753
  693SOL    HW1 2978   6.715   2.546   2.843
  693SOL    HW2 2979   6.606   2.595   2.732
  694SOL     OW 2980   2.198   6.335   1.108
  694SOL    HW1 2981   2.204   6.265   1.037
  694SOL    HW2 2982   2.146   6.414   1.073
  695SOL     OW 2983   5.332   5.260   5.344
  695SOL    HW1 2984   5.313   5.181   5.403
  695SOL    HW2 2985   5.398   5.234   5.274
  696SOL     OW 2986   4.202   5.202   2.484
  696SOL    HW1 2987   4.204   5.158   2.574
  696SOL    HW2 2988   4.126   5.164   2.431
  697SOL     OW 2989   0.883   4.041   4.702
  697SOL    HW1 2990   0.924   4.087   4.780
  697SOL    HW2 2991   0.829   3.963   4.733
  698SOL     OW 2992   4.499   0.436   3.845
  698SOL    HW1 2993   4.532   0.343   3.828
  698SOL    HW2 2994   4.501   0.454   3.944
  699SOL     OW 2995   1.244   3.911   0.941
  699SOL    HW1 2996   1.149   3.907   0.911
  699SOL    HW2 2997   1.267   3.828   0.991
  700SOL     OW 2998   2.500   2.597   4.393
  700SOL    HW1 2999   2.596   2.581   4.419
  700SOL    HW2 3000   2.488   2.575   4.296
  701SOL     OW 3001   0.831   4.317   6.432
  701SOL    HW1 3002   0.741   4.358   6.450
  701SOL    HW2 3003   0.881   4.305   6.518
  702SOL     OW 3004   5.271   6.802   4.571
  702SOL    HW1 3005   5.346   6.821   4.634
  702SOL    HW2 3006   5.192   6.769   4.623
  703SOL     OW 3007   4.219   4.102   6.206
  703SOL    HW1 3008   4.229   4.003   6.207
  703SOL    HW2 3009   4.227   4.136   6.112
  704SOL     OW 3010   1.295   0.049   0.196
  704SOL    HW1 3011   1.210   0.088   0.229
  704SOL    HW2 3012   1.338   7.013   0.269
  705SOL     OW 3013   5.396   1.320   3.356
  705SOL    HW1 3014   5.447   1.380   3.295
  705SOL    HW2 3015   5.422   1.225   3.338
  706SOL     OW 3016   3.767   2.166   3.892
  706SOL    HW1 3017   3.667   2.155   3.892
  706SOL    HW2 3018   3.796   2.194   3.801
  707SOL     OW 3019   5.395   0.519   1.631
  707SOL    HW1 3020   5.335   0.502   1.710
  707SOL    HW2 3021   5.388   0.443   1.566
  708SOL     OW 3022   4.113   0.475   1.047
  708SOL    HW1 3023   4.117   0.502   1.143
  708SOL    HW2 3024   4.090   0.554   0.991
  709SOL     OW 3025   1.236   5.082   1.182
  709SOL    HW1 3026   1.259   5.161   1.238
  709SOL    HW2 3027   1.178   5.111   1.105
  710SOL     OW 3028   3.229   4.020   2.514
  710SOL    HW1 3029   3.145   3.972   2.540
  710SOL    HW2 3030   3.242   4.013   2.415
  711SOL     OW 3031   6.346   1.459   4.652
  711SOL    HW1 3032   6.278   1.499   4.590
  711SOL    HW2 3033   6.337   1.500   4.742
  712SOL     OW 3034   1.079   3.931   1.648
  712SOL    HW1 3035   1.099   3.833   1.650
  712SOL    HW2 3036   1.025   3.957   1.728
  713SOL     OW 3037   3.805   3.047   2.595
  713SOL    HW1 3038   3.801   2.974   2.526
  713SOL    HW2 3039   3.722   3.103   2.589
  714SOL     OW 3040   5.724   4.506   5.073
  714SOL    HW1 3041   5.650   4.486   5.008
  714SOL    HW2 3042   5.737   4.427   5.133
  715SOL     OW 3043   4.332   6.580   6.052
  715SOL    HW1 3044   4.375   6.492   6.032
  715SOL    HW2 3045   4.397   6.654   6.032
  716SOL     OW 3046   0.371   4.890   1.627
  716SOL    HW1 3047   0.370   4.850   1.535
  716SOL    HW2 3048   0.458   4.869   1.671
  717SOL     OW 3049   6.408   3.448   6.911
  717SOL    HW1 3050   6.416   3.535   6.862
  717SOL    HW2 3051   6.315   3.413   6.902
  718SOL     OW 3052   3.862   3.514   6.336
  718SOL    HW1 3053   3.871   3.433   6.395
  718SOL    HW2 3054   3.845   3.594   6.393
  719SOL     OW 3055   6.818   3.409   1.210
  719SOL    HW1 3056   6.893   3.343   1.215
  719SOL    HW2 3057   6.743   3.370   1.158
  720SOL     OW 3058   2.391   1.888   6.240
  720SOL    HW1 3059   2.311   1.914   6.187
  720SOL    HW2 3060   2.470   1.942   6.211
  721SOL     OW 3061   1.826   0.373   5.750
  721SOL    HW1 3062   1.831   0.461   5.703
  721SOL    HW2 3063   1.759   0.314   5.704
  722SOL     OW 3064   4.087   0.207   4.453
  722SOL    HW1 3065   4.067   0.250   4.365
  722SOL    HW2 3066   4.147   0.129   4.439
  723SOL     OW 3067   1.510   2.546   2.138
  723SOL    HW1 3068   1.411   2.552   2.124
  723SOL    HW2 3069   1.532   2.564   2.234
  724SOL     OW 3070   0.222   1.108   4.760
  724SOL    HW1 3071   0.288   1.115   4.686
  724SOL    HW2 3072   0.266   1.072   4.842
  725SOL     OW 3073   2.139   4.864   2.660
  725SOL    HW1 3074   2.193   4.871   2.576
  725SOL    HW2 3075   2.122   4.768   2.681
  726SOL     OW 3076   3.331   5.855   0.010
  726SOL    HW1 3077   3.336   5.936   6.969
  726SOL    HW2 3078   3.423   5.819   0.024
  727SOL     OW 3079   3.325   5.667   4.233
  727SOL    HW1 3080   3.344   5.707   4.323
  727SOL    HW2 3081   3.308   5.569   4.243
  728SOL     OW 3082   0.128   3.884   5.159
  728SOL    HW1 3083   0.110   3.982   5.155
  728SOL    HW2 3084   0.225   3.869   5.175
  729SOL     OW 3085   2.147   0.766   0.815
  729SOL    HW1 3086   2.124   0.820   0.734
  729SOL    HW2 3087   2.098   0.803   0.894
  730SOL     OW 3088   5.729   0.603   3.729
  730SOL    HW1 3089   5.796   0.613   3.655
  730SOL    HW2 3090   5.659   0.537   3.702
  731SOL     OW 3091   5.529   3.282   4.556
  731SOL    HW1 3092   5.609   3.289   4.497
  731SOL    HW2 3093   5.547   3.218   4.630
  732SOL     OW 3094   7.018   2.864   0.994
  732SOL    HW1 3095   6.928   2.850   1.036
  732SOL    HW2 3096   0.068   2.881   1.065
  733SOL     OW 3097   4.969   3.954   3.849
  733SOL    HW1 3098   4.970   3.894   3.929
  733SOL    HW2 3099   4.975   3.898   3.766
  734SOL     OW 3100   6.737   4.402   1.415
  734SOL    HW1 3101   6.790   4.376   1.496
  734SOL    HW2 3102   6.747   4.332   1.345
  735SOL     OW 3103   1.172   3.494   0.122
  735SOL    HW1 3104   1.174   3.527   0.027
  735SOL    HW2 3105   1.119   3.557   0.178
  736SOL     OW 3106   6.754   0.157   3.139
  736SOL    HW1 3107   6.737   0.236   3.199
  736SOL    HW2 3108   6.705   0.170   3.052
  737SOL     OW 3109   5.140   3.822   1.201
  737SOL    HW1 3110   5.102   3.828   1.109
  737SOL    HW2 3111   5.080   3.767   1.259
  738SOL     OW 3112   0.095   3.825   4.382
  738SOL    HW1 3113   0.145   3.844   4.467
  738SOL    HW2 3114   0.132   3.880   4.308
  739SOL     OW 3115   4.139   6.389   5.773
  739SOL    HW1 3116   4.123   6.363   5.868
  739SOL    HW2 3117   4.134   6.488   5.764
  740SOL     OW 3118   5.901   0.066   1.165
  740SOL    HW1 3119   5.851   0.145   1.131
  740SOL    HW2 3120   5.878   7.003   1.110
  741SOL     OW 3121   1.587   6.654   3.136
  741SOL    HW1 3122   1.663   6.657   3.201
  741SOL    HW2 3123   1.509   6.705   3.173
  742SOL     OW 3124   1.219   6.563   3.735
  742SOL    HW1 3125   1.282   6.507   3.789
  742SOL    HW2 3126   1.197   6.515   3.650
  743SOL     OW 3127   1.530   4.079   4.450
  743SOL    HW1 3128   1.598   4.143   4.414
  743SOL    HW2 3129   1.466   4.128   4.509
  744SOL     OW 3130   6.830   5.850   0.266
  744SOL    HW1 3131   6.812   5.934   0.317
  744SOL    HW2 3132   6.821   5.868   0.168
  745SOL     OW 3133   1.141   5.828   2.741
  745SOL    HW1 3134   1.166   5.825   2.644
  745SOL    HW2 3135   1.142   5.923   2.772
  746SOL     OW 3136   0.892   6.912   5.106
  746SOL    HW1 3137   0.948   6.847   5.056
  746SOL    HW2 3138   0.854   6.980   5.042
  747SOL     OW 3139   4.569   4.453   3.263
  747SOL    HW1 3140   4.497   4.406   3.316
  747SOL    HW2 3141   4.526   4.517   3.200
  748SOL     OW 3142   4.205   3.861   0.742
  748SOL    HW1 3143   4.240   3.824   0.655
  748SOL    HW2 3144   4.120   3.911   0.724
  749SOL     OW 3145   0.212   1.795   4.769
  749SOL    HW1 3146   0.197   1.697   4.755
  749SOL    HW2 3147   0.256   1.810   4.858
  750SOL     OW 3148   2.012   3.298   0.353
  750SOL    HW1 3149   1.921   3.266   0.328
  750SOL    HW2 3150   2.073   3.220   0.365
  751SOL     OW 3151   4.566   1.144   0.482
  751SOL    HW1 3152   4.468   1.149   0.465
  751SOL    HW2 3153   4.616   1.154   0.396
  752SOL     OW 3154   4.127   2.384   1.710
  752SOL    HW1 3155   4.115   2.483   1.724
  752SOL    HW2 3156   4.060   2.353   1.642
  753SOL     OW 3157   1.714   3.348   5.131
  753SOL    HW1 3158   1.726   3.352   5.032
  753SOL    HW2 3159   1.755   3.429   5.173
  754SOL     OW 3160   4.573   4.254   6.394
  754SOL    HW1 3161   4.594   4.192   6.469
  754SOL    HW2 3162   4.530   4.337   6.431
  755SOL     OW 3163   0.660   5.548   6.947
  755SOL    HW1 3164   0.597   5.623   6.964
  755SOL    HW2 3165   0.658   5.525   6.849
  756SOL     OW 3166   5.120   0.399   1.696
  756SOL    HW1 3167   5.146   0.481   1.747
  756SOL    HW2 3168   5.054   0.424   1.624
  757SOL     OW 3169   0.244   6.661   3.812
  757SOL    HW1 3170   0.217   6.643   3.907
  757SOL    HW2 3171   0.267   6.758   3.802
  758SOL     OW 3172   3.313   2.270   1.478
  758SOL    HW1 3173   3.317   2.206   1.401
  758SOL    HW2 3174   3.218   2.292   1.499
  759SOL     OW 3175   1.003   1.497   6.999
  759SOL    HW1 3176   0.954   1.427   0.035
  759SOL    HW2 3177   1.101   1.488   7.015
  760SOL     OW 3178   5.442   1.745   0.042
  760SOL    HW1 3179   5.513   1.691   7.015
  760SOL    HW2 3180   5.427   1.830   7.009
  761SOL     OW 3181   6.449   2.763   0.453
  761SOL    HW1 3182   6.396   2.847   0.463
  761SOL    HW2 3183   6.542   2.786   0.422
  762SOL     OW 3184   2.327   5.659   3.562
  762SOL    HW1 3185   2.404   5.717   3.533
  762SOL    HW2 3186   2.242   5.695   3.523
  763SOL     OW 3187   4.110   5.935   6.890
  763SOL    HW1 3188   4.025   5.885   6.906
  763SOL    HW2 3189   4.136   5.925   6.794
  764SOL     OW 3190   3.252   1.732   2.336
  764SOL    HW1 3191   3.326   1.675   2.300
  764SOL    HW2 3192   3.220   1.693   2.423
  765SOL     OW 3193   0.538   6.529   2.297
  765SOL    HW1 3194   0.463   6.501   2.357
  765SOL    HW2 3195   0.550   6.628   2.303
  766SOL     OW 3196   6.763   0.063   6.698
  766SOL    HW1 3197   6.694   0.067   6.626
  766SOL    HW2 3198   6.837   0.126   6.676
  767SOL     OW 3199   0.220   6.387   2.119
  767SOL    HW1 3200   0.309   6.430   2.134
  767SOL    HW2 3201   0.171   6.436   2.047
  768SOL     OW 3202   2.781   0.667   2.625
  768SOL    HW1 3203   2.697   0.622   2.595
  768SOL    HW2 3204   2.764   0.765   2.639
  769SOL     OW 3205   4.363   0.183   4.699
  769SOL    HW1 3206   4.344   0.086   4.688
  769SOL    HW2 3207   4.298   0.222   4.764
  770SOL     OW 3208   3.211   5.134   4.077
  770SOL    HW1 3209   3.207   5.039   4.109
  770SOL    HW2 3210   3.118   5.166   4.057
  771SOL     OW 3211   1.949   5.652   3.253
  771SOL    HW1 3212   1.893   5.578   3.291
  771SOL    HW2 3213   2.045   5.623   3.252
  772SOL     OW 3214   6.968   4.329   6.713
  772SOL    HW1 3215   6.897   4.293   6.653
  772SOL    HW2 3216   6.976   4.271   6.794
  773SOL     OW 3217   6.736   3.057   3.421
  773SOL    HW1 3218   6.762   2.994   3.494
  773SOL    HW2 3219   6.721   3.148   3.459
  774SOL     OW 3220   1.617   1.644   2.184
  774SOL    HW1 3221   1.630   1.737   2.151
  774SOL    HW2 3222   1.528   1.636   2.229
  775SOL     OW 3223   1.232   1.956   3.675
  775SOL    HW1 3224   1.276   1.963   3.585
  775SOL    HW2 3225   1.147   1.903   3.666
  776SOL     OW 3226   1.723   0.404   6.292
  776SOL    HW1 3227   1.766   0.478   6.240
  776SOL    HW2 3228   1.762   0.317   6.264
  777SOL     OW 3229   4.382   1.281   1.177
  777SOL    HW1 3230   4.367   1.284   1.078
  777SOL    HW2 3231   4.465   1.229   1.196
  778SOL     OW 3232   4.247   0.713   3.634
  778SOL    HW1 3233   4.159   0.691   3.674
  778SOL    HW2 3234   4.234   0.763   3.549
  779SOL     OW 3235   0.614   2.011   1.902
  779SOL    HW1 3236   0.632   1.927   1.954
  779SOL    HW2 3237   0.573   2.080   1.962
  780SOL     OW 3238   6.303   2.928   4.156
  780SOL    HW1 3239   6.349   2.991   4.219
  780SOL    HW2 3240   6.365   2.854   4.132
  781SOL     OW 3241   6.889   1.435   6.182
  781SOL    HW1 3242   6.816   1.481   6.133
  781SOL    HW2 3243   6.852   1.385   6.260
  782SOL     OW 3244   0.445   3.008   0.913
  782SOL    HW1 3245   0.410   3.092   0.955
  782SOL    HW2 3246   0.514   3.031   0.845
  783SOL     OW 3247   2.573   5.140   0.730
  783SOL    HW1 3248   2.635   5.177   0.800
  783SOL    HW2 3249   2.616   5.146   0.641
  784SOL     OW 3250   4.052   0.212   5.412
  784SOL    HW1 3251   4.121   0.282   5.432
  784SOL    HW2 3252   3.963   0.256   5.400
  785SOL     OW 3253   6.455   1.850   2.740
  785SOL    HW1 3254   6.378   1.794   2.773
  785SOL    HW2 3255   6.426   1.901   2.659
  786SOL     OW 3256   0.002   6.850   0.182
  786SOL    HW1 3257   0.025   6.934   0.232
  786SOL    HW2 3258   6.933   6.813   0.216
  787SOL     OW 3259   2.399   1.307   6.342
  787SOL    HW1 3260   2.392   1.393   6.393
  787SOL    HW2 3261   2.328   1.303   6.272
  788SOL     OW 3262   2.146   3.695   4.625
  788SOL    HW1 3263   2.083   3.634   4.673
  788SOL    HW2 3264   2.106   3.723   4.538
  789SOL     OW 3265   5.710   3.777   1.655
  789SOL    HW1 3266   5.793   3.807   1.608
  789SOL    HW2 3267   5.691   3.838   1.731
  790SOL     OW 3268   2.005   1.548   4.298
  790SOL    HW1 3269   2.041   1.456   4.315
  790SOL    HW2 3270   2.081   1.613   4.296
  791SOL     OW 3271   4.107   0.747   3.976
  791SOL    HW1 3272   4.014   0.751   3.942
  791SOL    HW2 3273   4.151   0.836   3.968
  792SOL     OW 3274   6.267   0.523   2.039
  792SOL    HW1 3275   6.172   0.531   2.011
  792SOL    HW2 3276   6.272   0.483   2.131
  793SOL     OW 3277   5.475   6.614   1.126
  793SOL    HW1 3278   5.562   6.610   1.078
  793SOL    HW2 3279   5.400   6.605   1.061
  794SOL     OW 3280   2.761   4.753   5.413
  794SOL    HW1 3281   2.694   4.776   5.484
  794SOL    HW2 3282   2.713   4.716   5.333
  795SOL     OW 3283   3.640   5.160   6.012
  795SOL    HW1 3284   3.653   5.114   5.924
  795SOL    HW2 3285   3.687   5.248   6.011
  796SOL     OW 3286   0.073   2.169   5.297
  796SOL    HW1 3287   0.041   2.100   5.233
  796SOL    HW2 3288   0.083   2.129   5.388
  797SOL     OW 3289   5.786   2.270   3.484
  797SOL    HW1 3290   5.758   2.188   3.434
  797SOL    HW2 3291   5.705   2.321   3.512
  798SOL     OW 3292   4.980   0.186   0.546
  798SOL    HW1 3293   5.045   0.213   0.474
  798SOL    HW2 3294   4.974   0.259   0.614
  799SOL     OW 3295   6.415   1.957   3.252
  799SOL    HW1 3296   6.316   1.951   3.243
  799SOL    HW2 3297   6.457   1.959   3.162
  800SOL     OW 3298   5.068   0.898   2.539
  800SOL    HW1 3299   4.991   0.837   2.519
  800SOL    HW2 3300   5.052   0.944   2.626
  801SOL     OW 3301   1.324   2.379   3.762
  801SOL    HW1 3302   1.344   2.292   3.807
  801SOL    HW2 3303   1.392   2.396   3.691
  802SOL     OW 3304   5.440   2.139   0.241
  802SOL    HW1 3305   5.475   2.046   0.256
  802SOL    HW2 3306   5.517   2.201   0.229
  803SOL     OW 3307   6.007   5.611   3.965
  803SOL    HW1 3308   6.075   5.644   3.899
  803SOL    HW2 3309   5.940   5.682   3.982
  804SOL     OW 3310   0.134   6.594   0.548
  804SOL    HW1 3311   0.039   6.624   0.540
  804SOL    HW2 3312   0.171   6.577   0.456
  805SOL     OW 3313   3.736   2.437   5.832
  805SOL    HW1 3314   3.816   2.469   5.883
  805SOL    HW2 3315   3.664   2.506   5.836
  806SOL     OW 3316   4.597   1.413   6.357
  806SOL    HW1 3317   4.689   1.400   6.394
  806SOL    HW2 3318   4.530   1.391   6.427
  807SOL     OW 3319   0.930   0.806   3.789
  807SOL    HW1 3320   0.971   0.833   3.876
  807SOL    HW2 3321   0.892   0.714   3.797
  808SOL     OW 3322   5.328   2.949   5.785
  808SOL    HW1 3323   5.354   3.038   5.748
  808SOL    HW2 3324   5.382   2.878   5.742
  809SOL     OW 3325   1.257   4.823   1.238
  809SOL    HW1 3326   1.172   4.806   1.289
  809SOL    HW2 3327   1.266   4.921   1.222
  810SOL     OW 3328   4.720   3.758   0.785
  810SOL    HW1 3329   4.658   3.691   0.745
  810SOL    HW2 3330   4.676   3.804   0.862
  811SOL     OW 3331   4.956   5.246   3.162
  811SOL    HW1 3332   4.954   5.303   3.244
  811SOL    HW2 3333   5.033   5.274   3.104
  812SOL     OW 3334   0.113   0.491   1.424
  812SOL    HW1 3335   0.122   0.573   1.368
  812SOL    HW2 3336   0.182   0.425   1.397
  813SOL     OW 3337   4.140   6.092   3.440
  813SOL    HW1 3338   4.157   6.021   3.372
  813SOL    HW2 3339   4.057   6.143   3.416
  814SOL     OW 3340   5.723   6.878   1.902
  814SOL    HW1 3341   5.707   6.837   1.812
  814SOL    HW2 3342   5.660   6.839   1.968
  815SOL     OW 3343   6.455   2.565   1.632
  815SOL    HW1 3344   6.377   2.620   1.599
  815SOL    HW2 3345   6.452   2.474   1.590
  816SOL     OW 3346   6.928   6.750   0.530
  816SOL    HW1 3347   6.957   6.845   0.546
  816SOL    HW2 3348   6.829   6.748   0.518
  817SOL     OW 3349   1.582   3.649   1.800
  817SOL    HW1 3350   1.537   3.679   1.884
  817SOL    HW2 3351   1.644   3.720   1.767
  818SOL     OW 3352   6.011   2.289   0.725
  818SOL    HW1 3353   6.066   2.219   0.773
  818SOL    HW2 3354   6.064   2.327   0.650
  819SOL     OW 3355   6.672   2.056   3.722
  819SOL    HW1 3356   6.762   2.045   3.680
  819SOL    HW2 3357   6.601   2.048   3.652
  820SOL     OW 3358   0.797   2.697   4.281
  820SOL    HW1 3359   0.804   2.656   4.371
  820SOL    HW2 3360   0.849   2.642   4.215
  821SOL     OW 3361   1.749   4.039   0.641
  821SOL    HW1 3362   1.676   4.105   0.628
  821SOL    HW2 3363   1.736   3.992   0.728
  822SOL     OW 3364   0.557   4.060   5.088
  822SOL    HW1 3365   0.488   4.063   5.016
  822SOL    HW2 3366   0.639   4.108   5.057
  823SOL     OW 3367   5.349   3.793   5.983
  823SOL    HW1 3368   5.432   3.837   5.952
  823SOL    HW2 3369   5.365   3.750   6.072
  824SOL     OW 3370   4.695   1.991   5.277
  824SOL    HW1 3371   4.633   2.008   5.353
  824SOL    HW2 3372   4.656   2.028   5.193
  825SOL     OW 3373   2.111   3.191   1.979
  825SOL    HW1 3374   2.155   3.176   1.890
  825SOL    HW2 3375   2.127   3.284   2.010
  826SOL     OW 3376   5.735   3.536   6.845
  826SOL    HW1 3377   5.791   3.592   6.906
  826SOL    HW2 3378   5.686   3.467   6.899
  827SOL     OW 3379   3.493   5.409   6.919
  827SOL    HW1 3380   3.516   5.417   6.822
  827SOL    HW2 3381   3.512   5.495   6.966
  828SOL     OW 3382   6.251   0.899   5.326
  828SOL    HW1 3383   6.261   0.842   5.408
  828SOL    HW2 3384   6.229   0.993   5.354
  829SOL     OW 3385   3.263   3.133   4.251
  829SOL    HW1 3386   3.201   3.188   4.195
  829SOL    HW2 3387   3.269   3.173   4.342
  830SOL     OW 3388   4.549   4.106   5.408
  830SOL    HW1 3389   4.459   4.149   5.417
  830SOL    HW2 3390   4.600   4.118   5.493
  831SOL     OW 3391   5.935   0.489   5.202
  831SOL    HW1 3392   6.005   0.537   5.255
  831SOL    HW2 3393   5.875   0.555   5.158
  832SOL     OW 3394   1.948   1.579   7.015
  832SOL    HW1 3395   2.000   1.505   6.972
  832SOL    HW2 3396   1.895   1.628   6.946
  833SOL     OW 3397   6.646   6.473   6.048
  833SOL    HW1 3398   6.618   6.496   5.955
  833SOL    HW2 3399   6.646   6.555   6.105
  834SOL     OW 3400   3.256   3.364   4.057
  834SOL    HW1 3401   3.204   3.445   4.085
  834SOL    HW2 3402   3.321   3.388   3.986
  835SOL     OW 3403   3.471   6.091   3.685
  835SOL    HW1 3404   3.479   6.026   3.760
  835SOL    HW2 3405   3.513   6.054   3.602
  836SOL     OW 3406   3.516   0.047   0.126
  836SOL    HW1 3407   3.422   0.013   0.122
  836SOL    HW2 3408   3.575   7.007   0.071
  837SOL     OW 3409   5.491   0.105   6.884
  837SOL    HW1 3410   5.410   0.047   6.874
  837SOL    HW2 3411   5.564   0.054   6.929
  838SOL     OW 3412   1.314   6.191   4.445
  838SOL    HW1 3413   1.313   6.121   4.516
  838SOL    HW2 3414   1.361   6.156   4.364
  839SOL     OW 3415   2.698   1.401   3.822
  839SOL    HW1 3416   2.621   1.464   3.827
  839SOL    HW2 3417   2.779   1.444   3.864
  840SOL     OW 3418   0.885   1.018   6.631
  840SOL    HW1 3419   0.856   1.031   6.536
  840SOL    HW2 3420   0.952   0.944   6.635
  841SOL     OW 3421   6.892   3.766   0.070
  841SOL    HW1 3422   6.817   3.751   0.134
  841SOL    HW2 3423   6.897   3.690   0.006
  842SOL     OW 3424   3.828   5.488   3.205
  842SOL    HW1 3425   3.829   5.406   3.262
  842SOL    HW2 3426   3.922   5.517   3.186
  843SOL     OW 3427   6.347   2.201   1.757
  843SOL    HW1 3428   6.381   2.269   1.822
  843SOL    HW2 3429   6.368   2.109   1.791
  844SOL     OW 3430   5.193   5.871   0.320
  844SOL    HW1 3431   5.130   5.912   0.386
  844SOL    HW2 3432   5.209   5.936   0.245
  845SOL     OW 3433   6.756   3.733   4.668
  845SOL    HW1 3434   6.791   3.764   4.580
  845SOL    HW2 3435   6.663   3.766   4.681
  846SOL     OW 3436   5.889   1.089   0.001
  846SOL    HW1 3437   5.938   1.171   0.030
  846SOL    HW2 3438   5.809   1.075   0.060
  847SOL     OW 3439   6.288   3.471   0.855
  847SOL    HW1 3440   6.232   3.449   0.935
  847SOL    HW2 3441   6.294   3.391   0.795
  848SOL     OW 3442   6.351   0.014   5.691
  848SOL    HW1 3443   6.443   0.045   5.717
  848SOL    HW2 3444   6.347   0.000   5.593
  849SOL     OW 3445   0.314   5.325   4.966
  849SOL    HW1 3446   0.230   5.330   4.912
  849SOL    HW2 3447   0.336   5.415   5.003
  850SOL     OW 3448   4.291   1.502   3.485
  850SOL    HW1 3449   4.359   1.512   3.414
  850SOL    HW2 3450   4.303   1.573   3.554
  851SOL     OW 3451   0.311   1.290   0.221
  851SOL    HW1 3452   0.396   1.332   0.189
  851SOL    HW2 3453   0.293   1.319   0.315
  852SOL     OW 3454   2.530   3.138   6.535
  852SOL    HW1 3455   2.438   3.119   6.501
  852SOL    HW2 3456   2.530   3.139   6.635
  853SOL     OW 3457   0.925   2.858   2.177
  853SOL    HW1 3458   0.907   2.920   2.254
  853SOL    HW2 3459   0.985   2.903   2.112
  854SOL     OW 3460   5.345   5.799   2.728
  854SOL    HW1 3461   5.433   5.782   2.685
  854SOL    HW2 3462   5.292   5.864   2.673
  855SOL     OW 3463   6.078   0.119   1.488
  855SOL    HW1 3464   6.060   0.210   1.526
  855SOL    HW2 3465   5.992   0.071   1.471
  856SOL     OW 3466   1.773   6.292   5.223
  856SOL    HW1 3467   1.701   6.337   5.169
  856SOL    HW2 3468   1.776   6.333   5.314
  857SOL     OW 3469   6.248   3.593   0.629
  857SOL    HW1 3470   6.266   3.553   0.719
  857SOL    HW2 3471   6.191   3.675   0.639
  858SOL     OW 3472   3.101   4.727   1.855
  858SOL    HW1 3473   3.037   4.791   1.898
  858SOL    HW2 3474   3.069   4.633   1.870
  859SOL     OW 3475   0.153   4.905   6.607
  859SOL    HW1 3476   0.085   4.866   6.545
  859SOL    HW2 3477   0.114   4.913   6.699
  860SOL     OW 3478   3.280   4.186   0.564
  860SOL    HW1 3479   3.292   4.153   0.658
  860SOL    HW2 3480   3.280   4.286   0.563
  861SOL     OW 3481   2.725   5.705   5.373
  861SOL    HW1 3482   2.797   5.675   5.435
  861SOL    HW2 3483   2.659   5.761   5.423
  862SOL     OW 3484   5.447   4.859   4.810
  862SOL    HW1 3485   5.368   4.890   4.757
  862SOL    HW2 3486   5.435   4.763   4.835
  863SOL     OW 3487   0.268   1.393   1.038
  863SOL    HW1 3488   0.262   1.296   1.060
  863SOL    HW2 3489   0.320   1.441   1.109
  864SOL     OW 3490   5.303   4.655   2.289
  864SOL    HW1 3491   5.291   4.709   2.206
  864SOL    HW2 3492   5.219   4.604   2.308
  865SOL     OW 3493   1.678   0.205   3.797
  865SOL    HW1 3494   1.773   0.234   3.783
  865SOL    HW2 3495   1.663   0.118   3.750
  866SOL     OW 3496   3.405   2.074   1.955
  866SOL    HW1 3497   3.355   2.160   1.944
  866SOL    HW2 3498   3.495   2.093   1.994
  867SOL     OW 3499   2.797   2.714   6.579
  867SOL    HW1 3500   2.754   2.624   6.587
  867SOL    HW2 3501   2.843   2.721   6.490
  868SOL     OW 3502   5.912   0.536   3.331
  868SOL    HW1 3503   5.929   0.519   3.234
  868SOL    HW2 3504   5.994   0.575   3.373
  869SOL     OW 3505   5.778   6.183   1.719
  869SOL    HW1 3506   5.785   6.211   1.623
  869SOL    HW2 3507   5.817   6.253   1.778
  870SOL     OW 3508   6.817   2.398   1.827
  870SOL    HW1 3509   6.903   2.397   1.776
  870SOL    HW2 3510   6.781   2.492   1.829
  871SOL     OW 3511   5.536   2.696   1.753
  871SOL    HW1 3512   5.492   2.746   1.827
  871SOL    HW2 3513   5.602   2.631   1.791
  872SOL     OW 3514   6.562   2.812   4.054
  872SOL    HW1 3515   6.584   2.849   3.964
  872SOL    HW2 3516   6.596   2.718   4.060
  873SOL     OW 3517   3.237   6.726   3.794
  873SOL    HW1 3518   3.174   6.713   3.718
  873SOL    HW2 3519   3.189   6.714   3.881
  874SOL     OW 3520   1.535   4.241   5.192
  874SOL    HW1 3521   1.628   4.211   5.210
  874SOL    HW2 3522   1.487   4.172   5.139
  875SOL     OW 3523   5.367   3.728   0.025
  875SOL    HW1 3524   5.410   3.815   0.047
  875SOL    HW2 3525   5.378   3.665   0.102
  876SOL     OW 3526   7.006   3.303   2.647
  876SOL    HW1 3527   6.922   3.276   2.693
  876SOL    HW2 3528   6.984   3.333   2.554
  877SOL     OW 3529   5.045   5.409   6.994
  877SOL    HW1 3530   5.132   5.451   6.966
  877SOL    HW2 3531   4.972   5.441   6.933
  878SOL     OW 3532   2.523   4.829   0.744
  878SOL    HW1 3533   2.536   4.924   0.716
  878SOL    HW2 3534   2.538   4.769   0.666
  879SOL     OW 3535   3.938   2.185   2.713
  879SOL    HW1 3536   3.996   2.186   2.631
  879SOL    HW2 3537   3.988   2.224   2.790
  880SOL     OW 3538   3.616   4.951   0.984
  880SOL    HW1 3539   3.636   4.855   1.004
  880SOL    HW2 3540   3.608   4.963   0.885
  881SOL     OW 3541   3.889   4.880   4.721
  881SOL    HW1 3542   3.949   4.892   4.642
  881SOL    HW2 3543   3.914   4.796   4.769
  882SOL     OW 3544   1.581   0.516   4.705
  882SOL    HW1 3545   1.491   0.508   4.746
  882SOL    HW2 3546   1.591   0.605   4.661
  883SOL     OW 3547   3.095   5.577   6.755
  883SOL    HW1 3548   3.135   5.570   6.664
  883SOL    HW2 3549   3.124   5.499   6.811
  884SOL     OW 3550   5.722   3.255   1.510
  884SOL    HW1 3551   5.754   3.349   1.524
  884SOL    HW2 3552   5.714   3.208   1.598
  885SOL     OW 3553   5.931   5.867   0.250
  885SOL    HW1 3554   5.877   5.894   0.330
  885SOL    HW2 3555   5.977   5.780   0.268
  886SOL     OW 3556   4.212   1.451   6.673
  886SOL    HW1 3557   4.193   1.426   6.768
  886SOL    HW2 3558   4.145   1.518   6.642
  887SOL     OW 3559   4.156   6.926   5.864
  887SOL    HW1 3560   4.134   6.930   5.766
  887SOL    HW2 3561   4.128   7.012   5.907
  888SOL     OW 3562   6.260   6.094   2.848
  888SOL    HW1 3563   6.308   6.025   2.901
  888SOL    HW2 3564   6.316   6.124   2.772
  889SOL     OW 3565   0.468   6.508   5.261
  889SOL    HW1 3566   0.480   6.446   5.339
  889SOL    HW2 3567   0.557   6.538   5.229
  890SOL     OW 3568   2.863   4.747   2.257
  890SOL    HW1 3569   2.895   4.838   2.230
  890SOL    HW2 3570   2.846   4.692   2.175
  891SOL     OW 3571   5.317   3.089   0.193
  891SOL    HW1 3572   5.222   3.082   0.163
  891SOL    HW2 3573   5.322   3.143   0.277
  892SOL     OW 3574   2.739   4.407   0.819
  892SOL    HW1 3575   2.764   4.327   0.872
  892SOL    HW2 3576   2.822   4.454   0.788
  893SOL     OW 3577   1.443   0.871   0.216
  893SOL    HW1 3578   1.408   0.792   0.267
  893SOL    HW2 3579   1.535   0.852   0.183
  894SOL     OW 3580   1.255   5.815   4.394
  894SOL    HW1 3581   1.239   5.781   4.302
  894SOL    HW2 3582   1.193   5.891   4.413
  895SOL     OW 3583   2.182   0.175   4.416
  895SOL    HW1 3584   2.123   0.122   4.477
  895SOL    HW2 3585   2.207   0.260   4.461
  896SOL     OW 3586   5.814   6.648   2.858
  896SOL    HW1 3587   5.763   6.573   2.816
  896SOL    HW2 3588   5.879   6.612   2.924
  897SOL     OW 3589   4.979   2.631   6.641
  897SOL    HW1 3590   4.937   2.719   6.619
  897SOL    HW2 3591   4.978   2.616   6.739
  898SOL     OW 3592   5.588   6.440   2.905
  898SOL    HW1 3593   5.633   6.389   2.832
  898SOL    HW2 3594   5.505   6.483   2.868
  899SOL     OW 3595   0.524   4.657   6.336
  899SOL    HW1 3596   0.557   4.688   6.425
  899SOL    HW2 3597   0.598   4.659   6.270
  900SOL     OW 3598   0.430   6.114   3.492
  900SOL    HW1 3599   0.507   6.148   3.547
  900SOL    HW2 3600   0.344   6.141   3.535
  901SOL     OW 3601   6.050   1.051   4.161
  901SOL    HW1 3602   6.145   1.058   4.131
  901SOL    HW2 3603   6.025   1.134   4.211
  902SOL     OW 3604   0.522   6.513   0.277
  902SOL    HW1 3605   0.505   6.607   0.250
  902SOL    HW2 3606   0.606   6.508   0.332
  903SOL     OW 3607   0.658   4.863   0.559
  903SOL    HW1 3608   0.661   4.936   0.627
  903SOL    HW2 3609   0.605   4.893   0.480
  904SOL     OW 3610   1.803   1.601   3.614
  904SOL    HW1 3611   1.793   1.538   3.537
  904SOL    HW2 3612   1.814   1.548   3.699
  905SOL     OW 3613   5.154   1.261   5.361
  905SOL    HW1 3614   5.059   1.282   5.386
  905SOL    HW2 3615   5.199   1.216   5.437
  906SOL     OW 3616   0.023   3.584   5.730
  906SOL    HW1 3617   7.000   3.545   5.648
  906SOL    HW2 3618   0.025   3.683   5.723
  907SOL     OW 3619   6.218   2.138   2.356
  907SOL    HW1 3620   6.247   2.208   2.422
  907SOL    HW2 3621   6.198   2.182   2.269
  908SOL     OW 3622   1.830   0.526   4.120
  908SOL    HW1 3623   1.816   0.625   4.109
  908SOL    HW2 3624   1.891   0.510   4.198
  909SOL     OW 3625   4.097   1.373   1.561
  909SOL    HW1 3626   4.040   1.292   1.551
  909SOL    HW2 3627   4.145   1.392   1.475
  910SOL     OW 3628   2.254   1.197   0.730
  910SOL    HW1 3629   2.338   1.228   0.686
  910SOL    HW2 3630   2.261   1.207   0.829
  911SOL     OW 3631   0.611   4.529   1.853
  911SOL    HW1 3632   0.584   4.575   1.938
  911SOL    HW2 3633   0.610   4.430   1.866
  912SOL     OW 3634   0.528   6.886   5.791
  912SOL    HW1 3635   0.600   6.912   5.856
  912SOL    HW2 3636   0.490   6.968   5.748
  913SOL     OW 3637   3.309   0.824   2.460
  913SOL    HW1 3638   3.319   0.744   2.400
  913SOL    HW2 3639   3.327   0.798   2.554
  914SOL     OW 3640   2.556   5.920   2.772
  914SOL    HW1 3641   2.577   5.875   2.685
  914SOL    HW2 3642   2.634   5.974   2.801
  915SOL     OW 3643   1.018   2.535   0.630
  915SOL    HW1 3644   0.969   2.456   0.593
  915SOL    HW2 3645   0.975   2.564   0.715
  916SOL     OW 3646   2.219   2.779   3.001
  916SOL    HW1 3647   2.141   2.829   2.962
  916SOL    HW2 3648   2.290   2.770   2.931
  917SOL     OW 3649   4.502   1.843   0.778
  917SOL    HW1 3650   4.422   1.887   0.739
  917SOL    HW2 3651   4.522   1.882   0.868
  918SOL     OW 3652   2.145   6.772   6.217
  918SOL    HW1 3653   2.146   6.832   6.297
  918SOL    HW2 3654   2.119   6.824   6.136
  919SOL     OW 3655   1.777   6.174   2.324
  919SOL    HW1 3656   1.776   6.243   2.397
  919SOL    HW2 3657   1.682   6.154   2.297
  920SOL     OW 3658   2.414   0.813   4.332
  920SOL    HW1 3659   2.357   0.801   4.414
  920SOL    HW2 3660   2.362   0.863   4.263
  921SOL     OW 3661   5.687   5.038   4.033
  921SOL    HW1 3662   5.775   4.991   4.028
  921SOL    HW2 3663   5.696   5.119   4.091
  922SOL     OW 3664   3.086   3.361   0.015
  922SOL    HW1 3665   3.140   3.445   0.009
  922SOL    HW2 3666   3.145   3.282   7.018
  923SOL     OW 3667   3.174   6.970   6.488
  923SOL    HW1 3668   3.143   6.980   6.393
  923SOL    HW2 3669   3.115   0.006   6.548
  924SOL     OW 3670   5.683   3.244   2.674
  924SOL    HW1 3671   5.601   3.267   2.621
  924SOL    HW2 3672   5.669   3.156   2.721
  925SOL     OW 3673   0.096   1.760   3.935
  925SOL    HW1 3674   0.146   1.675   3.924
  925SOL    HW2 3675   0.007   1.741   3.978
  926SOL     OW 3676   5.427   5.400   0.956
  926SOL    HW1 3677   5.462   5.468   1.020
  926SOL    HW2 3678   5.495   5.381   0.886
  927SOL     OW 3679   4.003   5.039   4.222
  927SOL    HW1 3680   3.947   5.089   4.288
  927SOL    HW2 3681   3.944   5.001   4.150
  928SOL     OW 3682   2.229   1.224   1.427
  928SOL    HW1 3683   2.305   1.286   1.408
  928SOL    HW2 3684   2.245   1.137   1.381
  929SOL     OW 3685   6.983   2.839   3.104
  929SOL    HW1 3686   0.015   2.756   3.083
  929SOL    HW2 3687   6.923   2.863   3.028
  930SOL     OW 3688   4.651   5.308   4.386
  930SOL    HW1 3689   4.720   5.237   4.386
  930SOL    HW2 3690   4.641   5.346   4.294
  931SOL     OW 3691   1.232   2.334   2.869
  931SOL    HW1 3692   1.224   2.312   2.966
  931SOL    HW2 3693   1.153   2.388   2.840
  932SOL     OW 3694   4.811   6.773   0.838
  932SOL    HW1 3695   4.820   6.789   0.937
  932SOL    HW2 3696   4.723   6.728   0.820
  933SOL     OW 3697   1.702   6.186   3.219
  933SOL    HW1 3698   1.735   6.092   3.235
  933SOL    HW2 3699   1.765   6.250   3.263
  934SOL     OW 3700   3.071   1.377   5.428
  934SOL    HW1 3701   3.067   1.369   5.328
  934SOL    HW2 3702   3.167   1.386   5.457
  935SOL     OW 3703   3.596   3.477   5.893
  935SOL    HW1 3704   3.626   3.479   5.988
  935SOL    HW2 3705   3.530   3.551   5.877
  936SOL     OW 3706   0.855   0.953   1.279
  936SOL    HW1 3707   0.882   1.024   1.215
  936SOL    HW2 3708   0.903   0.965   1.366
  937SOL     OW 3709   4.461   1.918   4.834
  937SOL    HW1 3710   4.493   1.848   4.898
  937SOL    HW2 3711   4.468   1.884   4.740
  938SOL     OW 3712   0.895   2.935   6.761
  938SOL    HW1 3713   0.981   2.890   6.785
  938SOL    HW2 3714   0.818   2.879   6.793
  939SOL     OW 3715   5.888   1.397   5.467
  939SOL    HW1 3716   5.835   1.318   5.498
  939SOL    HW2 3717   5.941   1.371   5.386
  940SOL     OW 3718   6.558   1.472   3.445
  940SOL    HW1 3719   6.643   1.516   3.473
  940SOL    HW2 3720   6.484   1.539   3.445
  941SOL     OW 3721   5.341   1.638   4.287
  941SOL    HW1 3722   5.326   1.583   4.205
  941SOL    HW2 3723   5.368   1.578   4.362
  942SOL     OW 3724   5.581   6.554   5.775
  942SOL    HW1 3725   5.485   6.528   5.767
  942SOL    HW2 3726   5.596   6.599   5.863
  943SOL     OW 3727   5.500   1.901   1.294
  943SOL    HW1 3728   5.411   1.888   1.251
  943SOL    HW2 3729   5.512   1.834   1.368
  944SOL     OW 3730   5.416   4.056   3.918
  944SOL    HW1 3731   5.459   4.134   3.964
  944SOL    HW2 3732   5.330   4.085   3.876
  945SOL     OW 3733   5.483   4.320   4.421
  945SOL    HW1 3734   5.449   4.239   4.372
  945SOL    HW2 3735   5.459   4.402   4.369
  946SOL     OW 3736   5.840   2.605   5.678
  946SOL    HW1 3737   5.773   2.590   5.605
  946SOL    HW2 3738   5.811   2.557   5.761
  947SOL     OW 3739   2.259   2.576   5.925
  947SOL    HW1 3740   2.328   2.544   5.990
  947SOL    HW2 3741   2.288   2.664   5.887
  948SOL     OW 3742   4.090   1.992   0.199
  948SOL    HW1 3743   4.075   1.985   0.100
  948SOL    HW2 3744   4.183   1.964   0.220
  949SOL     OW 3745   6.335   5.668   6.234
  949SOL    HW1 3746   6.368   5.640   6.324
  949SOL    HW2 3747   6.318   5.766   6.234
  950SOL     OW 3748   4.687   5.254   1.117
  950SOL    HW1 3749   4.770   5.250   1.172
  950SOL    HW2 3750   4.618   5.309   1.164
  951SOL     OW 3751   1.058   1.151   2.087
  951SOL    HW1 3752   0.972   1.175   2.132
  951SOL    HW2 3753   1.131   1.209   2.121
  952SOL     OW 3754   5.783   0.808   3.326
  952SOL    HW1 3755   5.822   0.733   3.379
  952SOL    HW2 3756   5.704   0.845   3.375
  953SOL     OW 3757   4.305   6.305   6.361
  953SOL    HW1 3758   4.320   6.228   6.423
  953SOL    HW2 3759   4.373   6.376   6.379
  954SOL     OW 3760   6.571   0.359   1.094
  954SOL    HW1 3761   6.483   0.399   1.117
  954SOL    HW2 3762   6.582   0.355   0.995
  955SOL     OW 3763   0.630   6.182   2.455
  955SOL    HW1 3764   0.677   6.270   2.447
  955SOL    HW2 3765   0.578   6.180   2.540
  956SOL     OW 3766   1.692   2.374   1.015
  956SOL    HW1 3767   1.645   2.286   1.011
  956SOL    HW2 3768   1.647   2.434   1.080
  957SOL     OW 3769   1.593   5.102   4.458
  957SOL    HW1 3770   1.497   5.085   4.480
  957SOL    HW2 3771   1.647   5.102   4.543
  958SOL     OW 3772   4.767   2.515   1.517
  958SOL    HW1 3773   4.749   2.544   1.611
  958SOL    HW2 3774   4.746   2.417   1.509
  959SOL     OW 3775   2.508   4.692   3.200
  959SOL    HW1 3776   2.424   4.657   3.160
  959SOL    HW2 3777   2.527   4.644   3.286
  960SOL     OW 3778   1.710   5.573   4.668
  960SOL    HW1 3779   1.652   5.567   4.749
  960SOL    HW2 3780   1.726   5.669   4.646
  961SOL     OW 3781   4.061   6.563   1.826
  961SOL    HW1 3782   3.996   6.488   1.837
  961SOL    HW2 3783   4.128   6.560   1.900
  962SOL     OW 3784   1.834   0.386   3.470
  962SOL    HW1 3785   1.751   0.435   3.495
  962SOL    HW2 3786   1.814   0.288   3.461
  963SOL     OW 3787   6.805   0.531   1.171
  963SOL    HW1 3788   6.750   0.466   1.119
  963SOL    HW2 3789   6.883   0.485   1.211
  964SOL     OW 3790   5.331   3.662   1.315
  964SOL    HW1 3791   5.273   3.722   1.259
  964SOL    HW2 3792   5.381   3.717   1.382
  965SOL     OW 3793   6.928   2.356   0.470
  965SOL    HW1 3794   7.005   2.307   0.428
  965SOL    HW2 3795   6.888   2.418   0.403
  966SOL     OW 3796   6.660   1.931   2.328
  966SOL    HW1 3797   6.563   1.932   2.352
  966SOL    HW2 3798   6.670   1.932   2.228
  967SOL     OW 3799   1.333   5.578   1.322
  967SOL    HW1 3800   1.378   5.637   1.254
  967SOL    HW2 3801   1.238   5.607   1.333
  968SOL     OW 3802   5.062   2.705   2.603
  968SOL    HW1 3803   5.097   2.639   2.669
  968SOL    HW2 3804   5.081   2.673   2.510
  969SOL     OW 3805   4.712   6.229   5.820
  969SOL    HW1 3806   4.722   6.297   5.747
  969SOL    HW2 3807   4.802   6.190   5.841
  970SOL     OW 3808   4.347   2.322   5.267
  970SOL    HW1 3809   4.279   2.368   5.210
  970SOL    HW2 3810   4.318   2.228   5.284
  971SOL     OW 3811   6.742   1.925   1.598
  971SOL    HW1 3812   6.673   1.986   1.559
  971SOL    HW2 3813   6.701   1.875   1.675
  972SOL     OW 3814   6.534   5.424   0.672
  972SOL    HW1 3815   6.593   5.490   0.626
  972SOL    HW2 3816   6.449   5.469   0.701
  973SOL     OW 3817   6.333   4.790   5.699
  973SOL    HW1 3818   6.339   4.706   5.753
  973SOL    HW2 3819   6.425   4.823   5.679
  974SOL     OW 3820   2.740   1.088   3.682
  974SOL    HW1 3821   2.761   0.991   3.679
  974SOL    HW2 3822   2.759   1.124   3.773
  975SOL     OW 3823   3.152   6.034   6.171
  975SOL    HW1 3824   3.235   5.981   6.187
  975SOL    HW2 3825   3.073   5.972   6.167
  976SOL     OW 3826   6.890   3.438   3.391
  976SOL    HW1 3827   6.899   3.528   3.347
  976SOL    HW2 3828   6.793   3.415   3.400
  977SOL     OW 3829   1.630   1.297   3.997
  977SOL    HW1 3830   1.696   1.306   4.072
  977SOL    HW2 3831   1.543   1.336   4.025
  978SOL     OW 3832   4.968   4.121   4.632
  978SOL    HW1 3833   4.999   4.134   4.726
  978SOL    HW2 3834   4.941   4.026   4.619
  979SOL     OW 3835   5.918   1.025   2.786
  979SOL    HW1 3836   5.963   0.966   2.720
  979SOL    HW2 3837   5.987   1.083   2.830
  980SOL     OW 3838   5.255   2.158   4.392
  980SOL    HW1 3839   5.266   2.078   4.450
  980SOL    HW2 3840   5.272   2.241   4.445
  981SOL     OW 3841   1.014   2.047   4.683
  981SOL    HW1 3842   0.939   1.983   4.666
  981SOL    HW2 3843   1.074   2.051   4.603
  982SOL     OW 3844   0.492   2.851   1.686
  982SOL    HW1 3845   0.526   2.793   1.760
  982SOL    HW2 3846   0.393   2.838   1.676
  983SOL     OW 3847   6.500   1.942   2.999
  983SOL    HW1 3848   6.439   1.894   2.936
  983SOL    HW2 3849   6.595   1.918   2.977
  984SOL     OW 3850   4.909   1.176   4.916
  984SOL    HW1 3851   4.988   1.233   4.893
  984SOL    HW2 3852   4.855   1.159   4.834
  985SOL     OW 3853   3.041   5.455   1.054
  985SOL    HW1 3854   3.042   5.552   1.028
  985SOL    HW2 3855   2.948   5.429   1.081
  986SOL     OW 3856   4.375   4.663   6.352
  986SOL    HW1 3857   4.366   4.762   6.358
  986SOL    HW2 3858   4.335   4.631   6.266
  987SOL     OW 3859   3.110   6.502   2.165
  987SOL    HW1 3860   3.202   6.536   2.183
  987SOL    HW2 3861   3.043   6.571   2.191
  988SOL     OW 3862   3.847   3.082   0.580
  988SOL    HW1 3863   3.856   3.127   0.669
  988SOL    HW2 3864   3.938   3.070   0.539
  989SOL     OW 3865   0.408   0.127   5.770
  989SOL    HW1 3866   0.317   0.114   5.808
  989SOL    HW2 3867   0.451   0.206   5.813
  990SOL     OW 3868   4.507   0.506   4.116
  990SOL    HW1 3869   4.455   0.544   4.192
  990SOL    HW2 3870   4.567   0.576   4.078
  991SOL     OW 3871   0.713   1.865   4.649
  991SOL    HW1 3872   0.684   1.929   4.719
  991SOL    HW2 3873   0.657   1.782   4.654
  992SOL     OW 3874   0.503   3.293   0.250
  992SOL    HW1 3875   0.579   3.282   0.185
  992SOL    HW2 3876   0.426   3.237   0.219
  993SOL     OW 3877   2.890   4.818   3.045
  993SOL    HW1 3878   2.970   4.875   3.027
  993SOL    HW2 3879   2.834   4.861   3.115
  994SOL     OW 3880   3.166   3.013   2.621
  994SOL    HW1 3881   3.210   3.016   2.711
  994SOL    HW2 3882   3.223   2.958   2.559
  995SOL     OW 3883   1.529   2.607   5.787
  995SOL    HW1 3884   1.597   2.601   5.715
  995SOL    HW2 3885   1.557   2.552   5.866
  996SOL     OW 3886   2.153   3.744   2.833
  996SOL    HW1 3887   2.243   3.706   2.855
  996SOL    HW2 3888   2.139   3.742   2.734
  997SOL     OW 3889   0.888   0.654   1.602
  997SOL    HW1 3890   0.886   0.596   1.683
  997SOL    HW2 3891   0.978   0.646   1.558
  998SOL     OW 3892   4.500   0.160   2.200
  998SOL    HW1 3893   4.557   0.081   2.225
  998SOL    HW2 3894   4.543   0.209   2.124
  999SOL     OW 3895   6.729   5.193   1.372
  999SOL    HW1 3896   6.731   5.099   1.339
  999SOL    HW2 3897   6.704   5.254   1.296
 1000SOL     OW 3898   2.390   2.566   4.129
 1000SOL    HW1 3899   2.394   2.592   4.032
 1000SOL    HW2 3900   2.304   2.518   4.147
 1001SOL     OW 3901   4.832   6.762   6.426
 1001SOL    HW1 3902   4.820   6.762   6.327
 1001SOL    HW2 3903   4.926   6.738   6.449
 1002SOL     OW 3904   5.833   1.378   0.107
 1002SOL    HW1 3905   5.777   1.295   0.107
 1002SOL    HW2 3906   5.866   1.396   0.199
 1003SOL     OW 3907   2.786   6.119   2.366
 1003SOL    HW1 3908   2.800   6.020   2.373
 1003SOL    HW2 3909   2.739   6.152   2.448
 1004SOL     OW 3910   0.119   0.140   6.988
 1004SOL    HW1 3911   0.067   0.221   7.015
 1004SOL    HW2 3912   0.130   0.140   6.889
 1005SOL     OW 3913   0.638   0.277   3.140
 1005SOL    HW1 3914   0.702   0.222   3.194
 1005SOL    HW2 3915   0.671   0.283   3.046
 1006SOL     OW 3916   2.509   4.777   1.017
 1006SOL    HW1 3917   2.505   4.678   1.030
 1006SOL    HW2 3918   2.525   4.797   0.920
 1007SOL     OW 3919   0.083   1.099   3.063
 1007SOL    HW1 3920   0.078   1.012   3.013
 1007SOL    HW2 3921   0.122   1.169   3.003
 1008SOL     OW 3922   1.281   3.727   3.793
 1008SOL    HW1 3923   1.292   3.773   3.881
 1008SOL    HW2 3924   1.270   3.629   3.808
 1009SOL     OW 3925   0.127   5.888   4.506
 1009SOL    HW1 3926   0.036   5.909   4.541
 1009SOL    HW2 3927   0.195   5.936   4.560
 1010SOL     OW 3928   4.333   1.954   0.308
 1010SOL    HW1 3929   4.386   2.037   0.324
 1010SOL    HW2 3930   4.288   1.926   0.392
 1011SOL     OW 3931   2.661   5.453   4.145
 1011SOL    HW1 3932   2.744   5.407   4.175
 1011SOL    HW2 3933   2.660   5.459   4.045
 1012SOL     OW 3934   6.110   5.292   0.043
 1012SOL    HW1 3935   6.134   5.385   0.016
 1012SOL    HW2 3936   6.070   5.294   0.134
 1013SOL     OW 3937   0.950   0.721   0.434
 1013SOL    HW1 3938   0.957   0.773   0.349
 1013SOL    HW2 3939   0.974   0.625   0.417
 1014SOL     OW 3940   4.405   6.406   5.588
 1014SOL    HW1 3941   4.351   6.405   5.672
 1014SOL    HW2 3942   4.353   6.452   5.516
 1015SOL     OW 3943   3.467   6.309   4.669
 1015SOL    HW1 3944   3.485   6.322   4.572
 1015SOL    HW2 3945   3.455   6.211   4.688
 1016SOL     OW 3946   3.586   2.997   1.351
 1016SOL    HW1 3947   3.660   3.055   1.385
 1016SOL    HW2 3948   3.556   2.935   1.423
 1017SOL     OW 3949   4.335   2.549   0.655
 1017SOL    HW1 3950   4.241   2.539   0.686
 1017SOL    HW2 3951   4.397   2.511   0.724
 1018SOL     OW 3952   0.978   3.461   3.747
 1018SOL    HW1 3953   0.891   3.507   3.728
 1018SOL    HW2 3954   1.006   3.409   3.667
 1019SOL     OW 3955   6.827   1.492   6.979
 1019SOL    HW1 3956   6.926   1.476   6.974
 1019SOL    HW2 3957   6.806   1.584   6.945
 1020SOL     OW 3958   2.841   0.833   0.869
 1020SOL    HW1 3959   2.761   0.876   0.911
 1020SOL    HW2 3960   2.908   0.811   0.939
 1021SOL     OW 3961   6.915   1.477   1.129
 1021SOL    HW1 3962   6.978   1.400   1.132
 1021SOL    HW2 3963   6.892   1.506   1.222
 1022SOL     OW 3964   4.403   3.245   6.229
 1022SOL    HW1 3965   4.337   3.310   6.267
 1022SOL    HW2 3966   4.355   3.182   6.167
 1023SOL     OW 3967   5.951   0.601   2.385
 1023SOL    HW1 3968   5.945   0.612   2.484
 1023SOL    HW2 3969   5.861   0.614   2.344
 1024SOL     OW 3970   6.350   1.725   4.283
 1024SOL    HW1 3971   6.351   1.787   4.205
 1024SOL    HW2 3972   6.276   1.659   4.273
 1025SOL     OW 3973   2.981   4.487   0.718
 1025SOL    HW1 3974   3.003   4.511   0.624
 1025SOL    HW2 3975   2.991   4.567   0.777
 1026SOL     OW 3976   2.207   1.970   6.665
 1026SOL    HW1 3977   2.280   1.906   6.686
 1026SOL    HW2 3978   2.242   2.043   6.606
 1027SOL     OW 3979   3.045   5.013   1.961
 1027SOL    HW1 3980   3.016   5.103   1.993
 1027SOL    HW2 3981   3.084   4.961   2.037
 1028SOL     OW 3982   1.950   6.096   1.421
 1028SOL    HW1 3983   1.866   6.107   1.475
 1028SOL    HW2 3984   1.929   6.045   1.338
 1029SOL     OW 3985   2.128   0.350   0.361
 1029SOL    HW1 3986   2.166   0.282   0.425
 1029SOL    HW2 3987   2.047   0.312   0.317
 1030SOL     OW 3988   3.997   3.678   5.049
 1030SOL    HW1 3989   4.019   3.597   4.994
 1030SOL    HW2 3990   4.017   3.761   4.996
 1031SOL     OW 3991   2.359   5.225   1.783
 1031SOL    HW1 3992   2.451   5.251   1.753
 1031SOL    HW2 3993   2.329   5.145   1.731
 1032SOL     OW 3994   1.948   1.821   4.696
 1032SOL    HW1 3995   1.956   1.824   4.597
 1032SOL    HW2 3996   2.038   1.838   4.737
 1033SOL     OW 3997   2.391   5.736   1.311
 1033SOL    HW1 3998   2.447   5.810   1.273
 1033SOL    HW2 3999   2.321   5.775   1.370
 1034SOL     OW 4000   2.248   5.558   3.983
 1034SOL    HW1 4001   2.285   5.643   3.945
 1034SOL    HW2 4002   2.189   5.579   4.061
 1035SOL     OW 4003   2.886   1.496   4.605
 1035SOL    HW1 4004   2.960   1.429   4.613
 1035SOL    HW2 4005   2.801   1.455   4.637
 1036SOL     OW 4006   4.661   2.602   0.949
 1036SOL    HW1 4007   4.605   2.527   0.914
 1036SOL    HW2 4008   4.655   2.606   1.049
 1037SOL     OW 4009   2.396   0.892   0.454
 1037SOL    HW1 4010   2.455   0.966   0.423
 1037SOL    HW2 4011   2.371   0.834   0.376
 1038SOL     OW 4012   1.805   1.181   5.644
 1038SOL    HW1 4013   1.714   1.142   5.632
 1038SOL    HW2 4014   1.799   1.281   5.649
 1039SOL     OW 4015   3.725   2.018   4.488
 1039SOL    HW1 4016   3.748   1.922   4.478
 1039SOL    HW2 4017   3.757   2.069   4.408
 1040SOL     OW 4018   5.809   3.657   2.398
 1040SOL    HW1 4019   5.815   3.756   2.386
 1040SOL    HW2 4020   5.718   3.633   2.433
 1041SOL     OW 4021   6.752   1.068   3.927
 1041SOL    HW1 4022   6.758   1.135   4.001
 1041SOL    HW2 4023   6.658   1.034   3.920
 1042SOL     OW 4024   5.455   5.112   1.075
 1042SOL    HW1 4025   5.535   5.066   1.036
 1042SOL    HW2 4026   5.393   5.139   1.001
 1043SOL     OW 4027   3.245   1.687   6.415
 1043SOL    HW1 4028   3.237   1.755   6.342
 1043SOL    HW2 4029   3.176   1.706   6.485
 1044SOL     OW 4030   3.725   3.367   1.958
 1044SOL    HW1 4031   3.762   3.434   2.023
 1044SOL    HW2 4032   3.719   3.409   1.867
 1045SOL     OW 4033   3.217   1.295   3.101
 1045SOL    HW1 4034   3.220   1.287   3.201
 1045SOL    HW2 4035   3.122   1.309   3.072
 1046SOL     OW 4036   3.603   6.875   0.638
 1046SOL    HW1 4037   3.597   6.775   0.634
 1046SOL    HW2 4038   3.652   6.902   0.721
 1047SOL     OW 4039   0.954   5.202   2.786
 1047SOL    HW1 4040   0.999   5.112   2.780
 1047SOL    HW2 4041   0.884   5.199   2.858
 1048SOL     OW 4042   5.241   4.886   4.622
 1048SOL    HW1 4043   5.208   4.960   4.564
 1048SOL    HW2 4044   5.218   4.798   4.579
 1049SOL     OW 4045   0.219   3.864   4.647
 1049SOL    HW1 4046   0.313   3.842   4.675
 1049SOL    HW2 4047   0.157   3.851   4.724
 1050SOL     OW 4048   3.908   0.168   6.514
 1050SOL    HW1 4049   3.918   0.095   6.446
 1050SOL    HW2 4050   3.815   0.169   6.549
 1051SOL     OW 4051   5.181   4.798   0.177
 1051SOL    HW1 4052   5.247   4.861   0.219
 1051SOL    HW2 4053   5.211   4.704   0.193
 1052SOL     OW 4054   4.073   0.158   5.117
 1052SOL    HW1 4055   4.064   0.218   5.196
 1052SOL    HW2 4056   3.990   0.104   5.106
 1053SOL     OW 4057   4.424   4.934   3.758
 1053SOL    HW1 4058   4.476   4.890   3.684
 1053SOL    HW2 4059   4.466   4.911   3.846
 1054SOL     OW 4060   3.115   5.203   5.347
 1054SOL    HW1 4061   3.169   5.134   5.395
 1054SOL    HW2 4062   3.113   5.287   5.401
 1055SOL     OW 4063   4.574   6.135   5.069
 1055SOL    HW1 4064   4.568   6.187   5.154
 1055SOL    HW2 4065   4.667   6.100   5.058
 1056SOL     OW 4066   1.706   6.131   5.602
 1056SOL    HW1 4067   1.750   6.109   5.515
 1056SOL    HW2 4068   1.623   6.185   5.585
 1057SOL     OW 4069   3.250   2.955   2.855
 1057SOL    HW1 4070   3.177   2.902   2.899
 1057SOL    HW2 4071   3.327   2.964   2.919
 1058SOL     OW 4072   3.382   1.476   2.294
 1058SOL    HW1 4073   3.341   1.427   2.371
 1058SOL    HW2 4074   3.320   1.472   2.216
 1059SOL     OW 4075   4.385   1.340   1.861
 1059SOL    HW1 4076   4.423   1.256   1.822
 1059SOL    HW2 4077   4.447   1.416   1.844
 1060SOL     OW 4078   0.957   2.831   5.395
 1060SOL    HW1 4079   1.047   2.837   5.439
 1060SOL    HW2 4080   0.903   2.761   5.441
 1061SOL     OW 4081   2.904   5.187   1.547
 1061SOL    HW1 4082   2.970   5.113   1.560
 1061SOL    HW2 4083   2.828   5.175   1.610
 1062SOL     OW 4084   6.213   5.814   5.716
 1062SOL    HW1 4085   6.286   5.825   5.648
 1062SOL    HW2 4086   6.251   5.825   5.808
 1063SOL     OW 4087   1.794   3.293   0.999
 1063SOL    HW1 4088   1.737   3.230   0.946
 1063SOL    HW2 4089   1.738   3.371   1.029
 1064SOL     OW 4090   0.547   3.117   2.030
 1064SOL    HW1 4091   0.634   3.146   2.070
 1064SOL    HW2 4092   0.525   3.176   1.953
 1065SOL     OW 4093   5.777   6.705   4.040
 1065SOL    HW1 4094   5.780   6.799   4.074
 1065SOL    HW2 4095   5.726   6.702   3.955
 1066SOL     OW 4096   4.881   0.390   3.403
 1066SOL    HW1 4097   4.890   0.306   3.458
 1066SOL    HW2 4098   4.825   0.456   3.453
 1067SOL     OW 4099   2.192   2.760   2.242
 1067SOL    HW1 4100   2.265   2.769   2.174
 1067SOL    HW2 4101   2.138   2.844   2.243
 1068SOL     OW 4102   0.226   3.510   2.499
 1068SOL    HW1 4103   0.133   3.497   2.462
 1068SOL    HW2 4104   0.272   3.582   2.447
 1069SOL     OW 4105   4.167   4.507   1.235
 1069SOL    HW1 4106   4.162   4.583   1.171
 1069SOL    HW2 4107   4.203   4.426   1.189
 1070SOL     OW 4108   2.114   0.701   0.297
 1070SOL    HW1 4109   2.213   0.687   0.292
 1070SOL    HW2 4110   2.075   0.641   0.367
 1071SOL     OW 4111   3.558   6.565   3.385
 1071SOL    HW1 4112   3.612   6.564   3.469
 1071SOL    HW2 4113   3.617   6.542   3.307
 1072SOL     OW 4114   3.123   6.526   2.889
 1072SOL    HW1 4115   3.063   6.481   2.822
 1072SOL    HW2 4116   3.206   6.471   2.900
 1073SOL     OW 4117   2.791   5.009   2.691
 1073SOL    HW1 4118   2.877   4.959   2.679
 1073SOL    HW2 4119   2.757   4.995   2.783
 1074SOL     OW 4120   0.983   5.030   1.919
 1074SOL    HW1 4121   0.938   5.116   1.944
 1074SOL    HW2 4122   0.943   4.955   1.972
 1075SOL     OW 4123   5.086   4.247   3.579
 1075SOL    HW1 4124   5.130   4.245   3.669
 1075SOL    HW2 4125   5.145   4.295   3.514
 1076SOL     OW 4126   0.477   4.196   4.286
 1076SOL    HW1 4127   0.561   4.249   4.297
 1076SOL    HW2 4128   0.498   4.109   4.242
 1077SOL     OW 4129   4.816   0.142   1.031
 1077SOL    HW1 4130   4.727   0.142   1.076
 1077SOL    HW2 4131   4.806   0.114   0.936
 1078SOL     OW 4132   1.655   2.112   1.570
 1078SOL    HW1 4133   1.619   2.019   1.575
 1078SOL    HW2 4134   1.602   2.164   1.503
 1079SOL     OW 4135   2.975   5.501   3.418
 1079SOL    HW1 4136   3.013   5.593   3.431
 1079SOL    HW2 4137   2.996   5.444   3.497
 1080SOL     OW 4138   2.201   5.281   3.898
 1080SOL    HW1 4139   2.214   5.379   3.909
 1080SOL    HW2 4140   2.110   5.263   3.859
 1081SOL     OW 4141   1.673   0.499   0.188
 1081SOL    HW1 4142   1.752   0.449   0.224
 1081SOL    HW2 4143   1.589   0.454   0.217
 1082SOL     OW 4144   1.399   0.155   5.851
 1082SOL    HW1 4145   1.358   0.070   5.819
 1082SOL    HW2 4146   1.384   0.163   5.950
 1083SOL     OW 4147   3.425   3.540   2.094
 1083SOL    HW1 4148   3.487   3.599   2.043
 1083SOL    HW2 4149   3.340   3.529   2.042
 1084SOL     OW 4150   5.860   4.376   0.965
 1084SOL    HW1 4151   5.883   4.472   0.954
 1084SOL    HW2 4152   5.939   4.326   1.000
 1085SOL     OW 4153   1.700   4.565   3.853
 1085SOL    HW1 4154   1.655   4.635   3.798
 1085SOL    HW2 4155   1.799   4.570   3.839
 1086SOL     OW 4156   4.413   4.845   2.506
 1086SOL    HW1 4157   4.429   4.936   2.467
 1086SOL    HW2 4158   4.468   4.778   2.457
 1087SOL     OW 4159   4.469   2.851   5.267
 1087SOL    HW1 4160   4.452   2.949   5.276
 1087SOL    HW2 4161   4.386   2.800   5.287
 1088SOL     OW 4162   5.165   4.161   3.867
 1088SOL    HW1 4163   5.180   4.223   3.944
 1088SOL    HW2 4164   5.088   4.101   3.888
 1089SOL     OW 4165   0.030   0.347   4.542
 1089SOL    HW1 4166   0.110   0.293   4.513
 1089SOL    HW2 4167   6.969   0.322   4.486
 1090SOL     OW 4168   1.638   1.403   6.659
 1090SOL    HW1 4169   1.650   1.311   6.622
 1090SOL    HW2 4170   1.727   1.450   6.660
 1091SOL     OW 4171   1.672   1.740   5.058
 1091SOL    HW1 4172   1.747   1.723   5.122
 1091SOL    HW2 4173   1.628   1.653   5.034
 1092SOL     OW 4174   2.441   3.728   1.698
 1092SOL    HW1 4175   2.404   3.820   1.683
 1092SOL    HW2 4176   2.374   3.660   1.667
 1093SOL     OW 4177   0.588   2.248   2.046
 1093SOL    HW1 4178   0.667   2.282   1.996
 1093SOL    HW2 4179   0.533   2.326   2.078
 1094SOL     OW 4180   0.409   6.912   1.583
 1094SOL    HW1 4181   0.435   6.835   1.641
 1094SOL    HW2 4182   0.474   6.921   1.508
 1095SOL     OW 4183   6.169   2.973   6.258
 1095SOL    HW1 4184   6.098   2.944   6.193
 1095SOL    HW2 4185   6.257   2.935   6.230
 1096SOL     OW 4186   3.206   4.375   1.595
 1096SOL    HW1 4187   3.109   4.353   1.608
 1096SOL    HW2 4188   3.257   4.349   1.676
 1097SOL     OW 4189   1.225   5.139   5.113
 1097SOL    HW1 4190   1.187   5.156   5.022
 1097SOL    HW2 4191   1.200   5.047   5.143
 1098SOL     OW 4192   4.895   2.007   2.006
 1098SOL    HW1 4193   4.971   1.950   2.041
 1098SOL    HW2 4194   4.850   2.052   2.083
 1099SOL     OW 4195   4.291   1.844   3.897
 1099SOL    HW1 4196   4.329   1.934   3.917
 1099SOL    HW2 4197   4.220   1.822   3.963
 1100SOL     OW 4198   0.758   0.574   6.496
 1100SOL    HW1 4199   0.723   0.635   6.567
 1100SOL    HW2 4200   0.847   0.538   6.525
 1101SOL     OW 4201   4.931   3.687   0.640
 1101SOL    HW1 4202   4.921   3.587   0.633
 1101SOL    HW2 4203   4.849   3.726   0.680
 1102SOL     OW 4204   0.545   4.112   3.839
 1102SOL    HW1 4205   0.522   4.209   3.849
 1102SOL    HW2 4206   0.486   4.071   3.769
 1103SOL     OW 4207   1.870   2.052   1.910
 1103SOL    HW1 4208   1.783   2.079   1.951
 1103SOL    HW2 4209   1.866   2.063   1.811
 1104SOL     OW 4210   3.552   4.771   6.430
 1104SOL    HW1 4211   3.622   4.769   6.358
 1104SOL    HW2 4212   3.473   4.824   6.397
 1105SOL     OW 4213   5.063   4.256   6.397
 1105SOL    HW1 4214   4.986   4.194   6.379
 1105SOL    HW2 4215   5.145   4.223   6.350
 1106SOL     OW 4216   0.251   2.733   5.337
 1106SOL    HW1 4217   0.303   2.800   5.388
 1106SOL    HW2 4218   0.155   2.737   5.364
 1107SOL     OW 4219   1.116   0.527   0.992
 1107SOL    HW1 4220   1.188   0.519   0.922
 1107SOL    HW2 4221   1.061   0.608   0.974
 1108SOL     OW 4222   1.674   0.816   5.726
 1108SOL    HW1 4223   1.594   0.856   5.679
 1108SOL    HW2 4224   1.710   0.883   5.792
 1109SOL     OW 4225   4.360   6.276   4.327
 1109SOL    HW1 4226   4.446   6.297   4.281
 1109SOL    HW2 4227   4.365   6.303   4.423
 1110SOL     OW 4228   3.076   3.908   1.929
 1110SOL    HW1 4229   2.996   3.847   1.928
 1110SOL    HW2 4230   3.124   3.899   2.016
 1111SOL     OW 4231   5.629   0.776   0.204
 1111SOL    HW1 4232   5.618   0.853   0.142
 1111SOL    HW2 4233   5.646   0.693   0.151
 1112SOL     OW 4234   6.659   0.974   1.878
 1112SOL    HW1 4235   6.575   0.925   1.855
 1112SOL    HW2 4236   6.734   0.909   1.885
 1113SOL     OW 4237   6.283   3.347   3.021
 1113SOL    HW1 4238   6.242   3.352   2.930
 1113SOL    HW2 4239   6.345   3.268   3.025
 1114SOL     OW 4240   4.574   1.421   5.811
 1114SOL    HW1 4241   4.571   1.476   5.894
 1114SOL    HW2 4242   4.550   1.326   5.833
 1115SOL     OW 4243   2.693   3.585   0.847
 1115SOL    HW1 4244   2.782   3.630   0.853
 1115SOL    HW2 4245   2.621   3.652   0.864
 1116SOL     OW 4246   4.116   6.355   4.232
 1116SOL    HW1 4247   4.051   6.302   4.287
 1116SOL    HW2 4248   4.205   6.354   4.276
 1117SOL     OW 4249   3.192   2.939   1.173
 1117SOL    HW1 4250   3.120   2.998   1.137
 1117SOL    HW2 4251   3.264   2.996   1.213
 1118SOL     OW 4252   2.030   4.374   3.336
 1118SOL    HW1 4253   1.957   4.434   3.302
 1118SOL    HW2 4254   2.005   4.278   3.320
 1119SOL     OW 4255   4.193   4.041   1.719
 1119SOL    HW1 4256   4.190   3.946   1.749
 1119SOL    HW2 4257   4.272   4.087   1.760
 1120SOL     OW 4258   4.583   7.009   5.905
 1120SOL    HW1 4259   4.537   0.043   5.834
 1120SOL    HW2 4260   4.636   0.053   5.963
 1121SOL     OW 4261   5.248   2.951   1.744
 1121SOL    HW1 4262   5.149   2.951   1.762
 1121SOL    HW2 4263   5.264   2.919   1.651
 1122SOL     OW 4264   5.157   3.482   6.455
 1122SOL    HW1 4265   5.192   3.391   6.477
 1122SOL    HW2 4266   5.078   3.502   6.512
 1123SOL     OW 4267   4.206   1.024   2.169
 1123SOL    HW1 4268   4.111   1.043   2.147
 1123SOL    HW2 4269   4.229   1.064   2.258
 1124SOL     OW 4270   6.867   4.022   4.659
 1124SOL    HW1 4271   6.871   3.935   4.609
 1124SOL    HW2 4272   6.830   4.093   4.600
 1125SOL     OW 4273   3.332   3.261   5.044
 1125SOL    HW1 4274   3.352   3.255   4.946
 1125SOL    HW2 4275   3.277   3.343   5.061
 1126SOL     OW 4276   4.732   6.525   1.618
 1126SOL    HW1 4277   4.781   6.612   1.625
 1126SOL    HW2 4278   4.797   6.450   1.605
 1127SOL     OW 4279   2.100   4.921   0.056
 1127SOL    HW1 4280   2.012   4.938   0.101
 1127SOL    HW2 4281   2.149   4.850   0.106
 1128SOL     OW 4282   3.084   1.940   4.137
 1128SOL    HW1 4283   3.162   2.001   4.127
 1128SOL    HW2 4284   3.080   1.907   4.231
 1129SOL     OW 4285   5.391   0.361   6.862
 1129SOL    HW1 4286   5.428   0.274   6.896
 1129SOL    HW2 4287   5.393   0.429   6.935
 1130SOL     OW 4288   0.942   4.291   6.742
 1130SOL    HW1 4289   0.869   4.302   6.809
 1130SOL    HW2 4290   1.026   4.334   6.778
 1131SOL     OW 4291   0.307   6.289   5.104
 1131SOL    HW1 4292   0.362   6.311   5.023
 1131SOL    HW2 4293   0.312   6.364   5.170
 1132SOL     OW 4294   4.911   6.654   5.509
 1132SOL    HW1 4295   4.832   6.687   5.457
 1132SOL    HW2 4296   4.991   6.710   5.484
 1133SOL     OW 4297   0.467   3.669   1.594
 1133SOL    HW1 4298   0.490   3.669   1.497
 1133SOL    HW2 4299   0.480   3.577   1.631
 1134SOL     OW 4300   5.217   2.514   6.276
 1134SOL    HW1 4301   5.131   2.496   6.324
 1134SOL    HW2 4302   5.199   2.525   6.178
 1135SOL     OW 4303   2.737   2.341   3.285
 1135SOL    HW1 4304   2.679   2.263   3.261
 1135SOL    HW2 4305   2.790   2.319   3.367
 1136SOL     OW 4306   3.467   5.432   3.568
 1136SOL    HW1 4307   3.473   5.418   3.667
 1136SOL    HW2 4308   3.500   5.350   3.521
 1137SOL     OW 4309   0.939   1.397   6.220
 1137SOL    HW1 4310   0.896   1.487   6.226
 1137SOL    HW2 4311   0.870   1.327   6.240
 1138SOL     OW 4312   1.441   3.958   5.375
 1138SOL    HW1 4313   1.440   3.915   5.285
 1138SOL    HW2 4314   1.535   3.960   5.410
 1139SOL     OW 4315   1.584   0.003   2.728
 1139SOL    HW1 4316   1.674   0.046   2.725
 1139SOL    HW2 4317   1.594   6.925   2.754
 1140SOL     OW 4318   3.422   1.760   3.492
 1140SOL    HW1 4319   3.497   1.740   3.556
 1140SOL    HW2 4320   3.459   1.800   3.408
 1141SOL     OW 4321   6.278   5.622   5.132
 1141SOL    HW1 4322   6.259   5.718   5.110
 1141SOL    HW2 4323   6.201   5.565   5.103
 1142SOL     OW 4324   5.347   0.278   3.946
 1142SOL    HW1 4325   5.276   0.295   4.014
 1142SOL    HW2 4326   5.390   0.365   3.919
 1143SOL     OW 4327   3.898   2.176   3.107
 1143SOL    HW1 4328   3.984   2.184   3.057
 1143SOL    HW2 4329   3.821   2.183   3.044
 1144SOL     OW 4330   0.426   4.847   4.413
 1144SOL    HW1 4331   0.495   4.850   4.485
 1144SOL    HW2 4332   0.347   4.793   4.444
 1145SOL     OW 4333   0.094   5.624   4.463
 1145SOL    HW1 4334   0.150   5.705   4.482
 1145SOL    HW2 4335   7.015   5.650   4.459
 1146SOL     OW 4336   5.664   2.376   1.621
 1146SOL    HW1 4337   5.706   2.325   1.696
 1146SOL    HW2 4338   5.715   2.462   1.606
 1147SOL     OW 4339   0.248   3.817   2.120
 1147SOL    HW1 4340   0.297   3.904   2.114
 1147SOL    HW2 4341   0.290   3.751   2.059
 1148SOL     OW 4342   3.994   6.742   6.852
 1148SOL    HW1 4343   4.091   6.717   6.849
 1148SOL    HW2 4344   3.939   6.661   6.875
 1149SOL     OW 4345   6.778   3.270   2.924
 1149SOL    HW1 4346   6.735   3.289   2.836
 1149SOL    HW2 4347   6.770   3.172   2.944
 1150SOL     OW 4348   1.807   4.713   0.330
 1150SOL    HW1 4349   1.864   4.728   0.410
 1150SOL    HW2 4350   1.714   4.744   0.349
 1151SOL     OW 4351   6.091   4.825   6.601
 1151SOL    HW1 4352   6.033   4.889   6.550
 1151SOL    HW2 4353   6.155   4.876   6.658
 1152SOL     OW 4354   1.956   0.504   5.035
 1152SOL    HW1 4355   1.901   0.472   4.958
 1152SOL    HW2 4356   1.940   0.445   5.114
 1153SOL     OW 4357   2.180   5.604   2.950
 1153SOL    HW1 4358   2.139   5.513   2.954
 1153SOL    HW2 4359   2.205   5.634   3.042
 1154SOL     OW 4360   0.501   4.005   2.261
 1154SOL    HW1 4361   0.564   4.025   2.336
 1154SOL    HW2 4362   0.418   4.061   2.271
 1155SOL     OW 4363   3.683   6.066   1.817
 1155SOL    HW1 4364   3.749   6.023   1.756
 1155SOL    HW2 4365   3.658   6.156   1.781
 1156SOL     OW 4366   1.928   0.640   4.474
 1156SOL    HW1 4367   1.997   0.610   4.408
 1156SOL    HW2 4368   1.968   0.708   4.536
 1157SOL     OW 4369   0.622   3.012   3.973
 1157SOL    HW1 4370   0.684   2.966   4.037
 1157SOL    HW2 4371   0.546   3.051   4.023
 1158SOL     OW 4372   5.514   5.000   5.328
 1158SOL    HW1 4373   5.439   4.942   5.297
 1158SOL    HW2 4374   5.591   4.943   5.356
 1159SOL     OW 4375   3.569   5.192   3.173
 1159SOL    HW1 4376   3.666   5.211   3.187
 1159SOL    HW2 4377   3.547   5.100   3.203
 1160SOL     OW 4378   4.134   3.623   2.172
 1160SOL    HW1 4379   4.160   3.578   2.257
 1160SOL    HW2 4380   4.095   3.713   2.193
 1161SOL     OW 4381   5.326   0.782   3.478
 1161SOL    HW1 4382   5.287   0.829   3.558
 1161SOL    HW2 4383   5.350   0.689   3.503
 1162SOL     OW 4384   3.407   4.039   2.029
 1162SOL    HW1 4385   3.490   4.093   2.045
 1162SOL    HW2 4386   3.375   4.054   1.936
 1163SOL     OW 4387   5.101   2.374   2.121
 1163SOL    HW1 4388   5.066   2.458   2.079
 1163SOL    HW2 4389   5.173   2.335   2.064
 1164SOL     OW 4390   5.687   2.691   3.079
 1164SOL    HW1 4391   5.613   2.628   3.054
 1164SOL    HW2 4392   5.774   2.653   3.048
 1165SOL     OW 4393   0.712   4.383   3.396
 1165SOL    HW1 4394   0.676   4.314   3.458
 1165SOL    HW2 4395   0.775   4.443   3.446
 1166SOL     OW 4396   4.239   2.701   5.874
 1166SOL    HW1 4397   4.216   2.611   5.835
 1166SOL    HW2 4398   4.161   2.737   5.925
 1167SOL     OW 4399   4.907   1.082   5.165
 1167SOL    HW1 4400   4.905   0.983   5.152
 1167SOL    HW2 4401   4.880   1.128   5.080
 1168SOL     OW 4402   6.679   6.883   3.147
 1168SOL    HW1 4403   6.694   6.814   3.218
 1168SOL    HW2 4404   6.713   6.971   3.178
 1169SOL     OW 4405   0.601   3.682   1.338
 1169SOL    HW1 4406   0.690   3.726   1.329
 1169SOL    HW2 4407   0.587   3.619   1.262
 1170SOL     OW 4408   3.331   1.161   2.204
 1170SOL    HW1 4409   3.281   1.218   2.139
 1170SOL    HW2 4410   3.307   1.186   2.297
 1171SOL     OW 4411   2.765   5.479   1.073
 1171SOL    HW1 4412   2.685   5.493   1.130
 1171SOL    HW2 4413   2.741   5.492   0.977
 1172SOL     OW 4414   2.888   3.499   4.530
 1172SOL    HW1 4415   2.851   3.539   4.446
 1172SOL    HW2 4416   2.921   3.406   4.512
 1173SOL     OW 4417   3.011   0.912   6.206
 1173SOL    HW1 4418   3.102   0.949   6.189
 1173SOL    HW2 4419   2.953   0.985   6.243
 1174SOL     OW 4420   2.788   5.876   1.066
 1174SOL    HW1 4421   2.864   5.811   1.072
 1174SOL    HW2 4422   2.825   5.969   1.065
 1175SOL     OW 4423   6.279   4.949   6.019
 1175SOL    HW1 4424   6.362   4.997   5.989
 1175SOL    HW2 4425   6.200   4.986   5.970
 1176SOL     OW 4426   5.549   4.496   0.964
 1176SOL    HW1 4427   5.574   4.400   0.949
 1176SOL    HW2 4428   5.566   4.520   1.060
 1177SOL     OW 4429   6.721   3.007   5.619
 1177SOL    HW1 4430   6.670   2.924   5.641
 1177SOL    HW2 4431   6.746   3.006   5.522
 1178SOL     OW 4432   5.702   3.525   1.507
 1178SOL    HW1 4433   5.660   3.537   1.417
 1178SOL    HW2 4434   5.710   3.613   1.553
 1179SOL     OW 4435   1.740   5.374   6.873
 1179SOL    HW1 4436   1.679   5.358   6.795
 1179SOL    HW2 4437   1.738   5.296   6.934
 1180SOL     OW 4438   1.664   2.082   4.498
 1180SOL    HW1 4439   1.638   2.107   4.591
 1180SOL    HW2 4440   1.650   1.984   4.486
 1181SOL     OW 4441   1.952   3.951   3.203
 1181SOL    HW1 4442   2.014   3.938   3.281
 1181SOL    HW2 4443   1.959   3.873   3.142
 1182SOL     OW 4444   2.388   4.343   3.900
 1182SOL    HW1 4445   2.394   4.313   3.805
 1182SOL    HW2 4446   2.470   4.395   3.924
 1183SOL     OW 4447   4.183   6.023   0.905
 1183SOL    HW1 4448   4.213   5.932   0.932
 1183SOL    HW2 4449   4.128   6.064   0.978
 1184SOL     OW 4450   3.004   2.887   5.242
 1184SOL    HW1 4451   2.918   2.878   5.292
 1184SOL    HW2 4452   3.061   2.807   5.259
 1185SOL     OW 4453   1.979   0.264   0.123
 1185SOL    HW1 4454   2.035   0.346   0.114
 1185SOL    HW2 4455   2.036   0.188   0.153
 1186SOL     OW 4456   5.132   0.330   4.609
 1186SOL    HW1 4457   5.058   0.304   4.671
 1186SOL    HW2 4458   5.220   0.311   4.653
 1187SOL     OW 4459   6.066   6.920   5.403
 1187SOL    HW1 4460   6.018   6.915   5.315
 1187SOL    HW2 4461   6.157   6.958   5.389
 1188SOL     OW 4462   1.844   0.166   6.264
 1188SOL    HW1 4463   1.941   0.190   6.251
 1188SOL    HW2 4464   1.827   0.075   6.225
 1189SOL     OW 4465   5.719   0.323   1.513
 1189SOL    HW1 4466   5.700   0.323   1.415
 1189SOL    HW2 4467   5.637   0.295   1.563
 1190SOL     OW 4468   4.444   5.091   2.413
 1190SOL    HW1 4469   4.524   5.140   2.447
 1190SOL    HW2 4470   4.361   5.137   2.445
 1191SOL     OW 4471   3.160   5.755   6.351
 1191SOL    HW1 4472   3.090   5.720   6.289
 1191SOL    HW2 4473   3.183   5.685   6.418
 1192SOL     OW 4474   5.670   5.429   2.934
 1192SOL    HW1 4475   5.590   5.488   2.930
 1192SOL    HW2 4476   5.664   5.360   2.862
 1193SOL     OW 4477   5.259   0.549   3.851
 1193SOL    HW1 4478   5.169   0.506   3.846
 1193SOL    HW2 4479   5.248   0.649   3.848
 1194SOL     OW 4480   6.354   0.474   0.508
 1194SOL    HW1 4481   6.454   0.480   0.507
 1194SOL    HW2 4482   6.324   0.443   0.598
 1195SOL     OW 4483   5.830   0.298   6.436
 1195SOL    HW1 4484   5.880   0.351   6.503
 1195SOL    HW2 4485   5.791   0.217   6.480
 1196SOL     OW 4486   0.339   5.046   2.552
 1196SOL    HW1 4487   0.337   5.094   2.640
 1196SOL    HW2 4488   0.360   5.110   2.479
 1197SOL     OW 4489   3.652   5.724   5.907
 1197SOL    HW1 4490   3.710   5.765   5.836
 1197SOL    HW2 4491   3.558   5.759   5.897
 1198SOL     OW 4492   3.125   2.064   3.563
 1198SOL    HW1 4493   3.216   2.100   3.542
 1198SOL    HW2 4494   3.129   2.010   3.647
 1199SOL     OW 4495   3.614   4.362   1.703
 1199SOL    HW1 4496   3.596   4.448   1.750
 1199SOL    HW2 4497   3.597   4.373   1.605
 1200SOL     OW 4498   4.222   4.404   6.627
 1200SOL    HW1 4499   4.156   4.345   6.580
 1200SOL    HW2 4500   4.193   4.416   6.722
 1201SOL     OW 4501   1.336   1.764   5.097
 1201SOL    HW1 4502   1.381   1.822   5.028
 1201SOL    HW2 4503   1.279   1.696   5.051
 1202SOL     OW 4504   5.902   6.878   5.165
 1202SOL    HW1 4505   5.922   6.823   5.084
 1202SOL    HW2 4506   5.843   6.954   5.139
 1203SOL     OW 4507   5.524   0.100   1.080
 1203SOL    HW1 4508   5.575   0.014   1.069
 1203SOL    HW2 4509   5.497   0.111   1.176
 1204SOL     OW 4510   3.608   0.714   0.602
 1204SOL    HW1 4511   3.588   0.714   0.504
 1204SOL    HW2 4512   3.638   0.805   0.630
 1205SOL     OW 4513   5.831   2.060   5.314
 1205SOL    HW1 4514   5.731   2.050   5.310
 1205SOL    HW2 4515   5.872   2.010   5.238
 1206SOL     OW 4516   2.139   1.752   5.199
 1206SOL    HW1 4517   2.178   1.663   5.222
 1206SOL    HW2 4518   2.062   1.739   5.137
 1207SOL     OW 4519   5.857   6.914   6.673
 1207SOL    HW1 4520   5.875   6.862   6.589
 1207SOL    HW2 4521   5.761   6.905   6.698
 1208SOL     OW 4522   3.874   3.527   2.915
 1208SOL    HW1 4523   3.932   3.603   2.944
 1208SOL    HW2 4524   3.914   3.484   2.834
 1209SOL     OW 4525   5.467   4.851   4.028
 1209SOL    HW1 4526   5.461   4.829   4.125
 1209SOL    HW2 4527   5.545   4.912   4.013
 1210SOL     OW 4528   4.376   6.874   2.436
 1210SOL    HW1 4529   4.418   6.816   2.506
 1210SOL    HW2 4530   4.321   6.817   2.374
 1211SOL     OW 4531   0.880   4.438   4.852
 1211SOL    HW1 4532   0.806   4.404   4.794
 1211SOL    HW2 4533   0.899   4.533   4.830
 1212SOL     OW 4534   1.337   4.331   4.898
 1212SOL    HW1 4535   1.381   4.246   4.926
 1212SOL    HW2 4536   1.320   4.387   4.979
 1213SOL     OW 4537   6.382   2.598   5.260
 1213SOL    HW1 4538   6.362   2.505   5.290
 1213SOL    HW2 4539   6.299   2.642   5.228
 1214SOL     OW 4540   2.033   3.735   3.741
 1214SOL    HW1 4541   2.087   3.671   3.687
 1214SOL    HW2 4542   2.086   3.819   3.757
 1215SOL     OW 4543   1.408   4.703   2.420
 1215SOL    HW1 4544   1.362   4.618   2.448
 1215SOL    HW2 4545   1.506   4.694   2.434
 1216SOL     OW 4546   1.379   0.474   1.743
 1216SOL    HW1 4547   1.406   0.485   1.648
 1216SOL    HW2 4548   1.461   0.461   1.800
 1217SOL     OW 4549   1.384   6.644   1.667
 1217SOL    HW1 4550   1.354   6.674   1.757
 1217SOL    HW2 4551   1.483   6.659   1.657
 1218SOL     OW 4552   0.453   3.604   4.319
 1218SOL    HW1 4553   0.405   3.598   4.232
 1218SOL    HW2 4554   0.532   3.543   4.318
 1219SOL     OW 4555   3.564   6.458   1.295
 1219SOL    HW1 4556   3.581   6.469   1.393
 1219SOL    HW2 4557   3.624   6.386   1.259
 1220SOL     OW 4558   5.847   3.312   3.224
 1220SOL    HW1 4559   5.888   3.291   3.313
 1220SOL    HW2 4560   5.910   3.286   3.151
 1221SOL     OW 4561   4.804   3.797   0.133
 1221SOL    HW1 4562   4.724   3.839   0.176
 1221SOL    HW2 4563   4.792   3.796   0.033
 1222SOL     OW 4564   0.392   6.760   1.259
 1222SOL    HW1 4565   0.363   6.666   1.245
 1222SOL    HW2 4566   0.321   6.809   1.310
 1223SOL     OW 4567   6.491   6.990   6.222
 1223SOL    HW1 4568   6.572   6.982   6.280
 1223SOL    HW2 4569   6.472   0.069   6.205
 1224SOL     OW 4570   4.915   5.190   1.282
 1224SOL    HW1 4571   4.867   5.230   1.360
 1224SOL    HW2 4572   5.013   5.186   1.301
 1225SOL     OW 4573   4.805   2.155   0.657
 1225SOL    HW1 4574   4.873   2.175   0.587
 1225SOL    HW2 4575   4.847   2.161   0.747
 1226SOL     OW 4576   6.247   6.239   0.978
 1226SOL    HW1 4577   6.196   6.238   0.892
 1226SOL    HW2 4578   6.345   6.247   0.958
 1227SOL     OW 4579   6.095   3.812   5.159
 1227SOL    HW1 4580   6.019   3.747   5.159
 1227SOL    HW2 4581   6.111   3.844   5.066
 1228SOL     OW 4582   4.082   3.199   2.482
 1228SOL    HW1 4583   4.143   3.120   2.484
 1228SOL    HW2 4584   4.041   3.211   2.572
 1229SOL     OW 4585   2.118   5.895   2.604
 1229SOL    HW1 4586   2.088   5.838   2.528
 1229SOL    HW2 4587   2.189   5.847   2.656
 1230SOL     OW 4588   5.169   5.029   1.276
 1230SOL    HW1 4589   5.155   4.932   1.253
 1230SOL    HW2 4590   5.266   5.046   1.290
 1231SOL     OW 4591   1.661   2.210   6.626
 1231SOL    HW1 4592   1.632   2.279   6.692
 1231SOL    HW2 4593   1.719   2.143   6.673
 1232SOL     OW 4594   3.374   0.664   5.596
 1232SOL    HW1 4595   3.349   0.614   5.513
 1232SOL    HW2 4596   3.406   0.756   5.572
 1233SOL     OW 4597   0.406   5.821   4.117
 1233SOL    HW1 4598   0.318   5.866   4.131
 1233SOL    HW2 4599   0.413   5.791   4.021
 1234SOL     OW 4600   6.722   2.990   6.877
 1234SOL    HW1 4601   6.725   2.972   6.975
 1234SOL    HW2 4602   6.693   3.084   6.862
 1235SOL     OW 4603   6.281   5.080   0.032
 1235SOL    HW1 4604   6.209   5.147   0.017
 1235SOL    HW2 4605   6.361   5.125   0.071
 1236SOL     OW 4606   2.026   1.528   1.752
 1236SOL    HW1 4607   2.033   1.493   1.658
 1236SOL    HW2 4608   2.069   1.463   1.815
 1237SOL     OW 4609   1.044   6.999   4.766
 1237SOL    HW1 4610   1.048   6.903   4.792
 1237SOL    HW2 4611   0.976   0.028   4.823
 1238SOL     OW 4612   6.440   0.609   4.091
 1238SOL    HW1 4613   6.449   0.683   4.157
 1238SOL    HW2 4614   6.384   0.536   4.129
 1239SOL     OW 4615   5.985   4.533   4.090
 1239SOL    HW1 4616   6.082   4.557   4.096
 1239SOL    HW2 4617   5.950   4.557   4.000
 1240SOL     OW 4618   5.730   4.470   3.554
 1240SOL    HW1 4619   5.634   4.499   3.555
 1240SOL    HW2 4620   5.758   4.452   3.460
 1241SOL     OW 4621   5.415   4.863   4.305
 1241SOL    HW1 4622   5.495   4.923   4.311
 1241SOL    HW2 4623   5.420   4.794   4.377
 1242SOL     OW 4624   1.110   4.737   0.133
 1242SOL    HW1 4625   1.033   4.792   0.164
 1242SOL    HW2 4626   1.082   4.683   0.053
 1243SOL     OW 4627   0.994   4.596   5.167
 1243SOL    HW1 4628   0.953   4.562   5.252
 1243SOL    HW2 4629   0.923   4.603   5.097
 1244SOL     OW 4630   5.188   6.287   4.365
 1244SOL    HW1 4631   5.154   6.228   4.291
 1244SOL    HW2 4632   5.269   6.336   4.334
 1245SOL     OW 4633   5.246   6.642   2.043
 1245SOL    HW1 4634   5.168   6.681   1.995
 1245SOL    HW2 4635   5.228   6.545   2.062
 1246SOL     OW 4636   4.456   1.492   0.550
 1246SOL    HW1 4637   4.422   1.562   0.487
 1246SOL    HW2 4638   4.554   1.482   0.538
 1247SOL     OW 4639   6.648   6.780   3.437
 1247SOL    HW1 4640   6.677   6.692   3.398
 1247SOL    HW2 4641   6.557   6.770   3.478
 1248SOL     OW 4642   1.091   6.778   4.963
 1248SOL    HW1 4643   1.110   6.683   4.937
 1248SOL    HW2 4644   1.177   6.827   4.974
 1249SOL     OW 4645   6.742   4.544   0.003
 1249SOL    HW1 4646   6.722   4.520   6.926
 1249SOL    HW2 4647   6.713   4.470   0.063
 1250SOL     OW 4648   6.546   3.091   5.120
 1250SOL    HW1 4649   6.447   3.089   5.102
 1250SOL    HW2 4650   6.563   3.144   5.204
 1251SOL     OW 4651   2.694   0.510   2.929
 1251SOL    HW1 4652   2.659   0.418   2.911
 1251SOL    HW2 4653   2.771   0.530   2.867
 1252SOL     OW 4654   1.575   5.517   0.385
 1252SOL    HW1 4655   1.607   5.564   0.302
 1252SOL    HW2 4656   1.638   5.537   0.460
 1253SOL     OW 4657   3.614   0.712   1.242
 1253SOL    HW1 4658   3.554   0.792   1.238
 1253SOL    HW2 4659   3.561   0.630   1.223
 1254SOL     OW 4660   6.651   1.758   1.785
 1254SOL    HW1 4661   6.619   1.691   1.719
 1254SOL    HW2 4662   6.633   1.725   1.877
 1255SOL     OW 4663   5.742   1.393   4.930
 1255SOL    HW1 4664   5.708   1.307   4.967
 1255SOL    HW2 4665   5.841   1.389   4.921
 1256SOL     OW 4666   0.240   5.944   4.801
 1256SOL    HW1 4667   0.290   5.984   4.725
 1256SOL    HW2 4668   0.204   5.854   4.775
 1257SOL     OW 4669   0.490   5.339   4.006
 1257SOL    HW1 4670   0.567   5.279   3.986
 1257SOL    HW2 4671   0.470   5.396   3.927
 1258SOL     OW 4672   3.109   6.248   4.384
 1258SOL    HW1 4673   3.172   6.302   4.328
 1258SOL    HW2 4674   3.104   6.155   4.348
 1259SOL     OW 4675   5.342   6.998   4.356
 1259SOL    HW1 4676   5.431   6.954   4.343
 1259SOL    HW2 4677   5.284   6.941   4.415
 1260SOL     OW 4678   2.056   0.803   1.801
 1260SOL    HW1 4679   2.054   0.885   1.743
 1260SOL    HW2 4680   2.050   0.830   1.897
 1261SOL     OW 4681   6.752   4.522   6.496
 1261SOL    HW1 4682   6.663   4.526   6.451
 1261SOL    HW2 4683   6.791   4.430   6.486
 1262SOL     OW 4684   5.612   5.146   0.474
 1262SOL    HW1 4685   5.678   5.071   0.470
 1262SOL    HW2 4686   5.533   5.124   0.416
 1263SOL     OW 4687   0.380   2.628   1.386
 1263SOL    HW1 4688   0.315   2.606   1.460
 1263SOL    HW2 4689   0.386   2.728   1.376
 1264SOL     OW 4690   0.524   3.752   3.635
 1264SOL    HW1 4691   0.586   3.727   3.709
 1264SOL    HW2 4692   0.577   3.777   3.554
 1265SOL     OW 4693   6.876   4.746   5.227
 1265SOL    HW1 4694   6.928   4.731   5.311
 1265SOL    HW2 4695   6.939   4.774   5.154
 1266SOL     OW 4696   2.939   1.830   5.286
 1266SOL    HW1 4697   3.012   1.818   5.218
 1266SOL    HW2 4698   2.913   1.742   5.324
 1267SOL     OW 4699   7.010   5.576   3.271
 1267SOL    HW1 4700   0.050   5.600   3.348
 1267SOL    HW2 4701   0.042   5.514   3.210
 1268SOL     OW 4702   5.345   2.838   6.864
 1268SOL    HW1 4703   5.407   2.847   6.942
 1268SOL    HW2 4704   5.266   2.782   6.891
 1269SOL     OW 4705   6.811   5.391   5.590
 1269SOL    HW1 4706   6.802   5.481   5.546
 1269SOL    HW2 4707   6.901   5.383   5.631
 1270SOL     OW 4708   1.618   3.599   4.568
 1270SOL    HW1 4709   1.612   3.569   4.472
 1270SOL    HW2 4710   1.558   3.677   4.582
 1271SOL     OW 4711   3.436   2.009   2.809
 1271SOL    HW1 4712   3.393   2.071   2.743
 1271SOL    HW2 4713   3.381   2.007   2.893
 1272SOL     OW 4714   0.104   5.170   1.190
 1272SOL    HW1 4715   0.145   5.113   1.262
 1272SOL    HW2 4716   0.005   5.174   1.203
 1273SOL     OW 4717   2.841   5.195   6.749
 1273SOL    HW1 4718   2.916   5.252   6.783
 1273SOL    HW2 4719   2.861   5.099   6.767
 1274SOL     OW 4720   6.640   2.920   2.554
 1274SOL    HW1 4721   6.714   2.854   2.547
 1274SOL    HW2 4722   6.552   2.872   2.554
 1275SOL     OW 4723   4.057   1.419   4.730
 1275SOL    HW1 4724   4.059   1.438   4.632
 1275SOL    HW2 4725   4.063   1.321   4.745
 1276SOL     OW 4726   0.847   0.380   2.474
 1276SOL    HW1 4727   0.779   0.340   2.536
 1276SOL    HW2 4728   0.803   0.447   2.415
 1277SOL     OW 4729   6.796   0.581   4.479
 1277SOL    HW1 4730   6.851   0.593   4.563
 1277SOL    HW2 4731   6.828   0.645   4.410
 1278SOL     OW 4732   2.049   1.900   5.426
 1278SOL    HW1 4733   2.056   1.998   5.409
 1278SOL    HW2 4734   2.088   1.850   5.349
 1279SOL     OW 4735   2.829   6.071   0.503
 1279SOL    HW1 4736   2.893   6.017   0.557
 1279SOL    HW2 4737   2.738   6.066   0.545
 1280SOL     OW 4738   2.375   0.449   3.432
 1280SOL    HW1 4739   2.307   0.498   3.376
 1280SOL    HW2 4740   2.335   0.428   3.521
 1281SOL     OW 4741   1.209   6.373   3.530
 1281SOL    HW1 4742   1.288   6.364   3.469
 1281SOL    HW2 4743   1.132   6.322   3.491
 1282SOL     OW 4744   0.580   1.285   1.104
 1282SOL    HW1 4745   0.655   1.333   1.151
 1282SOL    HW2 4746   0.511   1.259   1.171
 1283SOL     OW 4747   5.713   4.827   4.983
 1283SOL    HW1 4748   5.720   4.780   4.895
 1283SOL    HW2 4749   5.624   4.807   5.025
 1284SOL     OW 4750   3.121   2.714   1.799
 1284SOL    HW1 4751   3.084   2.761   1.719
 1284SOL    HW2 4752   3.056   2.645   1.831
 1285SOL     OW 4753   4.839   2.561   5.832
 1285SOL    HW1 4754   4.850   2.512   5.919
 1285SOL    HW2 4755   4.851   2.659   5.847
 1286SOL     OW 4756   5.581   3.976   1.853
 1286SOL    HW1 4757   5.616   4.064   1.821
 1286SOL    HW2 4758   5.481   3.978   1.852
 1287SOL     OW 4759   6.461   5.710   6.711
 1287SOL    HW1 4760   6.462   5.805   6.681
 1287SOL    HW2 4761   6.546   5.689   6.759
 1288SOL     OW 4762   0.146   3.355   0.384
 1288SOL    HW1 4763   0.185   3.289   0.321
 1288SOL    HW2 4764   0.167   3.328   0.478
 1289SOL     OW 4765   6.458   5.520   2.121
 1289SOL    HW1 4766   6.480   5.430   2.157
 1289SOL    HW2 4767   6.505   5.534   2.034
 1290SOL     OW 4768   0.804   6.839   0.357
 1290SOL    HW1 4769   0.735   6.911   0.350
 1290SOL    HW2 4770   0.875   6.854   0.289
 1291SOL     OW 4771   1.022   6.218   6.756
 1291SOL    HW1 4772   0.986   6.131   6.788
 1291SOL    HW2 4773   1.120   6.210   6.740
 1292SOL     OW 4774   0.413   4.799   1.324
 1292SOL    HW1 4775   0.335   4.829   1.270
 1292SOL    HW2 4776   0.440   4.707   1.297
 1293SOL     OW 4777   0.925   1.656   6.714
 1293SOL    HW1 4778   0.926   1.606   6.800
 1293SOL    HW2 4779   0.902   1.594   6.639
 1294SOL     OW 4780   0.368   3.147   2.266
 1294SOL    HW1 4781   0.283   3.197   2.250
 1294SOL    HW2 4782   0.416   3.133   2.180
 1295SOL     OW 4783   5.561   3.087   1.777
 1295SOL    HW1 4784   5.512   3.027   1.713
 1295SOL    HW2 4785   5.617   3.033   1.838
 1296SOL     OW 4786   3.151   2.258   6.116
 1296SOL    HW1 4787   3.155   2.299   6.207
 1296SOL    HW2 4788   3.226   2.193   6.106
 1297SOL     OW 4789   6.696   1.397   5.431
 1297SOL    HW1 4790   6.746   1.387   5.345
 1297SOL    HW2 4791   6.735   1.473   5.483
 1298SOL     OW 4792   5.881   2.850   2.259
 1298SOL    HW1 4793   5.794   2.829   2.215
 1298SOL    HW2 4794   5.871   2.930   2.318
 1299SOL     OW 4795   1.088   4.237   4.827
 1299SOL    HW1 4796   1.007   4.295   4.833
 1299SOL    HW2 4797   1.168   4.288   4.857
 1300SOL     OW 4798   3.198   3.065   1.960
 1300SOL    HW1 4799   3.154   3.030   2.042
 1300SOL    HW2 4800   3.129   3.089   1.892
 1301SOL     OW 4801   0.358   6.366   4.172
 1301SOL    HW1 4802   0.294   6.426   4.125
 1301SOL    HW2 4803   0.414   6.318   4.104
 1302SOL     OW 4804   2.697   0.115   5.105
 1302SOL    HW1 4805   2.706   0.015   5.106
 1302SOL    HW2 4806   2.680   0.146   5.011
 1303SOL     OW 4807   3.541   1.531   0.844
 1303SOL    HW1 4808   3.547   1.453   0.781
 1303SOL    HW2 4809   3.562   1.500   0.937
 1304SOL     OW 4810   1.886   0.368   6.530
 1304SOL    HW1 4811   1.872   0.271   6.550
 1304SOL    HW2 4812   1.853   0.389   6.438
 1305SOL     OW 4813   4.278   0.016   4.384
 1305SOL    HW1 4814   4.370   7.017   4.420
 1305SOL    HW2 4815   4.256   6.966   4.314
 1306SOL     OW 4816   0.233   4.117   4.495
 1306SOL    HW1 4817   0.327   4.126   4.460
 1306SOL    HW2 4818   0.230   4.043   4.563
 1307SOL     OW 4819   1.099   3.236   4.792
 1307SOL    HW1 4820   1.067   3.205   4.703
 1307SOL    HW2 4821   1.109   3.336   4.791
 1308SOL     OW 4822   4.395   5.759   4.095
 1308SOL    HW1 4823   4.418   5.745   3.999
 1308SOL    HW2 4824   4.366   5.853   4.109
 1309SOL     OW 4825   5.481   2.604   4.386
 1309SOL    HW1 4826   5.566   2.555   4.407
 1309SOL    HW2 4827   5.441   2.567   4.302
 1310SOL     OW 4828   5.836   4.045   3.902
 1310SOL    HW1 4829   5.792   3.972   3.955
 1310SOL    HW2 4830   5.879   4.110   3.964
 1311SOL     OW 4831   6.117   6.606   4.626
 1311SOL    HW1 4832   6.072   6.517   4.637
 1311SOL    HW2 4833   6.123   6.651   4.715
 1312SOL     OW 4834   0.570   0.197   0.005
 1312SOL    HW1 4835   0.490   0.185   0.064
 1312SOL    HW2 4836   0.559   0.279   6.967
 1313SOL     OW 4837   3.384   5.339   5.241
 1313SOL    HW1 4838   3.342   5.427   5.261
 1313SOL    HW2 4839   3.343   5.269   5.299
 1314SOL     OW 4840   1.228   1.697   5.606
 1314SOL    HW1 4841   1.273   1.730   5.523
 1314SOL    HW2 4842   1.280   1.727   5.686
 1315SOL     OW 4843   2.040   1.435   1.465
 1315SOL    HW1 4844   2.010   1.472   1.377
 1315SOL    HW2 4845   2.114   1.370   1.450
 1316SOL     OW 4846   2.498   0.268   3.772
 1316SOL    HW1 4847   2.576   0.265   3.710
 1316SOL    HW2 4848   2.504   0.193   3.838
 1317SOL     OW 4849   0.077   4.790   4.531
 1317SOL    HW1 4850   0.028   4.748   4.608
 1317SOL    HW2 4851   0.119   4.876   4.562
 1318SOL     OW 4852   6.754   0.304   0.158
 1318SOL    HW1 4853   6.682   0.235   0.149
 1318SOL    HW2 4854   6.729   0.385   0.105
 1319SOL     OW 4855   6.119   0.961   0.572
 1319SOL    HW1 4856   6.184   0.983   0.500
 1319SOL    HW2 4857   6.037   0.919   0.532
 1320SOL     OW 4858   6.083   4.702   6.192
 1320SOL    HW1 4859   6.100   4.770   6.121
 1320SOL    HW2 4860   5.996   4.721   6.237
 1321SOL     OW 4861   4.013   3.044   6.699
 1321SOL    HW1 4862   4.107   3.076   6.694
 1321SOL    HW2 4863   3.968   3.056   6.610
 1322SOL     OW 4864   6.271   1.456   3.659
 1322SOL    HW1 4865   6.310   1.538   3.616
 1322SOL    HW2 4866   6.344   1.391   3.679
 1323SOL     OW 4867   0.324   1.412   5.244
 1323SOL    HW1 4868   0.334   1.392   5.147
 1323SOL    HW2 4869   0.346   1.509   5.261
 1324SOL     OW 4870   1.420   2.963   1.432
 1324SOL    HW1 4871   1.346   2.896   1.439
 1324SOL    HW2 4872   1.386   3.053   1.457
 1325SOL     OW 4873   1.839   6.358   3.389
 1325SOL    HW1 4874   1.904   6.291   3.426
 1325SOL    HW2 4875   1.771   6.380   3.459
 1326SOL     OW 4876   5.312   2.850   4.283
 1326SOL    HW1 4877   5.331   2.773   4.345
 1326SOL    HW2 4878   5.218   2.843   4.250
 1327SOL     OW 4879   2.892   4.776   3.372
 1327SOL    HW1 4880   2.950   4.853   3.399
 1327SOL    HW2 4881   2.937   4.724   3.299
 1328SOL     OW 4882   1.838   1.685   6.800
 1328SOL    HW1 4883   1.869   1.600   6.757
 1328SOL    HW2 4884   1.775   1.733   6.738
 1329SOL     OW 4885   0.516   1.297   0.588
 1329SOL    HW1 4886   0.507   1.380   0.533
 1329SOL    HW2 4887   0.431   1.244   0.582
 1330SOL     OW 4888   6.687   0.683   1.349
 1330SOL    HW1 4889   6.722   0.631   1.272
 1330SOL    HW2 4890   6.621   0.628   1.400
 1331SOL     OW 4891   5.658   0.541   1.708
 1331SOL    HW1 4892   5.566   0.515   1.737
 1331SOL    HW2 4893   5.670   0.520   1.611
 1332SOL     OW 4894   4.435   1.536   1.441
 1332SOL    HW1 4895   4.466   1.490   1.525
 1332SOL    HW2 4896   4.358   1.487   1.402
 1333SOL     OW 4897   3.690   3.993   5.021
 1333SOL    HW1 4898   3.736   3.994   4.932
 1333SOL    HW2 4899   3.638   3.908   5.030
 1334SOL     OW 4900   1.137   3.793   5.239
 1334SOL    HW1 4901   1.061   3.793   5.304
 1334SOL    HW2 4902   1.153   3.887   5.207
 1335SOL     OW 4903   1.801   5.806   3.092
 1335SOL    HW1 4904   1.839   5.729   3.143
 1335SOL    HW2 4905   1.871   5.844   3.032
 1336SOL     OW 4906   0.938   1.394   5.867
 1336SOL    HW1 4907   1.016   1.445   5.905
 1336SOL    HW2 4908   0.897   1.447   5.793
 1337SOL     OW 4909   1.735   2.191   6.350
 1337SOL    HW1 4910   1.721   2.222   6.443
 1337SOL    HW2 4911   1.735   2.091   6.347
 1338SOL     OW 4912   4.066   4.754   6.579
 1338SOL    HW1 4913   4.059   4.847   6.542
 1338SOL    HW2 4914   4.047   4.688   6.506
 1339SOL     OW 4915   7.015   4.079   5.939
 1339SOL    HW1 4916   0.086   4.124   5.950
 1339SOL    HW2 4917   6.979   4.056   6.029
 1340SOL     OW 4918   1.376   1.933   6.767
 1340SOL    HW1 4919   1.305   2.000   6.789
 1340SOL    HW2 4920   1.336   1.858   6.715
 1341SOL     OW 4921   3.130   1.356   3.905
 1341SOL    HW1 4922   3.136   1.258   3.888
 1341SOL    HW2 4923   3.037   1.380   3.932
 1342SOL     OW 4924   0.797   6.049   6.539
 1342SOL    HW1 4925   0.752   5.962   6.519
 1342SOL    HW2 4926   0.740   6.124   6.503
 1343SOL     OW 4927   3.872   6.028   2.487
 1343SOL    HW1 4928   3.818   5.999   2.566
 1343SOL    HW2 4929   3.969   6.028   2.512
 1344SOL     OW 4930   6.324   1.396   2.685
 1344SOL    HW1 4931   6.338   1.341   2.767
 1344SOL    HW2 4932   6.401   1.383   2.622
 1345SOL     OW 4933   0.942   0.781   2.920
 1345SOL    HW1 4934   1.039   0.808   2.921
 1345SOL    HW2 4935   0.890   0.841   2.981
 1346SOL     OW 4936   0.014   0.312   3.911
 1346SOL    HW1 4937   0.040   0.231   3.859
 1346SOL    HW2 4938   6.964   0.364   3.860
 1347SOL     OW 4939   6.485   6.316   2.926
 1347SOL    HW1 4940   6.499   6.351   2.833
 1347SOL    HW2 4941   6.540   6.234   2.940
 1348SOL     OW 4942   5.284   4.570   3.838
 1348SOL    HW1 4943   5.348   4.637   3.802
 1348SOL    HW2 4944   5.258   4.596   3.932
 1349SOL     OW 4945   3.746   2.302   6.997
 1349SOL    HW1 4946   3.800   2.274   6.918
 1349SOL    HW2 4947   3.650   2.314   6.970
 1350SOL     OW 4948   3.118   6.432   6.873
 1350SOL    HW1 4949   3.032   6.390   6.902
 1350SOL    HW2 4950   3.195   6.379   6.909
 1351SOL     OW 4951   0.059   1.280   3.793
 1351SOL    HW1 4952   6.986   1.240   3.785
 1351SOL    HW2 4953   0.109   1.267   3.708
 1352SOL     OW 4954   0.020   1.052   2.711
 1352SOL    HW1 4955   0.105   1.018   2.669
 1352SOL    HW2 4956   6.982   1.097   2.643
 1353SOL     OW 4957   0.365   4.456   4.591
 1353SOL    HW1 4958   0.331   4.488   4.503
 1353SOL    HW2 4959   0.370   4.533   4.655
 1354SOL     OW 4960   0.440   0.533   1.505
 1354SOL    HW1 4961   0.373   0.461   1.516
 1354SOL    HW2 4962   0.449   0.557   1.408
 1355SOL     OW 4963   4.655   3.468   0.061
 1355SOL    HW1 4964   4.632   3.551   0.112
 1355SOL    HW2 4965   4.632   3.481   6.983
 1356SOL     OW 4966   3.319   3.430   2.716
 1356SOL    HW1 4967   3.312   3.365   2.640
 1356SOL    HW2 4968   3.235   3.429   2.769
 1357SOL     OW 4969   2.630   2.928   6.218
 1357SOL    HW1 4970   2.634   2.982   6.302
 1357SOL    HW2 4971   2.701   2.960   6.155
 1358SOL     OW 4972   2.501   3.389   6.421
 1358SOL    HW1 4973   2.502   3.302   6.470
 1358SOL    HW2 4974   2.412   3.403   6.379
 1359SOL     OW 4975   6.176   3.585   1.157
 1359SOL    HW1 4976   6.237   3.529   1.212
 1359SOL    HW2 4977   6.148   3.666   1.209
 1360SOL     OW 4978   3.520   3.716   3.026
 1360SOL    HW1 4979   3.454   3.788   3.003
 1360SOL    HW2 4980   3.604   3.730   2.972
 1361SOL     OW 4981   0.688   6.272   6.455
 1361SOL    HW1 4982   0.668   6.342   6.524
 1361SOL    HW2 4983   0.688   6.315   6.365
 1362SOL     OW 4984   2.822   3.467   6.330
 1362SOL    HW1 4985   2.773   3.398   6.277
 1362SOL    HW2 4986   2.858   3.426   6.414
 1363SOL     OW 4987   6.231   5.702   2.477
 1363SOL    HW1 4988   6.147   5.706   2.531
 1363SOL    HW2 4989   6.309   5.714   2.538
 1364SOL     OW 4990   6.638   3.220   1.077
 1364SOL    HW1 4991   6.659   3.261   0.988
 1364SOL    HW2 4992   6.709   3.154   1.100
 1365SOL     OW 4993   0.565   3.473   6.083
 1365SOL    HW1 4994   0.609   3.502   5.997
 1365SOL    HW2 4995   0.625   3.496   6.160
 1366SOL     OW 4996   6.655   2.642   0.662
 1366SOL    HW1 4997   6.560   2.613   0.655
 1366SOL    HW2 4998   6.665   2.734   0.625
 1367SOL     OW 4999   0.125   5.441   3.794
 1367SOL    HW1 5000   0.099   5.535   3.820
 1367SOL    HW2 5001   0.043   5.385   3.786
 1368SOL     OW 5002   6.803   0.804   3.884
 1368SOL    HW1 5003   6.718   0.753   3.873
 1368SOL    HW2 5004   6.782   0.901   3.896
 1369SOL     OW 5005   2.478   6.113   2.576
 1369SOL    HW1 5006   2.466   6.047   2.650
 1369SOL    HW2 5007   2.454   6.204   2.609
 1370SOL     OW 5008   6.641   2.278   3.392
 1370SOL    HW1 5009   6.705   2.350   3.418
 1370SOL    HW2 5010   6.564   2.318   3.342
 1371SOL     OW 5011   5.600   0.869   4.354
 1371SOL    HW1 5012   5.641   0.942   4.409
 1371SOL    HW2 5013   5.610   0.891   4.257
 1372SOL     OW 5014   6.169   2.584   0.305
 1372SOL    HW1 5015   6.268   2.586   0.288
 1372SOL    HW2 5016   6.121   2.558   0.221
 1373SOL     OW 5017   4.735   2.759   1.962
 1373SOL    HW1 5018   4.747   2.858   1.955
 1373SOL    HW2 5019   4.637   2.738   1.970
 1374SOL     OW 5020   5.272   4.246   6.956
 1374SOL    HW1 5021   5.211   4.168   6.974
 1374SOL    HW2 5022   5.217   4.324   6.927
 1375SOL     OW 5023   5.665   5.869   4.568
 1375SOL    HW1 5024   5.654   5.834   4.661
 1375SOL    HW2 5025   5.595   5.938   4.550
 1376SOL     OW 5026   2.637   4.846   6.631
 1376SOL    HW1 5027   2.573   4.902   6.684
 1376SOL    HW2 5028   2.614   4.750   6.640
 1377SOL     OW 5029   1.510   2.531   3.242
 1377SOL    HW1 5030   1.605   2.503   3.227
 1377SOL    HW2 5031   1.480   2.589   3.165
 1378SOL     OW 5032   4.258   1.965   4.593
 1378SOL    HW1 5033   4.294   1.901   4.524
 1378SOL    HW2 5034   4.310   2.051   4.589
 1379SOL     OW 5035   5.695   5.460   1.487
 1379SOL    HW1 5036   5.758   5.532   1.459
 1379SOL    HW2 5037   5.649   5.422   1.406
 1380SOL     OW 5038   6.879   5.665   1.462
 1380SOL    HW1 5039   6.963   5.693   1.415
 1380SOL    HW2 5040   6.869   5.565   1.453
 1381SOL     OW 5041   6.698   2.031   5.541
 1381SOL    HW1 5042   6.694   2.033   5.641
 1381SOL    HW2 5043   6.605   2.024   5.504
 1382SOL     OW 5044   4.126   2.757   1.324
 1382SOL    HW1 5045   4.153   2.818   1.249
 1382SOL    HW2 5046   4.208   2.728   1.374
 1383SOL     OW 5047   1.131   0.733   1.792
 1383SOL    HW1 5048   1.068   0.659   1.815
 1383SOL    HW2 5049   1.166   0.720   1.700
 1384SOL     OW 5050   5.954   0.037   0.537
 1384SOL    HW1 5051   5.899   0.012   0.617
 1384SOL    HW2 5052   5.911   0.001   0.454
 1385SOL     OW 5053   1.465   5.156   3.369
 1385SOL    HW1 5054   1.510   5.169   3.458
 1385SOL    HW2 5055   1.433   5.062   3.361
 1386SOL     OW 5056   2.716   6.084   4.399
 1386SOL    HW1 5057   2.761   6.155   4.345
 1386SOL    HW2 5058   2.744   5.994   4.366
 1387SOL     OW 5059   3.505   5.791   1.427
 1387SOL    HW1 5060   3.411   5.757   1.426
 1387SOL    HW2 5061   3.535   5.803   1.522
 1388SOL     OW 5062   6.216   0.392   1.335
 1388SOL    HW1 5063   6.212   0.412   1.237
 1388SOL    HW2 5064   6.164   0.461   1.385
 1389SOL     OW 5065   6.691   1.002   2.745
 1389SOL    HW1 5066   6.679   1.055   2.661
 1389SOL    HW2 5067   6.701   0.905   2.722
 1390SOL     OW 5068   0.667   3.175   6.065
 1390SOL    HW1 5069   0.584   3.226   6.087
 1390SOL    HW2 5070   0.745   3.237   6.060
 1391SOL     OW 5071   6.603   1.804   3.505
 1391SOL    HW1 5072   6.553   1.889   3.493
 1391SOL    HW2 5073   6.668   1.793   3.429
 1392SOL     OW 5074   5.351   4.813   5.238
 1392SOL    HW1 5075   5.425   4.752   5.210
 1392SOL    HW2 5076   5.314   4.783   5.325
 1393SOL     OW 5077   5.549   6.048   5.631
 1393SOL    HW1 5078   5.595   5.995   5.560
 1393SOL    HW2 5079   5.467   6.091   5.593
 1394SOL     OW 5080   3.080   6.317   5.285
 1394SOL    HW1 5081   3.144   6.272   5.348
 1394SOL    HW2 5082   3.127   6.392   5.239
 1395SOL     OW 5083   3.079   4.746   5.780
 1395SOL    HW1 5084   3.018   4.776   5.707
 1395SOL    HW2 5085   3.028   4.690   5.846
 1396SOL     OW 5086   6.855   0.299   4.309
 1396SOL    HW1 5087   6.774   0.246   4.332
 1396SOL    HW2 5088   6.834   0.397   4.318
 1397SOL     OW 5089   6.033   0.218   5.140
 1397SOL    HW1 5090   6.130   0.197   5.154
 1397SOL    HW2 5091   6.018   0.316   5.157
 1398SOL     OW 5092   1.591   1.262   5.303
 1398SOL    HW1 5093   1.565   1.241   5.398
 1398SOL    HW2 5094   1.524   1.326   5.265
 1399SOL     OW 5095   3.341   6.484   1.602
 1399SOL    HW1 5096   3.336   6.583   1.591
 1399SOL    HW2 5097   3.252   6.444   1.583
 1400SOL     OW 5098   6.625   1.340   2.250
 1400SOL    HW1 5099   6.724   1.354   2.245
 1400SOL    HW2 5100   6.591   1.312   2.160
 1401SOL     OW 5101   0.442   1.664   5.303
 1401SOL    HW1 5102   0.393   1.749   5.320
 1401SOL    HW2 5103   0.538   1.675   5.328
 1402SOL     OW 5104   0.007   3.312   6.985
 1402SOL    HW1 5105   6.975   3.397   6.966
 1402SOL    HW2 5106   0.055   3.283   6.902
 1403SOL     OW 5107   3.327   0.722   1.982
 1403SOL    HW1 5108   3.388   0.800   1.975
 1403SOL    HW2 5109   3.243   0.750   2.028
 1404SOL     OW 5110   5.375   0.357   0.479
 1404SOL    HW1 5111   5.390   0.294   0.555
 1404SOL    HW2 5112   5.463   0.379   0.436
 1405SOL     OW 5113   2.012   4.046   0.734
 1405SOL    HW1 5114   1.915   4.066   0.724
 1405SOL    HW2 5115   2.033   3.960   0.687
 1406SOL     OW 5116   1.284   4.700   1.593
 1406SOL    HW1 5117   1.213   4.767   1.617
 1406SOL    HW2 5118   1.368   4.721   1.643
 1407SOL     OW 5119   6.772   1.174   1.736
 1407SOL    HW1 5120   6.730   1.106   1.795
 1407SOL    HW2 5121   6.799   1.131   1.650
 1408SOL     OW 5122   5.595   0.448   6.356
 1408SOL    HW1 5123   5.571   0.483   6.265
 1408SOL    HW2 5124   5.691   0.421   6.357
 1409SOL     OW 5125   0.295   0.341   5.037
 1409SOL    HW1 5126   0.374   0.403   5.042
 1409SOL    HW2 5127   0.248   0.340   5.126
 1410SOL     OW 5128   1.626   3.331   6.693
 1410SOL    HW1 5129   1.708   3.340   6.750
 1410SOL    HW2 5130   1.607   3.419   6.649
 1411SOL     OW 5131   2.245   6.368   3.177
 1411SOL    HW1 5132   2.149   6.380   3.152
 1411SOL    HW2 5133   2.302   6.427   3.120
 1412SOL     OW 5134   1.232   2.849   0.611
 1412SOL    HW1 5135   1.239   2.876   0.707
 1412SOL    HW2 5136   1.245   2.928   0.552
 1413SOL     OW 5137   2.029   0.737   5.124
 1413SOL    HW1 5138   2.116   0.775   5.092
 1413SOL    HW2 5139   2.015   0.646   5.085
 1414SOL     OW 5140   2.723   1.463   1.961
 1414SOL    HW1 5141   2.760   1.512   2.039
 1414SOL    HW2 5142   2.786   1.390   1.935
 1415SOL     OW 5143   2.303   6.945   4.367
 1415SOL    HW1 5144   2.305   0.025   4.383
 1415SOL    HW2 5145   2.230   6.923   4.302
 1416SOL     OW 5146   4.809   4.416   2.856
 1416SOL    HW1 5147   4.908   4.403   2.856
 1416SOL    HW2 5148   4.771   4.388   2.768
 1417SOL     OW 5149   2.447   2.440   6.703
 1417SOL    HW1 5150   2.440   2.493   6.787
 1417SOL    HW2 5151   2.400   2.488   6.629
 1418SOL     OW 5152   2.952   3.751   3.314
 1418SOL    HW1 5153   2.996   3.694   3.245
 1418SOL    HW2 5154   2.853   3.735   3.313
 1419SOL     OW 5155   2.998   6.624   4.327
 1419SOL    HW1 5156   3.048   6.558   4.272
 1419SOL    HW2 5157   3.010   6.603   4.424
 1420SOL     OW 5158   1.568   6.395   1.868
 1420SOL    HW1 5159   1.553   6.432   1.960
 1420SOL    HW2 5160   1.486   6.406   1.813
 1421SOL     OW 5161   1.577   3.192   3.148
 1421SOL    HW1 5162   1.490   3.188   3.198
 1421SOL    HW2 5163   1.604   3.100   3.119
 1422SOL     OW 5164   2.578   4.554   2.159
 1422SOL    HW1 5165   2.622   4.479   2.208
 1422SOL    HW2 5166   2.643   4.592   2.093
 1423SOL     OW 5167   5.969   6.425   1.806
 1423SOL    HW1 5168   5.876   6.459   1.819
 1423SOL    HW2 5169   5.991   6.426   1.709
 1424SOL     OW 5170   5.447   4.625   4.466
 1424SOL    HW1 5171   5.525   4.622   4.528
 1424SOL    HW2 5172   5.363   4.601   4.516
 1425SOL     OW 5173   1.357   6.146   4.181
 1425SOL    HW1 5174   1.380   6.063   4.130
 1425SOL    HW2 5175   1.303   6.207   4.123
 1426SOL     OW 5176   0.880   2.603   5.891
 1426SOL    HW1 5177   0.862   2.685   5.838
 1426SOL    HW2 5178   0.858   2.522   5.836
 1427SOL     OW 5179   0.108   6.686   3.179
 1427SOL    HW1 5180   0.027   6.697   3.121
 1427SOL    HW2 5181   0.161   6.607   3.149
 1428SOL     OW 5182   5.740   2.728   0.807
 1428SOL    HW1 5183   5.683   2.690   0.734
 1428SOL    HW2 5184   5.830   2.683   0.806
 1429SOL     OW 5185   5.861   2.477   0.419
 1429SOL    HW1 5186   5.928   2.505   0.488
 1429SOL    HW2 5187   5.896   2.397   0.370
 1430SOL     OW 5188   1.184   4.022   4.296
 1430SOL    HW1 5189   1.173   4.049   4.392
 1430SOL    HW2 5190   1.260   4.073   4.256
 1431SOL     OW 5191   2.164   2.082   1.978
 1431SOL    HW1 5192   2.115   2.132   1.907
 1431SOL    HW2 5193   2.149   1.984   1.966
 1432SOL     OW 5194   2.508   1.625   3.832
 1432SOL    HW1 5195   2.542   1.717   3.853
 1432SOL    HW2 5196   2.412   1.618   3.860
 1433SOL     OW 5197   4.351   1.417   4.520
 1433SOL    HW1 5198   4.402   1.500   4.495
 1433SOL    HW2 5199   4.373   1.392   4.614
 1434SOL     OW 5200   0.420   1.055   5.525
 1434SOL    HW1 5201   0.515   1.025   5.539
 1434SOL    HW2 5202   0.363   1.021   5.599
 1435SOL     OW 5203   6.500   0.968   2.259
 1435SOL    HW1 5204   6.512   0.884   2.205
 1435SOL    HW2 5205   6.521   1.047   2.202
 1436SOL     OW 5206   4.627   4.082   6.615
 1436SOL    HW1 5207   4.582   3.995   6.593
 1436SOL    HW2 5208   4.699   4.066   6.683
 1437SOL     OW 5209   2.433   2.239   4.170
 1437SOL    HW1 5210   2.340   2.234   4.135
 1437SOL    HW2 5211   2.454   2.155   4.221
 1438SOL     OW 5212   3.387   6.062   1.269
 1438SOL    HW1 5213   3.292   6.038   1.289
 1438SOL    HW2 5214   3.429   6.102   1.351
 1439SOL     OW 5215   6.986   6.262   1.887
 1439SOL    HW1 5216   0.027   6.211   1.949
 1439SOL    HW2 5217   0.005   6.257   1.794
 1440SOL     OW 5218   3.169   3.988   1.445
 1440SOL    HW1 5219   3.154   3.948   1.536
 1440SOL    HW2 5220   3.113   3.938   1.378
 1441SOL     OW 5221   6.372   0.950   1.832
 1441SOL    HW1 5222   6.277   0.963   1.863
 1441SOL    HW2 5223   6.372   0.925   1.735
 1442SOL     OW 5224   6.297   6.462   6.848
 1442SOL    HW1 5225   6.229   6.403   6.804
 1442SOL    HW2 5226   6.266   6.557   6.844
 1443SOL     OW 5227   0.221   2.764   2.546
 1443SOL    HW1 5228   0.139   2.804   2.506
 1443SOL    HW2 5229   0.302   2.811   2.511
 1444SOL     OW 5230   5.321   6.927   1.021
 1444SOL    HW1 5231   5.234   6.933   1.070
 1444SOL    HW2 5232   5.386   6.992   1.060
 1445SOL     OW 5233   0.849   3.187   2.910
 1445SOL    HW1 5234   0.896   3.142   2.986
 1445SOL    HW2 5235   0.761   3.141   2.895
 1446SOL     OW 5236   6.661   0.522   6.536
 1446SOL    HW1 5237   6.709   0.598   6.492
 1446SOL    HW2 5238   6.669   0.530   6.635
 1447SOL     OW 5239   5.586   4.612   2.675
 1447SOL    HW1 5240   5.594   4.531   2.733
 1447SOL    HW2 5241   5.671   4.624   2.623
 1448SOL     OW 5242   6.969   3.060   4.539
 1448SOL    HW1 5243   6.923   2.988   4.487
 1448SOL    HW2 5244   0.035   3.024   4.579
 1449SOL     OW 5245   1.676   4.103   5.460
 1449SOL    HW1 5246   1.720   4.096   5.371
 1449SOL    HW2 5247   1.733   4.058   5.529
 1450SOL     OW 5248   0.872   2.414   6.220
 1450SOL    HW1 5249   0.870   2.399   6.319
 1450SOL    HW2 5250   0.789   2.461   6.191
 1451SOL     OW 5251   1.272   6.110   1.902
 1451SOL    HW1 5252   1.259   6.123   1.803
 1451SOL    HW2 5253   1.232   6.187   1.951
 1452SOL     OW 5254   4.520   2.636   5.703
 1452SOL    HW1 5255   4.475   2.716   5.742
 1452SOL    HW2 5256   4.474   2.609   5.619
 1453SOL     OW 5257   0.723   4.661   5.469
 1453SOL    HW1 5258   0.636   4.613   5.479
 1453SOL    HW2 5259   0.746   4.708   5.554
 1454SOL     OW 5260   2.606   1.821   3.300
 1454SOL    HW1 5261   2.642   1.896   3.243
 1454SOL    HW2 5262   2.512   1.841   3.326
 1455SOL     OW 5263   1.395   6.570   2.982
 1455SOL    HW1 5264   1.485   6.585   3.024
 1455SOL    HW2 5265   1.394   6.482   2.936
 1456SOL     OW 5266   6.704   6.324   6.523
 1456SOL    HW1 5267   6.734   6.414   6.555
 1456SOL    HW2 5268   6.698   6.324   6.423
 1457SOL     OW 5269   0.197   4.219   0.755
 1457SOL    HW1 5270   0.248   4.230   0.840
 1457SOL    HW2 5271   0.175   4.122   0.741
 1458SOL     OW 5272   5.687   4.795   5.469
 1458SOL    HW1 5273   5.785   4.809   5.459
 1458SOL    HW2 5274   5.656   4.831   5.557
 1459SOL     OW 5275   4.744   6.720   5.771
 1459SOL    HW1 5276   4.713   6.628   5.750
 1459SOL    HW2 5277   4.812   6.717   5.845
 1460SOL     OW 5278   1.632   6.412   5.040
 1460SOL    HW1 5279   1.663   6.497   4.996
 1460SOL    HW2 5280   1.538   6.424   5.073
 1461SOL     OW 5281   0.387   3.597   3.099
 1461SOL    HW1 5282   0.378   3.696   3.114
 1461SOL    HW2 5283   0.363   3.549   3.184
 1462SOL     OW 5284   0.784   0.951   6.886
 1462SOL    HW1 5285   0.879   0.930   6.908
 1462SOL    HW2 5286   0.773   0.956   6.787
 1463SOL     OW 5287   1.250   5.092   6.677
 1463SOL    HW1 5288   1.242   5.170   6.740
 1463SOL    HW2 5289   1.345   5.081   6.650
 1464SOL     OW 5290   6.568   4.285   3.573
 1464SOL    HW1 5291   6.601   4.287   3.478
 1464SOL    HW2 5292   6.647   4.278   3.634
 1465SOL     OW 5293   1.920   1.866   3.715
 1465SOL    HW1 5294   1.930   1.841   3.812
 1465SOL    HW2 5295   1.902   1.784   3.661
 1466SOL     OW 5296   3.667   2.507   1.712
 1466SOL    HW1 5297   3.619   2.483   1.627
 1466SOL    HW2 5298   3.661   2.430   1.776
 1467SOL     OW 5299   1.405   1.409   4.053
 1467SOL    HW1 5300   1.439   1.458   4.133
 1467SOL    HW2 5301   1.343   1.468   4.001
 1468SOL     OW 5302   2.363   5.469   1.504
 1468SOL    HW1 5303   2.440   5.470   1.568
 1468SOL    HW2 5304   2.277   5.464   1.554
 1469SOL     OW 5305   6.938   6.393   3.345
 1469SOL    HW1 5306   6.983   6.365   3.260
 1469SOL    HW2 5307   7.005   6.434   3.407
 1470SOL     OW 5308   6.804   2.979   1.129
 1470SOL    HW1 5309   6.751   2.920   1.188
 1470SOL    HW2 5310   6.885   3.012   1.178
 1471SOL     OW 5311   0.324   0.273   0.561
 1471SOL    HW1 5312   0.281   0.247   0.647
 1471SOL    HW2 5313   0.279   0.354   0.524
 1472SOL     OW 5314   2.648   6.460   6.910
 1472SOL    HW1 5315   2.727   6.514   6.939
 1472SOL    HW2 5316   2.663   6.426   6.817
 1473SOL     OW 5317   3.509   4.978   5.015
 1473SOL    HW1 5318   3.425   4.934   4.984
 1473SOL    HW2 5319   3.532   4.945   5.107
 1474SOL     OW 5320   4.147   5.257   1.642
 1474SOL    HW1 5321   4.231   5.205   1.630
 1474SOL    HW2 5322   4.135   5.279   1.739
 1475SOL     OW 5323   5.334   1.625   0.252
 1475SOL    HW1 5324   5.352   1.530   0.277
 1475SOL    HW2 5325   5.383   1.647   0.168
 1476SOL     OW 5326   3.181   1.132   1.157
 1476SOL    HW1 5327   3.112   1.176   1.101
 1476SOL    HW2 5328   3.141   1.052   1.203
 1477SOL     OW 5329   4.331   6.854   0.281
 1477SOL    HW1 5330   4.241   6.817   0.305
 1477SOL    HW2 5331   4.327   6.954   0.285
 1478SOL     OW 5332   5.627   6.587   5.111
 1478SOL    HW1 5333   5.713   6.574   5.061
 1478SOL    HW2 5334   5.580   6.499   5.119
 1479SOL     OW 5335   3.749   4.063   2.272
 1479SOL    HW1 5336   3.726   4.087   2.178
 1479SOL    HW2 5337   3.673   4.085   2.333
 1480SOL     OW 5338   2.304   0.343   6.474
 1480SOL    HW1 5339   2.250   0.337   6.390
 1480SOL    HW2 5340   2.257   0.403   6.539
 1481SOL     OW 5341   5.641   2.572   5.492
 1481SOL    HW1 5342   5.549   2.533   5.501
 1481SOL    HW2 5343   5.673   2.559   5.398
 1482SOL     OW 5344   4.507   0.437   0.873
 1482SOL    HW1 5345   4.593   0.463   0.916
 1482SOL    HW2 5346   4.490   0.496   0.794
 1483SOL     OW 5347   4.739   1.808   5.791
 1483SOL    HW1 5348   4.641   1.800   5.810
 1483SOL    HW2 5349   4.761   1.758   5.707
 1484SOL     OW 5350   3.091   4.848   4.737
 1484SOL    HW1 5351   3.003   4.814   4.769
 1484SOL    HW2 5352   3.158   4.843   4.811
 1485SOL     OW 5353   4.986   1.057   3.277
 1485SOL    HW1 5354   4.904   1.029   3.326
 1485SOL    HW2 5355   4.991   1.009   3.190
 1486SOL     OW 5356   4.540   6.614   3.576
 1486SOL    HW1 5357   4.625   6.577   3.540
 1486SOL    HW2 5358   4.526   6.579   3.669
 1487SOL     OW 5359   0.096   0.755   0.480
 1487SOL    HW1 5360   0.136   0.846   0.469
 1487SOL    HW2 5361   0.006   0.752   0.436
 1488SOL     OW 5362   6.192   0.509   2.343
 1488SOL    HW1 5363   6.200   0.418   2.302
 1488SOL    HW2 5364   6.096   0.537   2.343
 1489SOL     OW 5365   3.869   4.689   6.824
 1489SOL    HW1 5366   3.775   4.658   6.807
 1489SOL    HW2 5367   3.915   4.706   6.737
 1490SOL     OW 5368   0.075   2.640   1.812
 1490SOL    HW1 5369   0.005   2.688   1.865
 1490SOL    HW2 5370   0.034   2.558   1.771
 1491SOL     OW 5371   6.601   3.582   2.098
 1491SOL    HW1 5372   6.551   3.661   2.064
 1491SOL    HW2 5373   6.620   3.520   2.023
 1492SOL     OW 5374   6.514   0.343   2.404
 1492SOL    HW1 5375   6.572   0.424   2.396
 1492SOL    HW2 5376   6.486   0.331   2.499
 1493SOL     OW 5377   4.324   1.298   5.885
 1493SOL    HW1 5378   4.255   1.338   5.824
 1493SOL    HW2 5379   4.345   1.362   5.958
 1494SOL     OW 5380   5.639   2.216   6.326
 1494SOL    HW1 5381   5.739   2.206   6.326
 1494SOL    HW2 5382   5.615   2.313   6.326
 1495SOL     OW 5383   5.944   3.673   3.638
 1495SOL    HW1 5384   5.866   3.679   3.699
 1495SOL    HW2 5385   5.920   3.714   3.550
 1496SOL     OW 5386   0.138   6.862   6.969
 1496SOL    HW1 5387   0.085   6.838   0.032
 1496SOL    HW2 5388   0.111   6.952   6.936
 1497SOL     OW 5389   5.214   2.488   2.715
 1497SOL    HW1 5390   5.280   2.416   2.695
 1497SOL    HW2 5391   5.252   2.552   2.781
 1498SOL     OW 5392   2.921   4.416   1.135
 1498SOL    HW1 5393   2.992   4.433   1.204
 1498SOL    HW2 5394   2.842   4.473   1.155
 1499SOL     OW 5395   0.491   3.807   5.697
 1499SOL    HW1 5396   0.426   3.870   5.653
 1499SOL    HW2 5397   0.442   3.750   5.763
 1500SOL     OW 5398   0.900   5.661   0.018
 1500SOL    HW1 5399   0.944   5.580   0.057
 1500SOL    HW2 5400   0.817   5.634   6.989
 1501SOL     OW 5401   6.214   1.734   6.521
 1501SOL    HW1 5402   6.282   1.665   6.495
 1501SOL    HW2 5403   6.256   1.800   6.582
 1502SOL     OW 5404   6.580   1.180   5.958
 1502SOL    HW1 5405   6.608   1.231   5.876
 1502SOL    HW2 5406   6.527   1.239   6.018
 1503SOL     OW 5407   0.684   3.496   2.505
 1503SOL    HW1 5408   0.641   3.483   2.416
 1503SOL    HW2 5409   0.687   3.409   2.554
 1504SOL     OW 5410   0.345   0.389   4.155
 1504SOL    HW1 5411   0.361   0.347   4.065
 1504SOL    HW2 5412   0.248   0.381   4.178
 1505SOL     OW 5413   5.833   6.248   5.110
 1505SOL    HW1 5414   5.786   6.234   5.197
 1505SOL    HW2 5415   5.916   6.194   5.108
 1506SOL     OW 5416   1.234   0.346   1.156
 1506SOL    HW1 5417   1.282   0.259   1.159
 1506SOL    HW2 5418   1.198   0.362   1.064
 1507SOL     OW 5419   1.345   1.767   4.641
 1507SOL    HW1 5420   1.336   1.823   4.723
 1507SOL    HW2 5421   1.387   1.680   4.665
 1508SOL     OW 5422   0.739   1.603   0.602
 1508SOL    HW1 5423   0.810   1.569   0.540
 1508SOL    HW2 5424   0.649   1.590   0.560
 1509SOL     OW 5425   5.106   1.303   4.772
 1509SOL    HW1 5426   5.066   1.383   4.727
 1509SOL    HW2 5427   5.181   1.333   4.832
 1510SOL     OW 5428   4.074   6.959   3.830
 1510SOL    HW1 5429   4.172   6.942   3.818
 1510SOL    HW2 5430   4.053   6.971   3.927
 1511SOL     OW 5431   3.088   3.859   4.380
 1511SOL    HW1 5432   3.042   3.858   4.469
 1511SOL    HW2 5433   3.172   3.912   4.387
 1512SOL     OW 5434   6.117   5.790   1.030
 1512SOL    HW1 5435   6.118   5.762   1.126
 1512SOL    HW2 5436   6.206   5.827   1.005
 1513SOL     OW 5437   3.372   6.740   5.860
 1513SOL    HW1 5438   3.454   6.747   5.803
 1513SOL    HW2 5439   3.345   6.644   5.867
 1514SOL     OW 5440   3.315   2.270   5.726
 1514SOL    HW1 5441   3.294   2.297   5.632
 1514SOL    HW2 5442   3.260   2.325   5.789
 1515SOL     OW 5443   6.627   2.123   2.586
 1515SOL    HW1 5444   6.665   2.190   2.650
 1515SOL    HW2 5445   6.635   2.031   2.626
 1516SOL     OW 5446   6.031   5.824   4.748
 1516SOL    HW1 5447   5.954   5.854   4.691
 1516SOL    HW2 5448   6.069   5.739   4.710
 1517SOL     OW 5449   3.390   6.346   3.339
 1517SOL    HW1 5450   3.354   6.330   3.431
 1517SOL    HW2 5451   3.385   6.444   3.318
 1518SOL     OW 5452   6.429   2.568   0.226
 1518SOL    HW1 5453   6.442   2.614   0.314
 1518SOL    HW2 5454   6.475   2.620   0.154
 1519SOL     OW 5455   0.093   5.323   0.809
 1519SOL    HW1 5456   0.159   5.346   0.880
 1519SOL    HW2 5457   0.119   5.237   0.765
 1520SOL     OW 5458   0.825   4.870   1.525
 1520SOL    HW1 5459   0.765   4.903   1.451
 1520SOL    HW2 5460   0.782   4.791   1.569
 1521SOL     OW 5461   2.745   4.760   0.073
 1521SOL    HW1 5462   2.731   4.730   0.168
 1521SOL    HW2 5463   2.681   4.712   0.013
 1522SOL     OW 5464   5.166   5.511   4.474
 1522SOL    HW1 5465   5.082   5.565   4.470
 1522SOL    HW2 5466   5.243   5.571   4.495
 1523SOL     OW 5467   3.788   6.855   6.697
 1523SOL    HW1 5468   3.844   6.847   6.779
 1523SOL    HW2 5469   3.723   6.929   6.707
 1524SOL     OW 5470   2.558   2.498   2.837
 1524SOL    HW1 5471   2.615   2.431   2.789
 1524SOL    HW2 5472   2.584   2.501   2.933
 1525SOL     OW 5473   5.966   3.149   0.791
 1525SOL    HW1 5474   5.870   3.131   0.815
 1525SOL    HW2 5475   5.971   3.233   0.737
 1526SOL     OW 5476   0.545   1.768   0.154
 1526SOL    HW1 5477   0.637   1.755   0.119
 1526SOL    HW2 5478   0.548   1.818   0.241
 1527SOL     OW 5479   3.832   1.134   5.049
 1527SOL    HW1 5480   3.819   1.151   4.952
 1527SOL    HW2 5481   3.900   1.198   5.085
 1528SOL     OW 5482   4.580   4.321   0.973
 1528SOL    HW1 5483   4.505   4.381   0.946
 1528SOL    HW2 5484   4.622   4.282   0.892
 1529SOL     OW 5485   5.411   1.366   7.002
 1529SOL    HW1 5486   5.319   1.398   6.980
 1529SOL    HW2 5487   5.407   1.308   0.065
 1530SOL     OW 5488   3.325   0.468   1.899
 1530SOL    HW1 5489   3.371   0.430   1.979
 1530SOL    HW2 5490   3.340   0.567   1.897
 1531SOL     OW 5491   4.490   0.229   4.141
 1531SOL    HW1 5492   4.512   0.325   4.121
 1531SOL    HW2 5493   4.517   0.207   4.234
 1532SOL     OW 5494   3.342   4.851   6.254
 1532SOL    HW1 5495   3.247   4.835   6.282
 1532SOL    HW2 5496   3.377   4.770   6.207
 1533SOL     OW 5497   5.823   5.514   0.617
 1533SOL    HW1 5498   5.766   5.595   0.631
 1533SOL    HW2 5499   5.837   5.468   0.704
 1534SOL     OW 5500   3.672   5.646   0.311
 1534SOL    HW1 5501   3.769   5.663   0.327
 1534SOL    HW2 5502   3.632   5.601   0.391
 1535SOL     OW 5503   5.743   6.644   4.491
 1535SOL    HW1 5504   5.731   6.562   4.434
 1535SOL    HW2 5505   5.826   6.691   4.463
 1536SOL     OW 5506   4.057   4.610   0.270
 1536SOL    HW1 5507   3.982   4.555   0.233
 1536SOL    HW2 5508   4.069   4.693   0.215
 1537SOL     OW 5509   3.632   5.351   3.855
 1537SOL    HW1 5510   3.572   5.370   3.933
 1537SOL    HW2 5511   3.628   5.254   3.833
 1538SOL     OW 5512   3.537   1.419   0.125
 1538SOL    HW1 5513   3.606   1.459   0.185
 1538SOL    HW2 5514   3.450   1.411   0.174
 1539SOL     OW 5515   4.809   3.243   1.826
 1539SOL    HW1 5516   4.760   3.159   1.848
 1539SOL    HW2 5517   4.751   3.302   1.770
 1540SOL     OW 5518   1.463   6.759   5.184
 1540SOL    HW1 5519   1.424   6.848   5.161
 1540SOL    HW2 5520   1.544   6.772   5.241
 1541SOL     OW 5521   3.827   3.407   4.457
 1541SOL    HW1 5522   3.911   3.372   4.500
 1541SOL    HW2 5523   3.750   3.348   4.482
 1542SOL     OW 5524   6.580   6.506   2.045
 1542SOL    HW1 5525   6.519   6.558   1.985
 1542SOL    HW2 5526   6.534   6.421   2.072
 1543SOL     OW 5527   3.507   5.522   6.516
 1543SOL    HW1 5528   3.463   5.435   6.491
 1543SOL    HW2 5529   3.544   5.565   6.434
 1544SOL     OW 5530   3.517   3.731   4.209
 1544SOL    HW1 5531   3.576   3.782   4.271
 1544SOL    HW2 5532   3.567   3.710   4.124
 1545SOL     OW 5533   6.268   0.534   1.705
 1545SOL    HW1 5534   6.272   0.612   1.643
 1545SOL    HW2 5535   6.174   0.502   1.713
 1546SOL     OW 5536   5.011   6.522   6.272
 1546SOL    HW1 5537   4.914   6.505   6.291
 1546SOL    HW2 5538   5.057   6.436   6.255
 1547SOL     OW 5539   1.571   4.432   0.636
 1547SOL    HW1 5540   1.522   4.389   0.560
 1547SOL    HW2 5541   1.512   4.432   0.717
 1548SOL     OW 5542   6.575   3.842   0.003
 1548SOL    HW1 5543   6.651   3.795   0.047
 1548SOL    HW2 5544   6.530   3.903   0.069
 1549SOL     OW 5545   4.107   1.249   4.002
 1549SOL    HW1 5546   4.073   1.305   3.927
 1549SOL    HW2 5547   4.182   1.297   4.048
 1550SOL     OW 5548   3.435   2.864   2.232
 1550SOL    HW1 5549   3.419   2.782   2.176
 1550SOL    HW2 5550   3.533   2.879   2.241
 1551SOL     OW 5551   1.123   5.161   0.138
 1551SOL    HW1 5552   1.150   5.219   0.215
 1551SOL    HW2 5553   1.077   5.218   0.069
 1552SOL     OW 5554   2.804   4.681   0.902
 1552SOL    HW1 5555   2.767   4.744   0.970
 1552SOL    HW2 5556   2.768   4.589   0.918
 1553SOL     OW 5557   0.006   1.184   6.303
 1553SOL    HW1 5558   6.931   1.185   6.266
 1553SOL    HW2 5559   0.034   1.278   6.325
 1554SOL     OW 5560   3.164   1.922   3.809
 1554SOL    HW1 5561   3.125   1.965   3.890
 1554SOL    HW2 5562   3.258   1.893   3.828
 1555SOL     OW 5563   5.855   2.859   6.448
 1555SOL    HW1 5564   5.834   2.817   6.359
 1555SOL    HW2 5565   5.868   2.787   6.516
 1556SOL     OW 5566   2.008   1.109   6.060
 1556SOL    HW1 5567   2.002   1.064   5.971
 1556SOL    HW2 5568   1.918   1.108   6.104
 1557SOL     OW 5569   1.745   3.941   6.427
 1557SOL    HW1 5570   1.748   3.852   6.381
 1557SOL    HW2 5571   1.762   4.014   6.360
 1558SOL     OW 5572   6.049   0.347   4.495
 1558SOL    HW1 5573   6.107   0.429   4.501
 1558SOL    HW2 5574   6.040   0.320   4.400
 1559SOL     OW 5575   1.052   2.637   6.603
 1559SOL    HW1 5576   1.047   2.673   6.510
 1559SOL    HW2 5577   1.050   2.713   6.668
 1560SOL     OW 5578   0.087   1.348   0.035
 1560SOL    HW1 5579   0.165   1.311   0.086
 1560SOL    HW2 5580   0.119   1.409   6.981
 1561SOL     OW 5581   4.545   6.049   3.255
 1561SOL    HW1 5582   4.632   6.089   3.281
 1561SOL    HW2 5583   4.471   6.112   3.279
 1562SOL     OW 5584   4.240   6.479   2.025
 1562SOL    HW1 5585   4.312   6.425   1.981
 1562SOL    HW2 5586   4.280   6.558   2.070
 1563SOL     OW 5587   3.478   0.907   6.015
 1563SOL    HW1 5588   3.551   0.899   6.083
 1563SOL    HW2 5589   3.518   0.917   5.924
 1564SOL     OW 5590   1.483   0.566   2.482
 1564SOL    HW1 5591   1.560   0.526   2.532
 1564SOL    HW2 5592   1.417   0.494   2.458
 1565SOL     OW 5593   4.813   4.063   2.372
 1565SOL    HW1 5594   4.894   4.122   2.371
 1565SOL    HW2 5595   4.742   4.107   2.427
 1566SOL     OW 5596   5.538   3.555   3.616
 1566SOL    HW1 5597   5.594   3.627   3.657
 1566SOL    HW2 5598   5.579   3.525   3.530
 1567SOL     OW 5599   6.091   6.250   6.811
 1567SOL    HW1 5600   5.994   6.235   6.831
 1567SOL    HW2 5601   6.146   6.214   6.886
 1568SOL     OW 5602   1.571   0.240   0.530
 1568SOL    HW1 5603   1.663   0.211   0.556
 1568SOL    HW2 5604   1.512   0.240   0.611
 1569SOL     OW 5605   4.376   6.001   3.880
 1569SOL    HW1 5606   4.435   6.013   3.799
 1569SOL    HW2 5607   4.385   6.081   3.940
 1570SOL     OW 5608   2.753   1.384   1.671
 1570SOL    HW1 5609   2.693   1.461   1.651
 1570SOL    HW2 5610   2.821   1.411   1.739
 1571SOL     OW 5611   6.159   2.927   1.394
 1571SOL    HW1 5612   6.073   2.956   1.352
 1571SOL    HW2 5613   6.236   2.953   1.336
 1572SOL     OW 5614   0.437   0.439   2.510
 1572SOL    HW1 5615   0.385   0.414   2.428
 1572SOL    HW2 5616   0.376   0.482   2.577
 1573SOL     OW 5617   4.873   6.731   1.623
 1573SOL    HW1 5618   4.789   6.783   1.636
 1573SOL    HW2 5619   4.942   6.789   1.579
 1574SOL     OW 5620   0.492   2.078   1.642
 1574SOL    HW1 5621   0.545   2.048   1.721
 1574SOL    HW2 5622   0.543   2.148   1.592
 1575SOL     OW 5623   2.478   2.017   0.390
 1575SOL    HW1 5624   2.511   2.079   0.319
 1575SOL    HW2 5625   2.427   2.068   0.459
 1576SOL     OW 5626   5.248   5.957   3.835
 1576SOL    HW1 5627   5.344   5.934   3.816
 1576SOL    HW2 5628   5.224   5.926   3.927
 1577SOL     OW 5629   2.435   1.666   5.645
 1577SOL    HW1 5630   2.347   1.704   5.616
 1577SOL    HW2 5631   2.423   1.570   5.671
 1578SOL     OW 5632   5.587   3.689   4.890
 1578SOL    HW1 5633   5.514   3.693   4.822
 1578SOL    HW2 5634   5.566   3.619   4.958
 1579SOL     OW 5635   0.074   1.445   3.470
 1579SOL    HW1 5636   0.050   1.433   3.374
 1579SOL    HW2 5637   0.149   1.382   3.494
 1580SOL     OW 5638   2.778   4.133   5.360
 1580SOL    HW1 5639   2.841   4.075   5.411
 1580SOL    HW2 5640   2.693   4.084   5.344
 1581SOL     OW 5641   6.300   4.029   4.176
 1581SOL    HW1 5642   6.256   3.972   4.247
 1581SOL    HW2 5643   6.306   3.976   4.091
 1582SOL     OW 5644   0.606   4.821   4.597
 1582SOL    HW1 5645   0.672   4.760   4.553
 1582SOL    HW2 5646   0.655   4.900   4.635
 1583SOL     OW 5647   2.102   3.267   3.649
 1583SOL    HW1 5648   2.056   3.196   3.595
 1583SOL    HW2 5649   2.092   3.355   3.604
 1584SOL     OW 5650   2.634   6.173   5.355
 1584SOL    HW1 5651   2.613   6.271   5.355
 1584SOL    HW2 5652   2.564   6.124   5.406
 1585SOL     OW 5653   5.565   2.360   3.234
 1585SOL    HW1 5654   5.566   2.406   3.322
 1585SOL    HW2 5655   5.522   2.419   3.166
 1586SOL     OW 5656   3.777   3.912   1.967
 1586SOL    HW1 5657   3.807   3.898   1.873
 1586SOL    HW2 5658   3.688   3.869   1.981
 1587SOL     OW 5659   3.077   5.788   6.992
 1587SOL    HW1 5660   3.065   5.745   6.902
 1587SOL    HW2 5661   3.175   5.794   7.013
 1588SOL     OW 5662   5.138   1.219   2.998
 1588SOL    HW1 5663   5.163   1.175   3.084
 1588SOL    HW2 5664   5.208   1.286   2.973
 1589SOL     OW 5665   5.529   4.350   3.691
 1589SOL    HW1 5666   5.594   4.355   3.767
 1589SOL    HW2 5667   5.442   4.390   3.719
 1590SOL     OW 5668   1.772   6.507   6.827
 1590SOL    HW1 5669   1.849   6.569   6.841
 1590SOL    HW2 5670   1.779   6.429   6.889
 1591SOL     OW 5671   1.116   5.102   2.486
 1591SOL    HW1 5672   1.178   5.052   2.425
 1591SOL    HW2 5673   1.058   5.163   2.431
 1592SOL     OW 5674   3.126   3.329   2.204
 1592SOL    HW1 5675   3.149   3.418   2.243
 1592SOL    HW2 5676   3.190   3.260   2.240
 1593SOL     OW 5677   0.467   6.362   4.876
 1593SOL    HW1 5678   0.422   6.443   4.839
 1593SOL    HW2 5679   0.554   6.387   4.917
 1594SOL     OW 5680   6.632   5.508   2.994
 1594SOL    HW1 5681   6.589   5.498   2.904
 1594SOL    HW2 5682   6.692   5.429   3.011
 1595SOL     OW 5683   0.596   4.690   6.692
 1595SOL    HW1 5684   0.655   4.626   6.642
 1595SOL    HW2 5685   0.612   4.680   6.790
 1596SOL     OW 5686   1.741   4.364   5.537
 1596SOL    HW1 5687   1.733   4.264   5.545
 1596SOL    HW2 5688   1.738   4.390   5.441
 1597SOL     OW 5689   2.096   6.310   1.728
 1597SOL    HW1 5690   2.144   6.310   1.816
 1597SOL    HW2 5691   2.084   6.404   1.698
 1598SOL     OW 5692   0.599   4.173   0.758
 1598SOL    HW1 5693   0.579   4.075   0.765
 1598SOL    HW2 5694   0.539   4.213   0.688
 1599SOL     OW 5695   3.893   4.345   6.437
 1599SOL    HW1 5696   3.897   4.445   6.433
 1599SOL    HW2 5697   3.800   4.316   6.413
 1600SOL     OW 5698   5.312   1.707   5.235
 1600SOL    HW1 5699   5.258   1.657   5.168
 1600SOL    HW2 5700   5.314   1.656   5.321
 1601SOL     OW 5701   1.813   4.227   4.716
 1601SOL    HW1 5702   1.795   4.135   4.682
 1601SOL    HW2 5703   1.735   4.259   4.770
 1602SOL     OW 5704   1.105   6.336   3.054
 1602SOL    HW1 5705   1.147   6.277   3.124
 1602SOL    HW2 5706   1.120   6.432   3.078
 1603SOL     OW 5707   1.072   6.390   2.119
 1603SOL    HW1 5708   1.029   6.384   2.029
 1603SOL    HW2 5709   1.093   6.485   2.139
 1604SOL     OW 5710   6.473   5.571   6.466
 1604SOL    HW1 5711   6.397   5.510   6.490
 1604SOL    HW2 5712   6.494   5.629   6.545
 1605SOL     OW 5713   6.460   0.320   2.660
 1605SOL    HW1 5714   6.523   0.242   2.654
 1605SOL    HW2 5715   6.503   0.393   2.712
 1606SOL     OW 5716   4.754   6.932   5.570
 1606SOL    HW1 5717   4.741   6.857   5.635
 1606SOL    HW2 5718   4.682   6.929   5.501
 1607SOL     OW 5719   4.131   2.451   0.855
 1607SOL    HW1 5720   4.093   2.455   0.948
 1607SOL    HW2 5721   4.185   2.367   0.846
 1608SOL     OW 5722   2.267   6.613   6.849
 1608SOL    HW1 5723   2.330   6.691   6.855
 1608SOL    HW2 5724   2.288   6.548   6.921
 1609SOL     OW 5725   6.289   2.363   6.329
 1609SOL    HW1 5726   6.218   2.309   6.375
 1609SOL    HW2 5727   6.290   2.339   6.232
 1610SOL     OW 5728   5.708   5.399   4.826
 1610SOL    HW1 5729   5.770   5.466   4.867
 1610SOL    HW2 5730   5.635   5.447   4.777
 1611SOL     OW 5731   3.722   2.943   2.167
 1611SOL    HW1 5732   3.791   3.012   2.145
 1611SOL    HW2 5733   3.683   2.907   2.082
 1612SOL     OW 5734   2.378   1.883   5.251
 1612SOL    HW1 5735   2.428   1.801   5.280
 1612SOL    HW2 5736   2.314   1.858   5.178
 1613SOL     OW 5737   1.979   6.015   0.554
 1613SOL    HW1 5738   1.997   5.918   0.571
 1613SOL    HW2 5739   1.984   6.034   0.456
 1614SOL     OW 5740   6.095   2.761   6.756
 1614SOL    HW1 5741   6.178   2.800   6.717
 1614SOL    HW2 5742   6.068   2.815   6.836
 1615SOL     OW 5743   0.321   4.680   6.572
 1615SOL    HW1 5744   0.268   4.764   6.587
 1615SOL    HW2 5745   0.415   4.695   6.602
 1616SOL     OW 5746   4.615   2.117   6.362
 1616SOL    HW1 5747   4.619   2.183   6.438
 1616SOL    HW2 5748   4.630   2.025   6.397
 1617SOL     OW 5749   6.025   0.867   2.610
 1617SOL    HW1 5750   5.959   0.795   2.633
 1617SOL    HW2 5751   6.116   0.827   2.602
 1618SOL     OW 5752   0.002   3.396   1.792
 1618SOL    HW1 5753   6.993   3.446   1.710
 1618SOL    HW2 5754   6.991   3.448   1.873
 1619SOL     OW 5755   1.106   4.115   3.958
 1619SOL    HW1 5756   1.105   4.185   4.029
 1619SOL    HW2 5757   1.015   4.109   3.916
 1620SOL     OW 5758   1.689   6.291   1.301
 1620SOL    HW1 5759   1.723   6.373   1.348
 1620SOL    HW2 5760   1.695   6.212   1.362
 1621SOL     OW 5761   0.973   0.491   7.018
 1621SOL    HW1 5762   0.887   0.465   6.974
 1621SOL    HW2 5763   1.018   0.409   0.035
 1622SOL     OW 5764   1.624   1.779   4.491
 1622SOL    HW1 5765   1.654   1.687   4.469
 1622SOL    HW2 5766   1.552   1.776   4.560
 1623SOL     OW 5767   2.175   2.734   6.256
 1623SOL    HW1 5768   2.178   2.756   6.159
 1623SOL    HW2 5769   2.092   2.681   6.276
 1624SOL     OW 5770   3.152   1.092   6.496
 1624SOL    HW1 5771   3.181   1.110   6.590
 1624SOL    HW2 5772   3.211   1.022   6.455
 1625SOL     OW 5773   0.440   4.782   2.580
 1625SOL    HW1 5774   0.371   4.725   2.624
 1625SOL    HW2 5775   0.419   4.878   2.594
 1626SOL     OW 5776   2.483   2.816   6.645
 1626SOL    HW1 5777   2.568   2.867   6.660
 1626SOL    HW2 5778   2.427   2.863   6.577
 1627SOL     OW 5779   6.218   2.275   3.668
 1627SOL    HW1 5780   6.301   2.317   3.704
 1627SOL    HW2 5781   6.205   2.301   3.572
 1628SOL     OW 5782   3.170   4.998   0.900
 1628SOL    HW1 5783   3.165   5.096   0.917
 1628SOL    HW2 5784   3.179   4.949   0.986
 1629SOL     OW 5785   3.379   2.113   4.639
 1629SOL    HW1 5786   3.465   2.142   4.681
 1629SOL    HW2 5787   3.399   2.054   4.561
 1630SOL     OW 5788   0.816   5.170   5.387
 1630SOL    HW1 5789   0.791   5.086   5.436
 1630SOL    HW2 5790   0.749   5.186   5.314
 1631SOL     OW 5791   0.301   0.421   5.684
 1631SOL    HW1 5792   0.210   0.385   5.706
 1631SOL    HW2 5793   0.291   0.505   5.631
 1632SOL     OW 5794   0.352   1.224   6.904
 1632SOL    HW1 5795   0.297   1.174   6.837
 1632SOL    HW2 5796   0.374   1.163   6.980
 1633SOL     OW 5797   5.708   1.865   3.151
 1633SOL    HW1 5798   5.789   1.806   3.158
 1633SOL    HW2 5799   5.634   1.815   3.105
 1634SOL     OW 5800   3.048   5.990   6.463
 1634SOL    HW1 5801   3.005   5.948   6.544
 1634SOL    HW2 5802   3.091   5.920   6.408
 1635SOL     OW 5803   0.076   5.388   4.612
 1635SOL    HW1 5804   0.153   5.340   4.572
 1635SOL    HW2 5805   0.071   5.480   4.575
 1636SOL     OW 5806   2.407   5.299   1.021
 1636SOL    HW1 5807   2.369   5.357   0.948
 1636SOL    HW2 5808   2.354   5.313   1.105
 1637SOL     OW 5809   0.161   3.084   2.549
 1637SOL    HW1 5810   0.230   3.156   2.557
 1637SOL    HW2 5811   0.070   3.125   2.554
 1638SOL     OW 5812   0.294   3.436   3.646
 1638SOL    HW1 5813   0.364   3.462   3.579
 1638SOL    HW2 5814   0.217   3.394   3.598
 1639SOL     OW 5815   5.047   5.621   2.766
 1639SOL    HW1 5816   5.143   5.632   2.741
 1639SOL    HW2 5817   4.995   5.701   2.737
 1640SOL     OW 5818   6.027   1.686   0.603
 1640SOL    HW1 5819   6.096   1.666   0.672
 1640SOL    HW2 5820   6.061   1.759   0.543
 1641SOL     OW 5821   5.856   2.913   3.705
 1641SOL    HW1 5822   5.857   2.838   3.771
 1641SOL    HW2 5823   5.923   2.895   3.633
 1642SOL     OW 5824   6.859   2.549   0.060
 1642SOL    HW1 5825   6.869   2.586   0.153
 1642SOL    HW2 5826   6.821   2.457   0.065
 1643SOL     OW 5827   3.546   6.672   5.169
 1643SOL    HW1 5828   3.517   6.633   5.081
 1643SOL    HW2 5829   3.616   6.741   5.154
 1644SOL     OW 5830   3.344   1.370   1.453
 1644SOL    HW1 5831   3.300   1.413   1.375
 1644SOL    HW2 5832   3.440   1.352   1.433
 1645SOL     OW 5833   2.930   5.893   5.994
 1645SOL    HW1 5834   2.869   5.969   6.018
 1645SOL    HW2 5835   2.886   5.834   5.926
 1646SOL     OW 5836   1.783   4.808   0.702
 1646SOL    HW1 5837   1.785   4.891   0.757
 1646SOL    HW2 5838   1.826   4.733   0.753
 1647SOL     OW 5839   5.748   2.762   3.358
 1647SOL    HW1 5840   5.783   2.845   3.402
 1647SOL    HW2 5841   5.754   2.774   3.258
 1648SOL     OW 5842   5.049   0.152   1.826
 1648SOL    HW1 5843   5.082   0.239   1.789
 1648SOL    HW2 5844   5.012   0.166   1.917
 1649SOL     OW 5845   3.219   0.542   3.274
 1649SOL    HW1 5846   3.182   0.631   3.250
 1649SOL    HW2 5847   3.179   0.510   3.360
 1650SOL     OW 5848   2.922   0.544   4.122
 1650SOL    HW1 5849   2.851   0.478   4.097
 1650SOL    HW2 5850   2.995   0.542   4.053
 1651SOL     OW 5851   0.171   0.512   0.225
 1651SOL    HW1 5852   0.228   0.492   0.305
 1651SOL    HW2 5853   0.190   0.605   0.194
 1652SOL     OW 5854   3.597   2.128   0.835
 1652SOL    HW1 5855   3.605   2.193   0.911
 1652SOL    HW2 5856   3.680   2.073   0.829
 1653SOL     OW 5857   0.056   5.494   0.590
 1653SOL    HW1 5858   0.064   5.414   0.650
 1653SOL    HW2 5859   7.017   5.563   0.634
 1654SOL     OW 5860   6.949   3.429   3.072
 1654SOL    HW1 5861   0.025   3.414   3.040
 1654SOL    HW2 5862   6.888   3.361   3.033
 1655SOL     OW 5863   5.697   4.248   6.197
 1655SOL    HW1 5864   5.661   4.322   6.140
 1655SOL    HW2 5865   5.706   4.281   6.291
 1656SOL     OW 5866   0.976   4.772   3.699
 1656SOL    HW1 5867   1.044   4.731   3.639
 1656SOL    HW2 5868   1.020   4.833   3.765
 1657SOL     OW 5869   2.013   1.083   5.776
 1657SOL    HW1 5870   1.921   1.097   5.741
 1657SOL    HW2 5871   2.048   0.995   5.743
 1658SOL     OW 5872   5.948   6.282   2.518
 1658SOL    HW1 5873   6.031   6.332   2.495
 1658SOL    HW2 5874   5.972   6.190   2.549
 1659SOL     OW 5875   3.517   2.072   6.410
 1659SOL    HW1 5876   3.420   2.087   6.392
 1659SOL    HW2 5877   3.542   1.980   6.380
 1660SOL     OW 5878   0.818   5.785   3.636
 1660SOL    HW1 5879   0.868   5.810   3.719
 1660SOL    HW2 5880   0.788   5.689   3.643
 1661SOL     OW 5881   3.319   1.446   2.730
 1661SOL    HW1 5882   3.235   1.498   2.716
 1661SOL    HW2 5883   3.339   1.440   2.827
 1662SOL     OW 5884   6.781   2.123   2.961
 1662SOL    HW1 5885   6.857   2.073   2.920
 1662SOL    HW2 5886   6.797   2.133   3.060
 1663SOL     OW 5887   2.867   6.793   3.076
 1663SOL    HW1 5888   2.923   6.714   3.104
 1663SOL    HW2 5889   2.924   6.855   3.022
 1664SOL     OW 5890   1.529   0.096   4.182
 1664SOL    HW1 5891   1.579   0.182   4.171
 1664SOL    HW2 5892   1.444   0.112   4.233
 1665SOL     OW 5893   0.854   1.332   2.443
 1665SOL    HW1 5894   0.953   1.333   2.456
 1665SOL    HW2 5895   0.813   1.268   2.508
 1666SOL     OW 5896   5.982   2.404   6.028
 1666SOL    HW1 5897   6.047   2.442   5.963
 1666SOL    HW2 5898   5.890   2.406   5.988
 1667SOL     OW 5899   6.324   6.696   6.328
 1667SOL    HW1 5900   6.334   6.791   6.357
 1667SOL    HW2 5901   6.325   6.692   6.228
 1668SOL     OW 5902   4.578   0.203   4.400
 1668SOL    HW1 5903   4.563   0.129   4.466
 1668SOL    HW2 5904   4.544   0.289   4.438
 1669SOL     OW 5905   5.920   6.778   6.449
 1669SOL    HW1 5906   5.980   6.699   6.456
 1669SOL    HW2 5907   5.909   6.803   6.352
 1670SOL     OW 5908   5.807   4.834   5.802
 1670SOL    HW1 5909   5.792   4.926   5.764
 1670SOL    HW2 5910   5.890   4.795   5.763
 1671SOL     OW 5911   4.525   3.610   0.643
 1671SOL    HW1 5912   4.454   3.639   0.708
 1671SOL    HW2 5913   4.485   3.606   0.551
 1672SOL     OW 5914   2.140   4.166   2.676
 1672SOL    HW1 5915   2.105   4.103   2.606
 1672SOL    HW2 5916   2.224   4.210   2.642
 1673SOL     OW 5917   6.730   3.443   4.545
 1673SOL    HW1 5918   6.723   3.513   4.616
 1673SOL    HW2 5919   6.742   3.353   4.588
 1674SOL     OW 5920   1.433   3.967   0.759
 1674SOL    HW1 5921   1.517   3.914   0.767
 1674SOL    HW2 5922   1.380   3.959   0.844
 1675SOL     OW 5923   4.831   1.180   6.723
 1675SOL    HW1 5924   4.872   1.242   6.657
 1675SOL    HW2 5925   4.783   1.106   6.675
 1676SOL     OW 5926   2.669   1.325   2.287
 1676SOL    HW1 5927   2.743   1.260   2.271
 1676SOL    HW2 5928   2.593   1.306   2.224
 1677SOL     OW 5929   5.738   1.650   5.295
 1677SOL    HW1 5930   5.662   1.611   5.348
 1677SOL    HW2 5931   5.824   1.608   5.323
 1678SOL     OW 5932   5.155   5.908   2.141
 1678SOL    HW1 5933   5.217   5.977   2.178
 1678SOL    HW2 5934   5.207   5.828   2.113
 1679SOL     OW 5935   1.054   3.048   5.725
 1679SOL    HW1 5936   1.070   3.021   5.630
 1679SOL    HW2 5937   1.111   2.993   5.786
 1680SOL     OW 5938   0.584   1.628   4.021
 1680SOL    HW1 5939   0.568   1.688   3.943
 1680SOL    HW2 5940   0.546   1.670   4.103
 1681SOL     OW 5941   6.258   5.109   1.268
 1681SOL    HW1 5942   6.303   5.100   1.178
 1681SOL    HW2 5943   6.327   5.127   1.338
 1682SOL     OW 5944   0.179   2.980   4.648
 1682SOL    HW1 5945   0.266   2.960   4.603
 1682SOL    HW2 5946   0.195   3.043   4.724
 1683SOL     OW 5947   4.799   4.919   1.327
 1683SOL    HW1 5948   4.852   5.003   1.310
 1683SOL    HW2 5949   4.848   4.861   1.392
 1684SOL     OW 5950   0.599   6.699   4.812
 1684SOL    HW1 5951   0.588   6.735   4.905
 1684SOL    HW2 5952   0.519   6.643   4.788
 1685SOL     OW 5953   1.712   1.168   0.210
 1685SOL    HW1 5954   1.660   1.254   0.206
 1685SOL    HW2 5955   1.708   1.131   0.303
 1686SOL     OW 5956   1.517   5.491   5.383
 1686SOL    HW1 5957   1.439   5.432   5.403
 1686SOL    HW2 5958   1.602   5.440   5.395
 1687SOL     OW 5959   1.872   4.511   2.673
 1687SOL    HW1 5960   1.798   4.445   2.662
 1687SOL    HW2 5961   1.956   4.475   2.631
 1688SOL     OW 5962   1.695   1.313   3.112
 1688SOL    HW1 5963   1.751   1.255   3.053
 1688SOL    HW2 5964   1.638   1.373   3.055
 1689SOL     OW 5965   3.032   2.166   2.376
 1689SOL    HW1 5966   3.051   2.068   2.369
 1689SOL    HW2 5967   3.080   2.215   2.303
 1690SOL     OW 5968   1.833   1.455   2.244
 1690SOL    HW1 5969   1.843   1.369   2.194
 1690SOL    HW2 5970   1.752   1.504   2.210
 1691SOL     OW 5971   4.985   3.048   3.361
 1691SOL    HW1 5972   5.065   3.107   3.379
 1691SOL    HW2 5973   4.986   3.019   3.266
 1692SOL     OW 5974   0.213   0.088   1.574
 1692SOL    HW1 5975   0.290   0.026   1.563
 1692SOL    HW2 5976   0.241   0.168   1.627
 1693SOL     OW 5977   2.215   3.013   3.389
 1693SOL    HW1 5978   2.204   3.021   3.488
 1693SOL    HW2 5979   2.258   2.925   3.367
 1694SOL     OW 5980   4.459   5.681   4.860
 1694SOL    HW1 5981   4.446   5.585   4.886
 1694SOL    HW2 5982   4.522   5.724   4.925
 1695SOL     OW 5983   2.717   2.403   5.330
 1695SOL    HW1 5984   2.653   2.338   5.289
 1695SOL    HW2 5985   2.691   2.420   5.425
 1696SOL     OW 5986   5.232   5.671   0.774
 1696SOL    HW1 5987   5.177   5.601   0.820
 1696SOL    HW2 5988   5.288   5.628   0.704
 1697SOL     OW 5989   1.095   6.867   1.695
 1697SOL    HW1 5990   1.129   6.784   1.739
 1697SOL    HW2 5991   1.088   6.940   1.763
 1698SOL     OW 5992   4.955   2.326   1.848
 1698SOL    HW1 5993   5.053   2.342   1.846
 1698SOL    HW2 5994   4.934   2.243   1.796
 1699SOL     OW 5995   2.956   3.070   1.078
 1699SOL    HW1 5996   2.869   3.042   1.118
 1699SOL    HW2 5997   2.952   3.062   0.978
 1700SOL     OW 5998   6.865   2.835   2.819
 1700SOL    HW1 5999   6.959   2.803   2.805
 1700SOL    HW2 6000   6.801   2.761   2.801
 1701SOL     OW 6001   6.171   2.738   4.408
 1701SOL    HW1 6002   6.093   2.678   4.391
 1701SOL    HW2 6003   6.141   2.817   4.461
 1702SOL     OW 6004   5.882   3.599   1.185
 1702SOL    HW1 6005   5.791   3.601   1.227
 1702SOL    HW2 6006   5.945   3.550   1.246
 1703SOL     OW 6007   2.198   3.895   1.054
 1703SOL    HW1 6008   2.269   3.948   1.102
 1703SOL    HW2 6009   2.177   3.812   1.107
 1704SOL     OW 6010   0.277   1.158   1.200
 1704SOL    HW1 6011   0.316   1.066   1.206
 1704SOL    HW2 6012   0.178   1.152   1.189
 1705SOL     OW 6013   3.546   2.391   1.476
 1705SOL    HW1 6014   3.450   2.415   1.462
 1705SOL    HW2 6015   3.559   2.293   1.464
 1706SOL     OW 6016   4.441   0.559   0.476
 1706SOL    HW1 6017   4.509   0.521   0.415
 1706SOL    HW2 6018   4.376   0.615   0.424
 1707SOL     OW 6019   5.417   2.302   2.805
 1707SOL    HW1 6020   5.442   2.212   2.769
 1707SOL    HW2 6021   5.342   2.292   2.870
 1708SOL     OW 6022   6.363   6.158   2.589
 1708SOL    HW1 6023   6.343   6.253   2.568
 1708SOL    HW2 6024   6.304   6.098   2.535
 1709SOL     OW 6025   2.544   6.860   2.302
 1709SOL    HW1 6026   2.451   6.894   2.289
 1709SOL    HW2 6027   2.605   6.902   2.235
 1710SOL     OW 6028   0.513   4.687   3.786
 1710SOL    HW1 6029   0.451   4.615   3.756
 1710SOL    HW2 6030   0.472   4.737   3.862
 1711SOL     OW 6031   1.445   4.814   5.446
 1711SOL    HW1 6032   1.387   4.736   5.468
 1711SOL    HW2 6033   1.448   4.826   5.346
 1712SOL     OW 6034   0.521   4.035   0.336
 1712SOL    HW1 6035   0.598   4.099   0.343
 1712SOL    HW2 6036   0.436   4.086   0.324
 1713SOL     OW 6037   1.850   2.706   1.681
 1713SOL    HW1 6038   1.851   2.742   1.587
 1713SOL    HW2 6039   1.773   2.643   1.691
 1714SOL     OW 6040   3.884   1.943   6.502
 1714SOL    HW1 6041   3.967   1.982   6.464
 1714SOL    HW2 6042   3.880   1.846   6.481
 1715SOL     OW 6043   0.552   3.427   2.905
 1715SOL    HW1 6044   0.648   3.431   2.933
 1715SOL    HW2 6045   0.494   3.459   2.980
 1716SOL     OW 6046   6.669   6.970   0.558
 1716SOL    HW1 6047   6.633   6.997   0.647
 1716SOL    HW2 6048   6.649   0.023   0.491
 1717SOL     OW 6049   2.577   6.618   0.124
 1717SOL    HW1 6050   2.577   6.566   0.038
 1717SOL    HW2 6051   2.670   6.652   0.142
 1718SOL     OW 6052   2.003   4.039   0.068
 1718SOL    HW1 6053   2.085   4.032   0.010
 1718SOL    HW2 6054   1.940   4.105   0.028
 1719SOL     OW 6055   2.589   3.247   1.490
 1719SOL    HW1 6056   2.592   3.290   1.580
 1719SOL    HW2 6057   2.522   3.294   1.433
 1720SOL     OW 6058   6.765   1.681   0.974
 1720SOL    HW1 6059   6.830   1.629   1.029
 1720SOL    HW2 6060   6.745   1.768   1.019
 1721SOL     OW 6061   1.821   6.594   3.278
 1721SOL    HW1 6062   1.908   6.639   3.254
 1721SOL    HW2 6063   1.840   6.501   3.309
 1722SOL     OW 6064   5.822   0.323   2.254
 1722SOL    HW1 6065   5.870   0.322   2.166
 1722SOL    HW2 6066   5.791   0.416   2.274
 1723SOL     OW 6067   7.008   2.079   2.693
 1723SOL    HW1 6068   6.986   2.026   2.612
 1723SOL    HW2 6069   7.007   2.020   2.774
 1724SOL     OW 6070   5.259   0.952   0.177
 1724SOL    HW1 6071   5.171   0.907   0.167
 1724SOL    HW2 6072   5.323   0.918   0.108
 1725SOL     OW 6073   3.554   4.248   0.956
 1725SOL    HW1 6074   3.527   4.315   1.025
 1725SOL    HW2 6075   3.591   4.166   1.000
 1726SOL     OW 6076   6.840   4.597   4.702
 1726SOL    HW1 6077   6.787   4.681   4.699
 1726SOL    HW2 6078   6.914   4.606   4.769
 1727SOL     OW 6079   4.021   3.393   4.957
 1727SOL    HW1 6080   3.957   3.317   4.971
 1727SOL    HW2 6081   4.098   3.383   5.019
 1728SOL     OW 6082   4.561   4.405   4.104
 1728SOL    HW1 6083   4.493   4.407   4.177
 1728SOL    HW2 6084   4.552   4.486   4.047
 1729SOL     OW 6085   1.002   4.024   3.145
 1729SOL    HW1 6086   1.082   4.060   3.098
 1729SOL    HW2 6087   1.006   4.048   3.242
 1730SOL     OW 6088   6.565   1.378   4.497
 1730SOL    HW1 6089   6.493   1.395   4.564
 1730SOL    HW2 6090   6.614   1.463   4.479
 1731SOL     OW 6091   2.189   4.929   1.409
 1731SOL    HW1 6092   2.120   4.886   1.468
 1731SOL    HW2 6093   2.173   4.900   1.314
 1732SOL     OW 6094   1.858   4.554   0.042
 1732SOL    HW1 6095   1.803   4.633   0.068
 1732SOL    HW2 6096   1.856   4.486   0.116
 1733SOL     OW 6097   1.204   4.146   1.779
 1733SOL    HW1 6098   1.175   4.091   1.700
 1733SOL    HW2 6099   1.261   4.090   1.839
 1734SOL     OW 6100   4.325   3.256   0.711
 1734SOL    HW1 6101   4.325   3.184   0.779
 1734SOL    HW2 6102   4.392   3.326   0.736
 1735SOL     OW 6103   6.354   5.189   1.561
 1735SOL    HW1 6104   6.290   5.138   1.618
 1735SOL    HW2 6105   6.446   5.181   1.599
 1736SOL     OW 6106   3.280   3.159   0.019
 1736SOL    HW1 6107   3.368   3.114   0.006
 1736SOL    HW2 6108   3.284   3.219   0.098
 1737SOL     OW 6109   2.087   0.556   4.262
 1737SOL    HW1 6110   2.123   0.465   4.239
 1737SOL    HW2 6111   2.117   0.622   4.194
 1738SOL     OW 6112   1.728   2.523   2.393
 1738SOL    HW1 6113   1.731   2.426   2.415
 1738SOL    HW2 6114   1.812   2.550   2.346
 1739SOL     OW 6115   4.408   2.484   4.797
 1739SOL    HW1 6116   4.497   2.464   4.755
 1739SOL    HW2 6117   4.421   2.545   4.875
 1740SOL     OW 6118   0.220   1.021   6.748
 1740SOL    HW1 6119   0.176   1.058   6.666
 1740SOL    HW2 6120   0.283   0.949   6.722
 1741SOL     OW 6121   2.481   0.820   2.720
 1741SOL    HW1 6122   2.547   0.866   2.661
 1741SOL    HW2 6123   2.519   0.812   2.812
 1742SOL     OW 6124   5.290   0.135   5.082
 1742SOL    HW1 6125   5.263   0.229   5.099
 1742SOL    HW2 6126   5.221   0.090   5.025
 1743SOL     OW 6127   2.660   1.305   1.420
 1743SOL    HW1 6128   2.695   1.315   1.514
 1743SOL    HW2 6129   2.578   1.361   1.410
 1744SOL     OW 6130   2.481   0.864   2.020
 1744SOL    HW1 6131   2.559   0.917   1.989
 1744SOL    HW2 6132   2.415   0.924   2.065
 1745SOL     OW 6133   0.143   2.010   3.367
 1745SOL    HW1 6134   0.218   2.057   3.321
 1745SOL    HW2 6135   0.056   2.048   3.337
 1746SOL     OW 6136   2.912   6.961   6.218
 1746SOL    HW1 6137   2.862   6.998   6.297
 1746SOL    HW2 6138   2.998   7.011   6.207
 1747SOL     OW 6139   4.289   0.112   1.495
 1747SOL    HW1 6140   4.328   0.139   1.583
 1747SOL    HW2 6141   4.238   0.189   1.457
 1748SOL     OW 6142   5.962   1.857   3.593
 1748SOL    HW1 6143   6.041   1.832   3.649
 1748SOL    HW2 6144   5.962   1.956   3.578
 1749SOL     OW 6145   4.149   6.567   6.565
 1749SOL    HW1 6146   4.145   6.651   6.620
 1749SOL    HW2 6147   4.173   6.590   6.471
 1750SOL     OW 6148   5.672   1.559   2.732
 1750SOL    HW1 6149   5.628   1.485   2.783
 1750SOL    HW2 6150   5.611   1.588   2.658
 1751SOL     OW 6151   1.820   5.165   4.918
 1751SOL    HW1 6152   1.895   5.115   4.963
 1751SOL    HW2 6153   1.733   5.121   4.940
 1752SOL     OW 6154   6.756   1.945   0.769
 1752SOL    HW1 6155   6.765   1.952   0.868
 1752SOL    HW2 6156   6.665   1.910   0.746
 1753SOL     OW 6157   0.846   0.199   7.012
 1753SOL    HW1 6158   0.897   0.113   7.014
 1753SOL    HW2 6159   0.750   0.180   0.013
 1754SOL     OW 6160   3.275   3.217   1.028
 1754SOL    HW1 6161   3.267   3.215   1.127
 1754SOL    HW2 6162   3.314   3.131   0.995
 1755SOL     OW 6163   5.350   4.601   1.413
 1755SOL    HW1 6164   5.388   4.693   1.429
 1755SOL    HW2 6165   5.308   4.567   1.497
 1756SOL     OW 6166   6.229   4.725   4.087
 1756SOL    HW1 6167   6.173   4.807   4.080
 1756SOL    HW2 6168   6.271   4.721   4.178
 1757SOL     OW 6169   2.612   6.388   4.425
 1757SOL    HW1 6170   2.614   6.307   4.367
 1757SOL    HW2 6171   2.631   6.469   4.369
 1758SOL     OW 6172   3.210   1.302   3.384
 1758SOL    HW1 6173   3.187   1.378   3.445
 1758SOL    HW2 6174   3.189   1.215   3.430
 1759SOL     OW 6175   0.395   4.688   5.977
 1759SOL    HW1 6176   0.430   4.757   5.914
 1759SOL    HW2 6177   0.392   4.725   6.070
 1760SOL     OW 6178   6.168   1.407   1.363
 1760SOL    HW1 6179   6.214   1.476   1.418
 1760SOL    HW2 6180   6.093   1.449   1.312
 1761SOL     OW 6181   5.801   0.724   0.747
 1761SOL    HW1 6182   5.756   0.636   0.734
 1761SOL    HW2 6183   5.894   0.719   0.710
 1762SOL     OW 6184   6.420   2.046   5.066
 1762SOL    HW1 6185   6.445   2.012   4.976
 1762SOL    HW2 6186   6.450   2.141   5.075
 1763SOL     OW 6187   1.809   3.999   4.611
 1763SOL    HW1 6188   1.871   3.958   4.678
 1763SOL    HW2 6189   1.764   3.927   4.559
 1764SOL     OW 6190   1.597   3.451   3.184
 1764SOL    HW1 6191   1.519   3.514   3.181
 1764SOL    HW2 6192   1.570   3.362   3.147
 1765SOL     OW 6193   2.691   1.360   0.082
 1765SOL    HW1 6194   2.789   1.362   0.064
 1765SOL    HW2 6195   2.643   1.336   7.016
 1766SOL     OW 6196   5.283   2.647   5.022
 1766SOL    HW1 6197   5.191   2.684   5.033
 1766SOL    HW2 6198   5.347   2.699   5.078
 1767SOL     OW 6199   5.329   3.627   1.956
 1767SOL    HW1 6200   5.417   3.642   1.910
 1767SOL    HW2 6201   5.336   3.655   2.051
 1768SOL     OW 6202   4.531   0.178   3.834
 1768SOL    HW1 6203   4.541   0.104   3.901
 1768SOL    HW2 6204   4.554   0.144   3.743
 1769SOL     OW 6205   3.971   2.038   4.004
 1769SOL    HW1 6206   4.043   2.073   3.944
 1769SOL    HW2 6207   3.882   2.074   3.975
 1770SOL     OW 6208   1.995   5.715   5.007
 1770SOL    HW1 6209   2.056   5.786   4.969
 1770SOL    HW2 6210   1.903   5.728   4.971
 1771SOL     OW 6211   2.842   5.775   0.139
 1771SOL    HW1 6212   2.930   5.771   0.090
 1771SOL    HW2 6213   2.775   5.719   0.090
 1772SOL     OW 6214   3.683   6.968   3.719
 1772SOL    HW1 6215   3.593   6.948   3.758
 1772SOL    HW2 6216   3.711   0.042   3.748
 1773SOL     OW 6217   2.244   4.997   5.791
 1773SOL    HW1 6218   2.148   5.021   5.806
 1773SOL    HW2 6219   2.302   5.057   5.846
 1774SOL     OW 6220   3.913   5.643   1.597
 1774SOL    HW1 6221   3.875   5.557   1.631
 1774SOL    HW2 6222   3.999   5.626   1.549
 1775SOL     OW 6223   0.753   4.551   2.644
 1775SOL    HW1 6224   0.825   4.486   2.669
 1775SOL    HW2 6225   0.788   4.613   2.574
 1776SOL     OW 6226   3.927   6.233   4.391
 1776SOL    HW1 6227   3.964   6.156   4.443
 1776SOL    HW2 6228   3.893   6.303   4.454
 1777SOL     OW 6229   3.576   5.642   0.054
 1777SOL    HW1 6230   3.629   5.619   0.135
 1777SOL    HW2 6231   3.627   5.709   7.017
 1778SOL     OW 6232   4.649   3.243   5.533
 1778SOL    HW1 6233   4.621   3.150   5.509
 1778SOL    HW2 6234   4.703   3.283   5.459
 1779SOL     OW 6235   4.098   0.415   4.645
 1779SOL    HW1 6236   4.123   0.350   4.573
 1779SOL    HW2 6237   4.133   0.384   4.733
 1780SOL     OW 6238   3.723   2.690   6.704
 1780SOL    HW1 6239   3.684   2.773   6.744
 1780SOL    HW2 6240   3.820   2.685   6.728
 1781SOL     OW 6241   3.713   6.249   2.624
 1781SOL    HW1 6242   3.775   6.281   2.553
 1781SOL    HW2 6243   3.744   6.159   2.657
 1782SOL     OW 6244   3.298   1.626   3.266
 1782SOL    HW1 6245   3.369   1.584   3.210
 1782SOL    HW2 6246   3.332   1.635   3.360
 1783SOL     OW 6247   2.640   5.516   5.949
 1783SOL    HW1 6248   2.695   5.436   5.972
 1783SOL    HW2 6249   2.553   5.511   5.998
 1784SOL     OW 6250   4.465   0.970   5.659
 1784SOL    HW1 6251   4.480   0.925   5.747
 1784SOL    HW2 6252   4.370   1.001   5.653
 1785SOL     OW 6253   6.449   3.638   2.671
 1785SOL    HW1 6254   6.446   3.735   2.695
 1785SOL    HW2 6255   6.360   3.609   2.636
 1786SOL     OW 6256   1.832   2.607   6.859
 1786SOL    HW1 6257   1.925   2.637   6.883
 1786SOL    HW2 6258   1.822   2.509   6.880
 1787SOL     OW 6259   2.776   1.244   5.152
 1787SOL    HW1 6260   2.852   1.301   5.120
 1787SOL    HW2 6261   2.791   1.149   5.125
 1788SOL     OW 6262   2.493   4.653   5.855
 1788SOL    HW1 6263   2.438   4.585   5.807
 1788SOL    HW2 6264   2.585   4.653   5.817
 1789SOL     OW 6265   5.753   2.253   1.098
 1789SOL    HW1 6266   5.698   2.291   1.172
 1789SOL    HW2 6267   5.738   2.155   1.092
 1790SOL     OW 6268   3.705   6.549   3.621
 1790SOL    HW1 6269   3.650   6.490   3.680
 1790SOL    HW2 6270   3.791   6.503   3.599
 1791SOL     OW 6271   0.032   0.867   2.917
 1791SOL    HW1 6272   0.025   0.772   2.886
 1791SOL    HW2 6273   0.009   0.928   2.841
 1792SOL     OW 6274   6.916   3.590   4.879
 1792SOL    HW1 6275   6.849   3.650   4.835
 1792SOL    HW2 6276   6.988   3.567   4.814
 1793SOL     OW 6277   6.088   0.017   3.747
 1793SOL    HW1 6278   6.111   0.092   3.685
 1793SOL    HW2 6279   6.165   6.971   3.753
 1794SOL     OW 6280   5.138   6.045   5.606
 1794SOL    HW1 6281   5.079   5.981   5.557
 1794SOL    HW2 6282   5.229   6.045   5.564
 1795SOL     OW 6283   1.050   2.370   1.082
 1795SOL    HW1 6284   1.103   2.365   0.997
 1795SOL    HW2 6285   1.099   2.427   1.148
 1796SOL     OW 6286   2.799   0.983   5.979
 1796SOL    HW1 6287   2.791   1.083   5.979
 1796SOL    HW2 6288   2.831   0.953   6.069
 1797SOL     OW 6289   1.723   0.192   0.026
 1797SOL    HW1 6290   1.736   0.098   0.058
 1797SOL    HW2 6291   1.782   0.253   0.079
 1798SOL     OW 6292   4.603   2.305   3.857
 1798SOL    HW1 6293   4.665   2.345   3.790
 1798SOL    HW2 6294   4.654   2.273   3.936
 1799SOL     OW 6295   0.128   2.798   4.231
 1799SOL    HW1 6296   0.176   2.755   4.308
 1799SOL    HW2 6297   0.158   2.756   4.145
 1800SOL     OW 6298   4.533   4.086   1.381
 1800SOL    HW1 6299   4.590   4.095   1.463
 1800SOL    HW2 6300   4.592   4.067   1.302
 1801SOL     OW 6301   0.307   0.352   2.306
 1801SOL    HW1 6302   0.237   0.281   2.316
 1801SOL    HW2 6303   0.357   0.338   2.221
 1802SOL     OW 6304   5.224   5.857   4.094
 1802SOL    HW1 6305   5.303   5.851   4.155
 1802SOL    HW2 6306   5.153   5.795   4.125
 1803SOL     OW 6307   0.234   5.360   0.194
 1803SOL    HW1 6308   0.162   5.395   0.134
 1803SOL    HW2 6309   0.295   5.435   0.221
 1804SOL     OW 6310   2.442   4.099   5.387
 1804SOL    HW1 6311   2.500   4.059   5.457
 1804SOL    HW2 6312   2.435   4.035   5.310
 1805SOL     OW 6313   5.052   3.397   6.231
 1805SOL    HW1 6314   5.084   3.430   6.320
 1805SOL    HW2 6315   4.953   3.406   6.227
 1806SOL     OW 6316   0.438   6.939   6.289
 1806SOL    HW1 6317   0.403   6.847   6.306
 1806SOL    HW2 6318   0.367   6.994   6.245
 1807SOL     OW 6319   5.588   2.585   4.736
 1807SOL    HW1 6320   5.492   2.615   4.736
 1807SOL    HW2 6321   5.618   2.571   4.830
 1808SOL     OW 6322   0.157   4.328   5.633
 1808SOL    HW1 6323   0.121   4.241   5.667
 1808SOL    HW2 6324   0.212   4.372   5.703
 1809SOL     OW 6325   2.490   2.374   5.106
 1809SOL    HW1 6326   2.574   2.325   5.088
 1809SOL    HW2 6327   2.452   2.344   5.194
 1810SOL     OW 6328   2.673   0.239   4.066
 1810SOL    HW1 6329   2.634   0.166   4.010
 1810SOL    HW2 6330   2.753   0.205   4.114
 1811SOL     OW 6331   5.700   6.101   3.405
 1811SOL    HW1 6332   5.647   6.099   3.490
 1811SOL    HW2 6333   5.639   6.085   3.327
 1812SOL     OW 6334   4.169   5.721   5.102
 1812SOL    HW1 6335   4.096   5.746   5.039
 1812SOL    HW2 6336   4.246   5.784   5.091
 1813SOL     OW 6337   5.857   4.134   0.502
 1813SOL    HW1 6338   5.876   4.099   0.411
 1813SOL    HW2 6339   5.935   4.118   0.562
 1814SOL     OW 6340   4.920   0.169   2.079
 1814SOL    HW1 6341   4.892   0.203   2.169
 1814SOL    HW2 6342   4.841   0.129   2.033
 1815SOL     OW 6343   0.714   1.787   2.050
 1815SOL    HW1 6344   0.730   1.775   2.148
 1815SOL    HW2 6345   0.696   1.698   2.008
 1816SOL     OW 6346   2.586   2.591   1.086
 1816SOL    HW1 6347   2.664   2.549   1.134
 1816SOL    HW2 6348   2.593   2.572   0.988
 1817SOL     OW 6349   2.310   6.650   2.200
 1817SOL    HW1 6350   2.244   6.582   2.168
 1817SOL    HW2 6351   2.298   6.735   2.149
 1818SOL     OW 6352   1.194   0.184   3.293
 1818SOL    HW1 6353   1.201   0.155   3.389
 1818SOL    HW2 6354   1.202   0.284   3.288
 1819SOL     OW 6355   1.153   4.647   1.956
 1819SOL    HW1 6356   1.220   4.592   1.906
 1819SOL    HW2 6357   1.061   4.615   1.935
 1820SOL     OW 6358   4.291   1.180   2.655
 1820SOL    HW1 6359   4.317   1.271   2.622
 1820SOL    HW2 6360   4.226   1.139   2.591
 1821SOL     OW 6361   2.188   1.420   2.802
 1821SOL    HW1 6362   2.246   1.501   2.795
 1821SOL    HW2 6363   2.181   1.376   2.713
 1822SOL     OW 6364   3.537   2.750   1.574
 1822SOL    HW1 6365   3.500   2.794   1.657
 1822SOL    HW2 6366   3.590   2.669   1.600
 1823SOL     OW 6367   3.764   6.462   3.202
 1823SOL    HW1 6368   3.848   6.515   3.188
 1823SOL    HW2 6369   3.745   6.407   3.120
 1824SOL     OW 6370   4.297   2.634   0.961
 1824SOL    HW1 6371   4.257   2.551   0.923
 1824SOL    HW2 6372   4.341   2.614   1.048
 1825SOL     OW 6373   0.932   0.562   1.873
 1825SOL    HW1 6374   0.905   0.631   1.940
 1825SOL    HW2 6375   0.909   0.471   1.907
 1826SOL     OW 6376   3.228   1.632   1.586
 1826SOL    HW1 6377   3.241   1.605   1.682
 1826SOL    HW2 6378   3.285   1.574   1.527
 1827SOL     OW 6379   0.068   4.804   2.118
 1827SOL    HW1 6380   0.104   4.828   2.028
 1827SOL    HW2 6381   0.077   4.706   2.133
 1828SOL     OW 6382   0.664   2.906   0.118
 1828SOL    HW1 6383   0.736   2.936   0.181
 1828SOL    HW2 6384   0.612   2.831   0.159
 1829SOL     OW 6385   4.879   6.628   3.206
 1829SOL    HW1 6386   4.848   6.715   3.169
 1829SOL    HW2 6387   4.978   6.630   3.219
 1830SOL     OW 6388   4.836   6.608   3.863
 1830SOL    HW1 6389   4.915   6.605   3.924
 1830SOL    HW2 6390   4.794   6.517   3.859
 1831SOL     OW 6391   6.118   6.979   2.568
 1831SOL    HW1 6392   6.088   6.899   2.619
 1831SOL    HW2 6393   6.039   0.018   2.546
 1832SOL     OW 6394   4.904   2.392   1.286
 1832SOL    HW1 6395   4.969   2.460   1.253
 1832SOL    HW2 6396   4.948   2.333   1.354
 1833SOL     OW 6397   5.508   6.570   4.660
 1833SOL    HW1 6398   5.540   6.633   4.589
 1833SOL    HW2 6399   5.584   6.513   4.691
 1834SOL     OW 6400   3.672   3.746   0.709
 1834SOL    HW1 6401   3.731   3.699   0.775
 1834SOL    HW2 6402   3.597   3.684   0.683
 1835SOL     OW 6403   1.474   4.034   1.292
 1835SOL    HW1 6404   1.405   3.975   1.335
 1835SOL    HW2 6405   1.470   4.125   1.333
 1836SOL     OW 6406   0.087   1.893   0.906
 1836SOL    HW1 6407   0.144   1.813   0.923
 1836SOL    HW2 6408   0.018   1.899   0.979
 1837SOL     OW 6409   0.962   2.231   4.336
 1837SOL    HW1 6410   0.893   2.296   4.304
 1837SOL    HW2 6411   0.994   2.177   4.258
 1838SOL     OW 6412   0.182   2.588   3.613
 1838SOL    HW1 6413   0.126   2.670   3.611
 1838SOL    HW2 6414   0.279   2.613   3.608
 1839SOL     OW 6415   5.704   2.861   5.000
 1839SOL    HW1 6416   5.662   2.772   5.021
 1839SOL    HW2 6417   5.642   2.934   5.026
 1840SOL     OW 6418   2.554   5.917   1.188
 1840SOL    HW1 6419   2.523   5.967   1.107
 1840SOL    HW2 6420   2.639   5.869   1.168
 1841SOL     OW 6421   1.996   3.720   4.357
 1841SOL    HW1 6422   2.045   3.762   4.281
 1841SOL    HW2 6423   1.921   3.663   4.322
 1842SOL     OW 6424   0.423   5.354   1.299
 1842SOL    HW1 6425   0.457   5.295   1.373
 1842SOL    HW2 6426   0.329   5.381   1.320
 1843SOL     OW 6427   1.825   2.428   5.158
 1843SOL    HW1 6428   1.921   2.415   5.131
 1843SOL    HW2 6429   1.789   2.343   5.196
 1844SOL     OW 6430   3.945   2.097   4.938
 1844SOL    HW1 6431   3.985   2.015   4.898
 1844SOL    HW2 6432   4.005   2.131   5.010
 1845SOL     OW 6433   2.856   0.049   6.461
 1845SOL    HW1 6434   2.912   0.072   6.541
 1845SOL    HW2 6435   2.774   0.105   6.461
 1846SOL     OW 6436   4.172   2.040   6.507
 1846SOL    HW1 6437   4.146   1.992   6.423
 1846SOL    HW2 6438   4.210   1.975   6.573
 1847SOL     OW 6439   0.751   0.644   6.790
 1847SOL    HW1 6440   0.746   0.700   6.872
 1847SOL    HW2 6441   0.756   0.547   6.815
 1848SOL     OW 6442   2.164   6.125   2.858
 1848SOL    HW1 6443   2.178   6.026   2.859
 1848SOL    HW2 6444   2.075   6.146   2.819
 1849SOL     OW 6445   4.321   0.744   0.281
 1849SOL    HW1 6446   4.296   0.690   0.201
 1849SOL    HW2 6447   4.413   0.781   0.270
 1850SOL     OW 6448   5.958   1.703   3.060
 1850SOL    HW1 6449   5.960   1.614   3.015
 1850SOL    HW2 6450   6.024   1.764   3.016
 1851SOL     OW 6451   0.218   1.445   1.426
 1851SOL    HW1 6452   0.270   1.483   1.349
 1851SOL    HW2 6453   0.282   1.412   1.496
 1852SOL     OW 6454   4.473   4.054   0.740
 1852SOL    HW1 6455   4.464   4.000   0.824
 1852SOL    HW2 6456   4.382   4.081   0.708
 1853SOL     OW 6457   0.902   3.997   1.440
 1853SOL    HW1 6458   0.973   4.005   1.509
 1853SOL    HW2 6459   0.936   4.030   1.352
 1854SOL     OW 6460   3.056   5.631   3.896
 1854SOL    HW1 6461   3.002   5.546   3.901
 1854SOL    HW2 6462   3.016   5.691   3.827
 1855SOL     OW 6463   4.947   5.353   0.616
 1855SOL    HW1 6464   4.949   5.263   0.573
 1855SOL    HW2 6465   5.040   5.389   0.623
 1856SOL     OW 6466   6.380   2.716   5.641
 1856SOL    HW1 6467   6.283   2.730   5.623
 1856SOL    HW2 6468   6.400   2.618   5.646
 1857SOL     OW 6469   4.792   0.841   4.830
 1857SOL    HW1 6470   4.859   0.844   4.903
 1857SOL    HW2 6471   4.802   0.756   4.778
 1858SOL     OW 6472   5.538   3.086   3.628
 1858SOL    HW1 6473   5.622   3.068   3.577
 1858SOL    HW2 6474   5.560   3.121   3.719
 1859SOL     OW 6475   4.169   2.199   3.494
 1859SOL    HW1 6476   4.187   2.108   3.530
 1859SOL    HW2 6477   4.177   2.266   3.568
 1860SOL     OW 6478   6.525   1.325   3.773
 1860SOL    HW1 6479   6.527   1.294   3.869
 1860SOL    HW2 6480   6.581   1.264   3.718
 1861SOL     OW 6481   4.862   6.447   2.115
 1861SOL    HW1 6482   4.772   6.412   2.140
 1861SOL    HW2 6483   4.921   6.371   2.087
 1862SOL     OW 6484   2.302   6.774   0.342
 1862SOL    HW1 6485   2.344   6.864   0.355
 1862SOL    HW2 6486   2.272   6.764   0.247
 1863SOL     OW 6487   2.923   2.246   0.881
 1863SOL    HW1 6488   2.845   2.304   0.855
 1863SOL    HW2 6489   2.900   2.196   0.964
 1864SOL     OW 6490   0.721   6.626   5.189
 1864SOL    HW1 6491   0.791   6.571   5.234
 1864SOL    HW2 6492   0.763   6.709   5.151
 1865SOL     OW 6493   3.747   1.357   5.432
 1865SOL    HW1 6494   3.686   1.388   5.505
 1865SOL    HW2 6495   3.724   1.405   5.347
 1866SOL     OW 6496   4.312   4.603   2.231
 1866SOL    HW1 6497   4.383   4.649   2.284
 1866SOL    HW2 6498   4.334   4.506   2.223
 1867SOL     OW 6499   0.297   4.162   0.344
 1867SOL    HW1 6500   0.260   4.204   0.262
 1867SOL    HW2 6501   0.224   4.151   0.412
 1868SOL     OW 6502   5.700   4.632   6.615
 1868SOL    HW1 6503   5.743   4.661   6.701
 1868SOL    HW2 6504   5.729   4.539   6.593
 1869SOL     OW 6505   6.539   2.324   5.033
 1869SOL    HW1 6506   6.543   2.403   5.094
 1869SOL    HW2 6507   6.620   2.322   4.975
 1870SOL     OW 6508   2.257   4.332   5.753
 1870SOL    HW1 6509   2.281   4.238   5.727
 1870SOL    HW2 6510   2.286   4.395   5.681
 1871SOL     OW 6511   1.729   6.888   0.850
 1871SOL    HW1 6512   1.680   6.972   0.826
 1871SOL    HW2 6513   1.737   6.830   0.769
 1872SOL     OW 6514   2.950   4.420   0.095
 1872SOL    HW1 6515   2.870   4.384   0.047
 1872SOL    HW2 6516   3.030   4.413   0.036
 1873SOL     OW 6517   3.784   1.100   5.483
 1873SOL    HW1 6518   3.775   1.199   5.477
 1873SOL    HW2 6519   3.787   1.061   5.391
 1874SOL     OW 6520   2.725   1.688   1.367
 1874SOL    HW1 6521   2.819   1.656   1.381
 1874SOL    HW2 6522   2.719   1.786   1.389
 1875SOL     OW 6523   0.610   6.940   6.625
 1875SOL    HW1 6524   0.545   6.981   6.690
 1875SOL    HW2 6525   0.654   7.012   6.572
 1876SOL     OW 6526   3.340   0.095   5.361
 1876SOL    HW1 6527   3.253   0.111   5.315
 1876SOL    HW2 6528   3.369   0.179   5.407
 1877SOL     OW 6529   0.491   0.685   3.981
 1877SOL    HW1 6530   0.404   0.636   3.994
 1877SOL    HW2 6531   0.475   0.765   3.923
 1878SOL     OW 6532   6.961   2.025   3.586
 1878SOL    HW1 6533   6.967   1.930   3.618
 1878SOL    HW2 6534   0.032   2.070   3.598
 1879SOL     OW 6535   1.028   3.562   4.374
 1879SOL    HW1 6536   0.983   3.593   4.290
 1879SOL    HW2 6537   0.988   3.609   4.452
 1880SOL     OW 6538   7.012   1.229   4.674
 1880SOL    HW1 6539   0.071   1.188   4.721
 1880SOL    HW2 6540   0.027   1.284   4.597
 1881SOL     OW 6541   6.052   1.950   1.459
 1881SOL    HW1 6542   6.135   1.971   1.512
 1881SOL    HW2 6543   5.995   2.032   1.453
 1882SOL     OW 6544   1.289   4.358   6.408
 1882SOL    HW1 6545   1.279   4.366   6.309
 1882SOL    HW2 6546   1.385   4.340   6.430
 1883SOL     OW 6547   6.080   2.485   2.018
 1883SOL    HW1 6548   6.116   2.402   2.059
 1883SOL    HW2 6549   6.049   2.548   2.090
 1884SOL     OW 6550   1.075   1.670   0.747
 1884SOL    HW1 6551   1.047   1.579   0.779
 1884SOL    HW2 6552   1.006   1.704   0.683
 1885SOL     OW 6553   1.585   1.668   5.551
 1885SOL    HW1 6554   1.613   1.710   5.465
 1885SOL    HW2 6555   1.655   1.604   5.582
 1886SOL     OW 6556   2.223   0.359   2.348
 1886SOL    HW1 6557   2.316   0.326   2.361
 1886SOL    HW2 6558   2.222   0.433   2.281
 1887SOL     OW 6559   0.847   5.351   5.984
 1887SOL    HW1 6560   0.929   5.397   5.952
 1887SOL    HW2 6561   0.843   5.354   6.084
 1888SOL     OW 6562   3.163   1.723   0.131
 1888SOL    HW1 6563   3.245   1.721   0.189
 1888SOL    HW2 6564   3.119   1.812   0.139
 1889SOL     OW 6565   0.840   4.126   3.867
 1889SOL    HW1 6566   0.742   4.116   3.886
 1889SOL    HW2 6567   0.864   4.223   3.868
 1890SOL     OW 6568   0.741   5.465   4.563
 1890SOL    HW1 6569   0.708   5.477   4.469
 1890SOL    HW2 6570   0.761   5.554   4.604
 1891SOL     OW 6571   4.317   3.170   1.787
 1891SOL    HW1 6572   4.298   3.187   1.884
 1891SOL    HW2 6573   4.397   3.110   1.779
 1892SOL     OW 6574   0.045   1.119   2.284
 1892SOL    HW1 6575   0.042   1.172   2.200
 1892SOL    HW2 6576   0.060   1.022   2.263
 1893SOL     OW 6577   3.852   3.163   2.072
 1893SOL    HW1 6578   3.787   3.236   2.054
 1893SOL    HW2 6579   3.945   3.201   2.075
 1894SOL     OW 6580   3.408   4.108   4.107
 1894SOL    HW1 6581   3.502   4.093   4.134
 1894SOL    HW2 6582   3.355   4.139   4.186
 1895SOL     OW 6583   4.137   0.277   0.853
 1895SOL    HW1 6584   4.133   0.355   0.916
 1895SOL    HW2 6585   4.147   0.312   0.759
 1896SOL     OW 6586   6.238   1.637   0.761
 1896SOL    HW1 6587   6.213   1.569   0.830
 1896SOL    HW2 6588   6.332   1.667   0.776
 1897SOL     OW 6589   1.562   4.986   2.279
 1897SOL    HW1 6590   1.658   4.982   2.253
 1897SOL    HW2 6591   1.531   5.081   2.277
 1898SOL     OW 6592   2.249   4.587   2.748
 1898SOL    HW1 6593   2.344   4.610   2.729
 1898SOL    HW2 6594   2.241   4.548   2.840
 1899SOL     OW 6595   0.750   0.899   0.533
 1899SOL    HW1 6596   0.815   0.830   0.502
 1899SOL    HW2 6597   0.669   0.898   0.473
 1900SOL     OW 6598   3.090   0.216   6.998
 1900SOL    HW1 6599   3.020   0.270   6.953
 1900SOL    HW2 6600   3.100   0.128   6.951
 1901SOL     OW 6601   2.582   2.871   1.152
 1901SOL    HW1 6602   2.591   2.772   1.157
 1901SOL    HW2 6603   2.642   2.913   1.220
 1902SOL     OW 6604   2.667   0.465   4.700
 1902SOL    HW1 6605   2.581   0.454   4.751
 1902SOL    HW2 6606   2.648   0.510   4.613
 1903SOL     OW 6607   0.934   3.019   3.515
 1903SOL    HW1 6608   0.849   2.967   3.510
 1903SOL    HW2 6609   1.001   2.979   3.452
 1904SOL     OW 6610   5.500   4.885   2.456
 1904SOL    HW1 6611   5.551   4.910   2.538
 1904SOL    HW2 6612   5.552   4.818   2.403
 1905SOL     OW 6613   0.676   0.327   3.809
 1905SOL    HW1 6614   0.686   0.292   3.716
 1905SOL    HW2 6615   0.713   0.420   3.814
 1906SOL     OW 6616   2.628   0.194   6.448
 1906SOL    HW1 6617   2.563   0.142   6.393
 1906SOL    HW2 6618   2.631   0.288   6.414
 1907SOL     OW 6619   4.729   2.724   0.561
 1907SOL    HW1 6620   4.747   2.766   0.650
 1907SOL    HW2 6621   4.767   2.631   0.559
 1908SOL     OW 6622   4.246   6.857   6.626
 1908SOL    HW1 6623   4.181   6.930   6.649
 1908SOL    HW2 6624   4.267   6.861   6.528
 1909SOL     OW 6625   0.509   3.074   3.742
 1909SOL    HW1 6626   0.555   3.039   3.824
 1909SOL    HW2 6627   0.531   3.171   3.730
 1910SOL     OW 6628   6.139   6.166   5.388
 1910SOL    HW1 6629   6.043   6.176   5.416
 1910SOL    HW2 6630   6.182   6.256   5.385
 1911SOL     OW 6631   0.031   4.393   4.251
 1911SOL    HW1 6632   6.968   4.438   4.288
 1911SOL    HW2 6633   0.112   4.423   4.300
 1912SOL     OW 6634   2.898   5.400   2.325
 1912SOL    HW1 6635   2.996   5.422   2.320
 1912SOL    HW2 6636   2.865   5.416   2.419
 1913SOL     OW 6637   2.189   5.981   4.618
 1913SOL    HW1 6638   2.190   6.077   4.646
 1913SOL    HW2 6639   2.279   5.956   4.582
 1914SOL     OW 6640   3.393   4.282   6.224
 1914SOL    HW1 6641   3.323   4.218   6.192
 1914SOL    HW2 6642   3.352   4.345   6.290
 1915SOL     OW 6643   4.262   3.024   6.136
 1915SOL    HW1 6644   4.257   3.006   6.038
 1915SOL    HW2 6645   4.170   3.027   6.175
 1916SOL     OW 6646   3.847   0.183   0.941
 1916SOL    HW1 6647   3.816   0.257   1.001
 1916SOL    HW2 6648   3.938   0.205   0.905
 1917SOL     OW 6649   2.411   4.356   0.132
 1917SOL    HW1 6650   2.313   4.339   0.139
 1917SOL    HW2 6651   2.457   4.273   0.099
 1918SOL     OW 6652   0.912   0.873   4.902
 1918SOL    HW1 6653   0.907   0.857   4.803
 1918SOL    HW2 6654   0.997   0.921   4.924
 1919SOL     OW 6655   1.836   1.626   1.348
 1919SOL    HW1 6656   1.785   1.706   1.318
 1919SOL    HW2 6657   1.857   1.634   1.446
 1920SOL     OW 6658   5.872   2.260   2.276
 1920SOL    HW1 6659   5.817   2.336   2.241
 1920SOL    HW2 6660   5.904   2.282   2.368
 1921SOL     OW 6661   1.436   2.425   0.389
 1921SOL    HW1 6662   1.491   2.447   0.309
 1921SOL    HW2 6663   1.347   2.469   0.382
 1922SOL     OW 6664   3.180   3.475   1.958
 1922SOL    HW1 6665   3.187   3.458   1.860
 1922SOL    HW2 6666   3.180   3.388   2.007
 1923SOL     OW 6667   5.359   0.003   6.565
 1923SOL    HW1 6668   5.267   6.982   6.566
 1923SOL    HW2 6669   5.353   0.103   6.559
 1924SOL     OW 6670   4.564   0.158   1.156
 1924SOL    HW1 6671   4.495   0.223   1.127
 1924SOL    HW2 6672   4.524   0.091   1.217
 1925SOL     OW 6673   0.846   4.401   1.634
 1925SOL    HW1 6674   0.768   4.339   1.635
 1925SOL    HW2 6675   0.925   4.354   1.595
 1926SOL     OW 6676   3.784   0.072   1.811
 1926SOL    HW1 6677   3.785   0.028   1.722
 1926SOL    HW2 6678   3.872   0.059   1.856
 1927SOL     OW 6679   2.177   4.126   1.285
 1927SOL    HW1 6680   2.087   4.096   1.254
 1927SOL    HW2 6681   2.180   4.127   1.385
 1928SOL     OW 6682   4.729   4.218   4.199
 1928SOL    HW1 6683   4.718   4.182   4.292
 1928SOL    HW2 6684   4.660   4.288   4.182
 1929SOL     OW 6685   3.211   0.694   2.906
 1929SOL    HW1 6686   3.290   0.699   2.845
 1929SOL    HW2 6687   3.132   0.659   2.857
 1930SOL     OW 6688   4.870   3.092   6.485
 1930SOL    HW1 6689   4.785   3.145   6.483
 1930SOL    HW2 6690   4.879   3.041   6.399
 1931SOL     OW 6691   0.786   1.618   6.177
 1931SOL    HW1 6692   0.687   1.622   6.183
 1931SOL    HW2 6693   0.822   1.705   6.142
 1932SOL     OW 6694   4.808   2.381   3.262
 1932SOL    HW1 6695   4.795   2.385   3.163
 1932SOL    HW2 6696   4.852   2.295   3.286
 1933SOL     OW 6697   0.085   1.989   0.140
 1933SOL    HW1 6698   0.159   2.038   0.092
 1933SOL    HW2 6699   0.116   1.965   0.232
 1934SOL     OW 6700   0.609   0.410   5.450
 1934SOL    HW1 6701   0.548   0.337   5.419
 1934SOL    HW2 6702   0.696   0.371   5.478
 1935SOL     OW 6703   5.068   4.486   3.194
 1935SOL    HW1 6704   5.081   4.496   3.095
 1935SOL    HW2 6705   5.078   4.390   3.219
 1936SOL     OW 6706   5.305   3.230   4.425
 1936SOL    HW1 6707   5.373   3.252   4.494
 1936SOL    HW2 6708   5.346   3.237   4.334
 1937SOL     OW 6709   4.971   5.705   6.740
 1937SOL    HW1 6710   4.977   5.711   6.641
 1937SOL    HW2 6711   4.927   5.619   6.766
 1938SOL     OW 6712   0.921   2.398   6.503
 1938SOL    HW1 6713   0.943   2.486   6.543
 1938SOL    HW2 6714   1.000   2.337   6.509
 1939SOL     OW 6715   0.613   5.655   4.933
 1939SOL    HW1 6716   0.568   5.739   4.963
 1939SOL    HW2 6717   0.636   5.599   5.012
 1940SOL     OW 6718   6.157   4.673   1.687
 1940SOL    HW1 6719   6.186   4.600   1.625
 1940SOL    HW2 6720   6.178   4.762   1.646
 1941SOL     OW 6721   0.665   2.729   3.756
 1941SOL    HW1 6722   0.674   2.635   3.724
 1941SOL    HW2 6723   0.642   2.788   3.678
 1942SOL     OW 6724   5.340   3.429   2.951
 1942SOL    HW1 6725   5.272   3.381   3.006
 1942SOL    HW2 6726   5.429   3.427   2.998
 1943SOL     OW 6727   1.505   1.217   2.321
 1943SOL    HW1 6728   1.478   1.281   2.250
 1943SOL    HW2 6729   1.571   1.260   2.383
 1944SOL     OW 6730   0.208   3.235   0.633
 1944SOL    HW1 6731   0.214   3.148   0.682
 1944SOL    HW2 6732   0.191   3.308   0.699
 1945SOL     OW 6733   3.868   6.571   0.693
 1945SOL    HW1 6734   3.944   6.506   0.684
 1945SOL    HW2 6735   3.869   6.634   0.615
 1946SOL     OW 6736   6.809   5.906   1.301
 1946SOL    HW1 6737   6.848   5.964   1.372
 1946SOL    HW2 6738   6.870   5.829   1.284
 1947SOL     OW 6739   5.799   4.363   3.326
 1947SOL    HW1 6740   5.779   4.364   3.228
 1947SOL    HW2 6741   5.813   4.268   3.356
 1948SOL     OW 6742   5.747   3.543   2.871
 1948SOL    HW1 6743   5.819   3.506   2.811
 1948SOL    HW2 6744   5.705   3.622   2.827
 1949SOL     OW 6745   4.233   4.255   0.894
 1949SOL    HW1 6746   4.147   4.304   0.884
 1949SOL    HW2 6747   4.269   4.268   0.987
 1950SOL     OW 6748   3.715   4.052   3.715
 1950SOL    HW1 6749   3.643   3.987   3.739
 1950SOL    HW2 6750   3.675   4.141   3.693
 1951SOL     OW 6751   6.639   4.598   5.711
 1951SOL    HW1 6752   6.703   4.522   5.724
 1951SOL    HW2 6753   6.555   4.564   5.670
 1952SOL     OW 6754   5.622   3.738   0.749
 1952SOL    HW1 6755   5.526   3.758   0.731
 1952SOL    HW2 6756   5.634   3.641   0.767
 1953SOL     OW 6757   0.190   1.377   6.704
 1953SOL    HW1 6758   0.289   1.389   6.709
 1953SOL    HW2 6759   0.145   1.453   6.751
 1954SOL     OW 6760   4.416   7.017   1.882
 1954SOL    HW1 6761   4.493   6.981   1.935
 1954SOL    HW2 6762   4.354   6.943   1.858
 1955SOL     OW 6763   0.978   1.507   2.071
 1955SOL    HW1 6764   0.997   1.597   2.032
 1955SOL    HW2 6765   0.931   1.450   2.003
 1956SOL     OW 6766   6.103   0.983   1.879
 1956SOL    HW1 6767   6.071   0.945   1.792
 1956SOL    HW2 6768   6.063   0.932   1.954
 1957SOL     OW 6769   5.331   2.336   3.895
 1957SOL    HW1 6770   5.328   2.435   3.883
 1957SOL    HW2 6771   5.345   2.314   3.991
 1958SOL     OW 6772   4.354   1.596   0.790
 1958SOL    HW1 6773   4.380   1.684   0.750
 1958SOL    HW2 6774   4.423   1.527   0.765
 1959SOL     OW 6775   6.771   6.954   3.778
 1959SOL    HW1 6776   6.784   6.875   3.718
 1959SOL    HW2 6777   6.857   7.004   3.787
 1960SOL     OW 6778   5.921   3.353   2.703
 1960SOL    HW1 6779   5.977   3.287   2.654
 1960SOL    HW2 6780   5.826   3.321   2.706
 1961SOL     OW 6781   6.310   4.419   5.149
 1961SOL    HW1 6782   6.393   4.423   5.206
 1961SOL    HW2 6783   6.330   4.458   5.059
 1962SOL     OW 6784   1.166   6.598   3.134
 1962SOL    HW1 6785   1.248   6.591   3.077
 1962SOL    HW2 6786   1.192   6.620   3.228
 1963SOL     OW 6787   1.128   1.888   1.691
 1963SOL    HW1 6788   1.064   1.872   1.766
 1963SOL    HW2 6789   1.221   1.899   1.727
 1964SOL     OW 6790   5.779   4.404   1.599
 1964SOL    HW1 6791   5.818   4.436   1.512
 1964SOL    HW2 6792   5.836   4.436   1.674
 1965SOL     OW 6793   0.787   4.695   4.238
 1965SOL    HW1 6794   0.789   4.650   4.328
 1965SOL    HW2 6795   0.733   4.639   4.175
 1966SOL     OW 6796   1.522   4.573   1.242
 1966SOL    HW1 6797   1.606   4.524   1.266
 1966SOL    HW2 6798   1.530   4.669   1.268
 1967SOL     OW 6799   6.226   2.727   3.316
 1967SOL    HW1 6800   6.225   2.750   3.219
 1967SOL    HW2 6801   6.318   2.740   3.353
 1968SOL     OW 6802   2.123   1.362   5.737
 1968SOL    HW1 6803   2.111   1.263   5.727
 1968SOL    HW2 6804   2.098   1.408   5.652
 1969SOL     OW 6805   3.243   0.088   0.975
 1969SOL    HW1 6806   3.304   0.009   0.985
 1969SOL    HW2 6807   3.296   0.168   0.949
 1970SOL     OW 6808   6.620   5.624   4.850
 1970SOL    HW1 6809   6.713   5.638   4.815
 1970SOL    HW2 6810   6.623   5.618   4.950
 1971SOL     OW 6811   1.369   6.919   5.498
 1971SOL    HW1 6812   1.468   6.935   5.494
 1971SOL    HW2 6813   1.324   6.969   5.423
 1972SOL     OW 6814   5.821   2.566   1.322
 1972SOL    HW1 6815   5.756   2.493   1.303
 1972SOL    HW2 6816   5.828   2.579   1.421
 1973SOL     OW 6817   2.531   4.067   0.681
 1973SOL    HW1 6818   2.452   4.114   0.642
 1973SOL    HW2 6819   2.529   4.075   0.780
 1974SOL     OW 6820   3.984   6.656   4.900
 1974SOL    HW1 6821   3.908   6.591   4.910
 1974SOL    HW2 6822   4.001   6.701   4.987
 1975SOL     OW 6823   1.746   3.560   2.977
 1975SOL    HW1 6824   1.694   3.515   3.050
 1975SOL    HW2 6825   1.799   3.492   2.927
 1976SOL     OW 6826   6.740   0.211   5.979
 1976SOL    HW1 6827   6.798   0.289   5.955
 1976SOL    HW2 6828   6.787   0.153   6.045
 1977SOL     OW 6829   2.195   4.009   6.897
 1977SOL    HW1 6830   2.253   4.090   6.896
 1977SOL    HW2 6831   2.211   3.955   6.814
 1978SOL     OW 6832   2.207   0.007   2.565
 1978SOL    HW1 6833   2.196   0.102   2.593
 1978SOL    HW2 6834   2.260   6.976   2.634
 1979SOL     OW 6835   5.884   5.454   6.379
 1979SOL    HW1 6836   5.891   5.430   6.282
 1979SOL    HW2 6837   5.909   5.374   6.434
 1980SOL     OW 6838   2.979   1.342   1.878
 1980SOL    HW1 6839   2.944   1.249   1.894
 1980SOL    HW2 6840   3.079   1.342   1.886
 1981SOL     OW 6841   4.491   2.455   3.085
 1981SOL    HW1 6842   4.516   2.468   3.181
 1981SOL    HW2 6843   4.572   2.431   3.032
 1982SOL     OW 6844   6.369   3.289   3.401
 1982SOL    HW1 6845   6.351   3.268   3.497
 1982SOL    HW2 6846   6.300   3.353   3.367
 1983SOL     OW 6847   0.206   0.265   0.796
 1983SOL    HW1 6848   0.259   0.334   0.845
 1983SOL    HW2 6849   0.144   0.219   0.860
 1984SOL     OW 6850   5.938   2.760   5.473
 1984SOL    HW1 6851   5.968   2.678   5.425
 1984SOL    HW2 6852   5.894   2.735   5.560
 1985SOL     OW 6853   6.573   4.683   2.011
 1985SOL    HW1 6854   6.586   4.775   2.047
 1985SOL    HW2 6855   6.600   4.616   2.080
 1986SOL     OW 6856   3.009   1.298   7.006
 1986SOL    HW1 6857   2.956   1.300   6.921
 1986SOL    HW2 6858   3.106   1.315   6.986
 1987SOL     OW 6859   1.627   0.902   3.929
 1987SOL    HW1 6860   1.650   0.972   3.861
 1987SOL    HW2 6861   1.530   0.909   3.952
 1988SOL     OW 6862   6.700   2.376   0.933
 1988SOL    HW1 6863   6.778   2.413   0.882
 1988SOL    HW2 6864   6.732   2.316   1.006
 1989SOL     OW 6865   2.846   4.863   5.654
 1989SOL    HW1 6866   2.848   4.860   5.554
 1989SOL    HW2 6867   2.828   4.956   5.685
 1990SOL     OW 6868   3.714   0.836   0.134
 1990SOL    HW1 6869   3.788   0.901   0.155
 1990SOL    HW2 6870   3.689   0.844   0.038
 1991SOL     OW 6871   3.061   5.348   0.592
 1991SOL    HW1 6872   3.096   5.268   0.543
 1991SOL    HW2 6873   3.100   5.431   0.551
 1992SOL     OW 6874   0.305   6.350   0.224
 1992SOL    HW1 6875   0.378   6.406   0.263
 1992SOL    HW2 6876   0.235   6.410   0.184
 1993SOL     OW 6877   1.802   2.906   4.576
 1993SOL    HW1 6878   1.882   2.851   4.550
 1993SOL    HW2 6879   1.801   2.918   4.675
 1994SOL     OW 6880   3.385   3.356   0.225
 1994SOL    HW1 6881   3.342   3.430   0.175
 1994SOL    HW2 6882   3.349   3.353   0.319
 1995SOL     OW 6883   5.340   2.060   4.809
 1995SOL    HW1 6884   5.291   2.147   4.796
 1995SOL    HW2 6885   5.329   2.004   4.727
 1996SOL     OW 6886   3.741   1.624   1.146
 1996SOL    HW1 6887   3.836   1.655   1.140
 1996SOL    HW2 6888   3.736   1.527   1.123
 1997SOL     OW 6889   3.289   1.598   3.946
 1997SOL    HW1 6890   3.291   1.608   4.045
 1997SOL    HW2 6891   3.241   1.513   3.923
 1998SOL     OW 6892   1.098   3.079   2.056
 1998SOL    HW1 6893   1.135   2.997   2.014
 1998SOL    HW2 6894   1.085   3.150   1.987
 1999SOL     OW 6895   0.841   0.236   5.471
 1999SOL    HW1 6896   0.867   0.201   5.381
 1999SOL    HW2 6897   0.922   0.244   5.528
 2000SOL     OW 6898   3.917   4.020   6.650
 2000SOL    HW1 6899   3.980   4.057   6.582
 2000SOL    HW2 6900   3.932   3.921   6.660
 2001SOL     OW 6901   1.884   1.483   6.602
 2001SOL    HW1 6902   1.871   1.536   6.519
 2001SOL    HW2 6903   1.926   1.395   6.580
 2002SOL     OW 6904   6.705   5.680   1.098
 2002SOL    HW1 6905   6.622   5.707   1.147
 2002SOL    HW2 6906   6.712   5.733   1.013
 2003SOL     OW 6907   5.976   5.071   2.474
 2003SOL    HW1 6908   5.985   5.157   2.522
 2003SOL    HW2 6909   5.904   5.079   2.405
 2004SOL     OW 6910   3.639   0.820   3.758
 2004SOL    HW1 6911   3.625   0.731   3.801
 2004SOL    HW2 6912   3.682   0.807   3.669
 2005SOL     OW 6913   0.738   6.135   0.292
 2005SOL    HW1 6914   0.821   6.081   0.308
 2005SOL    HW2 6915   0.757   6.204   0.222
 2006SOL     OW 6916   5.045   0.148   3.314
 2006SOL    HW1 6917   5.063   0.051   3.326
 2006SOL    HW2 6918   4.947   0.162   3.299
 2007SOL     OW 6919   5.724   4.345   6.967
 2007SOL    HW1 6920   5.789   4.376   6.898
 2007SOL    HW2 6921   5.683   4.423   7.013
 2008SOL     OW 6922   2.116   3.988   3.815
 2008SOL    HW1 6923   2.148   4.043   3.738
 2008SOL    HW2 6924   2.159   4.019   3.899
 2009SOL     OW 6925   6.680   5.986   1.669
 2009SOL    HW1 6926   6.586   6.013   1.646
 2009SOL    HW2 6927   6.699   5.895   1.633
 2010SOL     OW 6928   1.529   2.257   2.094
 2010SOL    HW1 6929   1.532   2.356   2.102
 2010SOL    HW2 6930   1.551   2.230   2.000
 2011SOL     OW 6931   6.913   6.029   5.586
 2011SOL    HW1 6932   6.907   6.027   5.486
 2011SOL    HW2 6933   7.007   6.009   5.614
 2012SOL     OW 6934   1.501   3.187   2.565
 2012SOL    HW1 6935   1.442   3.265   2.586
 2012SOL    HW2 6936   1.590   3.200   2.608
 2013SOL     OW 6937   0.763   2.971   3.198
 2013SOL    HW1 6938   0.813   2.900   3.248
 2013SOL    HW2 6939   0.827   3.041   3.167
 2014SOL     OW 6940   3.047   0.519   3.870
 2014SOL    HW1 6941   3.042   0.426   3.836
 2014SOL    HW2 6942   3.142   0.551   3.867
 2015SOL     OW 6943   3.859   0.819   1.935
 2015SOL    HW1 6944   3.846   0.778   2.026
 2015SOL    HW2 6945   3.853   0.747   1.866
 2016SOL     OW 6946   2.076   6.916   6.011
 2016SOL    HW1 6947   2.030   6.892   5.925
 2016SOL    HW2 6948   2.058   7.012   6.032
 2017SOL     OW 6949   4.107   6.906   2.557
 2017SOL    HW1 6950   4.199   6.941   2.536
 2017SOL    HW2 6951   4.107   6.806   2.552
 2018SOL     OW 6952   0.147   2.201   2.951
 2018SOL    HW1 6953   0.048   2.206   2.964
 2018SOL    HW2 6954   0.187   2.148   3.026
 2019SOL     OW 6955   6.338   4.611   6.159
 2019SOL    HW1 6956   6.239   4.621   6.169
 2019SOL    HW2 6957   6.384   4.691   6.198
 2020SOL     OW 6958   1.610   6.610   6.184
 2020SOL    HW1 6959   1.639   6.625   6.089
 2020SOL    HW2 6960   1.543   6.536   6.187
 2021SOL     OW 6961   6.133   6.294   2.977
 2021SOL    HW1 6962   6.169   6.217   2.924
 2021SOL    HW2 6963   6.041   6.272   3.008
 2022SOL     OW 6964   2.291   4.466   5.159
 2022SOL    HW1 6965   2.351   4.427   5.228
 2022SOL    HW2 6966   2.276   4.400   5.086
 2023SOL     OW 6967   0.021   0.377   0.036
 2023SOL    HW1 6968   6.959   0.365   0.095
 2023SOL    HW2 6969   0.102   0.391   0.093
 2024SOL     OW 6970   0.468   5.494   4.748
 2024SOL    HW1 6971   0.511   5.539   4.826
 2024SOL    HW2 6972   0.509   5.403   4.735
 2025SOL     OW 6973   2.438   0.468   4.853
 2025SOL    HW1 6974   2.408   0.379   4.887
 2025SOL    HW2 6975   2.452   0.530   4.931
 2026SOL     OW 6976   6.122   0.921   6.307
 2026SOL    HW1 6977   6.090   0.967   6.224
 2026SOL    HW2 6978   6.142   0.990   6.376
 2027SOL     OW 6979   0.765   5.954   2.607
 2027SOL    HW1 6980   0.782   5.970   2.704
 2027SOL    HW2 6981   0.692   6.016   2.575
 2028SOL     OW 6982   4.063   5.858   2.814
 2028SOL    HW1 6983   4.026   5.948   2.838
 2028SOL    HW2 6984   4.081   5.854   2.716
 2029SOL     OW 6985   0.179   2.726   6.371
 2029SOL    HW1 6986   0.164   2.822   6.348
 2029SOL    HW2 6987   0.099   2.690   6.418
 2030SOL     OW 6988   2.832   6.388   3.118
 2030SOL    HW1 6989   2.773   6.341   3.053
 2030SOL    HW2 6990   2.814   6.353   3.210
 2031SOL     OW 6991   6.231   5.518   3.171
 2031SOL    HW1 6992   6.272   5.609   3.165
 2031SOL    HW2 6993   6.148   5.524   3.228
 2032SOL     OW 6994   2.904   1.380   6.356
 2032SOL    HW1 6995   2.878   1.459   6.301
 2032SOL    HW2 6996   2.953   1.411   6.438
 2033SOL     OW 6997   1.971   1.207   1.194
 2033SOL    HW1 6998   2.048   1.262   1.225
 2033SOL    HW2 6999   1.894   1.266   1.172
 2034SOL     OW 7000   0.438   4.943   5.831
 2034SOL    HW1 7001   0.376   4.992   5.892
 2034SOL    HW2 7002   0.524   4.925   5.877
 2035SOL     OW 7003   5.659   0.271   2.459
 2035SOL    HW1 7004   5.568   0.265   2.416
 2035SOL    HW2 7005   5.729   0.266   2.388
 2036SOL     OW 7006   0.989   3.762   2.089
 2036SOL    HW1 7007   0.954   3.844   2.135
 2036SOL    HW2 7008   0.914   3.698   2.075
 2037SOL     OW 7009   0.328   3.175   6.521
 2037SOL    HW1 7010   0.415   3.223   6.519
 2037SOL    HW2 7011   0.336   3.092   6.576
 2038SOL     OW 7012   2.131   1.759   6.927
 2038SOL    HW1 7013   2.081   1.701   6.992
 2038SOL    HW2 7014   2.228   1.761   6.951
 2039SOL     OW 7015   6.465   5.863   2.138
 2039SOL    HW1 7016   6.481   5.862   2.237
 2039SOL    HW2 7017   6.405   5.787   2.113
 2040SOL     OW 7018   2.462   2.952   0.025
 2040SOL    HW1 7019   2.484   2.855   0.012
 2040SOL    HW2 7020   2.522   2.991   0.095
 2041SOL     OW 7021   1.878   0.112   6.599
 2041SOL    HW1 7022   1.812   0.040   6.579
 2041SOL    HW2 7023   1.892   0.118   6.698
 2042SOL     OW 7024   4.983   0.810   5.800
 2042SOL    HW1 7025   4.901   0.792   5.855
 2042SOL    HW2 7026   5.052   0.856   5.856
 2043SOL     OW 7027   6.731   3.453   1.476
 2043SOL    HW1 7028   6.809   3.487   1.529
 2043SOL    HW2 7029   6.748   3.468   1.379
 2044SOL     OW 7030   5.049   0.878   0.688
 2044SOL    HW1 7031   4.988   0.815   0.640
 2044SOL    HW2 7032   5.074   0.839   0.777
 2045SOL     OW 7033   1.732   6.371   6.394
 2045SOL    HW1 7034   1.660   6.428   6.356
 2045SOL    HW2 7035   1.704   6.337   6.484
 2046SOL     OW 7036   0.886   2.200   5.041
 2046SOL    HW1 7037   0.918   2.273   4.980
 2046SOL    HW2 7038   0.947   2.122   5.035
 2047SOL     OW 7039   6.514   1.842   6.788
 2047SOL    HW1 7040   6.467   1.925   6.816
 2047SOL    HW2 7041   6.544   1.851   6.693
 2048SOL     OW 7042   1.109   1.195   4.256
 2048SOL    HW1 7043   1.065   1.229   4.173
 2048SOL    HW2 7044   1.203   1.167   4.235
 2049SOL     OW 7045   4.829   1.272   4.542
 2049SOL    HW1 7046   4.797   1.210   4.614
 2049SOL    HW2 7047   4.798   1.365   4.562
 2050SOL     OW 7048   0.413   1.349   4.022
 2050SOL    HW1 7049   0.426   1.336   4.120
 2050SOL    HW2 7050   0.470   1.425   3.990
 2051SOL     OW 7051   2.940   6.487   0.807
 2051SOL    HW1 7052   2.845   6.458   0.821
 2051SOL    HW2 7053   3.002   6.419   0.848
 2052SOL     OW 7054   1.422   4.172   6.797
 2052SOL    HW1 7055   1.470   4.149   6.713
 2052SOL    HW2 7056   1.459   4.257   6.834
 2053SOL     OW 7057   0.883   5.438   3.842
 2053SOL    HW1 7058   0.890   5.367   3.772
 2053SOL    HW2 7059   0.944   5.415   3.919
 2054SOL     OW 7060   3.473   3.416   3.895
 2054SOL    HW1 7061   3.553   3.451   3.944
 2054SOL    HW2 7062   3.490   3.321   3.866
 2055SOL     OW 7063   1.995   2.210   5.478
 2055SOL    HW1 7064   1.971   2.307   5.481
 2055SOL    HW2 7065   2.059   2.194   5.402
 2056SOL     OW 7066   3.856   4.686   1.243
 2056SOL    HW1 7067   3.881   4.773   1.200
 2056SOL    HW2 7068   3.830   4.620   1.173
 2057SOL     OW 7069   5.930   2.572   4.407
 2057SOL    HW1 7070   5.857   2.525   4.456
 2057SOL    HW2 7071   5.892   2.652   4.360
 2058SOL     OW 7072   0.616   6.206   3.669
 2058SOL    HW1 7073   0.607   6.132   3.736
 2058SOL    HW2 7074   0.597   6.294   3.713
 2059SOL     OW 7075   1.921   0.086   5.787
 2059SOL    HW1 7076   2.004   0.142   5.780
 2059SOL    HW2 7077   1.841   0.142   5.768
 2060SOL     OW 7078   1.214   3.252   0.028
 2060SOL    HW1 7079   1.190   3.347   0.048
 2060SOL    HW2 7080   1.154   3.216   6.976
 2061SOL     OW 7081   2.113   2.078   2.495
 2061SOL    HW1 7082   2.159   1.991   2.511
 2061SOL    HW2 7083   2.177   2.142   2.453
 2062SOL     OW 7084   6.203   5.125   5.167
 2062SOL    HW1 7085   6.199   5.080   5.078
 2062SOL    HW2 7086   6.117   5.172   5.185
 2063SOL     OW 7087   1.738   1.121   5.141
 2063SOL    HW1 7088   1.745   1.163   5.050
 2063SOL    HW2 7089   1.673   1.173   5.196
 2064SOL     OW 7090   0.638   3.308   3.720
 2064SOL    HW1 7091   0.608   3.376   3.787
 2064SOL    HW2 7092   0.582   3.316   3.638
 2065SOL     OW 7093   4.631   2.391   5.734
 2065SOL    HW1 7094   4.723   2.426   5.752
 2065SOL    HW2 7095   4.567   2.467   5.732
 2066SOL     OW 7096   6.177   2.866   5.494
 2066SOL    HW1 7097   6.086   2.827   5.509
 2066SOL    HW2 7098   6.176   2.920   5.409
 2067SOL     OW 7099   6.748   4.819   0.811
 2067SOL    HW1 7100   6.807   4.899   0.801
 2067SOL    HW2 7101   6.663   4.834   0.761
 2068SOL     OW 7102   4.147   0.639   4.228
 2068SOL    HW1 7103   4.242   0.666   4.242
 2068SOL    HW2 7104   4.114   0.673   4.140
 2069SOL     OW 7105   0.237   2.464   3.860
 2069SOL    HW1 7106   0.329   2.501   3.871
 2069SOL    HW2 7107   0.198   2.497   3.774
 2070SOL     OW 7108   0.553   4.306   2.205
 2070SOL    HW1 7109   0.576   4.229   2.145
 2070SOL    HW2 7110   0.468   4.285   2.253
 2071SOL     OW 7111   6.614   1.631   6.240
 2071SOL    HW1 7112   6.678   1.707   6.256
 2071SOL    HW2 7113   6.639   1.583   6.156
 2072SOL     OW 7114   3.889   4.700   5.682
 2072SOL    HW1 7115   3.916   4.622   5.625
 2072SOL    HW2 7116   3.895   4.675   5.779
 2073SOL     OW 7117   3.430   6.009   0.517
 2073SOL    HW1 7118   3.343   6.053   0.539
 2073SOL    HW2 7119   3.431   5.985   0.420
 2074SOL     OW 7120   1.181   3.495   5.307
 2074SOL    HW1 7121   1.195   3.593   5.300
 2074SOL    HW2 7122   1.233   3.448   5.235
 2075SOL     OW 7123   6.771   2.105   1.820
 2075SOL    HW1 7124   6.747   2.052   1.739
 2075SOL    HW2 7125   6.764   2.203   1.799
 2076SOL     OW 7126   5.333   6.426   4.863
 2076SOL    HW1 7127   5.378   6.338   4.877
 2076SOL    HW2 7128   5.361   6.464   4.775
 2077SOL     OW 7129   0.250   3.826   1.190
 2077SOL    HW1 7130   0.162   3.865   1.220
 2077SOL    HW2 7131   0.248   3.727   1.202
 2078SOL     OW 7132   1.785   3.376   5.972
 2078SOL    HW1 7133   1.775   3.433   5.890
 2078SOL    HW2 7134   1.759   3.428   6.053
 2079SOL     OW 7135   5.381   1.753   1.999
 2079SOL    HW1 7136   5.465   1.727   2.047
 2079SOL    HW2 7137   5.314   1.678   2.007
 2080SOL     OW 7138   2.542   3.236   5.654
 2080SOL    HW1 7139   2.546   3.188   5.566
 2080SOL    HW2 7140   2.448   3.261   5.675
 2081SOL     OW 7141   6.947   0.296   3.474
 2081SOL    HW1 7142   6.854   0.262   3.489
 2081SOL    HW2 7143   6.975   0.278   3.379
 2082SOL     OW 7144   0.366   6.424   2.479
 2082SOL    HW1 7145   0.274   6.396   2.508
 2082SOL    HW2 7146   0.424   6.343   2.470
 2083SOL     OW 7147   6.885   6.007   4.522
 2083SOL    HW1 7148   6.887   6.052   4.611
 2083SOL    HW2 7149   6.790   5.995   4.493
 2084SOL     OW 7150   0.694   2.752   1.934
 2084SOL    HW1 7151   0.654   2.752   2.026
 2084SOL    HW2 7152   0.755   2.830   1.924
 2085SOL     OW 7153   5.555   5.273   0.715
 2085SOL    HW1 7154   5.480   5.213   0.745
 2085SOL    HW2 7155   5.580   5.251   0.621
 2086SOL     OW 7156   4.287   6.911   6.905
 2086SOL    HW1 7157   4.255   6.937   6.814
 2086SOL    HW2 7158   4.345   6.829   6.898
 2087SOL     OW 7159   4.135   2.332   6.525
 2087SOL    HW1 7160   4.167   2.237   6.524
 2087SOL    HW2 7161   4.119   2.363   6.431
 2088SOL     OW 7162   6.875   5.879   4.980
 2088SOL    HW1 7163   6.785   5.887   5.022
 2088SOL    HW2 7164   6.938   5.834   5.044
 2089SOL     OW 7165   3.279   3.461   6.332
 2089SOL    HW1 7166   3.312   3.485   6.423
 2089SOL    HW2 7167   3.254   3.545   6.282
 2090SOL     OW 7168   4.404   3.526   5.349
 2090SOL    HW1 7169   4.338   3.528   5.274
 2090SOL    HW2 7170   4.496   3.514   5.311
 2091SOL     OW 7171   6.042   5.744   1.690
 2091SOL    HW1 7172   6.085   5.754   1.780
 2091SOL    HW2 7173   5.987   5.825   1.670
 2092SOL     OW 7174   4.393   3.759   1.330
 2092SOL    HW1 7175   4.483   3.802   1.325
 2092SOL    HW2 7176   4.340   3.783   1.249
 2093SOL     OW 7177   3.680   2.116   2.938
 2093SOL    HW1 7178   3.754   2.050   2.923
 2093SOL    HW2 7179   3.609   2.103   2.869
 2094SOL     OW 7180   5.209   2.450   6.594
 2094SOL    HW1 7181   5.148   2.413   6.524
 2094SOL    HW2 7182   5.190   2.548   6.607
 2095SOL     OW 7183   4.891   6.062   3.667
 2095SOL    HW1 7184   4.853   5.997   3.601
 2095SOL    HW2 7185   4.981   6.030   3.698
 2096SOL     OW 7186   4.275   6.450   2.569
 2096SOL    HW1 7187   4.292   6.352   2.573
 2096SOL    HW2 7188   4.299   6.492   2.657
 2097SOL     OW 7189   1.163   5.353   6.488
 2097SOL    HW1 7190   1.172   5.272   6.431
 2097SOL    HW2 7191   1.133   5.430   6.433
 2098SOL     OW 7192   3.000   6.582   3.134
 2098SOL    HW1 7193   3.063   6.571   3.058
 2098SOL    HW2 7194   2.931   6.510   3.132
 2099SOL     OW 7195   5.377   1.200   0.196
 2099SOL    HW1 7196   5.353   1.259   0.273
 2099SOL    HW2 7197   5.349   1.106   0.216
 2100SOL     OW 7198   5.455   0.797   1.215
 2100SOL    HW1 7199   5.532   0.834   1.163
 2100SOL    HW2 7200   5.383   0.767   1.152
 2101SOL     OW 7201   0.049   6.571   2.031
 2101SOL    HW1 7202   0.053   6.662   2.073
 2101SOL    HW2 7203   6.982   6.526   2.060
 2102SOL     OW 7204   3.497   3.583   0.567
 2102SOL    HW1 7205   3.400   3.573   0.545
 2102SOL    HW2 7206   3.536   3.493   0.588
 2103SOL     OW 7207   3.032   5.939   0.690
 2103SOL    HW1 7208   3.094   5.862   0.703
 2103SOL    HW2 7209   3.066   6.019   0.740
 2104SOL     OW 7210   1.151   5.095   3.061
 2104SOL    HW1 7211   1.219   5.165   3.039
 2104SOL    HW2 7212   1.170   5.012   3.009
 2105SOL     OW 7213   5.429   3.948   6.389
 2105SOL    HW1 7214   5.508   3.981   6.336
 2105SOL    HW2 7215   5.424   3.849   6.381
 2106SOL     OW 7216   5.092   3.610   1.838
 2106SOL    HW1 7217   5.176   3.597   1.890
 2106SOL    HW2 7218   5.045   3.692   1.869
 2107SOL     OW 7219   5.784   3.797   5.294
 2107SOL    HW1 7220   5.685   3.810   5.301
 2107SOL    HW2 7221   5.809   3.772   5.201
 2108SOL     OW 7222   5.770   6.959   5.954
 2108SOL    HW1 7223   5.775   7.010   6.040
 2108SOL    HW2 7224   5.713   7.008   5.889
 2109SOL     OW 7225   2.229   5.706   3.195
 2109SOL    HW1 7226   2.207   5.804   3.203
 2109SOL    HW2 7227   2.306   5.684   3.254
 2110SOL     OW 7228   4.141   0.556   6.691
 2110SOL    HW1 7229   4.044   0.542   6.667
 2110SOL    HW2 7230   4.183   0.468   6.713
 2111SOL     OW 7231   1.116   2.370   6.101
 2111SOL    HW1 7232   1.113   2.460   6.058
 2111SOL    HW2 7233   1.033   2.357   6.156
 2112SOL     OW 7234   0.358   1.618   0.710
 2112SOL    HW1 7235   0.434   1.615   0.775
 2112SOL    HW2 7236   0.300   1.538   0.722
 2113SOL     OW 7237   1.298   0.139   4.900
 2113SOL    HW1 7238   1.231   0.189   4.846
 2113SOL    HW2 7239   1.369   0.103   4.839
 2114SOL     OW 7240   2.048   2.416   6.562
 2114SOL    HW1 7241   1.960   2.462   6.558
 2114SOL    HW2 7242   2.051   2.355   6.641
 2115SOL     OW 7243   6.406   5.841   3.353
 2115SOL    HW1 7244   6.429   5.922   3.300
 2115SOL    HW2 7245   6.470   5.832   3.429
 2116SOL     OW 7246   0.454   2.481   6.823
 2116SOL    HW1 7247   0.553   2.483   6.834
 2116SOL    HW2 7248   0.412   2.556   6.873
 2117SOL     OW 7249   6.243   1.234   1.885
 2117SOL    HW1 7250   6.186   1.285   1.821
 2117SOL    HW2 7251   6.199   1.146   1.906
 2118SOL     OW 7252   6.350   2.997   2.089
 2118SOL    HW1 7253   6.433   2.999   2.145
 2118SOL    HW2 7254   6.325   2.902   2.070
 2119SOL     OW 7255   3.172   0.679   0.082
 2119SOL    HW1 7256   3.207   0.709   0.170
 2119SOL    HW2 7257   3.221   0.597   0.053
 2120SOL     OW 7258   5.765   1.747   0.539
 2120SOL    HW1 7259   5.853   1.721   0.579
 2120SOL    HW2 7260   5.725   1.822   0.592
 2121SOL     OW 7261   1.374   0.501   6.493
 2121SOL    HW1 7262   1.454   0.440   6.489
 2121SOL    HW2 7263   1.403   0.592   6.521
 2122SOL     OW 7264   6.123   0.721   4.956
 2122SOL    HW1 7265   6.083   0.705   5.046
 2122SOL    HW2 7266   6.131   0.634   4.907
 2123SOL     OW 7267   1.678   6.209   3.703
 2123SOL    HW1 7268   1.702   6.140   3.635
 2123SOL    HW2 7269   1.629   6.285   3.659
 2124SOL     OW 7270   3.707   3.224   5.817
 2124SOL    HW1 7271   3.637   3.176   5.869
 2124SOL    HW2 7272   3.687   3.322   5.817
 2125SOL     OW 7273   1.097   6.063   3.515
 2125SOL    HW1 7274   1.119   5.989   3.579
 2125SOL    HW2 7275   0.998   6.073   3.508
 2126SOL     OW 7276   3.609   4.618   6.784
 2126SOL    HW1 7277   3.566   4.540   6.737
 2126SOL    HW2 7278   3.570   4.703   6.749
 2127SOL     OW 7279   0.473   2.446   4.892
 2127SOL    HW1 7280   0.433   2.365   4.849
 2127SOL    HW2 7281   0.466   2.524   4.830
 2128SOL     OW 7282   5.311   2.928   1.465
 2128SOL    HW1 7283   5.261   3.013   1.481
 2128SOL    HW2 7284   5.356   2.932   1.376
 2129SOL     OW 7285   4.782   4.698   3.757
 2129SOL    HW1 7286   4.799   4.600   3.745
 2129SOL    HW2 7287   4.699   4.723   3.707
 2130SOL     OW 7288   2.300   1.027   2.757
 2130SOL    HW1 7289   2.206   0.998   2.776
 2130SOL    HW2 7290   2.357   0.946   2.745
 2131SOL     OW 7291   5.849   2.128   5.944
 2131SOL    HW1 7292   5.941   2.121   5.981
 2131SOL    HW2 7293   5.783   2.099   6.013
 2132SOL     OW 7294   2.904   2.317   6.808
 2132SOL    HW1 7295   2.965   2.391   6.781
 2132SOL    HW2 7296   2.830   2.309   6.741
 2133SOL     OW 7297   2.750   2.146   1.812
 2133SOL    HW1 7298   2.820   2.208   1.846
 2133SOL    HW2 7299   2.709   2.184   1.729
 2134SOL     OW 7300   0.922   6.431   4.655
 2134SOL    HW1 7301   0.989   6.480   4.600
 2134SOL    HW2 7302   0.834   6.430   4.608
 2135SOL     OW 7303   0.578   1.281   3.413
 2135SOL    HW1 7304   0.633   1.343   3.357
 2135SOL    HW2 7305   0.553   1.326   3.498
 2136SOL     OW 7306   0.602   4.183   3.531
 2136SOL    HW1 7307   0.518   4.164   3.582
 2136SOL    HW2 7308   0.667   4.108   3.545
 2137SOL     OW 7309   1.514   0.416   5.098
 2137SOL    HW1 7310   1.565   0.498   5.073
 2137SOL    HW2 7311   1.470   0.378   5.016
 2138SOL     OW 7312   0.617   2.537   0.506
 2138SOL    HW1 7313   0.607   2.633   0.478
 2138SOL    HW2 7314   0.673   2.488   0.440
 2139SOL     OW 7315   3.044   0.613   5.678
 2139SOL    HW1 7316   3.010   0.600   5.771
 2139SOL    HW2 7317   3.143   0.626   5.681
 2140SOL     OW 7318   2.487   5.651   3.301
 2140SOL    HW1 7319   2.454   5.558   3.289
 2140SOL    HW2 7320   2.586   5.652   3.293
 2141SOL     OW 7321   5.280   1.981   1.165
 2141SOL    HW1 7322   5.294   1.934   1.078
 2141SOL    HW2 7323   5.183   2.004   1.174
 2142SOL     OW 7324   2.249   2.302   3.446
 2142SOL    HW1 7325   2.327   2.265   3.396
 2142SOL    HW2 7326   2.280   2.346   3.530
 2143SOL     OW 7327   2.978   6.918   1.549
 2143SOL    HW1 7328   3.011   6.833   1.508
 2143SOL    HW2 7329   2.910   6.898   1.619
 2144SOL     OW 7330   0.735   1.049   3.443
 2144SOL    HW1 7331   0.699   0.958   3.421
 2144SOL    HW2 7332   0.669   1.119   3.414
 2145SOL     OW 7333   3.493   5.332   2.952
 2145SOL    HW1 7334   3.516   5.281   3.034
 2145SOL    HW2 7335   3.477   5.428   2.975
 2146SOL     OW 7336   3.975   3.184   3.111
 2146SOL    HW1 7337   3.932   3.141   3.190
 2146SOL    HW2 7338   3.953   3.132   3.028
 2147SOL     OW 7339   1.254   0.767   5.764
 2147SOL    HW1 7340   1.198   0.702   5.713
 2147SOL    HW2 7341   1.212   0.787   5.852
 2148SOL     OW 7342   4.944   3.371   2.817
 2148SOL    HW1 7343   5.017   3.392   2.753
 2148SOL    HW2 7344   4.886   3.298   2.779
 2149SOL     OW 7345   4.076   0.913   2.538
 2149SOL    HW1 7346   4.110   0.983   2.475
 2149SOL    HW2 7347   3.983   0.937   2.567
 2150SOL     OW 7348   2.910   2.245   3.500
 2150SOL    HW1 7349   2.891   2.307   3.575
 2150SOL    HW2 7350   2.976   2.176   3.529
 2151SOL     OW 7351   3.665   2.922   5.437
 2151SOL    HW1 7352   3.652   3.013   5.475
 2151SOL    HW2 7353   3.702   2.930   5.344
 2152SOL     OW 7354   6.150   5.970   1.816
 2152SOL    HW1 7355   6.165   5.885   1.866
 2152SOL    HW2 7356   6.112   6.039   1.878
 2153SOL     OW 7357   4.546   2.551   3.621
 2153SOL    HW1 7358   4.609   2.477   3.645
 2153SOL    HW2 7359   4.591   2.639   3.638
 2154SOL     OW 7360   3.498   6.165   5.029
 2154SOL    HW1 7361   3.581   6.218   5.047
 2154SOL    HW2 7362   3.466   6.185   4.936
 2155SOL     OW 7363   0.116   3.921   0.042
 2155SOL    HW1 7364   0.145   3.946   6.968
 2155SOL    HW2 7365   0.026   3.878   0.038
 2156SOL     OW 7366   1.849   0.508   2.137
 2156SOL    HW1 7367   1.944   0.540   2.130
 2156SOL    HW2 7368   1.787   0.583   2.114
 2157SOL     OW 7369   0.325   1.808   5.001
 2157SOL    HW1 7370   0.409   1.754   5.012
 2157SOL    HW2 7371   0.265   1.792   5.079
 2158SOL     OW 7372   3.320   6.750   1.624
 2158SOL    HW1 7373   3.257   6.770   1.548
 2158SOL    HW2 7374   3.371   6.833   1.646
 2159SOL     OW 7375   1.396   6.493   5.158
 2159SOL    HW1 7376   1.412   6.591   5.170
 2159SOL    HW2 7377   1.316   6.466   5.213
 2160SOL     OW 7378   3.071   3.838   1.243
 2160SOL    HW1 7379   3.049   3.872   1.151
 2160SOL    HW2 7380   3.006   3.767   1.269
 2161SOL     OW 7381   5.563   2.418   3.527
 2161SOL    HW1 7382   5.517   2.506   3.515
 2161SOL    HW2 7383   5.509   2.359   3.586
 2162SOL     OW 7384   0.964   0.405   6.597
 2162SOL    HW1 7385   0.882   0.371   6.642
 2162SOL    HW2 7386   1.035   0.423   6.665
 2163SOL     OW 7387   1.870   1.365   0.914
 2163SOL    HW1 7388   1.969   1.353   0.922
 2163SOL    HW2 7389   1.827   1.275   0.903
 2164SOL     OW 7390   1.267   1.159   6.975
 2164SOL    HW1 7391   1.301   1.131   0.047
 2164SOL    HW2 7392   1.344   1.170   6.912
 2165SOL     OW 7393   2.317   6.994   3.031
 2165SOL    HW1 7394   2.351   6.962   3.120
 2165SOL    HW2 7395   2.336   0.074   3.021
 2166SOL     OW 7396   0.332   2.503   6.317
 2166SOL    HW1 7397   0.275   2.583   6.334
 2166SOL    HW2 7398   0.401   2.495   6.389
 2167SOL     OW 7399   3.415   0.586   3.072
 2167SOL    HW1 7400   3.331   0.621   3.029
 2167SOL    HW2 7401   3.392   0.544   3.160
 2168SOL     OW 7402   5.789   4.741   4.721
 2168SOL    HW1 7403   5.775   4.653   4.676
 2168SOL    HW2 7404   5.841   4.802   4.660
 2169SOL     OW 7405   5.509   2.113   5.655
 2169SOL    HW1 7406   5.489   2.026   5.700
 2169SOL    HW2 7407   5.530   2.096   5.558
 2170SOL     OW 7408   4.152   5.102   4.610
 2170SOL    HW1 7409   4.123   5.006   4.604
 2170SOL    HW2 7410   4.093   5.158   4.552
 2171SOL     OW 7411   0.107   2.497   0.059
 2171SOL    HW1 7412   0.103   2.434   0.136
 2171SOL    HW2 7413   0.021   2.549   0.053
 2172SOL     OW 7414   3.333   0.335   0.845
 2172SOL    HW1 7415   3.362   0.420   0.800
 2172SOL    HW2 7416   3.408   0.269   0.843
 2173SOL     OW 7417   5.451   1.095   5.410
 2173SOL    HW1 7418   5.386   1.102   5.486
 2173SOL    HW2 7419   5.405   1.123   5.326
 2174SOL     OW 7420   0.192   5.684   4.757
 2174SOL    HW1 7421   0.261   5.656   4.691
 2174SOL    HW2 7422   0.173   5.608   4.820
 2175SOL     OW 7423   2.047   0.051   4.614
 2175SOL    HW1 7424   1.979   0.086   4.678
 2175SOL    HW2 7425   2.057   6.970   4.626
 2176SOL     OW 7426   1.664   2.904   3.082
 2176SOL    HW1 7427   1.617   2.828   3.038
 2176SOL    HW2 7428   1.675   2.885   3.180
 2177SOL     OW 7429   0.511   2.773   1.071
 2177SOL    HW1 7430   0.488   2.836   0.997
 2177SOL    HW2 7431   0.457   2.690   1.062
 2178SOL     OW 7432   0.448   4.457   0.131
 2178SOL    HW1 7433   0.351   4.432   0.123
 2178SOL    HW2 7434   0.467   4.489   0.224
 2179SOL     OW 7435   1.788   5.397   4.489
 2179SOL    HW1 7436   1.742   5.454   4.557
 2179SOL    HW2 7437   1.755   5.303   4.496
 2180SOL     OW 7438   3.649   2.913   2.413
 2180SOL    HW1 7439   3.617   3.001   2.448
 2180SOL    HW2 7440   3.682   2.925   2.319
 2181SOL     OW 7441   4.977   5.141   6.042
 2181SOL    HW1 7442   4.929   5.184   5.965
 2181SOL    HW2 7443   5.028   5.211   6.092
 2182SOL     OW 7444   6.701   3.299   6.241
 2182SOL    HW1 7445   6.719   3.202   6.260
 2182SOL    HW2 7446   6.760   3.330   6.167
 2183SOL     OW 7447   3.630   3.105   1.077
 2183SOL    HW1 7448   3.577   3.063   1.003
 2183SOL    HW2 7449   3.611   3.057   1.163
 2184SOL     OW 7450   3.561   2.754   6.466
 2184SOL    HW1 7451   3.611   2.758   6.553
 2184SOL    HW2 7452   3.462   2.755   6.484
 2185SOL     OW 7453   1.981   1.082   1.629
 2185SOL    HW1 7454   1.913   1.154   1.639
 2185SOL    HW2 7455   2.072   1.121   1.643
 2186SOL     OW 7456   0.554   6.337   3.302
 2186SOL    HW1 7457   0.505   6.386   3.375
 2186SOL    HW2 7458   0.515   6.362   3.213
 2187SOL     OW 7459   0.130   1.590   6.897
 2187SOL    HW1 7460   0.179   1.663   6.945
 2187SOL    HW2 7461   0.060   1.631   6.839
 2188SOL     OW 7462   5.735   0.051   3.139
 2188SOL    HW1 7463   5.697   0.138   3.168
 2188SOL    HW2 7464   5.749   0.052   3.040
 2189SOL     OW 7465   2.059   6.956   6.437
 2189SOL    HW1 7466   2.044   6.859   6.454
 2189SOL    HW2 7467   2.006   7.010   6.503
 2190SOL     OW 7468   5.374   1.868   1.736
 2190SOL    HW1 7469   5.279   1.866   1.703
 2190SOL    HW2 7470   5.379   1.825   1.826
 2191SOL     OW 7471   3.216   2.422   6.321
 2191SOL    HW1 7472   3.315   2.412   6.304
 2191SOL    HW2 7473   3.176   2.479   6.250
 2192SOL     OW 7474   4.702   5.804   4.991
 2192SOL    HW1 7475   4.766   5.736   4.957
 2192SOL    HW2 7476   4.736   5.896   4.968
 2193SOL     OW 7477   1.382   5.092   6.056
 2193SOL    HW1 7478   1.411   5.159   5.988
 2193SOL    HW2 7479   1.459   5.035   6.082
 2194SOL     OW 7480   2.433   0.611   1.429
 2194SOL    HW1 7481   2.371   0.656   1.364
 2194SOL    HW2 7482   2.380   0.577   1.507
 2195SOL     OW 7483   1.749   5.138   2.666
 2195SOL    HW1 7484   1.773   5.117   2.760
 2195SOL    HW2 7485   1.824   5.111   2.605
 2196SOL     OW 7486   3.239   1.922   6.147
 2196SOL    HW1 7487   3.177   1.939   6.070
 2196SOL    HW2 7488   3.334   1.928   6.116
 2197SOL     OW 7489   4.419   5.116   1.249
 2197SOL    HW1 7490   4.500   5.072   1.288
 2197SOL    HW2 7491   4.421   5.108   1.149
 2198SOL     OW 7492   6.777   3.624   0.464
 2198SOL    HW1 7493   6.707   3.620   0.536
 2198SOL    HW2 7494   6.868   3.634   0.507
 2199SOL     OW 7495   4.774   0.395   1.587
 2199SOL    HW1 7496   4.678   0.369   1.573
 2199SOL    HW2 7497   4.796   0.386   1.685
 2200SOL     OW 7498   3.028   0.764   4.673
 2200SOL    HW1 7499   3.079   0.841   4.712
 2200SOL    HW2 7500   2.961   0.799   4.607
 2201SOL     OW 7501   5.439   3.079   2.081
 2201SOL    HW1 7502   5.385   2.994   2.076
 2201SOL    HW2 7503   5.523   3.068   2.027
 2202SOL     OW 7504   4.575   6.177   3.993
 2202SOL    HW1 7505   4.592   6.080   4.013
 2202SOL    HW2 7506   4.633   6.205   3.917
 2203SOL     OW 7507   3.391   2.108   3.547
 2203SOL    HW1 7508   3.401   2.009   3.555
 2203SOL    HW2 7509   3.443   2.141   3.468
 2204SOL     OW 7510   3.530   2.509   0.427
 2204SOL    HW1 7511   3.431   2.524   0.430
 2204SOL    HW2 7512   3.559   2.502   0.332
 2205SOL     OW 7513   3.159   6.712   0.389
 2205SOL    HW1 7514   3.257   6.727   0.399
 2205SOL    HW2 7515   3.133   6.628   0.437
 2206SOL     OW 7516   2.049   3.013   6.759
 2206SOL    HW1 7517   2.079   2.997   6.853
 2206SOL    HW2 7518   2.043   3.112   6.744
 2207SOL     OW 7519   0.931   4.269   5.744
 2207SOL    HW1 7520   0.987   4.187   5.747
 2207SOL    HW2 7521   0.842   4.248   5.703
 2208SOL     OW 7522   0.375   4.169   1.917
 2208SOL    HW1 7523   0.443   4.242   1.912
 2208SOL    HW2 7524   0.392   4.102   1.845
 2209SOL     OW 7525   0.950   5.976   0.274
 2209SOL    HW1 7526   0.906   5.886   0.272
 2209SOL    HW2 7527   1.035   5.973   0.223
 2210SOL     OW 7528   0.380   5.586   4.285
 2210SOL    HW1 7529   0.363   5.673   4.238
 2210SOL    HW2 7530   0.330   5.513   4.237
 2211SOL     OW 7531   6.415   1.299   5.371
 2211SOL    HW1 7532   6.508   1.332   5.387
 2211SOL    HW2 7533   6.352   1.378   5.367
 2212SOL     OW 7534   1.482   0.198   6.298
 2212SOL    HW1 7535   1.503   0.140   6.376
 2212SOL    HW2 7536   1.557   0.263   6.283
 2213SOL     OW 7537   3.714   1.571   3.640
 2213SOL    HW1 7538   3.772   1.640   3.683
 2213SOL    HW2 7539   3.755   1.540   3.555
 2214SOL     OW 7540   4.513   6.979   4.062
 2214SOL    HW1 7541   4.500   0.052   4.100
 2214SOL    HW2 7542   4.596   6.938   4.100
 2215SOL     OW 7543   6.094   2.203   5.415
 2215SOL    HW1 7544   6.133   2.120   5.375
 2215SOL    HW2 7545   6.036   2.178   5.493
 2216SOL     OW 7546   1.976   6.880   1.647
 2216SOL    HW1 7547   1.991   6.838   1.736
 2216SOL    HW2 7548   1.949   6.811   1.581
 2217SOL     OW 7549   4.151   0.580   1.294
 2217SOL    HW1 7550   4.210   0.659   1.311
 2217SOL    HW2 7551   4.060   0.598   1.332
 2218SOL     OW 7552   0.961   5.532   0.783
 2218SOL    HW1 7553   0.886   5.597   0.791
 2218SOL    HW2 7554   0.926   5.442   0.758
 2219SOL     OW 7555   1.457   4.117   3.698
 2219SOL    HW1 7556   1.522   4.177   3.745
 2219SOL    HW2 7557   1.480   4.113   3.601
 2220SOL     OW 7558   0.518   0.901   6.961
 2220SOL    HW1 7559   0.608   0.928   6.926
 2220SOL    HW2 7560   0.528   0.863   0.035
 2221SOL     OW 7561   6.625   2.523   1.228
 2221SOL    HW1 7562   6.673   2.507   1.314
 2221SOL    HW2 7563   6.526   2.514   1.243
 2222SOL     OW 7564   5.001   6.364   2.497
 2222SOL    HW1 7565   5.032   6.458   2.483
 2222SOL    HW2 7566   4.911   6.365   2.539
 2223SOL     OW 7567   5.614   5.698   2.151
 2223SOL    HW1 7568   5.549   5.699   2.227
 2223SOL    HW2 7569   5.565   5.717   2.066
 2224SOL     OW 7570   1.432   4.501   0.870
 2224SOL    HW1 7571   1.491   4.449   0.932
 2224SOL    HW2 7572   1.432   4.598   0.897
 2225SOL     OW 7573   6.205   4.689   1.945
 2225SOL    HW1 7574   6.177   4.676   1.850
 2225SOL    HW2 7575   6.303   4.674   1.953
 2226SOL     OW 7576   4.254   4.093   1.339
 2226SOL    HW1 7577   4.342   4.082   1.386
 2226SOL    HW2 7578   4.185   4.124   1.405
 2227SOL     OW 7579   0.215   4.286   4.742
 2227SOL    HW1 7580   0.270   4.353   4.693
 2227SOL    HW2 7581   0.172   4.223   4.677
 2228SOL     OW 7582   3.209   5.134   5.695
 2228SOL    HW1 7583   3.277   5.080   5.744
 2228SOL    HW2 7584   3.177   5.208   5.754
 2229SOL     OW 7585   5.153   0.483   3.374
 2229SOL    HW1 7586   5.076   0.424   3.401
 2229SOL    HW2 7587   5.218   0.489   3.450
 2230SOL     OW 7588   1.215   5.882   0.380
 2230SOL    HW1 7589   1.132   5.828   0.369
 2230SOL    HW2 7590   1.286   5.847   0.320
 2231SOL     OW 7591   2.775   6.771   1.684
 2231SOL    HW1 7592   2.718   6.738   1.760
 2231SOL    HW2 7593   2.786   6.697   1.617
 2232SOL     OW 7594   6.449   2.789   2.997
 2232SOL    HW1 7595   6.443   2.703   3.049
 2232SOL    HW2 7596   6.534   2.836   3.022
 2233SOL     OW 7597   4.223   0.600   0.063
 2233SOL    HW1 7598   4.150   0.532   0.061
 2233SOL    HW2 7599   4.194   0.682   0.014
 2234SOL     OW 7600   3.230   1.435   0.828
 2234SOL    HW1 7601   3.296   1.440   0.904
 2234SOL    HW2 7602   3.279   1.445   0.741
 2235SOL     OW 7603   1.706   6.928   1.214
 2235SOL    HW1 7604   1.737   7.013   1.172
 2235SOL    HW2 7605   1.653   6.875   1.148
 2236SOL     OW 7606   0.132   4.174   1.203
 2236SOL    HW1 7607   0.113   4.080   1.229
 2236SOL    HW2 7608   0.113   4.235   1.279
 2237SOL     OW 7609   6.306   2.488   3.966
 2237SOL    HW1 7610   6.297   2.407   4.023
 2237SOL    HW2 7611   6.254   2.563   4.008
 2238SOL     OW 7612   1.203   5.951   2.101
 2238SOL    HW1 7613   1.301   5.930   2.111
 2238SOL    HW2 7614   1.190   6.009   2.021
 2239SOL     OW 7615   4.307   5.418   3.071
 2239SOL    HW1 7616   4.333   5.354   2.998
 2239SOL    HW2 7617   4.322   5.374   3.160
 2240SOL     OW 7618   5.653   4.053   2.112
 2240SOL    HW1 7619   5.588   4.124   2.141
 2240SOL    HW2 7620   5.626   4.018   2.023
 2241SOL     OW 7621   0.643   0.500   2.317
 2241SOL    HW1 7622   0.641   0.599   2.325
 2241SOL    HW2 7623   0.572   0.460   2.376
 2242SOL     OW 7624   5.225   2.219   2.347
 2242SOL    HW1 7625   5.166   2.138   2.344
 2242SOL    HW2 7626   5.189   2.289   2.285
 2243SOL     OW 7627   2.302   6.356   5.419
 2243SOL    HW1 7628   2.380   6.408   5.455
 2243SOL    HW2 7629   2.240   6.419   5.372
 2244SOL     OW 7630   2.906   0.492   5.245
 2244SOL    HW1 7631   2.852   0.419   5.287
 2244SOL    HW2 7632   3.003   0.466   5.244
 2245SOL     OW 7633   1.619   1.126   1.741
 2245SOL    HW1 7634   1.657   1.034   1.732
 2245SOL    HW2 7635   1.641   1.179   1.659
 2246SOL     OW 7636   1.362   3.414   5.545
 2246SOL    HW1 7637   1.458   3.435   5.527
 2246SOL    HW2 7638   1.305   3.491   5.518
 2247SOL     OW 7639   1.694   2.088   5.970
 2247SOL    HW1 7640   1.772   2.060   6.026
 2247SOL    HW2 7641   1.612   2.097   6.027
 2248SOL     OW 7642   5.248   3.166   5.120
 2248SOL    HW1 7643   5.206   3.102   5.184
 2248SOL    HW2 7644   5.279   3.247   5.168
 2249SOL     OW 7645   4.900   5.166   4.378
 2249SOL    HW1 7646   4.951   5.242   4.337
 2249SOL    HW2 7647   4.964   5.102   4.420
 2250SOL     OW 7648   6.348   4.281   6.669
 2250SOL    HW1 7649   6.388   4.222   6.740
 2250SOL    HW2 7650   6.371   4.376   6.689
 2251SOL     OW 7651   6.129   0.707   6.856
 2251SOL    HW1 7652   6.116   0.727   6.759
 2251SOL    HW2 7653   6.207   0.759   6.891
 2252SOL     OW 7654   4.131   1.863   5.606
 2252SOL    HW1 7655   4.187   1.947   5.608
 2252SOL    HW2 7656   4.073   1.860   5.687
 2253SOL     OW 7657   2.042   3.281   6.690
 2253SOL    HW1 7658   2.030   3.371   6.646
 2253SOL    HW2 7659   2.037   3.292   6.789
 2254SOL     OW 7660   1.871   3.580   6.727
 2254SOL    HW1 7661   1.863   3.523   6.808
 2254SOL    HW2 7662   1.833   3.670   6.745
 2255SOL     OW 7663   5.816   2.869   1.363
 2255SOL    HW1 7664   5.873   2.852   1.282
 2255SOL    HW2 7665   5.755   2.791   1.378
 2256SOL     OW 7666   4.192   5.031   1.869
 2256SOL    HW1 7667   4.140   4.989   1.796
 2256SOL    HW2 7668   4.134   5.041   1.950
 2257SOL     OW 7669   2.267   4.261   4.124
 2257SOL    HW1 7670   2.246   4.164   4.108
 2257SOL    HW2 7671   2.329   4.293   4.052
 2258SOL     OW 7672   1.418   5.522   4.131
 2258SOL    HW1 7673   1.516   5.537   4.116
 2258SOL    HW2 7674   1.398   5.525   4.228
 2259SOL     OW 7675   6.049   3.057   6.561
 2259SOL    HW1 7676   6.028   3.130   6.496
 2259SOL    HW2 7677   5.985   2.981   6.548
 2260SOL     OW 7678   5.780   5.031   0.841
 2260SOL    HW1 7679   5.797   5.049   0.938
 2260SOL    HW2 7680   5.684   5.004   0.829
 2261SOL     OW 7681   4.856   6.142   6.592
 2261SOL    HW1 7682   4.955   6.143   6.580
 2261SOL    HW2 7683   4.812   6.150   6.502
 2262SOL     OW 7684   4.393   1.827   3.016
 2262SOL    HW1 7685   4.457   1.769   2.966
 2262SOL    HW2 7686   4.428   1.844   3.108
 2263SOL     OW 7687   0.130   5.318   6.434
 2263SOL    HW1 7688   0.207   5.255   6.447
 2263SOL    HW2 7689   0.157   5.410   6.462
 2264SOL     OW 7690   3.818   4.066   4.081
 2264SOL    HW1 7691   3.826   4.151   4.029
 2264SOL    HW2 7692   3.742   4.073   4.146
 2265SOL     OW 7693   0.367   0.684   1.714
 2265SOL    HW1 7694   0.375   0.631   1.630
 2265SOL    HW2 7695   0.369   0.623   1.793
 2266SOL     OW 7696   6.109   6.772   1.033
 2266SOL    HW1 7697   6.080   6.824   1.114
 2266SOL    HW2 7698   6.204   6.744   1.044
 2267SOL     OW 7699   6.117   2.515   5.613
 2267SOL    HW1 7700   6.018   2.503   5.609
 2267SOL    HW2 7701   6.160   2.433   5.651
 2268SOL     OW 7702   6.399   5.506   0.397
 2268SOL    HW1 7703   6.363   5.542   0.483
 2268SOL    HW2 7704   6.326   5.507   0.328
 2269SOL     OW 7705   6.872   5.409   5.203
 2269SOL    HW1 7706   6.913   5.410   5.294
 2269SOL    HW2 7707   6.942   5.427   5.134
 2270SOL     OW 7708   4.127   3.696   1.891
 2270SOL    HW1 7709   4.135   3.705   1.990
 2270SOL    HW2 7710   4.166   3.609   1.862
 2271SOL     OW 7711   6.453   4.367   2.848
 2271SOL    HW1 7712   6.470   4.453   2.801
 2271SOL    HW2 7713   6.359   4.337   2.830
 2272SOL     OW 7714   5.707   1.859   6.459
 2272SOL    HW1 7715   5.791   1.913   6.462
 2272SOL    HW2 7716   5.643   1.892   6.527
 2273SOL     OW 7717   1.761   1.441   3.378
 2273SOL    HW1 7718   1.837   1.491   3.335
 2273SOL    HW2 7719   1.681   1.445   3.318
 2274SOL     OW 7720   2.040   3.429   4.066
 2274SOL    HW1 7721   2.007   3.497   4.000
 2274SOL    HW2 7722   1.996   3.444   4.154
 2275SOL     OW 7723   5.046   6.299   3.469
 2275SOL    HW1 7724   5.052   6.232   3.543
 2275SOL    HW2 7725   5.111   6.276   3.397
 2276SOL     OW 7726   4.950   4.777   1.512
 2276SOL    HW1 7727   4.998   4.694   1.542
 2276SOL    HW2 7728   5.014   4.853   1.510
 2277SOL     OW 7729   3.056   3.856   0.089
 2277SOL    HW1 7730   3.038   3.953   0.078
 2277SOL    HW2 7731   3.009   3.823   0.171
 2278SOL     OW 7732   5.769   6.498   1.188
 2278SOL    HW1 7733   5.764   6.403   1.218
 2278SOL    HW2 7734   5.858   6.536   1.209
 2279SOL     OW 7735   5.656   4.238   4.612
 2279SOL    HW1 7736   5.645   4.204   4.706
 2279SOL    HW2 7737   5.566   4.259   4.574
 2280SOL     OW 7738   5.845   6.539   6.046
 2280SOL    HW1 7739   5.922   6.477   6.036
 2280SOL    HW2 7740   5.875   6.623   6.093
 2281SOL     OW 7741   3.939   2.900   0.926
 2281SOL    HW1 7742   3.911   2.813   0.886
 2281SOL    HW2 7743   3.924   2.973   0.859
 2282SOL     OW 7744   3.771   5.335   2.906
 2282SOL    HW1 7745   3.676   5.354   2.881
 2282SOL    HW2 7746   3.811   5.416   2.950
 2283SOL     OW 7747   6.623   3.730   3.296
 2283SOL    HW1 7748   6.678   3.773   3.224
 2283SOL    HW2 7749   6.546   3.682   3.254
 2284SOL     OW 7750   2.031   2.546   2.329
 2284SOL    HW1 7751   2.086   2.464   2.312
 2284SOL    HW2 7752   2.082   2.627   2.301
 2285SOL     OW 7753   2.220   4.576   0.401
 2285SOL    HW1 7754   2.277   4.658   0.410
 2285SOL    HW2 7755   2.258   4.503   0.458
 2286SOL     OW 7756   5.995   6.685   4.394
 2286SOL    HW1 7757   6.059   6.685   4.472
 2286SOL    HW2 7758   6.047   6.685   4.309
 2287SOL     OW 7759   2.241   2.829   1.963
 2287SOL    HW1 7760   2.161   2.871   2.006
 2287SOL    HW2 7761   2.272   2.886   1.887
 2288SOL     OW 7762   0.172   6.582   4.098
 2288SOL    HW1 7763   0.191   6.660   4.158
 2288SOL    HW2 7764   0.100   6.526   4.139
 2289SOL     OW 7765   4.870   2.842   1.204
 2289SOL    HW1 7766   4.904   2.862   1.295
 2289SOL    HW2 7767   4.814   2.758   1.207
 2290SOL     OW 7768   3.311   3.025   3.152
 2290SOL    HW1 7769   3.213   3.021   3.128
 2290SOL    HW2 7770   3.320   3.045   3.249
 2291SOL     OW 7771   1.871   2.681   0.287
 2291SOL    HW1 7772   1.833   2.589   0.297
 2291SOL    HW2 7773   1.819   2.731   0.218
 2292SOL     OW 7774   4.386   2.280   2.753
 2292SOL    HW1 7775   4.326   2.335   2.812
 2292SOL    HW2 7776   4.366   2.183   2.768
 2293SOL     OW 7777   6.305   1.136   6.945
 2293SOL    HW1 7778   6.212   1.154   6.976
 2293SOL    HW2 7779   6.312   1.152   6.847
 2294SOL     OW 7780   0.484   1.620   5.899
 2294SOL    HW1 7781   0.391   1.584   5.896
 2294SOL    HW2 7782   0.526   1.615   5.809
 2295SOL     OW 7783   6.163   6.213   1.368
 2295SOL    HW1 7784   6.108   6.210   1.284
 2295SOL    HW2 7785   6.258   6.231   1.344
 2296SOL     OW 7786   2.893   5.345   4.252
 2296SOL    HW1 7787   2.964   5.409   4.223
 2296SOL    HW2 7788   2.898   5.333   4.352
 2297SOL     OW 7789   4.320   4.301   5.334
 2297SOL    HW1 7790   4.312   4.361   5.254
 2297SOL    HW2 7791   4.261   4.221   5.322
 2298SOL     OW 7792   4.119   3.507   4.463
 2298SOL    HW1 7793   4.161   3.448   4.394
 2298SOL    HW2 7794   4.093   3.452   4.542
 2299SOL     OW 7795   5.380   3.356   4.790
 2299SOL    HW1 7796   5.295   3.373   4.741
 2299SOL    HW2 7797   5.403   3.259   4.785
 2300SOL     OW 7798   4.366   6.363   2.321
 2300SOL    HW1 7799   4.290   6.297   2.321
 2300SOL    HW2 7800   4.375   6.404   2.411
 2301SOL     OW 7801   3.984   3.114   4.181
 2301SOL    HW1 7802   4.040   3.195   4.169
 2301SOL    HW2 7803   3.904   3.120   4.121
 2302SOL     OW 7804   3.889   2.171   0.315
 2302SOL    HW1 7805   3.855   2.167   0.409
 2302SOL    HW2 7806   3.962   2.104   0.303
 2303SOL     OW 7807   3.965   2.379   0.137
 2303SOL    HW1 7808   3.881   2.366   0.083
 2303SOL    HW2 7809   3.958   2.326   0.221
 2304SOL     OW 7810   5.475   5.680   1.897
 2304SOL    HW1 7811   5.492   5.586   1.867
 2304SOL    HW2 7812   5.501   5.743   1.824
 2305SOL     OW 7813   2.260   1.020   5.408
 2305SOL    HW1 7814   2.251   0.975   5.497
 2305SOL    HW2 7815   2.169   1.034   5.369
 2306SOL     OW 7816   1.670   5.440   4.005
 2306SOL    HW1 7817   1.730   5.450   3.925
 2306SOL    HW2 7818   1.615   5.357   3.995
 2307SOL     OW 7819   0.143   3.079   6.018
 2307SOL    HW1 7820   0.187   3.168   6.028
 2307SOL    HW2 7821   0.176   3.017   6.089
 2308SOL     OW 7822   2.448   4.795   1.812
 2308SOL    HW1 7823   2.422   4.701   1.792
 2308SOL    HW2 7824   2.458   4.807   1.911
 2309SOL     OW 7825   1.925   6.595   5.372
 2309SOL    HW1 7826   1.929   6.509   5.423
 2309SOL    HW2 7827   1.984   6.588   5.291
 2310SOL     OW 7828   4.478   6.430   1.601
 2310SOL    HW1 7829   4.476   6.406   1.503
 2310SOL    HW2 7830   4.569   6.465   1.624
 2311SOL     OW 7831   2.634   6.003   1.539
 2311SOL    HW1 7832   2.643   6.066   1.462
 2311SOL    HW2 7833   2.583   5.922   1.511
 2312SOL     OW 7834   3.012   4.855   2.728
 2312SOL    HW1 7835   2.998   4.861   2.827
 2312SOL    HW2 7836   3.110   4.850   2.709
 2313SOL     OW 7837   4.175   5.810   1.843
 2313SOL    HW1 7838   4.250   5.826   1.780
 2313SOL    HW2 7839   4.120   5.893   1.852
 2314SOL     OW 7840   2.647   5.668   4.308
 2314SOL    HW1 7841   2.643   5.599   4.236
 2314SOL    HW2 7842   2.557   5.678   4.350
 2315SOL     OW 7843   4.575   3.019   6.661
 2315SOL    HW1 7844   4.565   2.958   6.740
 2315SOL    HW2 7845   4.495   3.010   6.602
 2316SOL     OW 7846   5.408   3.106   2.916
 2316SOL    HW1 7847   5.419   3.148   3.007
 2316SOL    HW2 7848   5.313   3.120   2.886
 2317SOL     OW 7849   0.919   5.215   3.676
 2317SOL    HW1 7850   0.833   5.181   3.637
 2317SOL    HW2 7851   0.996   5.167   3.634
 2318SOL     OW 7852   6.819   1.651   3.396
 2318SOL    HW1 7853   6.829   1.581   3.466
 2318SOL    HW2 7854   6.902   1.707   3.392
 2319SOL     OW 7855   1.005   4.296   4.385
 2319SOL    HW1 7856   1.029   4.365   4.454
 2319SOL    HW2 7857   0.927   4.243   4.417
 2320SOL     OW 7858   6.356   4.121   4.611
 2320SOL    HW1 7859   6.389   4.030   4.636
 2320SOL    HW2 7860   6.274   4.112   4.554
 2321SOL     OW 7861   2.890   6.474   5.354
 2321SOL    HW1 7862   2.951   6.399   5.330
 2321SOL    HW2 7863   2.934   6.531   5.424
 2322SOL     OW 7864   2.560   6.959   5.859
 2322SOL    HW1 7865   2.651   6.986   5.889
 2322SOL    HW2 7866   2.548   6.861   5.875
 2323SOL     OW 7867   4.798   5.128   2.280
 2323SOL    HW1 7868   4.760   5.175   2.361
 2323SOL    HW2 7869   4.889   5.095   2.301
 2324SOL     OW 7870   6.430   5.442   3.383
 2324SOL    HW1 7871   6.391   5.448   3.291
 2324SOL    HW2 7872   6.524   5.409   3.378
 2325SOL     OW 7873   7.017   3.726   0.545
 2325SOL    HW1 7874   0.032   3.762   0.458
 2325SOL    HW2 7875   0.068   3.667   0.585
 2326SOL     OW 7876   1.715   5.159   0.010
 2326SOL    HW1 7877   1.719   5.221   0.088
 2326SOL    HW2 7878   1.740   5.067   0.040
 2327SOL     OW 7879   4.991   2.693   4.985
 2327SOL    HW1 7880   4.968   2.687   4.888
 2327SOL    HW2 7881   4.985   2.602   5.026
 2328SOL     OW 7882   4.841   6.469   3.454
 2328SOL    HW1 7883   4.907   6.394   3.451
 2328SOL    HW2 7884   4.849   6.524   3.371
 2329SOL     OW 7885   0.234   5.886   3.669
 2329SOL    HW1 7886   0.319   5.903   3.619
 2329SOL    HW2 7887   0.224   5.954   3.742
 2330SOL     OW 7888   0.351   4.160   2.808
 2330SOL    HW1 7889   0.270   4.103   2.795
 2330SOL    HW2 7890   0.426   4.104   2.844
 2331SOL     OW 7891   0.886   4.450   5.398
 2331SOL    HW1 7892   0.969   4.461   5.453
 2331SOL    HW2 7893   0.817   4.516   5.428
 2332SOL     OW 7894   5.282   2.294   5.172
 2332SOL    HW1 7895   5.189   2.326   5.192
 2332SOL    HW2 7896   5.302   2.306   5.075
 2333SOL     OW 7897   0.977   5.671   4.282
 2333SOL    HW1 7898   0.908   5.717   4.337
 2333SOL    HW2 7899   1.042   5.738   4.247
 2334SOL     OW 7900   3.014   0.077   0.385
 2334SOL    HW1 7901   2.991   7.006   0.423
 2334SOL    HW2 7902   2.943   0.143   0.408
 2335SOL     OW 7903   5.164   6.493   3.761
 2335SOL    HW1 7904   5.122   6.425   3.820
 2335SOL    HW2 7905   5.185   6.575   3.814
 2336SOL     OW 7906   4.745   1.610   6.077
 2336SOL    HW1 7907   4.654   1.646   6.060
 2336SOL    HW2 7908   4.738   1.517   6.113
 2337SOL     OW 7909   5.645   0.482   2.634
 2337SOL    HW1 7910   5.552   0.454   2.657
 2337SOL    HW2 7911   5.676   0.434   2.552
 2338SOL     OW 7912   0.998   6.706   6.409
 2338SOL    HW1 7913   1.080   6.741   6.365
 2338SOL    HW2 7914   1.023   6.639   6.479
 2339SOL     OW 7915   3.579   4.536   0.051
 2339SOL    HW1 7916   3.515   4.461   0.040
 2339SOL    HW2 7917   3.601   4.575   6.980
 2340SOL     OW 7918   3.259   4.870   4.959
 2340SOL    HW1 7919   3.246   4.821   5.045
 2340SOL    HW2 7920   3.221   4.962   4.967
 2341SOL     OW 7921   5.839   5.261   6.992
 2341SOL    HW1 7922   5.805   5.275   0.067
 2341SOL    HW2 7923   5.935   5.288   6.986
 2342SOL     OW 7924   6.700   0.450   5.758
 2342SOL    HW1 7925   6.772   0.473   5.824
 2342SOL    HW2 7926   6.728   0.370   5.705
 2343SOL     OW 7927   1.352   6.797   0.833
 2343SOL    HW1 7928   1.323   6.701   0.832
 2343SOL    HW2 7929   1.275   6.855   0.860
 2344SOL     OW 7930   1.875   2.193   2.486
 2344SOL    HW1 7931   1.960   2.141   2.480
 2344SOL    HW2 7932   1.835   2.203   2.394
 2345SOL     OW 7933   2.161   1.795   4.269
 2345SOL    HW1 7934   2.071   1.824   4.304
 2345SOL    HW2 7935   2.230   1.808   4.341
 2346SOL     OW 7936   4.691   3.496   5.775
 2346SOL    HW1 7937   4.617   3.556   5.749
 2346SOL    HW2 7938   4.655   3.406   5.798
 2347SOL     OW 7939   1.354   3.214   1.526
 2347SOL    HW1 7940   1.350   3.280   1.451
 2347SOL    HW2 7941   1.300   3.248   1.603
 2348SOL     OW 7942   2.701   6.667   1.935
 2348SOL    HW1 7943   2.671   6.586   1.985
 2348SOL    HW2 7944   2.799   6.680   1.947
 2349SOL     OW 7945   5.366   5.373   5.890
 2349SOL    HW1 7946   5.447   5.431   5.900
 2349SOL    HW2 7947   5.315   5.371   5.976
 2350SOL     OW 7948   2.592   6.715   5.305
 2350SOL    HW1 7949   2.616   6.618   5.307
 2350SOL    HW2 7950   2.559   6.743   5.395
 2351SOL     OW 7951   2.145   5.308   4.644
 2351SOL    HW1 7952   2.054   5.306   4.687
 2351SOL    HW2 7953   2.153   5.390   4.587
 2352SOL     OW 7954   0.500   3.444   2.272
 2352SOL    HW1 7955   0.443   3.363   2.262
 2352SOL    HW2 7956   0.445   3.526   2.260
 2353SOL     OW 7957   2.795   3.941   6.379
 2353SOL    HW1 7958   2.756   3.953   6.470
 2353SOL    HW2 7959   2.724   3.959   6.310
 2354SOL     OW 7960   4.332   2.322   0.465
 2354SOL    HW1 7961   4.359   2.391   0.531
 2354SOL    HW2 7962   4.247   2.278   0.495
 2355SOL     OW 7963   0.500   6.740   0.823
 2355SOL    HW1 7964   0.548   6.670   0.770
 2355SOL    HW2 7965   0.500   6.826   0.772
 2356SOL     OW 7966   2.867   5.161   3.373
 2356SOL    HW1 7967   2.963   5.146   3.351
 2356SOL    HW2 7968   2.838   5.097   3.444
 2357SOL     OW 7969   6.554   4.602   1.478
 2357SOL    HW1 7970   6.522   4.597   1.573
 2357SOL    HW2 7971   6.620   4.529   1.461
 2358SOL     OW 7972   4.116   1.385   5.722
 2358SOL    HW1 7973   4.056   1.461   5.746
 2358SOL    HW2 7974   4.150   1.398   5.629
 2359SOL     OW 7975   1.301   1.244   5.774
 2359SOL    HW1 7976   1.370   1.301   5.820
 2359SOL    HW2 7977   1.312   1.149   5.803
 2360SOL     OW 7978   4.312   4.335   0.658
 2360SOL    HW1 7979   4.371   4.416   0.657
 2360SOL    HW2 7980   4.304   4.301   0.752
 2361SOL     OW 7981   3.939   6.102   1.440
 2361SOL    HW1 7982   3.855   6.156   1.450
 2361SOL    HW2 7983   3.975   6.113   1.347
 2362SOL     OW 7984   4.123   6.288   3.957
 2362SOL    HW1 7985   4.027   6.313   3.945
 2362SOL    HW2 7986   4.143   6.280   4.055
 2363SOL     OW 7987   2.947   3.842   0.599
 2363SOL    HW1 7988   2.933   3.920   0.659
 2363SOL    HW2 7989   2.951   3.758   0.654
 2364SOL     OW 7990   4.160   1.598   2.350
 2364SOL    HW1 7991   4.091   1.578   2.280
 2364SOL    HW2 7992   4.236   1.648   2.309
 2365SOL     OW 7993   4.863   3.191   3.548
 2365SOL    HW1 7994   4.910   3.134   3.480
 2365SOL    HW2 7995   4.767   3.164   3.552
 2366SOL     OW 7996   2.650   4.754   5.136
 2366SOL    HW1 7997   2.573   4.723   5.080
 2366SOL    HW2 7998   2.732   4.703   5.110
 2367SOL     OW 7999   0.005   4.454   5.423
 2367SOL    HW1 8000   0.038   4.444   5.329
 2367SOL    HW2 8001   0.070   4.410   5.486
 2368SOL     OW 8002   5.414   6.309   4.114
 2368SOL    HW1 8003   5.325   6.266   4.099
 2368SOL    HW2 8004   5.481   6.239   4.139
 2369SOL     OW 8005   3.054   1.884   4.442
 2369SOL    HW1 8006   3.023   1.891   4.536
 2369SOL    HW2 8007   3.089   1.791   4.425
 2370SOL     OW 8008   5.377   2.951   1.169
 2370SOL    HW1 8009   5.391   2.853   1.185
 2370SOL    HW2 8010   5.465   2.996   1.158
 2371SOL     OW 8011   0.903   6.681   3.096
 2371SOL    HW1 8012   0.998   6.655   3.116
 2371SOL    HW2 8013   0.877   6.644   3.007
 2372SOL     OW 8014   6.214   1.116   6.062
 2372SOL    HW1 8015   6.259   1.151   5.981
 2372SOL    HW2 8016   6.279   1.063   6.116
 2373SOL     OW 8017   5.748   5.826   6.014
 2373SOL    HW1 8018   5.697   5.886   6.076
 2373SOL    HW2 8019   5.777   5.877   5.934
 2374SOL     OW 8020   6.035   6.204   1.953
 2374SOL    HW1 8021   6.107   6.231   2.017
 2374SOL    HW2 8022   6.024   6.276   1.884
 2375SOL     OW 8023   1.057   0.409   4.297
 2375SOL    HW1 8024   1.034   0.313   4.284
 2375SOL    HW2 8025   1.147   0.416   4.339
 2376SOL     OW 8026   5.743   1.506   3.242
 2376SOL    HW1 8027   5.791   1.526   3.156
 2376SOL    HW2 8028   5.791   1.434   3.291
 2377SOL     OW 8029   4.743   5.087   5.575
 2377SOL    HW1 8030   4.666   5.026   5.594
 2377SOL    HW2 8031   4.713   5.161   5.515
 2378SOL     OW 8032   6.854   1.061   0.625
 2378SOL    HW1 8033   6.898   1.131   0.681
 2378SOL    HW2 8034   6.872   1.081   0.528
 2379SOL     OW 8035   0.258   5.065   0.996
 2379SOL    HW1 8036   0.355   5.064   1.017
 2379SOL    HW2 8037   0.210   5.125   1.060
 2380SOL     OW 8038   4.876   4.796   4.927
 2380SOL    HW1 8039   4.975   4.799   4.935
 2380SOL    HW2 8040   4.850   4.777   4.832
 2381SOL     OW 8041   2.593   4.884   4.833
 2381SOL    HW1 8042   2.577   4.878   4.734
 2381SOL    HW2 8043   2.521   4.834   4.881
 2382SOL     OW 8044   0.973   5.852   2.471
 2382SOL    HW1 8045   0.910   5.910   2.523
 2382SOL    HW2 8046   0.989   5.767   2.521
 2383SOL     OW 8047   5.216   5.572   4.940
 2383SOL    HW1 8048   5.277   5.553   5.017
 2383SOL    HW2 8049   5.141   5.631   4.970
 2384SOL     OW 8050   0.771   1.784   2.314
 2384SOL    HW1 8051   0.790   1.686   2.303
 2384SOL    HW2 8052   0.680   1.797   2.354
 2385SOL     OW 8053   0.811   2.168   1.200
 2385SOL    HW1 8054   0.850   2.102   1.136
 2385SOL    HW2 8055   0.797   2.255   1.153
 2386SOL     OW 8056   4.632   5.944   4.424
 2386SOL    HW1 8057   4.656   6.009   4.352
 2386SOL    HW2 8058   4.616   5.854   4.383
 2387SOL     OW 8059   1.461   1.746   4.091
 2387SOL    HW1 8060   1.369   1.744   4.053
 2387SOL    HW2 8061   1.507   1.830   4.064
 2388SOL     OW 8062   6.925   1.856   5.553
 2388SOL    HW1 8063   6.911   1.775   5.496
 2388SOL    HW2 8064   6.890   1.936   5.505
 2389SOL     OW 8065   5.375   4.498   4.230
 2389SOL    HW1 8066   5.428   4.541   4.304
 2389SOL    HW2 8067   5.292   4.551   4.214
 2390SOL     OW 8068   4.176   3.989   5.748
 2390SOL    HW1 8069   4.171   4.080   5.790
 2390SOL    HW2 8070   4.159   3.919   5.817
 2391SOL     OW 8071   3.584   4.106   6.066
 2391SOL    HW1 8072   3.533   4.179   6.113
 2391SOL    HW2 8073   3.629   4.144   5.985
 2392SOL     OW 8074   3.906   5.291   5.776
 2392SOL    HW1 8075   3.839   5.302   5.702
 2392SOL    HW2 8076   3.871   5.334   5.859
 2393SOL     OW 8077   3.028   5.494   1.801
 2393SOL    HW1 8078   3.056   5.589   1.816
 2393SOL    HW2 8079   3.105   5.433   1.821
 2394SOL     OW 8080   1.116   2.770   3.419
 2394SOL    HW1 8081   1.152   2.780   3.512
 2394SOL    HW2 8082   1.130   2.676   3.388
 2395SOL     OW 8083   0.080   1.910   4.330
 2395SOL    HW1 8084   0.178   1.904   4.346
 2395SOL    HW2 8085   0.063   1.940   4.236
 2396SOL     OW 8086   6.882   0.963   5.336
 2396SOL    HW1 8087   6.896   1.009   5.249
 2396SOL    HW2 8088   6.850   1.028   5.404
 2397SOL     OW 8089   0.385   4.709   5.364
 2397SOL    HW1 8090   0.397   4.782   5.431
 2397SOL    HW2 8091   0.403   4.620   5.407
 2398SOL     OW 8092   2.916   6.085   3.184
 2398SOL    HW1 8093   3.000   6.136   3.167
 2398SOL    HW2 8094   2.840   6.148   3.196
 2399SOL     OW 8095   2.665   2.397   4.197
 2399SOL    HW1 8096   2.689   2.424   4.291
 2399SOL    HW2 8097   2.581   2.343   4.198
 2400SOL     OW 8098   0.741   4.407   0.806
 2400SOL    HW1 8099   0.711   4.314   0.788
 2400SOL    HW2 8100   0.836   4.419   0.778
 2401SOL     OW 8101   3.629   6.759   5.792
 2401SOL    HW1 8102   3.609   6.847   5.748
 2401SOL    HW2 8103   3.650   6.691   5.721
 2402SOL     OW 8104   1.189   4.650   2.248
 2402SOL    HW1 8105   1.270   4.674   2.301
 2402SOL    HW2 8106   1.213   4.643   2.152
 2403SOL     OW 8107   3.727   3.867   2.889
 2403SOL    HW1 8108   3.816   3.880   2.845
 2403SOL    HW2 8109   3.655   3.870   2.819
 2404SOL     OW 8110   6.059   1.800   0.939
 2404SOL    HW1 8111   6.111   1.769   0.860
 2404SOL    HW2 8112   6.096   1.760   1.022
 2405SOL     OW 8113   2.110   3.443   0.813
 2405SOL    HW1 8114   2.141   3.493   0.732
 2405SOL    HW2 8115   2.063   3.506   0.875
 2406SOL     OW 8116   2.330   6.495   4.678
 2406SOL    HW1 8117   2.287   6.551   4.748
 2406SOL    HW2 8118   2.422   6.528   4.661
 2407SOL     OW 8119   3.468   1.389   3.644
 2407SOL    HW1 8120   3.377   1.428   3.626
 2407SOL    HW2 8121   3.531   1.462   3.669
 2408SOL     OW 8122   3.327   5.647   4.752
 2408SOL    HW1 8123   3.302   5.733   4.797
 2408SOL    HW2 8124   3.248   5.587   4.746
 2409SOL     OW 8125   1.827   2.767   1.410
 2409SOL    HW1 8126   1.809   2.683   1.359
 2409SOL    HW2 8127   1.916   2.804   1.384
 2410SOL     OW 8128   0.493   3.642   5.240
 2410SOL    HW1 8129   0.478   3.612   5.334
 2410SOL    HW2 8130   0.555   3.578   5.194
 2411SOL     OW 8131   2.733   4.012   7.010
 2411SOL    HW1 8132   2.656   4.039   0.049
 2411SOL    HW2 8133   2.726   3.916   6.986
 2412SOL     OW 8134   3.596   1.603   6.527
 2412SOL    HW1 8135   3.519   1.548   6.496
 2412SOL    HW2 8136   3.572   1.648   6.613
 2413SOL     OW 8137   6.601   2.700   0.072
 2413SOL    HW1 8138   6.618   2.797   0.089
 2413SOL    HW2 8139   6.687   2.650   0.073
 2414SOL     OW 8140   6.332   2.421   4.480
 2414SOL    HW1 8141   6.283   2.483   4.419
 2414SOL    HW2 8142   6.278   2.403   4.562
 2415SOL     OW 8143   2.588   5.496   0.765
 2415SOL    HW1 8144   2.631   5.586   0.762
 2415SOL    HW2 8145   2.647   5.429   0.719
 2416SOL     OW 8146   6.834   3.739   2.752
 2416SOL    HW1 8147   6.781   3.718   2.834
 2416SOL    HW2 8148   6.908   3.673   2.742
 2417SOL     OW 8149   3.390   3.514   1.127
 2417SOL    HW1 8150   3.361   3.470   1.212
 2417SOL    HW2 8151   3.389   3.613   1.139
 2418SOL     OW 8152   4.467   3.651   5.782
 2418SOL    HW1 8153   4.479   3.749   5.763
 2418SOL    HW2 8154   4.370   3.628   5.777
 2419SOL     OW 8155   1.752   6.590   4.300
 2419SOL    HW1 8156   1.842   6.597   4.256
 2419SOL    HW2 8157   1.681   6.605   4.232
 2420SOL     OW 8158   1.710   4.240   2.623
 2420SOL    HW1 8159   1.652   4.207   2.548
 2420SOL    HW2 8160   1.661   4.231   2.710
 2421SOL     OW 8161   2.702   6.635   4.274
 2421SOL    HW1 8162   2.696   6.707   4.206
 2421SOL    HW2 8163   2.793   6.636   4.316
 2422SOL     OW 8164   4.707   6.221   0.510
 2422SOL    HW1 8165   4.761   6.186   0.433
 2422SOL    HW2 8166   4.721   6.164   0.590
 2423SOL     OW 8167   2.614   5.332   2.295
 2423SOL    HW1 8168   2.585   5.321   2.200
 2423SOL    HW2 8169   2.712   5.349   2.298
 2424SOL     OW 8170   5.656   1.050   5.742
 2424SOL    HW1 8171   5.579   0.988   5.757
 2424SOL    HW2 8172   5.661   1.117   5.816
 2425SOL     OW 8173   5.075   5.345   5.293
 2425SOL    HW1 8174   5.061   5.358   5.194
 2425SOL    HW2 8175   5.172   5.331   5.311
 2426SOL     OW 8176   1.594   4.924   6.050
 2426SOL    HW1 8177   1.567   4.867   5.973
 2426SOL    HW2 8178   1.551   4.890   6.134
 2427SOL     OW 8179   5.223   0.624   0.074
 2427SOL    HW1 8180   5.317   0.639   0.043
 2427SOL    HW2 8181   5.177   0.713   0.083
 2428SOL     OW 8182   0.269   1.244   3.531
 2428SOL    HW1 8183   0.332   1.184   3.581
 2428SOL    HW2 8184   0.307   1.266   3.442
 2429SOL     OW 8185   5.104   5.450   1.523
 2429SOL    HW1 8186   5.045   5.515   1.475
 2429SOL    HW2 8187   5.051   5.400   1.591
 2430SOL     OW 8188   6.237   2.069   6.531
 2430SOL    HW1 8189   6.213   2.031   6.620
 2430SOL    HW2 8190   6.287   2.154   6.544
 2431SOL     OW 8191   6.935   2.229   1.438
 2431SOL    HW1 8192   7.004   2.214   1.368
 2431SOL    HW2 8193   6.958   2.176   1.520
 2432SOL     OW 8194   3.491   5.292   2.412
 2432SOL    HW1 8195   3.430   5.371   2.410
 2432SOL    HW2 8196   3.527   5.280   2.504
 2433SOL     OW 8197   6.456   4.230   6.922
 2433SOL    HW1 8198   6.497   4.163   6.983
 2433SOL    HW2 8199   6.523   4.300   6.900
 2434SOL     OW 8200   4.588   1.687   2.879
 2434SOL    HW1 8201   4.671   1.741   2.889
 2434SOL    HW2 8202   4.610   1.590   2.891
 2435SOL     OW 8203   5.598   6.366   6.870
 2435SOL    HW1 8204   5.502   6.355   6.843
 2435SOL    HW2 8205   5.641   6.436   6.813
 2436SOL     OW 8206   2.418   1.638   1.874
 2436SOL    HW1 8207   2.496   1.607   1.820
 2436SOL    HW2 8208   2.450   1.682   1.958
 2437SOL     OW 8209   0.092   4.984   2.659
 2437SOL    HW1 8210   0.178   5.005   2.612
 2437SOL    HW2 8211   0.113   4.945   2.748
 2438SOL     OW 8212   3.326   1.533   4.876
 2438SOL    HW1 8213   3.267   1.577   4.808
 2438SOL    HW2 8214   3.420   1.530   4.841
 2439SOL     OW 8215   0.769   5.736   0.771
 2439SOL    HW1 8216   0.774   5.806   0.842
 2439SOL    HW2 8217   0.691   5.753   0.712
 2440SOL     OW 8218   5.083   0.768   5.378
 2440SOL    HW1 8219   4.984   0.775   5.392
 2440SOL    HW2 8220   5.102   0.748   5.282
 2441SOL     OW 8221   5.859   0.144   0.240
 2441SOL    HW1 8222   5.955   0.121   0.258
 2441SOL    HW2 8223   5.854   0.217   0.171
 2442SOL     OW 8224   4.933   3.350   2.038
 2442SOL    HW1 8225   4.877   3.307   1.967
 2442SOL    HW2 8226   5.020   3.302   2.045
 2443SOL     OW 8227   1.957   2.212   0.925
 2443SOL    HW1 8228   1.935   2.150   1.000
 2443SOL    HW2 8229   1.900   2.190   0.846
 2444SOL     OW 8230   3.674   5.843   1.228
 2444SOL    HW1 8231   3.622   5.852   1.313
 2444SOL    HW2 8232   3.611   5.835   1.151
 2445SOL     OW 8233   6.961   2.811   0.709
 2445SOL    HW1 8234   6.946   2.905   0.679
 2445SOL    HW2 8235   6.908   2.793   0.792
 2446SOL     OW 8236   1.763   4.181   1.023
 2446SOL    HW1 8237   1.799   4.236   0.947
 2446SOL    HW2 8238   1.682   4.226   1.061
 2447SOL     OW 8239   3.620   0.176   0.596
 2447SOL    HW1 8240   3.640   0.152   0.691
 2447SOL    HW2 8241   3.540   0.126   0.564
 2448SOL     OW 8242   5.847   1.625   3.667
 2448SOL    HW1 8243   5.912   1.701   3.667
 2448SOL    HW2 8244   5.867   1.565   3.589
 2449SOL     OW 8245   1.920   4.460   1.705
 2449SOL    HW1 8246   1.972   4.535   1.745
 2449SOL    HW2 8247   1.847   4.497   1.647
 2450SOL     OW 8248   1.503   5.936   6.345
 2450SOL    HW1 8249   1.593   5.978   6.357
 2450SOL    HW2 8250   1.465   5.913   6.435
 2451SOL     OW 8251   0.688   0.335   4.964
 2451SOL    HW1 8252   0.762   0.400   4.945
 2451SOL    HW2 8253   0.632   0.369   5.039
 2452SOL     OW 8254   2.611   2.158   3.949
 2452SOL    HW1 8255   2.550   2.228   3.986
 2452SOL    HW2 8256   2.705   2.175   3.979
 2453SOL     OW 8257   0.716   1.334   6.618
 2453SOL    HW1 8258   0.794   1.302   6.672
 2453SOL    HW2 8259   0.744   1.415   6.566
 2454SOL     OW 8260   3.799   5.420   0.869
 2454SOL    HW1 8261   3.837   5.353   0.934
 2454SOL    HW2 8262   3.827   5.396   0.776
 2455SOL     OW 8263   4.112   1.254   0.338
 2455SOL    HW1 8264   4.124   1.179   0.273
 2455SOL    HW2 8265   4.068   1.332   0.293
 2456SOL     OW 8266   0.824   4.657   6.541
 2456SOL    HW1 8267   0.792   4.746   6.510
 2456SOL    HW2 8268   0.923   4.650   6.528
 2457SOL     OW 8269   5.539   2.097   5.271
 2457SOL    HW1 8270   5.520   2.154   5.191
 2457SOL    HW2 8271   5.530   2.000   5.245
 2458SOL     OW 8272   1.366   6.968   2.577
 2458SOL    HW1 8273   1.390   7.015   2.492
 2458SOL    HW2 8274   1.439   6.979   2.644
 2459SOL     OW 8275   2.507   6.161   1.024
 2459SOL    HW1 8276   2.602   6.177   0.995
 2459SOL    HW2 8277   2.481   6.231   1.091
 2460SOL     OW 8278   1.719   0.988   5.920
 2460SOL    HW1 8279   1.714   1.087   5.906
 2460SOL    HW2 8280   1.655   0.961   5.991
 2461SOL     OW 8281   3.775   1.106   4.024
 2461SOL    HW1 8282   3.795   1.035   3.956
 2461SOL    HW2 8283   3.791   1.070   4.116
 2462SOL     OW 8284   0.601   5.288   1.071
 2462SOL    HW1 8285   0.637   5.365   1.018
 2462SOL    HW2 8286   0.545   5.323   1.147
 2463SOL     OW 8287   0.195   1.074   6.122
 2463SOL    HW1 8288   0.128   1.108   6.188
 2463SOL    HW2 8289   0.166   0.985   6.088
 2464SOL     OW 8290   0.796   1.909   2.950
 2464SOL    HW1 8291   0.747   1.925   2.864
 2464SOL    HW2 8292   0.847   1.823   2.944
 2465SOL     OW 8293   0.911   4.714   5.763
 2465SOL    HW1 8294   0.916   4.621   5.800
 2465SOL    HW2 8295   1.000   4.759   5.773
 2466SOL     OW 8296   1.247   2.240   1.861
 2466SOL    HW1 8297   1.317   2.226   1.791
 2466SOL    HW2 8298   1.157   2.249   1.816
 2467SOL     OW 8299   5.050   1.360   5.903
 2467SOL    HW1 8300   5.112   1.438   5.893
 2467SOL    HW2 8301   4.965   1.378   5.853
 2468SOL     OW 8302   3.745   0.060   5.455
 2468SOL    HW1 8303   3.752   0.137   5.392
 2468SOL    HW2 8304   3.767   6.993   5.407
 2469SOL     OW 8305   3.408   2.616   5.324
 2469SOL    HW1 8306   3.441   2.522   5.330
 2469SOL    HW2 8307   3.448   2.670   5.398
 2470SOL     OW 8308   3.458   5.194   0.275
 2470SOL    HW1 8309   3.477   5.113   0.331
 2470SOL    HW2 8310   3.473   5.171   0.179
 2471SOL     OW 8311   3.894   6.248   0.922
 2471SOL    HW1 8312   3.949   6.265   1.003
 2471SOL    HW2 8313   3.936   6.293   0.843
 2472SOL     OW 8314   4.745   2.130   4.029
 2472SOL    HW1 8315   4.737   2.184   4.113
 2472SOL    HW2 8316   4.743   2.032   4.052
 2473SOL     OW 8317   0.534   4.576   4.946
 2473SOL    HW1 8318   0.476   4.497   4.964
 2473SOL    HW2 8319   0.605   4.583   5.016
 2474SOL     OW 8320   1.077   5.664   1.365
 2474SOL    HW1 8321   1.025   5.664   1.280
 2474SOL    HW2 8322   1.069   5.753   1.409
 2475SOL     OW 8323   5.192   0.412   0.842
 2475SOL    HW1 8324   5.200   0.452   0.751
 2475SOL    HW2 8325   5.276   0.363   0.865
 2476SOL     OW 8326   5.854   0.345   0.789
 2476SOL    HW1 8327   5.766   0.379   0.754
 2476SOL    HW2 8328   5.842   0.310   0.882
 2477SOL     OW 8329   3.770   0.721   3.535
 2477SOL    HW1 8330   3.843   0.787   3.517
 2477SOL    HW2 8331   3.751   0.668   3.452
 2478SOL     OW 8332   4.368   1.434   3.051
 2478SOL    HW1 8333   4.375   1.491   3.133
 2478SOL    HW2 8334   4.376   1.338   3.077
 2479SOL     OW 8335   0.820   3.023   1.193
 2479SOL    HW1 8336   0.828   2.924   1.201
 2479SOL    HW2 8337   0.889   3.067   1.251
 2480SOL     OW 8338   3.542   2.315   1.043
 2480SOL    HW1 8339   3.583   2.403   1.018
 2480SOL    HW2 8340   3.444   2.317   1.023
 2481SOL     OW 8341   3.298   0.897   1.616
 2481SOL    HW1 8342   3.356   0.969   1.579
 2481SOL    HW2 8343   3.347   0.850   1.690
 2482SOL     OW 8344   5.462   3.621   6.816
 2482SOL    HW1 8345   5.560   3.635   6.829
 2482SOL    HW2 8346   5.414   3.645   6.900
 2483SOL     OW 8347   0.772   2.389   0.320
 2483SOL    HW1 8348   0.783   2.415   0.224
 2483SOL    HW2 8349   0.740   2.295   0.326
 2484SOL     OW 8350   5.059   1.665   2.376
 2484SOL    HW1 8351   5.002   1.746   2.369
 2484SOL    HW2 8352   5.003   1.584   2.356
 2485SOL     OW 8353   5.191   1.972   6.226
 2485SOL    HW1 8354   5.228   2.065   6.231
 2485SOL    HW2 8355   5.139   1.952   6.308
 2486SOL     OW 8356   0.242   4.204   5.930
 2486SOL    HW1 8357   0.313   4.187   5.862
 2486SOL    HW2 8358   0.274   4.273   5.995
 2487SOL     OW 8359   5.014   6.258   0.659
 2487SOL    HW1 8360   4.952   6.181   0.678
 2487SOL    HW2 8361   4.988   6.335   0.716
 2488SOL     OW 8362   6.936   4.183   1.940
 2488SOL    HW1 8363   6.943   4.190   1.841
 2488SOL    HW2 8364   0.005   4.210   1.982
 2489SOL     OW 8365   0.302   6.150   4.350
 2489SOL    HW1 8366   0.303   6.223   4.281
 2489SOL    HW2 8367   0.246   6.074   4.318
 2490SOL     OW 8368   1.469   6.293   2.115
 2490SOL    HW1 8369   1.424   6.275   2.203
 2490SOL    HW2 8370   1.467   6.210   2.060
 2491SOL     OW 8371   4.109   4.592   1.729
 2491SOL    HW1 8372   4.076   4.610   1.636
 2491SOL    HW2 8373   4.177   4.519   1.727
 2492SOL     OW 8374   4.792   3.422   0.615
 2492SOL    HW1 8375   4.803   3.328   0.647
 2492SOL    HW2 8376   4.717   3.427   0.550
 2493SOL     OW 8377   0.035   6.647   1.416
 2493SOL    HW1 8378   6.977   6.638   1.481
 2493SOL    HW2 8379   0.038   6.566   1.358
 2494SOL     OW 8380   5.832   2.637   1.604
 2494SOL    HW1 8381   5.833   2.729   1.643
 2494SOL    HW2 8382   5.866   2.572   1.672
 2495SOL     OW 8383   5.217   5.628   3.444
 2495SOL    HW1 8384   5.129   5.590   3.474
 2495SOL    HW2 8385   5.231   5.605   3.348
 2496SOL     OW 8386   0.032   3.844   6.507
 2496SOL    HW1 8387   6.978   3.912   6.518
 2496SOL    HW2 8388   7.010   3.752   6.511
 2497SOL     OW 8389   0.270   0.523   0.877
 2497SOL    HW1 8390   0.187   0.530   0.821
 2497SOL    HW2 8391   0.349   0.551   0.824
 2498SOL     OW 8392   3.339   2.795   5.751
 2498SOL    HW1 8393   3.242   2.781   5.770
 2498SOL    HW2 8394   3.350   2.848   5.667
 2499SOL     OW 8395   5.869   3.343   1.285
 2499SOL    HW1 8396   5.799   3.299   1.341
 2499SOL    HW2 8397   5.832   3.363   1.194
 2500SOL     OW 8398   3.610   3.493   6.175
 2500SOL    HW1 8399   3.700   3.476   6.215
 2500SOL    HW2 8400   3.569   3.573   6.219
 2501SOL     OW 8401   5.929   5.833   6.980
 2501SOL    HW1 8402   5.907   5.872   0.052
 2501SOL    HW2 8403   5.988   5.754   6.992
 2502SOL     OW 8404   2.210   6.267   4.725
 2502SOL    HW1 8405   2.265   6.348   4.704
 2502SOL    HW2 8406   2.132   6.294   4.782
 2503SOL     OW 8407   3.012   6.620   5.563
 2503SOL    HW1 8408   3.053   6.568   5.638
 2503SOL    HW2 8409   2.949   6.687   5.599
 2504SOL     OW 8410   3.124   5.161   2.546
 2504SOL    HW1 8411   3.209   5.109   2.546
 2504SOL    HW2 8412   3.139   5.250   2.502
 2505SOL     OW 8413   0.291   5.836   3.145
 2505SOL    HW1 8414   0.282   5.931   3.175
 2505SOL    HW2 8415   0.328   5.780   3.219
 2506SOL     OW 8416   5.958   3.739   6.061
 2506SOL    HW1 8417   5.882   3.677   6.041
 2506SOL    HW2 8418   5.980   3.735   6.158
 2507SOL     OW 8419   6.800   3.226   0.109
 2507SOL    HW1 8420   6.724   3.287   0.085
 2507SOL    HW2 8421   6.885   3.262   0.070
 2508SOL     OW 8422   2.680   2.145   4.756
 2508SOL    HW1 8423   2.772   2.180   4.738
 2508SOL    HW2 8424   2.651   2.172   4.848
 2509SOL     OW 8425   6.804   4.184   0.191
 2509SOL    HW1 8426   6.806   4.094   0.236
 2509SOL    HW2 8427   6.849   4.177   0.102
 2510SOL     OW 8428   3.455   4.191   1.209
 2510SOL    HW1 8429   3.449   4.222   1.304
 2510SOL    HW2 8430   3.365   4.160   1.179
 2511SOL     OW 8431   2.222   1.252   5.138
 2511SOL    HW1 8432   2.274   1.196   5.073
 2511SOL    HW2 8433   2.196   1.197   5.217
 2512SOL     OW 8434   3.994   4.459   5.554
 2512SOL    HW1 8435   4.026   4.528   5.489
 2512SOL    HW2 8436   3.927   4.400   5.510
 2513SOL     OW 8437   2.134   6.140   5.649
 2513SOL    HW1 8438   2.169   6.085   5.574
 2513SOL    HW2 8439   2.077   6.084   5.709
 2514SOL     OW 8440   0.707   3.497   4.293
 2514SOL    HW1 8441   0.688   3.408   4.250
 2514SOL    HW2 8442   0.772   3.548   4.236
 2515SOL     OW 8443   1.949   0.270   1.438
 2515SOL    HW1 8444   1.861   0.292   1.395
 2515SOL    HW2 8445   2.004   0.353   1.446
 2516SOL     OW 8446   4.693   1.414   2.823
 2516SOL    HW1 8447   4.793   1.416   2.819
 2516SOL    HW2 8448   4.663   1.330   2.866
 2517SOL     OW 8449   2.207   0.197   5.723
 2517SOL    HW1 8450   2.282   0.260   5.744
 2517SOL    HW2 8451   2.237   0.103   5.737
 2518SOL     OW 8452   1.881   5.705   1.288
 2518SOL    HW1 8453   1.887   5.677   1.384
 2518SOL    HW2 8454   1.814   5.647   1.241
 2519SOL     OW 8455   3.446   0.930   1.194
 2519SOL    HW1 8456   3.401   0.937   1.104
 2519SOL    HW2 8457   3.430   1.015   1.245
 2520SOL     OW 8458   3.273   1.949   6.690
 2520SOL    HW1 8459   3.356   1.892   6.693
 2520SOL    HW2 8460   3.257   1.978   6.595
 2521SOL     OW 8461   3.670   1.848   5.640
 2521SOL    HW1 8462   3.733   1.925   5.638
 2521SOL    HW2 8463   3.601   1.863   5.711
 2522SOL     OW 8464   0.857   1.867   5.449
 2522SOL    HW1 8465   0.925   1.853   5.521
 2522SOL    HW2 8466   0.872   1.957   5.407
 2523SOL     OW 8467   1.682   3.836   0.806
 2523SOL    HW1 8468   1.669   3.851   0.904
 2523SOL    HW2 8469   1.702   3.740   0.789
 2524SOL     OW 8470   0.393   6.845   4.522
 2524SOL    HW1 8471   0.421   6.934   4.557
 2524SOL    HW2 8472   0.382   6.780   4.598
 2525SOL     OW 8473   1.379   3.246   4.851
 2525SOL    HW1 8474   1.287   3.208   4.859
 2525SOL    HW2 8475   1.445   3.184   4.894
 2526SOL     OW 8476   1.452   4.737   6.895
 2526SOL    HW1 8477   1.454   4.837   6.888
 2526SOL    HW2 8478   1.401   4.699   6.819
 2527SOL     OW 8479   5.425   5.483   5.482
 2527SOL    HW1 8480   5.394   5.397   5.441
 2527SOL    HW2 8481   5.511   5.511   5.439
 2528SOL     OW 8482   5.477   4.146   5.373
 2528SOL    HW1 8483   5.426   4.231   5.381
 2528SOL    HW2 8484   5.486   4.103   5.463
 2529SOL     OW 8485   0.522   0.275   6.700
 2529SOL    HW1 8486   0.436   0.325   6.695
 2529SOL    HW2 8487   0.547   0.240   6.610
 2530SOL     OW 8488   2.495   5.842   5.466
 2530SOL    HW1 8489   2.473   5.926   5.417
 2530SOL    HW2 8490   2.411   5.791   5.485
 2531SOL     OW 8491   5.843   5.463   5.736
 2531SOL    HW1 8492   5.809   5.427   5.823
 2531SOL    HW2 8493   5.925   5.519   5.752
 2532SOL     OW 8494   0.410   6.295   0.736
 2532SOL    HW1 8495   0.448   6.213   0.694
 2532SOL    HW2 8496   0.463   6.375   0.707
 2533SOL     OW 8497   4.546   1.286   3.761
 2533SOL    HW1 8498   4.458   1.240   3.760
 2533SOL    HW2 8499   4.558   1.335   3.848
 2534SOL     OW 8500   4.588   1.386   1.641
 2534SOL    HW1 8501   4.619   1.470   1.684
 2534SOL    HW2 8502   4.660   1.349   1.582
 2535SOL     OW 8503   3.136   2.444   6.763
 2535SOL    HW1 8504   3.222   2.449   6.711
 2535SOL    HW2 8505   3.144   2.500   6.846
 2536SOL     OW 8506   1.534   0.888   6.090
 2536SOL    HW1 8507   1.570   0.916   6.180
 2536SOL    HW2 8508   1.489   0.800   6.099
 2537SOL     OW 8509   3.492   6.787   6.225
 2537SOL    HW1 8510   3.504   6.856   6.153
 2537SOL    HW2 8511   3.518   6.827   6.313
 2538SOL     OW 8512   0.488   3.995   4.097
 2538SOL    HW1 8513   0.395   3.959   4.106
 2538SOL    HW2 8514   0.496   4.045   4.011
 2539SOL     OW 8515   5.478   0.560   4.012
 2539SOL    HW1 8516   5.386   0.536   3.981
 2539SOL    HW2 8517   5.510   0.641   3.963
 2540SOL     OW 8518   4.339   2.005   2.818
 2540SOL    HW1 8519   4.291   1.952   2.748
 2540SOL    HW2 8520   4.369   1.944   2.892
 2541SOL     OW 8521   2.682   0.064   5.660
 2541SOL    HW1 8522   2.611   0.060   5.730
 2541SOL    HW2 8523   2.645   0.030   5.573
 2542SOL     OW 8524   3.261   3.841   6.793
 2542SOL    HW1 8525   3.180   3.792   6.824
 2542SOL    HW2 8526   3.240   3.939   6.786
 2543SOL     OW 8527   1.236   1.483   3.641
 2543SOL    HW1 8528   1.330   1.514   3.649
 2543SOL    HW2 8529   1.234   1.385   3.620
 2544SOL     OW 8530   0.495   6.144   0.538
 2544SOL    HW1 8531   0.581   6.192   0.518
 2544SOL    HW2 8532   0.507   6.047   0.519
 2545SOL     OW 8533   1.440   0.134   2.382
 2545SOL    HW1 8534   1.422   0.227   2.413
 2545SOL    HW2 8535   1.525   0.132   2.329
 2546SOL     OW 8536   6.783   2.000   1.041
 2546SOL    HW1 8537   6.754   2.092   1.067
 2546SOL    HW2 8538   6.856   1.969   1.103
 2547SOL     OW 8539   0.445   3.460   6.883
 2547SOL    HW1 8540   0.402   3.527   6.944
 2547SOL    HW2 8541   0.406   3.471   6.791
 2548SOL     OW 8542   0.457   0.090   4.585
 2548SOL    HW1 8543   0.443   0.138   4.671
 2548SOL    HW2 8544   0.527   0.136   4.531
 2549SOL     OW 8545   1.140   0.678   1.475
 2549SOL    HW1 8546   1.120   0.580   1.472
 2549SOL    HW2 8547   1.185   0.706   1.391
 2550SOL     OW 8548   6.575   6.659   0.729
 2550SOL    HW1 8549   6.665   6.621   0.752
 2550SOL    HW2 8550   6.559   6.741   0.785
 2551SOL     OW 8551   3.092   4.776   0.321
 2551SOL    HW1 8552   3.147   4.800   0.401
 2551SOL    HW2 8553   3.084   4.676   0.316
 2552SOL     OW 8554   2.616   5.724   5.073
 2552SOL    HW1 8555   2.615   5.642   5.129
 2552SOL    HW2 8556   2.711   5.751   5.054
 2553SOL     OW 8557   3.946   3.440   5.858
 2553SOL    HW1 8558   3.860   3.489   5.848
 2553SOL    HW2 8559   4.022   3.501   5.835
 2554SOL     OW 8560   2.601   0.856   0.225
 2554SOL    HW1 8561   2.581   0.951   0.247
 2554SOL    HW2 8562   2.662   0.818   0.294
 2555SOL     OW 8563   5.531   2.055   4.457
 2555SOL    HW1 8564   5.470   2.045   4.378
 2555SOL    HW2 8565   5.569   1.965   4.480
 2556SOL     OW 8566   4.190   5.860   0.329
 2556SOL    HW1 8567   4.241   5.939   0.360
 2556SOL    HW2 8568   4.253   5.784   0.312
 2557SOL     OW 8569   1.919   3.746   7.006
 2557SOL    HW1 8570   1.940   3.821   0.050
 2557SOL    HW2 8571   1.863   3.779   6.931
 2558SOL     OW 8572   5.443   0.800   5.317
 2558SOL    HW1 8573   5.376   0.795   5.243
 2558SOL    HW2 8574   5.438   0.891   5.360
 2559SOL     OW 8575   1.348   4.327   5.803
 2559SOL    HW1 8576   1.329   4.262   5.877
 2559SOL    HW2 8577   1.366   4.417   5.843
 2560SOL     OW 8578   6.720   2.484   5.820
 2560SOL    HW1 8579   6.742   2.573   5.860
 2560SOL    HW2 8580   6.805   2.433   5.804
 2561SOL     OW 8581   2.616   5.000   5.248
 2561SOL    HW1 8582   2.694   5.046   5.289
 2561SOL    HW2 8583   2.645   4.912   5.209
 2562SOL     OW 8584   2.341   4.434   1.313
 2562SOL    HW1 8585   2.266   4.494   1.285
 2562SOL    HW2 8586   2.309   4.340   1.315
 2563SOL     OW 8587   3.297   1.047   0.682
 2563SOL    HW1 8588   3.360   1.031   0.606
 2563SOL    HW2 8589   3.204   1.022   0.654
 2564SOL     OW 8590   1.388   5.322   0.749
 2564SOL    HW1 8591   1.431   5.313   0.660
 2564SOL    HW2 8592   1.353   5.233   0.778
 2565SOL     OW 8593   1.091   0.694   0.097
 2565SOL    HW1 8594   1.184   0.662   0.112
 2565SOL    HW2 8595   1.038   0.623   0.050
 2566SOL     OW 8596   2.361   6.628   1.610
 2566SOL    HW1 8597   2.342   6.532   1.590
 2566SOL    HW2 8598   2.428   6.663   1.544
 2567SOL     OW 8599   1.425   0.183   1.060
 2567SOL    HW1 8600   1.469   0.119   1.123
 2567SOL    HW2 8601   1.489   0.258   1.039
 2568SOL     OW 8602   4.342   2.498   6.614
 2568SOL    HW1 8603   4.261   2.450   6.581
 2568SOL    HW2 8604   4.326   2.597   6.608
 2569SOL     OW 8605   3.699   1.230   3.195
 2569SOL    HW1 8606   3.677   1.151   3.138
 2569SOL    HW2 8607   3.614   1.270   3.230
 2570SOL     OW 8608   5.804   0.830   5.738
 2570SOL    HW1 8609   5.884   0.862   5.687
 2570SOL    HW2 8610   5.733   0.900   5.736
 2571SOL     OW 8611   1.452   5.156   4.095
 2571SOL    HW1 8612   1.377   5.191   4.151
 2571SOL    HW2 8613   1.539   5.177   4.140
 2572SOL     OW 8614   3.030   4.959   2.412
 2572SOL    HW1 8615   3.016   4.881   2.472
 2572SOL    HW2 8616   3.062   5.038   2.465
 2573SOL     OW 8617   0.756   2.057   0.898
 2573SOL    HW1 8618   0.789   1.962   0.901
 2573SOL    HW2 8619   0.673   2.061   0.842
 2574SOL     OW 8620   5.162   3.623   0.809
 2574SOL    HW1 8621   5.153   3.576   0.897
 2574SOL    HW2 8622   5.072   3.647   0.774
 2575SOL     OW 8623   6.106   5.610   6.600
 2575SOL    HW1 8624   6.092   5.708   6.618
 2575SOL    HW2 8625   6.084   5.590   6.505
 2576SOL     OW 8626   4.579   6.332   4.755
 2576SOL    HW1 8627   4.566   6.265   4.682
 2576SOL    HW2 8628   4.496   6.337   4.811
 2577SOL     OW 8629   2.810   5.046   2.267
 2577SOL    HW1 8630   2.873   5.004   2.333
 2577SOL    HW2 8631   2.857   5.119   2.218
 2578SOL     OW 8632   3.979   1.381   3.775
 2578SOL    HW1 8633   3.891   1.336   3.789
 2578SOL    HW2 8634   3.964   1.478   3.757
 2579SOL     OW 8635   0.236   6.152   3.853
 2579SOL    HW1 8636   0.151   6.119   3.893
 2579SOL    HW2 8637   0.311   6.138   3.918
 2580SOL     OW 8638   2.098   4.668   0.170
 2580SOL    HW1 8639   2.136   4.613   0.245
 2580SOL    HW2 8640   2.018   4.620   0.132
 2581SOL     OW 8641   2.346   5.907   6.981
 2581SOL    HW1 8642   2.389   5.924   6.892
 2581SOL    HW2 8643   2.271   5.842   6.969
 2582SOL     OW 8644   0.154   4.394   1.556
 2582SOL    HW1 8645   0.104   4.381   1.470
 2582SOL    HW2 8646   0.095   4.440   1.622
 2583SOL     OW 8647   0.604   0.547   0.055
 2583SOL    HW1 8648   0.597   0.635   0.102
 2583SOL    HW2 8649   0.516   0.525   0.012
 2584SOL     OW 8650   4.439   5.055   5.783
 2584SOL    HW1 8651   4.444   5.155   5.782
 2584SOL    HW2 8652   4.464   5.019   5.693
 2585SOL     OW 8653   2.987   4.697   6.890
 2585SOL    HW1 8654   2.924   4.713   6.966
 2585SOL    HW2 8655   3.047   4.621   6.913
 2586SOL     OW 8656   2.783   0.663   5.491
 2586SOL    HW1 8657   2.869   0.623   5.523
 2586SOL    HW2 8658   2.779   0.658   5.391
 2587SOL     OW 8659   0.429   1.481   3.159
 2587SOL    HW1 8660   0.508   1.427   3.186
 2587SOL    HW2 8661   0.456   1.550   3.092
 2588SOL     OW 8662   3.959   2.348   5.367
 2588SOL    HW1 8663   3.865   2.367   5.397
 2588SOL    HW2 8664   3.987   2.417   5.300
 2589SOL     OW 8665   0.979   6.461   6.853
 2589SOL    HW1 8666   0.973   6.366   6.823
 2589SOL    HW2 8667   0.888   6.495   6.877
 2590SOL     OW 8668   2.726   4.960   0.465
 2590SOL    HW1 8669   2.794   4.995   0.529
 2590SOL    HW2 8670   2.657   5.031   0.448
 2591SOL     OW 8671   5.995   5.459   3.704
 2591SOL    HW1 8672   5.998   5.547   3.657
 2591SOL    HW2 8673   6.077   5.448   3.761
 2592SOL     OW 8674   2.563   4.115   6.612
 2592SOL    HW1 8675   2.489   4.115   6.544
 2592SOL    HW2 8676   2.583   4.021   6.639
 2593SOL     OW 8677   3.176   5.680   0.795
 2593SOL    HW1 8678   3.254   5.696   0.857
 2593SOL    HW2 8679   3.210   5.649   0.706
 2594SOL     OW 8680   2.602   4.216   6.153
 2594SOL    HW1 8681   2.652   4.136   6.185
 2594SOL    HW2 8682   2.510   4.188   6.124
 2595SOL     OW 8683   1.075   1.087   4.506
 2595SOL    HW1 8684   1.054   1.134   4.421
 2595SOL    HW2 8685   1.048   0.991   4.499
 2596SOL     OW 8686   2.099   2.910   1.239
 2596SOL    HW1 8687   2.169   2.981   1.229
 2596SOL    HW2 8688   2.045   2.905   1.155
 2597SOL     OW 8689   6.984   5.112   6.094
 2597SOL    HW1 8690   6.918   5.165   6.147
 2597SOL    HW2 8691   6.970   5.015   6.112
 2598SOL     OW 8692   6.125   1.393   1.672
 2598SOL    HW1 8693   6.200   1.452   1.642
 2598SOL    HW2 8694   6.044   1.412   1.617
 2599SOL     OW 8695   2.093   6.613   1.461
 2599SOL    HW1 8696   2.139   6.627   1.549
 2599SOL    HW2 8697   2.111   6.520   1.429
 2600SOL     OW 8698   6.151   3.564   4.510
 2600SOL    HW1 8699   6.132   3.518   4.597
 2600SOL    HW2 8700   6.146   3.663   4.522
 2601SOL     OW 8701   1.611   2.003   2.428
 2601SOL    HW1 8702   1.527   2.056   2.438
 2601SOL    HW2 8703   1.672   2.048   2.362
 2602SOL     OW 8704   2.036   4.862   3.952
 2602SOL    HW1 8705   2.130   4.893   3.967
 2602SOL    HW2 8706   2.009   4.801   4.027
 2603SOL     OW 8707   2.950   1.172   2.281
 2603SOL    HW1 8708   2.981   1.097   2.340
 2603SOL    HW2 8709   2.945   1.140   2.186
 2604SOL     OW 8710   4.874   1.725   1.760
 2604SOL    HW1 8711   4.825   1.723   1.847
 2604SOL    HW2 8712   4.896   1.632   1.732
 2605SOL     OW 8713   1.190   4.207   2.265
 2605SOL    HW1 8714   1.243   4.124   2.283
 2605SOL    HW2 8715   1.246   4.271   2.212
 2606SOL     OW 8716   5.768   4.725   1.277
 2606SOL    HW1 8717   5.847   4.680   1.235
 2606SOL    HW2 8718   5.799   4.807   1.326
 2607SOL     OW 8719   1.623   2.520   1.705
 2607SOL    HW1 8720   1.558   2.554   1.774
 2607SOL    HW2 8721   1.580   2.523   1.615
 2608SOL     OW 8722   2.075   6.376   6.778
 2608SOL    HW1 8723   2.166   6.388   6.819
 2608SOL    HW2 8724   2.055   6.278   6.770
 2609SOL     OW 8725   0.810   1.278   0.856
 2609SOL    HW1 8726   0.785   1.244   0.766
 2609SOL    HW2 8727   0.754   1.234   0.926
 2610SOL     OW 8728   1.225   5.286   4.268
 2610SOL    HW1 8729   1.292   5.329   4.328
 2610SOL    HW2 8730   1.176   5.357   4.217
 2611SOL     OW 8731   4.851   6.275   0.253
 2611SOL    HW1 8732   4.810   6.344   0.194
 2611SOL    HW2 8733   4.925   6.316   0.306
 2612SOL     OW 8734   5.090   6.715   4.775
 2612SOL    HW1 8735   4.991   6.729   4.783
 2612SOL    HW2 8736   5.117   6.641   4.836
 2613SOL     OW 8737   1.177   5.654   6.354
 2613SOL    HW1 8738   1.103   5.632   6.418
 2613SOL    HW2 8739   1.169   5.749   6.324
 2614SOL     OW 8740   5.960   1.060   6.124
 2614SOL    HW1 8741   6.054   1.073   6.092
 2614SOL    HW2 8742   5.924   0.974   6.089
 2615SOL     OW 8743   0.914   3.511   1.119
 2615SOL    HW1 8744   0.852   3.444   1.079
 2615SOL    HW2 8745   0.868   3.558   1.194
 2616SOL     OW 8746   1.410   0.912   5.586
 2616SOL    HW1 8747   1.343   0.888   5.656
 2616SOL    HW2 8748   1.363   0.947   5.505
 2617SOL     OW 8749   5.594   0.160   0.662
 2617SOL    HW1 8750   5.506   0.133   0.624
 2617SOL    HW2 8751   5.580   0.202   0.752
 2618SOL     OW 8752   1.674   5.724   5.485
 2618SOL    HW1 8753   1.626   5.637   5.475
 2618SOL    HW2 8754   1.748   5.728   5.419
 2619SOL     OW 8755   4.171   1.964   1.705
 2619SOL    HW1 8756   4.122   1.881   1.678
 2619SOL    HW2 8757   4.125   2.006   1.783
 2620SOL     OW 8758   6.437   5.710   1.640
 2620SOL    HW1 8759   6.519   5.724   1.585
 2620SOL    HW2 8760   6.458   5.651   1.718
 2621SOL     OW 8761   0.397   5.849   2.864
 2621SOL    HW1 8762   0.461   5.925   2.878
 2621SOL    HW2 8763   0.330   5.848   2.939
 2622SOL     OW 8764   3.022   3.113   6.053
 2622SOL    HW1 8765   3.009   3.165   5.968
 2622SOL    HW2 8766   3.033   3.177   6.129
 2623SOL     OW 8767   0.457   0.008   4.227
 2623SOL    HW1 8768   0.510   0.067   4.166
 2623SOL    HW2 8769   0.519   6.976   4.287
 2624SOL     OW 8770   6.372   1.772   4.548
 2624SOL    HW1 8771   6.465   1.763   4.582
 2624SOL    HW2 8772   6.369   1.745   4.452
 2625SOL     OW 8773   1.917   5.730   5.294
 2625SOL    HW1 8774   1.980   5.763   5.364
 2625SOL    HW2 8775   1.954   5.750   5.203
 2626SOL     OW 8776   6.537   6.728   5.536
 2626SOL    HW1 8777   6.461   6.758   5.595
 2626SOL    HW2 8778   6.582   6.809   5.497
 2627SOL     OW 8779   1.035   0.053   5.776
 2627SOL    HW1 8780   1.047   0.100   5.864
 2627SOL    HW2 8781   1.114   7.013   5.758
 2628SOL     OW 8782   1.773   3.777   3.597
 2628SOL    HW1 8783   1.697   3.774   3.663
 2628SOL    HW2 8784   1.854   3.734   3.637
 2629SOL     OW 8785   3.217   4.065   3.365
 2629SOL    HW1 8786   3.242   3.985   3.420
 2629SOL    HW2 8787   3.294   4.090   3.306
 2630SOL     OW 8788   4.076   1.481   2.994
 2630SOL    HW1 8789   4.150   1.439   3.046
 2630SOL    HW2 8790   4.098   1.577   2.978
 2631SOL     OW 8791   5.724   0.248   6.777
 2631SOL    HW1 8792   5.634   0.205   6.789
 2631SOL    HW2 8793   5.788   0.209   6.843
 2632SOL     OW 8794   5.746   4.885   1.834
 2632SOL    HW1 8795   5.846   4.892   1.825
 2632SOL    HW2 8796   5.717   4.792   1.813
 2633SOL     OW 8797   6.928   2.492   5.176
 2633SOL    HW1 8798   6.938   2.548   5.094
 2633SOL    HW2 8799   7.015   2.488   5.225
 2634SOL     OW 8800   6.520   6.812   4.775
 2634SOL    HW1 8801   6.612   6.795   4.739
 2634SOL    HW2 8802   6.525   6.825   4.874
 2635SOL     OW 8803   5.104   5.505   4.001
 2635SOL    HW1 8804   5.117   5.596   3.962
 2635SOL    HW2 8805   5.179   5.445   3.973
 2636SOL     OW 8806   4.094   0.397   6.102
 2636SOL    HW1 8807   4.074   0.443   6.189
 2636SOL    HW2 8808   4.010   0.388   6.049
 2637SOL     OW 8809   0.713   1.743   2.674
 2637SOL    HW1 8810   0.679   1.679   2.604
 2637SOL    HW2 8811   0.785   1.700   2.727
 2638SOL     OW 8812   1.017   0.424   4.002
 2638SOL    HW1 8813   1.014   0.434   4.102
 2638SOL    HW2 8814   1.095   0.475   3.966
 2639SOL     OW 8815   4.487   4.775   4.555
 2639SOL    HW1 8816   4.459   4.863   4.516
 2639SOL    HW2 8817   4.574   4.748   4.514
 2640SOL     OW 8818   0.867   0.024   4.521
 2640SOL    HW1 8819   0.785   7.000   4.558
 2640SOL    HW2 8820   0.940   0.020   4.589
 2641SOL     OW 8821   5.048   2.609   0.252
 2641SOL    HW1 8822   5.022   2.642   0.343
 2641SOL    HW2 8823   5.041   2.685   0.187
 2642SOL     OW 8824   6.788   1.482   4.148
 2642SOL    HW1 8825   6.749   1.390   4.158
 2642SOL    HW2 8826   6.840   1.486   4.062
 2643SOL     OW 8827   1.212   3.981   3.514
 2643SOL    HW1 8828   1.123   4.017   3.485
 2643SOL    HW2 8829   1.242   4.030   3.596
 2644SOL     OW 8830   4.817   5.571   4.519
 2644SOL    HW1 8831   4.724   5.595   4.545
 2644SOL    HW2 8832   4.815   5.501   4.448
 2645SOL     OW 8833   4.633   5.238   3.783
 2645SOL    HW1 8834   4.579   5.155   3.798
 2645SOL    HW2 8835   4.720   5.229   3.831
 2646SOL     OW 8836   0.585   3.779   6.051
 2646SOL    HW1 8837   0.623   3.722   5.978
 2646SOL    HW2 8838   0.511   3.730   6.097
 2647SOL     OW 8839   5.277   6.912   1.860
 2647SOL    HW1 8840   5.277   6.821   1.819
 2647SOL    HW2 8841   5.354   6.919   1.923
 2648SOL     OW 8842   0.657   0.360   4.150
 2648SOL    HW1 8843   0.566   0.373   4.111
 2648SOL    HW2 8844   0.708   0.294   4.095
 2649SOL     OW 8845   4.996   2.661   1.941
 2649SOL    HW1 8846   4.913   2.707   1.910
 2649SOL    HW2 8847   5.054   2.640   1.862
 2650SOL     OW 8848   3.514   5.955   5.202
 2650SOL    HW1 8849   3.494   6.019   5.128
 2650SOL    HW2 8850   3.523   5.862   5.165
 2651SOL     OW 8851   4.524   1.998   5.478
 2651SOL    HW1 8852   4.488   1.919   5.529
 2651SOL    HW2 8853   4.564   2.063   5.542
 2652SOL     OW 8854   4.969   3.270   5.461
 2652SOL    HW1 8855   4.943   3.359   5.500
 2652SOL    HW2 8856   4.896   3.237   5.401
 2653SOL     OW 8857   3.382   6.531   6.705
 2653SOL    HW1 8858   3.443   6.480   6.765
 2653SOL    HW2 8859   3.321   6.587   6.761
 2654SOL     OW 8860   5.167   0.213   0.345
 2654SOL    HW1 8861   5.242   0.272   0.372
 2654SOL    HW2 8862   5.139   0.235   0.251
 2655SOL     OW 8863   5.330   6.346   3.046
 2655SOL    HW1 8864   5.249   6.404   3.037
 2655SOL    HW2 8865   5.412   6.404   3.040
 2656SOL     OW 8866   3.737   5.618   3.899
 2656SOL    HW1 8867   3.714   5.527   3.866
 2656SOL    HW2 8868   3.836   5.632   3.893
 2657SOL     OW 8869   2.445   3.395   0.211
 2657SOL    HW1 8870   2.371   3.341   0.251
 2657SOL    HW2 8871   2.472   3.468   0.273
 2658SOL     OW 8872   4.462   4.418   6.005
 2658SOL    HW1 8873   4.494   4.384   5.916
 2658SOL    HW2 8874   4.539   4.460   6.053
 2659SOL     OW 8875   5.627   2.274   4.919
 2659SOL    HW1 8876   5.602   2.185   4.958
 2659SOL    HW2 8877   5.548   2.313   4.871
 2660SOL     OW 8878   1.196   1.675   1.139
 2660SOL    HW1 8879   1.236   1.662   1.048
 2660SOL    HW2 8880   1.097   1.684   1.131
 2661SOL     OW 8881   1.696   0.586   1.244
 2661SOL    HW1 8882   1.750   0.669   1.229
 2661SOL    HW2 8883   1.600   0.606   1.228
 2662SOL     OW 8884   3.133   0.760   3.147
 2662SOL    HW1 8885   3.192   0.837   3.173
 2662SOL    HW2 8886   3.148   0.738   3.050
 2663SOL     OW 8887   3.166   0.059   6.207
 2663SOL    HW1 8888   3.194   0.152   6.231
 2663SOL    HW2 8889   3.232   0.019   6.145
 2664SOL     OW 8890   3.788   2.881   5.162
 2664SOL    HW1 8891   3.819   2.795   5.204
 2664SOL    HW2 8892   3.860   2.950   5.172
 2665SOL     OW 8893   2.224   3.875   5.294
 2665SOL    HW1 8894   2.276   3.885   5.379
 2665SOL    HW2 8895   2.278   3.908   5.217
 2666SOL     OW 8896   2.272   4.098   2.164
 2666SOL    HW1 8897   2.260   4.047   2.079
 2666SOL    HW2 8898   2.315   4.186   2.145
 2667SOL     OW 8899   5.797   4.157   3.658
 2667SOL    HW1 8900   5.771   4.254   3.664
 2667SOL    HW2 8901   5.815   4.121   3.749
 2668SOL     OW 8902   5.844   1.641   4.496
 2668SOL    HW1 8903   5.806   1.550   4.482
 2668SOL    HW2 8904   5.924   1.654   4.437
 2669SOL     OW 8905   2.475   0.092   0.585
 2669SOL    HW1 8906   2.492   0.109   0.683
 2669SOL    HW2 8907   2.379   0.111   0.565
 2670SOL     OW 8908   6.977   1.489   5.531
 2670SOL    HW1 8909   6.922   1.530   5.603
 2670SOL    HW2 8910   0.043   1.541   5.519
 2671SOL     OW 8911   4.315   5.780   6.056
 2671SOL    HW1 8912   4.285   5.875   6.067
 2671SOL    HW2 8913   4.394   5.778   5.994
 2672SOL     OW 8914   3.925   1.140   1.575
 2672SOL    HW1 8915   3.949   1.105   1.665
 2672SOL    HW2 8916   3.886   1.067   1.519
 2673SOL     OW 8917   4.600   0.097   2.689
 2673SOL    HW1 8918   4.557   0.025   2.742
 2673SOL    HW2 8919   4.682   0.061   2.645
 2674SOL     OW 8920   0.988   5.503   3.018
 2674SOL    HW1 8921   0.968   5.595   3.053
 2674SOL    HW2 8922   0.983   5.437   3.093
 2675SOL     OW 8923   6.601   6.601   3.867
 2675SOL    HW1 8924   6.693   6.587   3.830
 2675SOL    HW2 8925   6.602   6.677   3.932
 2676SOL     OW 8926   3.208   3.582   2.935
 2676SOL    HW1 8927   3.281   3.634   2.978
 2676SOL    HW2 8928   3.181   3.624   2.849
 2677SOL     OW 8929   2.056   4.768   1.580
 2677SOL    HW1 8930   2.062   4.738   1.675
 2677SOL    HW2 8931   1.960   4.777   1.553
 2678SOL     OW 8932   5.874   2.484   2.816
 2678SOL    HW1 8933   5.780   2.500   2.786
 2678SOL    HW2 8934   5.873   2.425   2.897
 2679SOL     OW 8935   2.063   5.122   3.355
 2679SOL    HW1 8936   2.096   5.213   3.331
 2679SOL    HW2 8937   2.122   5.082   3.425
 2680SOL     OW 8938   1.526   2.420   6.823
 2680SOL    HW1 8939   1.584   2.501   6.832
 2680SOL    HW2 8940   1.472   2.427   6.739
 2681SOL     OW 8941   1.408   2.980   5.235
 2681SOL    HW1 8942   1.385   2.885   5.213
 2681SOL    HW2 8943   1.438   2.985   5.330
 2682SOL     OW 8944   4.800   4.240   1.963
 2682SOL    HW1 8945   4.701   4.246   1.949
 2682SOL    HW2 8946   4.844   4.321   1.923
 2683SOL     OW 8947   2.146   4.023   2.929
 2683SOL    HW1 8948   2.121   4.076   2.848
 2683SOL    HW2 8949   2.152   3.926   2.906
 2684SOL     OW 8950   5.465   6.266   2.059
 2684SOL    HW1 8951   5.439   6.236   1.967
 2684SOL    HW2 8952   5.564   6.272   2.065
 2685SOL     OW 8953   0.165   5.874   5.067
 2685SOL    HW1 8954   0.184   5.861   4.970
 2685SOL    HW2 8955   0.248   5.856   5.120
 2686SOL     OW 8956   1.087   1.248   4.743
 2686SOL    HW1 8957   1.126   1.339   4.727
 2686SOL    HW2 8958   1.073   1.202   4.655
 2687SOL     OW 8959   4.046   1.520   2.066
 2687SOL    HW1 8960   3.998   1.432   2.060
 2687SOL    HW2 8961   4.101   1.534   1.983
 2688SOL     OW 8962   3.607   2.628   6.172
 2688SOL    HW1 8963   3.566   2.669   6.253
 2688SOL    HW2 8964   3.702   2.604   6.190
 2689SOL     OW 8965   0.774   4.462   3.126
 2689SOL    HW1 8966   0.754   4.437   3.221
 2689SOL    HW2 8967   0.856   4.519   3.123
 2690SOL     OW 8968   3.469   1.472   5.880
 2690SOL    HW1 8969   3.557   1.429   5.859
 2690SOL    HW2 8970   3.421   1.419   5.949
 2691SOL     OW 8971   0.143   4.054   3.975
 2691SOL    HW1 8972   0.044   4.047   3.978
 2691SOL    HW2 8973   0.169   4.140   3.931
 2692SOL     OW 8974   3.004   5.567   2.612
 2692SOL    HW1 8975   3.011   5.666   2.623
 2692SOL    HW2 8976   2.936   5.531   2.676
 2693SOL     OW 8977   1.432   5.912   4.036
 2693SOL    HW1 8978   1.507   5.849   4.054
 2693SOL    HW2 8979   1.440   5.948   3.943
 2694SOL     OW 8980   3.152   6.515   4.133
 2694SOL    HW1 8981   3.192   6.441   4.079
 2694SOL    HW2 8982   3.114   6.584   4.071
 2695SOL     OW 8983   6.824   6.398   2.986
 2695SOL    HW1 8984   6.755   6.471   2.985
 2695SOL    HW2 8985   6.841   6.368   2.892
 2696SOL     OW 8986   5.194   4.245   6.051
 2696SOL    HW1 8987   5.245   4.234   6.136
 2696SOL    HW2 8988   5.101   4.212   6.063
 2697SOL     OW 8989   4.155   2.141   0.586
 2697SOL    HW1 8990   4.176   2.045   0.565
 2697SOL    HW2 8991   4.058   2.158   0.569
 2698SOL     OW 8992   1.462   4.517   6.208
 2698SOL    HW1 8993   1.455   4.615   6.189
 2698SOL    HW2 8994   1.558   4.491   6.213
 2699SOL     OW 8995   3.535   5.809   2.393
 2699SOL    HW1 8996   3.540   5.886   2.457
 2699SOL    HW2 8997   3.440   5.791   2.370
 2700SOL     OW 8998   2.602   2.081   1.155
 2700SOL    HW1 8999   2.693   2.049   1.128
 2700SOL    HW2 9000   2.545   2.003   1.179
 2701SOL     OW 9001   5.337   2.740   4.751
 2701SOL    HW1 9002   5.301   2.719   4.842
 2701SOL    HW2 9003   5.271   2.796   4.701
 2702SOL     OW 9004   2.682   1.997   4.517
 2702SOL    HW1 9005   2.678   2.059   4.596
 2702SOL    HW2 9006   2.695   1.903   4.550
 2703SOL     OW 9007   1.252   6.732   2.341
 2703SOL    HW1 9008   1.347   6.763   2.329
 2703SOL    HW2 9009   1.203   6.798   2.399
 2704SOL     OW 9010   6.459   6.083   3.163
 2704SOL    HW1 9011   6.397   6.120   3.093
 2704SOL    HW2 9012   6.536   6.146   3.176
 2705SOL     OW 9013   0.512   0.714   4.900
 2705SOL    HW1 9014   0.543   0.806   4.874
 2705SOL    HW2 9015   0.438   0.686   4.840
 2706SOL     OW 9016   6.563   4.390   4.399
 2706SOL    HW1 9017   6.491   4.455   4.426
 2706SOL    HW2 9018   6.530   4.334   4.323
 2707SOL     OW 9019   3.943   0.307   3.010
 2707SOL    HW1 9020   3.966   0.299   2.913
 2707SOL    HW2 9021   3.960   0.400   3.041
 2708SOL     OW 9022   5.582   2.836   0.029
 2708SOL    HW1 9023   5.624   2.897   6.980
 2708SOL    HW2 9024   5.602   2.870   0.121
 2709SOL     OW 9025   5.550   0.026   5.309
 2709SOL    HW1 9026   5.645   0.060   5.314
 2709SOL    HW2 9027   5.517   0.036   5.215
 2710SOL     OW 9028   1.494   3.162   4.279
 2710SOL    HW1 9029   1.480   3.254   4.240
 2710SOL    HW2 9030   1.412   3.135   4.330
 2711SOL     OW 9031   3.483   2.068   3.815
 2711SOL    HW1 9032   3.455   2.109   3.729
 2711SOL    HW2 9033   3.497   1.970   3.802
 2712SOL     OW 9034   4.045   5.463   2.693
 2712SOL    HW1 9035   3.958   5.462   2.644
 2712SOL    HW2 9036   4.117   5.500   2.634
 2713SOL     OW 9037   4.123   4.551   6.385
 2713SOL    HW1 9038   4.184   4.501   6.446
 2713SOL    HW2 9039   4.155   4.540   6.290
 2714SOL     OW 9040   3.158   4.128   6.785
 2714SOL    HW1 9041   3.254   4.153   6.802
 2714SOL    HW2 9042   3.100   4.166   6.857
 2715SOL     OW 9043   5.311   1.117   1.066
 2715SOL    HW1 9044   5.348   1.056   0.996
 2715SOL    HW2 9045   5.381   1.135   1.135
 2716SOL     OW 9046   4.105   1.737   2.997
 2716SOL    HW1 9047   4.045   1.805   3.038
 2716SOL    HW2 9048   4.200   1.766   3.007
 2717SOL     OW 9049   1.141   1.466   2.513
 2717SOL    HW1 9050   1.152   1.565   2.510
 2717SOL    HW2 9051   1.230   1.422   2.500
 2718SOL     OW 9052   0.426   0.359   6.123
 2718SOL    HW1 9053   0.489   0.354   6.046
 2718SOL    HW2 9054   0.471   0.401   6.202
 2719SOL     OW 9055   1.955   4.003   2.117
 2719SOL    HW1 9056   2.041   3.952   2.110
 2719SOL    HW2 9057   1.903   3.969   2.196
 2720SOL     OW 9058   0.992   0.080   5.284
 2720SOL    HW1 9059   1.011   0.161   5.228
 2720SOL    HW2 9060   0.934   0.016   5.233
 2721SOL     OW 9061   2.763   5.401   1.832
 2721SOL    HW1 9062   2.861   5.415   1.821
 2721SOL    HW2 9063   2.733   5.327   1.771
 2722SOL     OW 9064   4.145   5.524   6.848
 2722SOL    HW1 9065   4.047   5.538   6.838
 2722SOL    HW2 9066   4.183   5.593   6.910
 2723SOL     OW 9067   3.352   6.407   0.503
 2723SOL    HW1 9068   3.377   6.356   0.586
 2723SOL    HW2 9069   3.260   6.446   0.514
 2724SOL     OW 9070   1.001   5.744   0.563
 2724SOL    HW1 9071   0.950   5.831   0.567
 2724SOL    HW2 9072   0.978   5.689   0.643
 2725SOL     OW 9073   5.156   2.945   4.655
 2725SOL    HW1 9074   5.185   2.991   4.739
 2725SOL    HW2 9075   5.180   3.002   4.576
 2726SOL     OW 9076   0.596   1.623   1.172
 2726SOL    HW1 9077   0.639   1.713   1.178
 2726SOL    HW2 9078   0.663   1.552   1.195
 2727SOL     OW 9079   2.263   4.116   4.574
 2727SOL    HW1 9080   2.277   4.019   4.594
 2727SOL    HW2 9081   2.181   4.128   4.518
 2728SOL     OW 9082   5.060   4.918   6.584
 2728SOL    HW1 9083   5.159   4.901   6.582
 2728SOL    HW2 9084   5.011   4.833   6.602
 2729SOL     OW 9085   5.281   5.901   6.072
 2729SOL    HW1 9086   5.330   5.948   5.998
 2729SOL    HW2 9087   5.223   5.830   6.034
 2730SOL     OW 9088   0.626   5.825   2.112
 2730SOL    HW1 9089   0.713   5.839   2.064
 2730SOL    HW2 9090   0.580   5.744   2.075
 2731SOL     OW 9091   3.186   3.201   3.819
 2731SOL    HW1 9092   3.274   3.216   3.864
 2731SOL    HW2 9093   3.165   3.103   3.817
 2732SOL     OW 9094   5.150   1.229   1.705
 2732SOL    HW1 9095   5.125   1.142   1.661
 2732SOL    HW2 9096   5.249   1.230   1.722
 2733SOL     OW 9097   0.294   0.525   5.934
 2733SOL    HW1 9098   0.333   0.481   6.015
 2733SOL    HW2 9099   0.324   0.476   5.852
 2734SOL     OW 9100   3.259   5.930   1.719
 2734SOL    HW1 9101   3.279   5.928   1.621
 2734SOL    HW2 9102   3.270   6.023   1.753
 2735SOL     OW 9103   1.240   2.069   1.212
 2735SOL    HW1 9104   1.218   2.123   1.294
 2735SOL    HW2 9105   1.164   2.076   1.147
 2736SOL     OW 9106   4.779   5.919   3.455
 2736SOL    HW1 9107   4.756   5.844   3.393
 2736SOL    HW2 9108   4.867   5.958   3.428
 2737SOL     OW 9109   2.712   1.651   6.240
 2737SOL    HW1 9110   2.765   1.704   6.173
 2737SOL    HW2 9111   2.729   1.686   6.332
 2738SOL     OW 9112   5.739   0.276   1.029
 2738SOL    HW1 9113   5.666   0.218   1.064
 2738SOL    HW2 9114   5.746   0.358   1.086
 2739SOL     OW 9115   0.961   5.318   1.986
 2739SOL    HW1 9116   1.021   5.333   1.908
 2739SOL    HW2 9117   0.991   5.375   2.063
 2740SOL     OW 9118   0.022   6.400   2.315
 2740SOL    HW1 9119   6.971   6.446   2.259
 2740SOL    HW2 9120   0.094   6.363   2.256
 2741SOL     OW 9121   1.151   1.970   4.130
 2741SOL    HW1 9122   1.216   2.046   4.135
 2741SOL    HW2 9123   1.058   2.006   4.133
 2742SOL     OW 9124   3.497   4.728   1.570
 2742SOL    HW1 9125   3.526   4.817   1.605
 2742SOL    HW2 9126   3.491   4.662   1.646
 2743SOL     OW 9127   6.623   4.579   2.260
 2743SOL    HW1 9128   6.720   4.603   2.249
 2743SOL    HW2 9129   6.615   4.485   2.291
 2744SOL     OW 9130   2.962   3.500   2.713
 2744SOL    HW1 9131   2.994   3.411   2.683
 2744SOL    HW2 9132   2.925   3.551   2.635
 2745SOL     OW 9133   6.849   1.166   5.613
 2745SOL    HW1 9134   6.909   1.222   5.556
 2745SOL    HW2 9135   6.764   1.147   5.563
 2746SOL     OW 9136   1.133   1.236   3.588
 2746SOL    HW1 9137   1.136   1.137   3.579
 2746SOL    HW2 9138   1.043   1.269   3.558
 2747SOL     OW 9139   3.672   5.644   0.979
 2747SOL    HW1 9140   3.689   5.552   0.945
 2747SOL    HW2 9141   3.708   5.711   0.915
 2748SOL     OW 9142   4.658   0.029   1.528
 2748SOL    HW1 9143   4.624   7.016   1.439
 2748SOL    HW2 9144   4.738   0.087   1.515
 2749SOL     OW 9145   2.116   3.202   0.657
 2749SOL    HW1 9146   2.069   3.286   0.685
 2749SOL    HW2 9147   2.215   3.215   0.669
 2750SOL     OW 9148   2.375   5.311   2.716
 2750SOL    HW1 9149   2.301   5.245   2.730
 2750SOL    HW2 9150   2.415   5.297   2.625
 2751SOL     OW 9151   1.479   2.634   1.498
 2751SOL    HW1 9152   1.449   2.651   1.405
 2751SOL    HW2 9153   1.421   2.684   1.562
 2752SOL     OW 9154   4.260   4.846   5.493
 2752SOL    HW1 9155   4.168   4.881   5.510
 2752SOL    HW2 9156   4.264   4.807   5.401
 2753SOL     OW 9157   6.209   6.419   5.260
 2753SOL    HW1 9158   6.111   6.442   5.261
 2753SOL    HW2 9159   6.235   6.390   5.168
 2754SOL     OW 9160   0.390   6.452   6.450
 2754SOL    HW1 9161   0.399   6.376   6.515
 2754SOL    HW2 9162   0.438   6.532   6.486
 2755SOL     OW 9163   2.610   6.631   2.979
 2755SOL    HW1 9164   2.638   6.684   2.899
 2755SOL    HW2 9165   2.687   6.624   3.043
 2756SOL     OW 9166   5.513   6.559   0.525
 2756SOL    HW1 9167   5.568   6.635   0.491
 2756SOL    HW2 9168   5.558   6.473   0.502
 2757SOL     OW 9169   0.744   5.188   1.683
 2757SOL    HW1 9170   0.778   5.254   1.751
 2757SOL    HW2 9171   0.821   5.153   1.629
 2758SOL     OW 9172   5.431   0.335   5.467
 2758SOL    HW1 9173   5.464   0.290   5.384
 2758SOL    HW2 9174   5.371   0.411   5.442
 2759SOL     OW 9175   5.596   6.190   3.940
 2759SOL    HW1 9176   5.678   6.177   3.996
 2759SOL    HW2 9177   5.539   6.262   3.980
 2760SOL     OW 9178   2.180   5.324   2.399
 2760SOL    HW1 9179   2.252   5.265   2.436
 2760SOL    HW2 9180   2.222   5.392   2.338
 2761SOL     OW 9181   0.944   5.706   3.251
 2761SOL    HW1 9182   0.953   5.713   3.350
 2761SOL    HW2 9183   1.021   5.751   3.206
 2762SOL     OW 9184   1.292   6.678   5.512
 2762SOL    HW1 9185   1.221   6.663   5.443
 2762SOL    HW2 9186   1.308   6.776   5.522
 2763SOL     OW 9187   5.818   2.178   3.844
 2763SOL    HW1 9188   5.810   2.218   3.935
 2763SOL    HW2 9189   5.844   2.249   3.779
 2764SOL     OW 9190   5.680   6.899   1.090
 2764SOL    HW1 9191   5.734   6.842   1.027
 2764SOL    HW2 9192   5.659   6.847   1.172
 2765SOL     OW 9193   5.343   1.158   2.048
 2765SOL    HW1 9194   5.318   1.244   2.092
 2765SOL    HW2 9195   5.443   1.153   2.040
 2766SOL     OW 9196   5.462   1.524   1.234
 2766SOL    HW1 9197   5.366   1.516   1.259
 2766SOL    HW2 9198   5.479   1.469   1.152
 2767SOL     OW 9199   5.989   4.142   6.467
 2767SOL    HW1 9200   6.010   4.199   6.546
 2767SOL    HW2 9201   5.988   4.199   6.385
 2768SOL     OW 9202   4.867   1.223   6.999
 2768SOL    HW1 9203   4.874   1.227   6.899
 2768SOL    HW2 9204   4.939   1.280   0.021
 2769SOL     OW 9205   6.948   4.010   2.683
 2769SOL    HW1 9206   6.888   3.930   2.675
 2769SOL    HW2 9207   0.015   3.983   2.729
 2770SOL     OW 9208   1.774   5.149   1.481
 2770SOL    HW1 9209   1.795   5.148   1.383
 2770SOL    HW2 9210   1.842   5.205   1.529
 2771SOL     OW 9211   5.235   1.631   1.510
 2771SOL    HW1 9212   5.251   1.623   1.608
 2771SOL    HW2 9213   5.172   1.706   1.492
 2772SOL     OW 9214   4.567   2.359   0.337
 2772SOL    HW1 9215   4.565   2.317   0.246
 2772SOL    HW2 9216   4.479   2.345   0.382
 2773SOL     OW 9217   4.276   3.817   6.197
 2773SOL    HW1 9218   4.347   3.756   6.163
 2773SOL    HW2 9219   4.247   3.787   6.288
 2774SOL     OW 9220   5.757   2.506   2.162
 2774SOL    HW1 9221   5.748   2.533   2.066
 2774SOL    HW2 9222   5.845   2.537   2.198
 2775SOL     OW 9223   0.103   5.869   1.388
 2775SOL    HW1 9224   0.118   5.809   1.310
 2775SOL    HW2 9225   0.172   5.850   1.458
 2776SOL     OW 9226   4.029   5.857   5.285
 2776SOL    HW1 9227   4.017   5.956   5.279
 2776SOL    HW2 9228   4.098   5.826   5.219
 2777SOL     OW 9229   3.440   1.072   2.472
 2777SOL    HW1 9230   3.473   1.032   2.557
 2777SOL    HW2 9231   3.395   1.002   2.417
 2778SOL     OW 9232   2.224   1.933   5.660
 2778SOL    HW1 9233   2.150   1.924   5.594
 2778SOL    HW2 9234   2.233   1.847   5.712
 2779SOL     OW 9235   5.307   6.919   0.368
 2779SOL    HW1 9236   5.328   7.007   0.411
 2779SOL    HW2 9237   5.218   6.886   0.401
 2780SOL     OW 9238   5.179   5.454   6.468
 2780SOL    HW1 9239   5.201   5.357   6.480
 2780SOL    HW2 9240   5.259   5.509   6.492
 2781SOL     OW 9241   5.943   4.495   1.791
 2781SOL    HW1 9242   6.008   4.453   1.855
 2781SOL    HW2 9243   5.989   4.569   1.742
 2782SOL     OW 9244   2.911   2.763   6.325
 2782SOL    HW1 9245   2.994   2.733   6.278
 2782SOL    HW2 9246   2.831   2.725   6.279
 2783SOL     OW 9247   6.648   4.047   5.121
 2783SOL    HW1 9248   6.566   4.074   5.171
 2783SOL    HW2 9249   6.699   3.980   5.175
 2784SOL     OW 9250   2.258   2.761   1.399
 2784SOL    HW1 9251   2.193   2.826   1.360
 2784SOL    HW2 9252   2.274   2.686   1.335
 2785SOL     OW 9253   6.596   1.285   6.579
 2785SOL    HW1 9254   6.629   1.213   6.641
 2785SOL    HW2 9255   6.674   1.337   6.545
 2786SOL     OW 9256   4.012   6.272   0.653
 2786SOL    HW1 9257   4.102   6.307   0.677
 2786SOL    HW2 9258   4.014   6.172   0.655
 2787SOL     OW 9259   1.832   4.035   6.671
 2787SOL    HW1 9260   1.805   3.993   6.584
 2787SOL    HW2 9261   1.926   4.068   6.664
 2788SOL     OW 9262   2.500   4.125   0.333
 2788SOL    HW1 9263   2.474   4.219   0.354
 2788SOL    HW2 9264   2.592   4.123   0.295
 2789SOL     OW 9265   1.555   1.742   3.429
 2789SOL    HW1 9266   1.630   1.800   3.395
 2789SOL    HW2 9267   1.580   1.705   3.518
 2790SOL     OW 9268   3.361   5.342   3.277
 2790SOL    HW1 9269   3.349   5.408   3.203
 2790SOL    HW2 9270   3.431   5.275   3.251
 2791SOL     OW 9271   1.783   4.439   5.276
 2791SOL    HW1 9272   1.761   4.528   5.236
 2791SOL    HW2 9273   1.810   4.375   5.204
 2792SOL     OW 9274   1.237   0.623   5.087
 2792SOL    HW1 9275   1.267   0.709   5.130
 2792SOL    HW2 9276   1.272   0.546   5.139
 2793SOL     OW 9277   5.281   1.393   2.465
 2793SOL    HW1 9278   5.229   1.312   2.492
 2793SOL    HW2 9279   5.235   1.475   2.500
 2794SOL     OW 9280   0.157   2.290   0.236
 2794SOL    HW1 9281   0.144   2.245   0.325
 2794SOL    HW2 9282   0.253   2.317   0.227
 2795SOL     OW 9283   2.782   4.078   1.219
 2795SOL    HW1 9284   2.856   4.113   1.276
 2795SOL    HW2 9285   2.694   4.101   1.262
 2796SOL     OW 9286   6.140   3.738   2.439
 2796SOL    HW1 9287   6.137   3.639   2.448
 2796SOL    HW2 9288   6.048   3.776   2.451
 2797SOL     OW 9289   5.171   5.224   4.563
 2797SOL    HW1 9290   5.166   5.316   4.525
 2797SOL    HW2 9291   5.107   5.216   4.639
 2798SOL     OW 9292   0.713   3.996   3.086
 2798SOL    HW1 9293   0.677   4.068   3.146
 2798SOL    HW2 9294   0.810   3.982   3.105
 2799SOL     OW 9295   0.209   5.604   6.465
 2799SOL    HW1 9296   0.274   5.663   6.418
 2799SOL    HW2 9297   0.167   5.654   6.540
 2800SOL     OW 9298   4.280   5.215   6.849
 2800SOL    HW1 9299   4.186   5.203   6.882
 2800SOL    HW2 9300   4.280   5.279   6.772
 2801SOL     OW 9301   4.461   5.478   2.553
 2801SOL    HW1 9302   4.440   5.479   2.455
 2801SOL    HW2 9303   4.461   5.572   2.587
 2802SOL     OW 9304   3.787   1.971   6.192
 2802SOL    HW1 9305   3.817   1.997   6.101
 2802SOL    HW2 9306   3.694   2.007   6.208
 2803SOL     OW 9307   2.274   6.015   6.128
 2803SOL    HW1 9308   2.204   6.084   6.144
 2803SOL    HW2 9309   2.357   6.039   6.179
 2804SOL     OW 9310   6.966   4.558   3.543
 2804SOL    HW1 9311   0.024   4.610   3.582
 2804SOL    HW2 9312   6.979   4.461   3.561
 2805SOL     OW 9313   4.881   3.392   1.165
 2805SOL    HW1 9314   4.786   3.418   1.151
 2805SOL    HW2 9315   4.886   3.303   1.211
 2806SOL     OW 9316   5.699   5.246   2.722
 2806SOL    HW1 9317   5.736   5.156   2.748
 2806SOL    HW2 9318   5.641   5.236   2.642
 2807SOL     OW 9319   4.449   4.478   3.652
 2807SOL    HW1 9320   4.500   4.411   3.705
 2807SOL    HW2 9321   4.351   4.468   3.670
 2808SOL     OW 9322   5.164   1.465   3.347
 2808SOL    HW1 9323   5.139   1.479   3.443
 2808SOL    HW2 9324   5.257   1.431   3.342
 2809SOL     OW 9325   5.809   2.740   1.078
 2809SOL    HW1 9326   5.780   2.691   1.160
 2809SOL    HW2 9327   5.744   2.725   1.005
 2810SOL     OW 9328   3.210   6.509   5.148
 2810SOL    HW1 9329   3.225   6.604   5.119
 2810SOL    HW2 9330   3.244   6.447   5.077
 2811SOL     OW 9331   0.903   1.198   2.715
 2811SOL    HW1 9332   0.905   1.195   2.815
 2811SOL    HW2 9333   0.929   1.108   2.679
 2812SOL     OW 9334   4.915   3.322   2.346
 2812SOL    HW1 9335   4.935   3.313   2.249
 2812SOL    HW2 9336   4.886   3.416   2.366
 2813SOL     OW 9337   5.815   6.511   5.628
 2813SOL    HW1 9338   5.724   6.530   5.665
 2813SOL    HW2 9339   5.832   6.570   5.549
 2814SOL     OW 9340   3.967   4.348   5.804
 2814SOL    HW1 9341   3.930   4.420   5.864
 2814SOL    HW2 9342   3.986   4.387   5.714
 2815SOL     OW 9343   6.328   0.999   4.466
 2815SOL    HW1 9344   6.407   0.970   4.518
 2815SOL    HW2 9345   6.246   0.991   4.523
 2816SOL     OW 9346   5.887   6.747   3.668
 2816SOL    HW1 9347   5.816   6.731   3.736
 2816SOL    HW2 9348   5.852   6.808   3.597
 2817SOL     OW 9349   1.885   1.042   1.372
 2817SOL    HW1 9350   1.928   1.066   1.460
 2817SOL    HW2 9351   1.911   1.109   1.303
 2818SOL     OW 9352   6.495   5.035   6.452
 2818SOL    HW1 9353   6.569   4.997   6.508
 2818SOL    HW2 9354   6.530   5.113   6.400
 2819SOL     OW 9355   0.042   2.112   0.741
 2819SOL    HW1 9356   6.970   2.090   0.703
 2819SOL    HW2 9357   0.064   2.047   0.814
 2820SOL     OW 9358   0.166   2.479   2.358
 2820SOL    HW1 9359   0.180   2.560   2.301
 2820SOL    HW2 9360   0.230   2.481   2.435
 2821SOL     OW 9361   2.609   3.915   6.185
 2821SOL    HW1 9362   2.639   3.838   6.242
 2821SOL    HW2 9363   2.575   3.880   6.098
 2822SOL     OW 9364   4.683   2.597   6.923
 2822SOL    HW1 9365   4.657   2.512   6.968
 2822SOL    HW2 9366   4.611   2.626   6.860
 2823SOL     OW 9367   2.564   6.476   2.051
 2823SOL    HW1 9368   2.519   6.387   2.053
 2823SOL    HW2 9369   2.525   6.534   2.123
 2824SOL     OW 9370   2.243   1.498   5.221
 2824SOL    HW1 9371   2.307   1.479   5.295
 2824SOL    HW2 9372   2.220   1.412   5.174
 2825SOL     OW 9373   0.046   6.874   0.822
 2825SOL    HW1 9374   0.012   6.853   0.913
 2825SOL    HW2 9375   0.115   6.807   0.796
 2826SOL     OW 9376   5.538   1.617   5.484
 2826SOL    HW1 9377   5.457   1.566   5.511
 2826SOL    HW2 9378   5.547   1.698   5.541
 2827SOL     OW 9379   6.780   1.543   4.751
 2827SOL    HW1 9380   6.826   1.480   4.812
 2827SOL    HW2 9381   6.724   1.607   4.804
 2828SOL     OW 9382   3.910   0.711   6.173
 2828SOL    HW1 9383   3.926   0.808   6.192
 2828SOL    HW2 9384   3.894   0.698   6.075
 2829SOL     OW 9385   3.818   5.302   6.286
 2829SOL    HW1 9386   3.866   5.345   6.362
 2829SOL    HW2 9387   3.875   5.306   6.204
 2830SOL     OW 9388   6.048   3.746   6.331
 2830SOL    HW1 9389   6.126   3.692   6.362
 2830SOL    HW2 9390   6.028   3.818   6.398
 2831SOL     OW 9391   6.131   6.064   4.480
 2831SOL    HW1 9392   6.190   6.031   4.553
 2831SOL    HW2 9393   6.179   6.132   4.425
 2832SOL     OW 9394   0.198   1.693   1.577
 2832SOL    HW1 9395   0.155   1.650   1.657
 2832SOL    HW2 9396   0.192   1.630   1.499
 2833SOL     OW 9397   5.818   1.795   2.248
 2833SOL    HW1 9398   5.860   1.719   2.297
 2833SOL    HW2 9399   5.854   1.881   2.284
 2834SOL     OW 9400   3.134   1.249   6.280
 2834SOL    HW1 9401   3.152   1.180   6.350
 2834SOL    HW2 9402   3.044   1.290   6.296
 2835SOL     OW 9403   0.135   6.922   1.825
 2835SOL    HW1 9404   0.132   6.828   1.791
 2835SOL    HW2 9405   0.067   6.977   1.777
 2836SOL     OW 9406   6.969   0.024   1.663
 2836SOL    HW1 9407   6.915   0.108   1.670
 2836SOL    HW2 9408   0.039   0.044   1.622
 2837SOL     OW 9409   5.133   2.953   3.032
 2837SOL    HW1 9410   5.186   3.033   3.060
 2837SOL    HW2 9411   5.035   2.974   3.037
 2838SOL     OW 9412   2.578   4.535   1.801
 2838SOL    HW1 9413   2.624   4.539   1.712
 2838SOL    HW2 9414   2.644   4.555   1.874
 2839SOL     OW 9415   5.699   1.245   2.403
 2839SOL    HW1 9416   5.792   1.257   2.440
 2839SOL    HW2 9417   5.674   1.149   2.406
 2840SOL     OW 9418   0.691   1.136   5.292
 2840SOL    HW1 9419   0.611   1.119   5.349
 2840SOL    HW2 9420   0.774   1.119   5.345
 2841SOL     OW 9421   0.793   6.365   0.142
 2841SOL    HW1 9422   0.784   6.404   0.234
 2841SOL    HW2 9423   0.890   6.362   0.116
 2842SOL     OW 9424   6.840   2.883   3.641
 2842SOL    HW1 9425   6.933   2.852   3.626
 2842SOL    HW2 9426   6.841   2.965   3.698
 2843SOL     OW 9427   3.356   1.648   4.204
 2843SOL    HW1 9428   3.306   1.641   4.291
 2843SOL    HW2 9429   3.420   1.724   4.209
 2844SOL     OW 9430   0.860   4.123   0.141
 2844SOL    HW1 9431   0.948   4.169   0.135
 2844SOL    HW2 9432   0.806   4.163   0.216
 2845SOL     OW 9433   1.046   3.935   0.636
 2845SOL    HW1 9434   1.023   3.842   0.663
 2845SOL    HW2 9435   1.103   3.934   0.554
 2846SOL     OW 9436   5.038   1.587   6.911
 2846SOL    HW1 9437   4.967   1.595   6.841
 2846SOL    HW2 9438   5.095   1.669   6.910
 2847SOL     OW 9439   5.776   4.066   3.323
 2847SOL    HW1 9440   5.793   3.980   3.371
 2847SOL    HW2 9441   5.678   4.075   3.305
 2848SOL     OW 9442   0.291   4.298   5.390
 2848SOL    HW1 9443   0.248   4.359   5.324
 2848SOL    HW2 9444   0.245   4.306   5.479
 2849SOL     OW 9445   3.440   1.030   0.460
 2849SOL    HW1 9446   3.444   0.951   0.399
 2849SOL    HW2 9447   3.513   1.094   0.436
 2850SOL     OW 9448   3.385   0.519   1.427
 2850SOL    HW1 9449   3.303   0.564   1.462
 2850SOL    HW2 9450   3.427   0.463   1.498
 2851SOL     OW 9451   1.189   4.895   5.290
 2851SOL    HW1 9452   1.092   4.920   5.290
 2851SOL    HW2 9453   1.226   4.906   5.382
 2852SOL     OW 9454   6.070   3.852   6.618
 2852SOL    HW1 9455   6.050   3.905   6.700
 2852SOL    HW2 9456   6.125   3.908   6.555
 2853SOL     OW 9457   3.257   2.554   0.431
 2853SOL    HW1 9458   3.247   2.653   0.428
 2853SOL    HW2 9459   3.217   2.519   0.516
 2854SOL     OW 9460   2.654   0.832   4.221
 2854SOL    HW1 9461   2.577   0.827   4.285
 2854SOL    HW2 9462   2.620   0.849   4.128
 2855SOL     OW 9463   2.160   0.528   6.303
 2855SOL    HW1 9464   2.181   0.611   6.252
 2855SOL    HW2 9465   2.066   0.500   6.284
 2856SOL     OW 9466   2.579   2.885   5.919
 2856SOL    HW1 9467   2.678   2.889   5.903
 2856SOL    HW2 9468   2.562   2.863   6.015
 2857SOL     OW 9469   2.753   1.890   1.665
 2857SOL    HW1 9470   2.786   1.981   1.690
 2857SOL    HW2 9471   2.825   1.823   1.683
 2858SOL     OW 9472   6.521   2.537   2.321
 2858SOL    HW1 9473   6.543   2.450   2.366
 2858SOL    HW2 9474   6.430   2.531   2.280
 2859SOL     OW 9475   4.673   1.192   0.727
 2859SOL    HW1 9476   4.738   1.124   0.760
 2859SOL    HW2 9477   4.633   1.162   0.640
 2860SOL     OW 9478   4.541   1.637   1.754
 2860SOL    HW1 9479   4.462   1.660   1.812
 2860SOL    HW2 9480   4.624   1.674   1.795
 2861SOL     OW 9481   4.870   5.628   5.561
 2861SOL    HW1 9482   4.904   5.579   5.642
 2861SOL    HW2 9483   4.782   5.670   5.583
 2862SOL     OW 9484   5.596   1.991   3.829
 2862SOL    HW1 9485   5.589   1.951   3.921
 2862SOL    HW2 9486   5.685   2.034   3.818
 2863SOL     OW 9487   6.143   1.883   0.468
 2863SOL    HW1 9488   6.093   1.919   0.389
 2863SOL    HW2 9489   6.241   1.896   0.453
 2864SOL     OW 9490   3.766   0.397   1.086
 2864SOL    HW1 9491   3.823   0.479   1.098
 2864SOL    HW2 9492   3.676   0.424   1.054
 2865SOL     OW 9493   4.627   4.489   5.030
 2865SOL    HW1 9494   4.717   4.455   5.058
 2865SOL    HW2 9495   4.631   4.523   4.936
 2866SOL     OW 9496   6.874   6.456   6.764
 2866SOL    HW1 9497   6.928   6.536   6.791
 2866SOL    HW2 9498   6.776   6.478   6.772
 2867SOL     OW 9499   6.045   3.952   2.233
 2867SOL    HW1 9500   6.114   3.990   2.294
 2867SOL    HW2 9501   5.956   3.953   2.278
 2868SOL     OW 9502   0.675   3.641   5.576
 2868SOL    HW1 9503   0.645   3.557   5.531
 2868SOL    HW2 9504   0.598   3.704   5.584
 2869SOL     OW 9505   6.467   0.607   2.284
 2869SOL    HW1 9506   6.370   0.601   2.309
 2869SOL    HW2 9507   6.478   0.675   2.211
 2870SOL     OW 9508   6.397   1.816   4.015
 2870SOL    HW1 9509   6.433   1.739   3.963
 2870SOL    HW2 9510   6.343   1.875   3.953
 2871SOL     OW 9511   1.961   1.900   6.503
 2871SOL    HW1 9512   2.035   1.887   6.569
 2871SOL    HW2 9513   1.989   1.969   6.435
 2872SOL     OW 9514   2.915   1.488   3.979
 2872SOL    HW1 9515   2.930   1.583   4.005
 2872SOL    HW2 9516   2.858   1.443   4.048
 2873SOL     OW 9517   0.515   6.150   2.700
 2873SOL    HW1 9518   0.593   6.166   2.761
 2873SOL    HW2 9519   0.430   6.158   2.752
 2874SOL     OW 9520   5.485   4.265   2.145
 2874SOL    HW1 9521   5.445   4.337   2.089
 2874SOL    HW2 9522   5.429   4.250   2.226
 2875SOL     OW 9523   3.815   6.552   6.318
 2875SOL    HW1 9524   3.773   6.551   6.227
 2875SOL    HW2 9525   3.912   6.527   6.310
 2876SOL     OW 9526   0.734   0.900   1.779
 2876SOL    HW1 9527   0.813   0.956   1.805
 2876SOL    HW2 9528   0.668   0.957   1.730
 2877SOL     OW 9529   3.271   2.860   5.481
 2877SOL    HW1 9530   3.217   2.801   5.422
 2877SOL    HW2 9531   3.298   2.942   5.430
 2878SOL     OW 9532   2.365   5.091   5.075
 2878SOL    HW1 9533   2.463   5.093   5.056
 2878SOL    HW2 9534   2.350   5.049   5.165
 2879SOL     OW 9535   5.057   5.175   0.444
 2879SOL    HW1 9536   5.012   5.245   0.389
 2879SOL    HW2 9537   5.149   5.158   0.407
 2880SOL     OW 9538   6.785   6.361   0.532
 2880SOL    HW1 9539   6.698   6.391   0.492
 2880SOL    HW2 9540   6.818   6.430   0.596
 2881SOL     OW 9541   6.782   6.293   1.419
 2881SOL    HW1 9542   6.742   6.227   1.355
 2881SOL    HW2 9543   6.858   6.251   1.468
 2882SOL     OW 9544   0.814   3.577   2.745
 2882SOL    HW1 9545   0.743   3.559   2.678
 2882SOL    HW2 9546   0.902   3.590   2.699
 2883SOL     OW 9547   3.353   6.947   3.941
 2883SOL    HW1 9548   3.324   0.018   3.905
 2883SOL    HW2 9549   3.308   6.875   3.889
 2884SOL     OW 9550   0.577   0.095   3.448
 2884SOL    HW1 9551   0.571   0.030   3.372
 2884SOL    HW2 9552   0.489   0.142   3.458
 2885SOL     OW 9553   0.300   2.156   3.196
 2885SOL    HW1 9554   0.253   2.244   3.200
 2885SOL    HW2 9555   0.395   2.168   3.224
 2886SOL     OW 9556   2.424   2.651   6.854
 2886SOL    HW1 9557   2.438   2.702   6.769
 2886SOL    HW2 9558   2.497   2.675   6.919
 2887SOL     OW 9559   2.715   6.852   5.098
 2887SOL    HW1 9560   2.658   6.800   5.161
 2887SOL    HW2 9561   2.805   6.810   5.092
 2888SOL     OW 9562   6.960   4.962   6.421
 2888SOL    HW1 9563   6.957   5.034   6.490
 2888SOL    HW2 9564   6.909   4.882   6.454
 2889SOL     OW 9565   1.689   0.857   1.623
 2889SOL    HW1 9566   1.718   0.799   1.699
 2889SOL    HW2 9567   1.759   0.856   1.552
 2890SOL     OW 9568   3.560   0.354   1.548
 2890SOL    HW1 9569   3.537   0.317   1.458
 2890SOL    HW2 9570   3.651   0.324   1.574
 2891SOL     OW 9571   2.151   4.681   3.508
 2891SOL    HW1 9572   2.130   4.701   3.413
 2891SOL    HW2 9573   2.067   4.684   3.562
 2892SOL     OW 9574   4.202   4.072   6.694
 2892SOL    HW1 9575   4.154   4.124   6.765
 2892SOL    HW2 9576   4.181   4.111   6.605
 2893SOL     OW 9577   1.990   6.533   5.703
 2893SOL    HW1 9578   1.978   6.538   5.802
 2893SOL    HW2 9579   2.025   6.620   5.669
 2894SOL     OW 9580   2.646   2.712   7.013
 2894SOL    HW1 9581   2.702   2.734   6.933
 2894SOL    HW2 9582   2.706   2.685   0.071
 2895SOL     OW 9583   3.907   3.337   6.531
 2895SOL    HW1 9584   3.992   3.284   6.534
 2895SOL    HW2 9585   3.838   3.293   6.587
 2896SOL     OW 9586   2.604   5.303   6.825
 2896SOL    HW1 9587   2.634   5.286   6.919
 2896SOL    HW2 9588   2.684   5.308   6.765
 2897SOL     OW 9589   2.302   6.790   3.792
 2897SOL    HW1 9590   2.228   6.738   3.750
 2897SOL    HW2 9591   2.329   6.746   3.878
 2898SOL     OW 9592   4.421   5.306   2.767
 2898SOL    HW1 9593   4.417   5.363   2.685
 2898SOL    HW2 9594   4.369   5.222   2.751
 2899SOL     OW 9595   0.123   0.630   6.525
 2899SOL    HW1 9596   0.197   0.679   6.479
 2899SOL    HW2 9597   0.038   0.644   6.475
 2900SOL     OW 9598   1.296   4.639   5.779
 2900SOL    HW1 9599   1.235   4.574   5.732
 2900SOL    HW2 9600   1.242   4.694   5.843
 2901SOL     OW 9601   2.301   0.658   2.559
 2901SOL    HW1 9602   2.352   0.716   2.622
 2901SOL    HW2 9603   2.224   0.616   2.607
 2902SOL     OW 9604   5.376   6.024   0.618
 2902SOL    HW1 9605   5.340   6.116   0.600
 2902SOL    HW2 9606   5.421   5.989   0.536
 2903SOL     OW 9607   3.393   0.649   2.275
 2903SOL    HW1 9608   3.432   0.741   2.266
 2903SOL    HW2 9609   3.409   0.598   2.191
 2904SOL     OW 9610   2.342   3.350   5.308
 2904SOL    HW1 9611   2.393   3.276   5.264
 2904SOL    HW2 9612   2.265   3.377   5.250
 2905SOL     OW 9613   1.721   1.267   2.545
 2905SOL    HW1 9614   1.673   1.180   2.530
 2905SOL    HW2 9615   1.801   1.251   2.603
 2906SOL     OW 9616   5.171   5.255   1.751
 2906SOL    HW1 9617   5.192   5.202   1.834
 2906SOL    HW2 9618   5.250   5.252   1.689
 2907SOL     OW 9619   6.625   1.719   4.930
 2907SOL    HW1 9620   6.577   1.684   5.011
 2907SOL    HW2 9621   6.563   1.775   4.876
 2908SOL     OW 9622   3.720   6.519   4.182
 2908SOL    HW1 9623   3.646   6.578   4.148
 2908SOL    HW2 9624   3.774   6.486   4.105
 2909SOL     OW 9625   0.519   5.216   4.688
 2909SOL    HW1 9626   0.614   5.197   4.662
 2909SOL    HW2 9627   0.483   5.138   4.739
 2910SOL     OW 9628   3.494   6.529   4.928
 2910SOL    HW1 9629   3.432   6.452   4.909
 2910SOL    HW2 9630   3.515   6.576   4.843
 2911SOL     OW 9631   2.410   5.182   3.284
 2911SOL    HW1 9632   2.389   5.087   3.260
 2911SOL    HW2 9633   2.363   5.207   3.368
 2912SOL     OW 9634   2.690   6.080   0.199
 2912SOL    HW1 9635   2.745   6.045   0.275
 2912SOL    HW2 9636   2.684   6.179   0.204
 2913SOL     OW 9637   1.600   4.080   2.245
 2913SOL    HW1 9638   1.515   4.048   2.203
 2913SOL    HW2 9639   1.591   4.177   2.269
 2914SOL     OW 9640   5.704   4.517   5.784
 2914SOL    HW1 9641   5.758   4.489   5.704
 2914SOL    HW2 9642   5.697   4.616   5.787
 2915SOL     OW 9643   4.483   1.332   4.020
 2915SOL    HW1 9644   4.573   1.349   4.059
 2915SOL    HW2 9645   4.415   1.388   4.069
 2916SOL     OW 9646   6.391   4.372   5.690
 2916SOL    HW1 9647   6.346   4.451   5.732
 2916SOL    HW2 9648   6.331   4.292   5.696
 2917SOL     OW 9649   4.276   0.170   0.548
 2917SOL    HW1 9650   4.237   0.258   0.575
 2917SOL    HW2 9651   4.209   0.119   0.495
 2918SOL     OW 9652   0.030   3.667   3.238
 2918SOL    HW1 9653   0.076   3.580   3.222
 2918SOL    HW2 9654   6.996   3.693   3.156
 2919SOL     OW 9655   6.231   0.102   0.608
 2919SOL    HW1 9656   6.249   0.086   0.511
 2919SOL    HW2 9657   6.138   0.073   0.630
 2920SOL     OW 9658   3.401   2.130   2.549
 2920SOL    HW1 9659   3.500   2.137   2.566
 2920SOL    HW2 9660   3.386   2.081   2.463
 2921SOL     OW 9661   6.857   1.458   2.284
 2921SOL    HW1 9662   6.819   1.524   2.349
 2921SOL    HW2 9663   6.955   1.450   2.298
 2922SOL     OW 9664   5.481   6.263   6.036
 2922SOL    HW1 9665   5.439   6.310   6.113
 2922SOL    HW2 9666   5.492   6.326   5.959
 2923SOL     OW 9667   6.686   5.466   2.535
 2923SOL    HW1 9668   6.655   5.423   2.450
 2923SOL    HW2 9669   6.775   5.509   2.520
 2924SOL     OW 9670   0.987   1.822   5.958
 2924SOL    HW1 9671   0.890   1.796   5.955
 2924SOL    HW2 9672   1.027   1.790   6.044
 2925SOL     OW 9673   5.855   2.089   2.682
 2925SOL    HW1 9674   5.845   2.067   2.779
 2925SOL    HW2 9675   5.789   2.035   2.629
 2926SOL     OW 9676   0.092   1.561   4.658
 2926SOL    HW1 9677   0.071   1.616   4.577
 2926SOL    HW2 9678   0.007   1.529   4.699
 2927SOL     OW 9679   1.370   2.895   2.240
 2927SOL    HW1 9680   1.318   2.871   2.322
 2927SOL    HW2 9681   1.468   2.890   2.260
 2928SOL     OW 9682   6.876   0.963   6.566
 2928SOL    HW1 9683   6.870   1.061   6.585
 2928SOL    HW2 9684   6.958   0.944   6.512
 2929SOL     OW 9685   0.455   0.940   6.170
 2929SOL    HW1 9686   0.433   0.923   6.074
 2929SOL    HW2 9687   0.378   0.988   6.214
 2930SOL     OW 9688   4.935   0.028   4.682
 2930SOL    HW1 9689   4.874   0.102   4.710
 2930SOL    HW2 9690   4.986   7.014   4.762
 2931SOL     OW 9691   5.007   5.685   6.473
 2931SOL    HW1 9692   5.061   5.602   6.490
 2931SOL    HW2 9693   4.974   5.684   6.379
 2932SOL     OW 9694   1.605   4.496   1.602
 2932SOL    HW1 9695   1.592   4.591   1.629
 2932SOL    HW2 9696   1.581   4.437   1.679
 2933SOL     OW 9697   5.433   2.186   4.147
 2933SOL    HW1 9698   5.397   2.273   4.182
 2933SOL    HW2 9699   5.384   2.110   4.190
 2934SOL     OW 9700   3.849   6.725   0.473
 2934SOL    HW1 9701   3.800   6.805   0.437
 2934SOL    HW2 9702   3.943   6.725   0.440
 2935SOL     OW 9703   6.399   3.514   1.310
 2935SOL    HW1 9704   6.426   3.418   1.314
 2935SOL    HW2 9705   6.378   3.546   1.402
 2936SOL     OW 9706   4.956   5.807   0.879
 2936SOL    HW1 9707   5.028   5.859   0.833
 2936SOL    HW2 9708   4.868   5.826   0.834
 2937SOL     OW 9709   3.320   5.443   0.985
 2937SOL    HW1 9710   3.232   5.405   1.013
 2937SOL    HW2 9711   3.328   5.438   0.885
 2938SOL     OW 9712   4.948   4.946   5.248
 2938SOL    HW1 9713   4.852   4.929   5.226
 2938SOL    HW2 9714   4.989   5.004   5.178
 2939SOL     OW 9715   6.112   6.994   4.750
 2939SOL    HW1 9716   6.141   0.065   4.786
 2939SOL    HW2 9717   6.028   7.006   4.697
 2940SOL     OW 9718   5.844   6.670   5.411
 2940SOL    HW1 9719   5.917   6.736   5.391
 2940SOL    HW2 9720   5.757   6.706   5.377
 2941SOL     OW 9721   1.724   2.062   5.594
 2941SOL    HW1 9722   1.812   2.099   5.564
 2941SOL    HW2 9723   1.684   2.123   5.663
 2942SOL     OW 9724   3.185   0.492   2.390
 2942SOL    HW1 9725   3.271   0.519   2.348
 2942SOL    HW2 9726   3.118   0.470   2.319
 2943SOL     OW 9727   5.501   3.008   2.552
 2943SOL    HW1 9728   5.432   3.079   2.562
 2943SOL    HW2 9729   5.480   2.952   2.472
 2944SOL     OW 9730   3.097   5.407   5.778
 2944SOL    HW1 9731   3.110   5.442   5.870
 2944SOL    HW2 9732   3.000   5.385   5.764
 2945SOL     OW 9733   3.784   3.412   3.180
 2945SOL    HW1 9734   3.838   3.458   3.110
 2945SOL    HW2 9735   3.797   3.313   3.173
 2946SOL     OW 9736   6.641   6.018   5.554
 2946SOL    HW1 9737   6.738   6.029   5.575
 2946SOL    HW2 9738   6.593   6.104   5.573
 2947SOL     OW 9739   6.855   3.970   6.192
 2947SOL    HW1 9740   6.878   3.873   6.184
 2947SOL    HW2 9741   6.761   3.984   6.161
 2948SOL     OW 9742   6.396   3.466   5.603
 2948SOL    HW1 9743   6.303   3.498   5.626
 2948SOL    HW2 9744   6.408   3.373   5.637
 2949SOL     OW 9745   1.823   6.439   1.047
 2949SOL    HW1 9746   1.782   6.384   0.974
 2949SOL    HW2 9747   1.805   6.395   1.135
 2950SOL     OW 9748   5.314   3.348   4.059
 2950SOL    HW1 9749   5.308   3.448   4.054
 2950SOL    HW2 9750   5.384   3.316   3.996
 2951SOL     OW 9751   6.778   2.115   0.519
 2951SOL    HW1 9752   6.820   2.195   0.476
 2951SOL    HW2 9753   6.721   2.145   0.596
 2952SOL     OW 9754   0.970   4.803   3.093
 2952SOL    HW1 9755   0.968   4.795   2.993
 2952SOL    HW2 9756   1.007   4.720   3.133
 2953SOL     OW 9757   4.861   2.591   2.158
 2953SOL    HW1 9758   4.904   2.616   2.071
 2953SOL    HW2 9759   4.852   2.492   2.163
 2954SOL     OW 9760   0.674   6.266   1.870
 2954SOL    HW1 9761   0.591   6.305   1.829
 2954SOL    HW2 9762   0.674   6.283   1.968
 2955SOL     OW 9763   0.513   3.138   0.543
 2955SOL    HW1 9764   0.486   3.046   0.513
 2955SOL    HW2 9765   0.431   3.191   0.565
 2956SOL     OW 9766   0.331   6.143   2.958
 2956SOL    HW1 9767   0.317   6.126   3.055
 2956SOL    HW2 9768   0.243   6.150   2.912
 2957SOL     OW 9769   0.372   3.803   0.614
 2957SOL    HW1 9770   0.457   3.828   0.662
 2957SOL    HW2 9771   0.390   3.794   0.517
 2958SOL     OW 9772   2.032   4.230   5.904
 2958SOL    HW1 9773   2.122   4.246   5.864
 2958SOL    HW2 9774   1.971   4.305   5.880
 2959SOL     OW 9775   5.610   4.479   6.040
 2959SOL    HW1 9776   5.634   4.501   5.945
 2959SOL    HW2 9777   5.519   4.513   6.061
 2960SOL     OW 9778   3.021   1.259   0.481
 2960SOL    HW1 9779   2.935   1.219   0.451
 2960SOL    HW2 9780   3.056   1.320   0.411
 2961SOL     OW 9781   5.532   3.094   5.027
 2961SOL    HW1 9782   5.442   3.080   5.070
 2961SOL    HW2 9783   5.591   3.147   5.089
 2962SOL     OW 9784   4.798   1.210   3.618
 2962SOL    HW1 9785   4.797   1.122   3.571
 2962SOL    HW2 9786   4.711   1.225   3.664
 2963SOL     OW 9787   1.845   1.821   5.711
 2963SOL    HW1 9788   1.818   1.906   5.666
 2963SOL    HW2 9789   1.763   1.776   5.747
 2964SOL     OW 9790   1.909   0.251   2.080
 2964SOL    HW1 9791   1.860   0.338   2.083
 2964SOL    HW2 9792   1.970   0.245   2.159
 2965SOL     OW 9793   0.292   0.786   5.159
 2965SOL    HW1 9794   0.306   0.876   5.199
 2965SOL    HW2 9795   0.323   0.715   5.223
 2966SOL     OW 9796   5.290   4.434   3.466
 2966SOL    HW1 9797   5.225   4.506   3.442
 2966SOL    HW2 9798   5.339   4.405   3.384
 2967SOL     OW 9799   6.132   2.465   3.371
 2967SOL    HW1 9800   6.164   2.559   3.358
 2967SOL    HW2 9801   6.033   2.466   3.390
 2968SOL     OW 9802   0.937   3.605   5.454
 2968SOL    HW1 9803   0.853   3.614   5.509
 2968SOL    HW2 9804   0.947   3.510   5.423
 2969SOL     OW 9805   5.600   2.009   4.946
 2969SOL    HW1 9806   5.510   2.000   4.902
 2969SOL    HW2 9807   5.606   1.946   5.023
 2970SOL     OW 9808   1.259   4.624   6.637
 2970SOL    HW1 9809   1.204   4.573   6.571
 2970SOL    HW2 9810   1.204   4.698   6.675
 2971SOL     OW 9811   5.834   3.284   3.512
 2971SOL    HW1 9812   5.923   3.330   3.526
 2971SOL    HW2 9813   5.761   3.352   3.514
 2972SOL     OW 9814   6.778   3.867   6.590
 2972SOL    HW1 9815   6.703   3.876   6.524
 2972SOL    HW2 9816   6.786   3.772   6.619
 2973SOL     OW 9817   5.510   0.103   4.136
 2973SOL    HW1 9818   5.471   0.193   4.118
 2973SOL    HW2 9819   5.470   0.065   4.220
 2974SOL     OW 9820   5.578   4.083   2.932
 2974SOL    HW1 9821   5.567   4.008   2.998
 2974SOL    HW2 9822   5.633   4.155   2.973
 2975SOL     OW 9823   0.688   1.685   5.365
 2975SOL    HW1 9824   0.743   1.758   5.406
 2975SOL    HW2 9825   0.744   1.603   5.354
 2976SOL     OW 9826   3.948   1.132   2.872
 2976SOL    HW1 9827   3.881   1.182   2.819
 2976SOL    HW2 9828   3.902   1.076   2.942
 2977SOL     OW 9829   2.522   0.215   4.420
 2977SOL    HW1 9830   2.470   0.187   4.502
 2977SOL    HW2 9831   2.589   0.144   4.398
 2978SOL     OW 9832   4.447   4.913   0.251
 2978SOL    HW1 9833   4.474   4.879   0.341
 2978SOL    HW2 9834   4.486   4.855   0.180
 2979SOL     OW 9835   3.377   0.462   3.624
 2979SOL    HW1 9836   3.382   0.377   3.572
 2979SOL    HW2 9837   3.438   0.456   3.704
 2980SOL     OW 9838   0.714   6.406   4.481
 2980SOL    HW1 9839   0.653   6.335   4.516
 2980SOL    HW2 9840   0.669   6.455   4.406
 2981SOL     OW 9841   1.340   1.061   5.986
 2981SOL    HW1 9842   1.282   1.082   6.065
 2981SOL    HW2 9843   1.410   0.994   6.014
 2982SOL     OW 9844   3.990   6.228   2.927
 2982SOL    HW1 9845   4.017   6.313   2.971
 2982SOL    HW2 9846   3.999   6.152   2.992
 2983SOL     OW 9847   0.506   0.910   4.340
 2983SOL    HW1 9848   0.519   0.812   4.332
 2983SOL    HW2 9849   0.474   0.932   4.433
 2984SOL     OW 9850   6.253   5.415   1.382
 2984SOL    HW1 9851   6.325   5.442   1.319
 2984SOL    HW2 9852   6.285   5.338   1.439
 2985SOL     OW 9853   0.911   1.712   4.409
 2985SOL    HW1 9854   0.834   1.768   4.440
 2985SOL    HW2 9855   0.997   1.754   4.438
 2986SOL     OW 9856   2.319   4.106   5.640
 2986SOL    HW1 9857   2.273   4.018   5.630
 2986SOL    HW2 9858   2.359   4.132   5.552
 2987SOL     OW 9859   5.017   0.872   4.628
 2987SOL    HW1 9860   4.946   0.866   4.698
 2987SOL    HW2 9861   5.030   0.782   4.586
 2988SOL     OW 9862   1.163   0.701   2.066
 2988SOL    HW1 9863   1.166   0.708   1.966
 2988SOL    HW2 9864   1.238   0.643   2.098
 2989SOL     OW 9865   6.396   5.072   1.032
 2989SOL    HW1 9866   6.467   5.020   1.079
 2989SOL    HW2 9867   6.439   5.138   0.970
 2990SOL     OW 9868   3.737   0.373   2.767
 2990SOL    HW1 9869   3.819   0.425   2.745
 2990SOL    HW2 9870   3.754   0.276   2.754
 2991SOL     OW 9871   0.053   4.098   0.484
 2991SOL    HW1 9872   6.977   4.124   0.462
 2991SOL    HW2 9873   0.053   4.016   0.541
 2992SOL     OW 9874   3.187   5.488   6.510
 2992SOL    HW1 9875   3.264   5.442   6.554
 2992SOL    HW2 9876   3.159   5.436   6.429
 2993SOL     OW 9877   2.181   4.340   1.934
 2993SOL    HW1 9878   2.084   4.320   1.943
 2993SOL    HW2 9879   2.194   4.410   1.864
 2994SOL     OW 9880   4.979   0.091   6.562
 2994SOL    HW1 9881   5.003   0.138   6.477
 2994SOL    HW2 9882   4.895   0.132   6.600
 2995SOL     OW 9883   1.403   1.915   0.029
 2995SOL    HW1 9884   1.334   1.932   0.099
 2995SOL    HW2 9885   1.357   1.900   6.959
 2996SOL     OW 9886   2.869   5.810   4.952
 2996SOL    HW1 9887   2.948   5.845   4.902
 2996SOL    HW2 9888   2.856   5.713   4.931
 2997SOL     OW 9889   5.154   5.884   1.737
 2997SOL    HW1 9890   5.180   5.962   1.680
 2997SOL    HW2 9891   5.144   5.914   1.832
 2998SOL     OW 9892   4.953   5.894   4.480
 2998SOL    HW1 9893   5.000   5.895   4.391
 2998SOL    HW2 9894   4.925   5.800   4.502
 2999SOL     OW 9895   3.384   5.871   3.482
 2999SOL    HW1 9896   3.309   5.890   3.546
 2999SOL    HW2 9897   3.384   5.774   3.458
 3000SOL     OW 9898   1.624   3.488   5.528
 3000SOL    HW1 9899   1.719   3.459   5.517
 3000SOL    HW2 9900   1.621   3.587   5.542
 3001SOL     OW 9901   4.743   0.286   6.228
 3001SOL    HW1 9902   4.742   0.349   6.151
 3001SOL    HW2 9903   4.654   0.243   6.237
 3002SOL     OW 9904   4.050   6.996   5.609
 3002SOL    HW1 9905   4.030   0.075   5.599
 3002SOL    HW2 9906   4.100   6.963   5.529
 3003SOL     OW 9907   2.605   6.178   5.863
 3003SOL    HW1 9908   2.526   6.225   5.903
 3003SOL    HW2 9909   2.669   6.246   5.828
 3004SOL     OW 9910   6.240   3.942   3.866
 3004SOL    HW1 9911   6.294   3.981   3.791
 3004SOL    HW2 9912   6.152   3.989   3.871
 3005SOL     OW 9913   3.240   3.111   1.596
 3005SOL    HW1 9914   3.271   3.024   1.557
 3005SOL    HW2 9915   3.147   3.102   1.630
 3006SOL     OW 9916   6.090   1.211   0.846
 3006SOL    HW1 9917   6.091   1.279   0.773
 3006SOL    HW2 9918   6.143   1.244   0.924
 3007SOL     OW 9919   5.474   5.125   2.254
 3007SOL    HW1 9920   5.462   5.027   2.274
 3007SOL    HW2 9921   5.385   5.166   2.235
 3008SOL     OW 9922   3.785   0.117   5.836
 3008SOL    HW1 9923   3.824   0.202   5.871
 3008SOL    HW2 9924   3.750   0.132   5.744
 3009SOL     OW 9925   0.626   0.307   2.649
 3009SOL    HW1 9926   0.560   0.347   2.586
 3009SOL    HW2 9927   0.618   0.353   2.738
 3010SOL     OW 9928   4.233   5.962   3.014
 3010SOL    HW1 9929   4.323   5.972   2.970
 3010SOL    HW2 9930   4.172   5.913   2.952
 3011SOL     OW 9931   6.108   0.816   6.607
 3011SOL    HW1 9932   6.107   0.913   6.584
 3011SOL    HW2 9933   6.118   0.762   6.523
 3012SOL     OW 9934   0.340   3.395   3.909
 3012SOL    HW1 9935   0.313   3.397   3.813
 3012SOL    HW2 9936   0.425   3.447   3.920
 3013SOL     OW 9937   5.960   6.004   2.583
 3013SOL    HW1 9938   5.900   5.968   2.512
 3013SOL    HW2 9939   5.976   5.934   2.652
 3014SOL     OW 9940   5.453   1.644   3.900
 3014SOL    HW1 9941   5.404   1.571   3.947
 3014SOL    HW2 9942   5.486   1.710   3.968
 3015SOL     OW 9943   2.234   1.970   0.778
 3015SOL    HW1 9944   2.187   1.928   0.700
 3015SOL    HW2 9945   2.182   1.955   0.861
 3016SOL     OW 9946   3.381   5.776   4.501
 3016SOL    HW1 9947   3.353   5.870   4.482
 3016SOL    HW2 9948   3.371   5.757   4.599
 3017SOL     OW 9949   0.643   5.668   1.169
 3017SOL    HW1 9950   0.640   5.577   1.211
 3017SOL    HW2 9951   0.738   5.694   1.153
 3018SOL     OW 9952   4.096   0.334   6.898
 3018SOL    HW1 9953   4.061   0.389   6.974
 3018SOL    HW2 9954   4.025   0.271   6.866
 3019SOL     OW 9955   3.185   6.395   0.924
 3019SOL    HW1 9956   3.268   6.392   0.868
 3019SOL    HW2 9957   3.209   6.380   1.020
 3020SOL     OW 9958   3.554   3.754   1.948
 3020SOL    HW1 9959   3.570   3.772   1.851
 3020SOL    HW2 9960   3.476   3.809   1.979
 3021SOL     OW 9961   1.646   1.796   6.646
 3021SOL    HW1 9962   1.692   1.883   6.628
 3021SOL    HW2 9963   1.555   1.814   6.685
 3022SOL     OW 9964   3.729   5.968   2.694
 3022SOL    HW1 9965   3.722   5.925   2.784
 3022SOL    HW2 9966   3.643   5.959   2.646
 3023SOL     OW 9967   3.613   5.989   3.472
 3023SOL    HW1 9968   3.602   6.051   3.394
 3023SOL    HW2 9969   3.534   5.928   3.477
 3024SOL     OW 9970   2.935   0.655   6.735
 3024SOL    HW1 9971   2.861   0.717   6.711
 3024SOL    HW2 9972   2.993   0.697   6.804
 3025SOL     OW 9973   2.946   3.091   0.818
 3025SOL    HW1 9974   2.983   3.155   0.751
 3025SOL    HW2 9975   2.860   3.053   0.783
 3026SOL     OW 9976   1.571   3.450   1.433
 3026SOL    HW1 9977   1.628   3.513   1.380
 3026SOL    HW2 9978   1.497   3.416   1.375
 3027SOL     OW 9979   3.805   0.813   2.635
 3027SOL    HW1 9980   3.765   0.855   2.555
 3027SOL    HW2 9981   3.819   0.715   2.618
 3028SOL     OW 9982   1.265   4.928   0.033
 3028SOL    HW1 9983   1.211   5.001   0.075
 3028SOL    HW2 9984   1.253   4.844   0.086
 3029SOL     OW 9985   5.993   4.618   5.517
 3029SOL    HW1 9986   6.001   4.717   5.530
 3029SOL    HW2 9987   5.985   4.598   5.419
 3030SOL     OW 9988   1.150   1.210   5.560
 3030SOL    HW1 9989   1.199   1.261   5.630
 3030SOL    HW2 9990   1.064   1.176   5.597
 3031SOL     OW 9991   0.826   3.581   0.609
 3031SOL    HW1 9992   0.798   3.671   0.643
 3031SOL    HW2 9993   0.785   3.565   0.520
 3032SOL     OW 9994   5.144   6.993   6.942
 3032SOL    HW1 9995   5.155   6.982   6.843
 3032SOL    HW2 9996   5.227   6.963   6.989
 3033SOL     OW 9997   0.755   3.183   0.407
 3033SOL    HW1 9998   0.675   3.171   0.348
 3033SOL    HW2 9999   0.726   3.187   0.502
 3034SOL     OW10000   2.114   6.593   3.579
 3034SOL    HW110001   2.139   6.622   3.672
 3034SOL    HW210002   2.155   6.504   3.560
 3035SOL     OW10003   6.496   1.388   0.610
 3035SOL    HW110004   6.461   1.419   0.521
 3035SOL    HW210005   6.548   1.461   0.653
 3036SOL     OW10006   1.450   3.760   0.151
 3036SOL    HW110007   1.473   3.680   0.096
 3036SOL    HW210008   1.374   3.737   0.213
 3037SOL     OW10009   5.806   5.605   4.489
 3037SOL    HW110010   5.893   5.630   4.446
 3037SOL    HW210011   5.753   5.688   4.505
 3038SOL     OW10012   5.620   6.653   6.430
 3038SOL    HW110013   5.584   6.655   6.523
 3038SOL    HW210014   5.706   6.703   6.426
 3039SOL     OW10015   6.473   4.654   2.643
 3039SOL    HW110016   6.529   4.665   2.725
 3039SOL    HW210017   6.504   4.720   2.574
 3040SOL     OW10018   3.874   4.067   6.138
 3040SOL    HW110019   3.920   4.135   6.080
 3040SOL    HW210020   3.776   4.085   6.138
 3041SOL     OW10021   1.888   3.125   5.995
 3041SOL    HW110022   1.859   3.080   5.911
 3041SOL    HW210023   1.859   3.220   5.994
 3042SOL     OW10024   4.926   0.420   2.312
 3042SOL    HW110025   4.868   0.494   2.279
 3042SOL    HW210026   5.020   0.435   2.281
 3043SOL     OW10027   0.641   5.564   0.580
 3043SOL    HW110028   0.559   5.584   0.635
 3043SOL    HW210029   0.620   5.491   0.515
 3044SOL     OW10030   3.461   4.661   5.539
 3044SOL    HW110031   3.362   4.646   5.549
 3044SOL    HW210032   3.510   4.576   5.554
 3045SOL     OW10033   5.311   0.720   2.624
 3045SOL    HW110034   5.326   0.730   2.722
 3045SOL    HW210035   5.221   0.757   2.600
 3046SOL     OW10036   0.992   3.328   5.395
 3046SOL    HW110037   0.934   3.282   5.328
 3046SOL    HW210038   1.074   3.364   5.349
 3047SOL     OW10039   5.496   4.820   1.473
 3047SOL    HW110040   5.492   4.863   1.563
 3047SOL    HW210041   5.591   4.811   1.444
 3048SOL     OW10042   4.337   3.496   1.297
 3048SOL    HW110043   4.352   3.590   1.326
 3048SOL    HW210044   4.254   3.461   1.341
 3049SOL     OW10045   0.895   0.135   1.478
 3049SOL    HW110046   0.968   0.199   1.451
 3049SOL    HW210047   0.832   0.181   1.540
 3050SOL     OW10048   3.422   6.484   3.734
 3050SOL    HW110049   3.359   6.561   3.723
 3050SOL    HW210050   3.416   6.425   3.654
 3051SOL     OW10051   2.669   4.544   6.657
 3051SOL    HW110052   2.667   4.456   6.610
 3051SOL    HW210053   2.633   4.534   6.749
 3052SOL     OW10054   3.684   0.191   3.071
 3052SOL    HW110055   3.719   0.105   3.109
 3052SOL    HW210056   3.760   0.254   3.055
 3053SOL     OW10057   5.773   0.637   6.984
 3053SOL    HW110058   5.780   0.667   6.889
 3053SOL    HW210059   5.825   0.701   0.024
 3054SOL     OW10060   7.000   3.025   0.091
 3054SOL    HW110061   6.913   3.075   0.085
 3054SOL    HW210062   7.013   2.992   0.184
 3055SOL     OW10063   5.307   0.067   3.777
 3055SOL    HW110064   5.315   0.132   3.852
 3055SOL    HW210065   5.211   0.042   3.765
 3056SOL     OW10066   6.510   0.148   0.087
 3056SOL    HW110067   6.483   0.228   0.033
 3056SOL    HW210068   6.461   0.068   0.055
 3057SOL     OW10069   4.755   5.510   2.456
 3057SOL    HW110070   4.701   5.568   2.395
 3057SOL    HW210071   4.753   5.548   2.548
 3058SOL     OW10072   6.465   5.822   1.194
 3058SOL    HW110073   6.398   5.873   1.249
 3058SOL    HW210074   6.474   5.865   1.104
 3059SOL     OW10075   0.874   3.230   5.176
 3059SOL    HW110076   0.925   3.169   5.115
 3059SOL    HW210077   0.786   3.253   5.135
 3060SOL     OW10078   0.632   0.035   0.271
 3060SOL    HW110079   0.706   0.092   0.234
 3060SOL    HW210080   0.560   0.094   0.308
 3061SOL     OW10081   0.106   0.685   4.945
 3061SOL    HW110082   0.166   0.734   5.009
 3061SOL    HW210083   0.058   0.612   4.992
 3062SOL     OW10084   2.300   6.671   1.866
 3062SOL    HW110085   2.326   6.583   1.906
 3062SOL    HW210086   2.313   6.667   1.767
 3063SOL     OW10087   2.119   4.776   2.080
 3063SOL    HW110088   2.095   4.859   2.129
 3063SOL    HW210089   2.173   4.716   2.140
 3064SOL     OW10090   5.750   3.396   3.957
 3064SOL    HW110091   5.755   3.437   4.048
 3064SOL    HW210092   5.835   3.346   3.938
 3065SOL     OW10093   1.928   0.789   6.527
 3065SOL    HW110094   1.997   0.817   6.594
 3065SOL    HW210095   1.847   0.755   6.575
 3066SOL     OW10096   6.022   4.370   0.124
 3066SOL    HW110097   5.938   4.331   0.162
 3066SOL    HW210098   6.078   4.407   0.197
 3067SOL     OW10099   3.641   0.969   4.831
 3067SOL    HW110100   3.660   0.921   4.916
 3067SOL    HW210101   3.636   1.068   4.849
 3068SOL     OW10102   5.984   6.036   0.938
 3068SOL    HW110103   5.887   6.019   0.925
 3068SOL    HW210104   6.032   5.948   0.949
 3069SOL     OW10105   0.444   5.334   1.957
 3069SOL    HW110106   0.413   5.263   1.893
 3069SOL    HW210107   0.401   5.421   1.933
 3070SOL     OW10108   2.286   1.407   3.283
 3070SOL    HW110109   2.369   1.355   3.262
 3070SOL    HW210110   2.260   1.462   3.204
 3071SOL     OW10111   6.032   0.330   3.728
 3071SOL    HW110112   5.965   0.308   3.658
 3071SOL    HW210113   5.986   0.372   3.807
 3072SOL     OW10114   0.817   6.745   1.845
 3072SOL    HW110115   0.913   6.735   1.871
 3072SOL    HW210116   0.811   6.797   1.760
 3073SOL     OW10117   0.643   3.403   5.160
 3073SOL    HW110118   0.578   3.426   5.087
 3073SOL    HW210119   0.731   3.446   5.143
 3074SOL     OW10120   4.549   2.988   0.288
 3074SOL    HW110121   4.487   2.919   0.251
 3074SOL    HW210122   4.560   3.062   0.221
 3075SOL     OW10123   1.635   6.733   1.611
 3075SOL    HW110124   1.708   6.743   1.544
 3075SOL    HW210125   1.585   6.819   1.619
 3076SOL     OW10126   6.226   0.540   4.765
 3076SOL    HW110127   6.255   0.558   4.671
 3076SOL    HW210128   6.237   0.442   4.784
 3077SOL     OW10129   5.781   4.920   3.775
 3077SOL    HW110130   5.692   4.919   3.729
 3077SOL    HW210131   5.835   4.997   3.742
 3078SOL     OW10132   2.078   3.681   2.142
 3078SOL    HW110133   2.005   3.673   2.210
 3078SOL    HW210134   2.110   3.589   2.117
 3079SOL     OW10135   1.317   2.613   5.022
 3079SOL    HW110136   1.316   2.670   5.104
 3079SOL    HW210137   1.398   2.554   5.023
 3080SOL     OW10138   6.213   4.890   1.565
 3080SOL    HW110139   6.158   4.971   1.584
 3080SOL    HW210140   6.211   4.872   1.466
 3081SOL     OW10141   0.341   4.408   6.069
 3081SOL    HW110142   0.422   4.361   6.103
 3081SOL    HW210143   0.368   4.492   6.022
 3082SOL     OW10144   3.751   0.026   3.462
 3082SOL    HW110145   3.659   0.067   3.457
 3082SOL    HW210146   3.751   6.971   3.531
 3083SOL     OW10147   3.423   0.237   2.721
 3083SOL    HW110148   3.414   0.146   2.679
 3083SOL    HW210149   3.511   0.277   2.696
 3084SOL     OW10150   4.502   4.615   3.946
 3084SOL    HW110151   4.510   4.566   3.859
 3084SOL    HW210152   4.556   4.699   3.942
 3085SOL     OW10153   6.848   4.672   3.336
 3085SOL    HW110154   6.866   4.646   3.431
 3085SOL    HW210155   6.754   4.704   3.328
 3086SOL     OW10156   4.248   1.003   1.786
 3086SOL    HW110157   4.162   1.053   1.783
 3086SOL    HW210158   4.320   1.062   1.822
 3087SOL     OW10159   6.435   4.559   3.513
 3087SOL    HW110160   6.466   4.484   3.571
 3087SOL    HW210161   6.365   4.612   3.561
 3088SOL     OW10162   2.340   4.952   5.314
 3088SOL    HW110163   2.293   4.995   5.391
 3088SOL    HW210164   2.434   4.986   5.310
 3089SOL     OW10165   1.523   2.749   0.388
 3089SOL    HW110166   1.548   2.656   0.361
 3089SOL    HW210167   1.434   2.773   0.349
 3090SOL     OW10168   1.569   1.363   1.470
 3090SOL    HW110169   1.556   1.418   1.387
 3090SOL    HW210170   1.495   1.383   1.534
 3091SOL     OW10171   3.232   6.975   0.286
 3091SOL    HW110172   3.298   6.982   0.361
 3091SOL    HW210173   3.151   0.010   0.309
 3092SOL     OW10174   5.637   6.721   0.146
 3092SOL    HW110175   5.674   6.803   0.103
 3092SOL    HW210176   5.645   6.729   0.245
 3093SOL     OW10177   5.806   5.148   5.711
 3093SOL    HW110178   5.824   5.230   5.657
 3093SOL    HW210179   5.724   5.103   5.677
 3094SOL     OW10180   3.089   6.060   4.899
 3094SOL    HW110181   3.095   6.044   4.801
 3094SOL    HW210182   3.043   6.147   4.915
 3095SOL     OW10183   2.589   4.565   4.506
 3095SOL    HW110184   2.534   4.503   4.449
 3095SOL    HW210185   2.645   4.511   4.569
 3096SOL     OW10186   6.698   0.347   4.669
 3096SOL    HW110187   6.743   0.342   4.758
 3096SOL    HW210188   6.748   0.410   4.610
 3097SOL     OW10189   0.743   2.657   0.953
 3097SOL    HW110190   0.677   2.699   1.015
 3097SOL    HW210191   0.825   2.714   0.948
 3098SOL     OW10192   2.710   3.510   1.161
 3098SOL    HW110193   2.783   3.457   1.118
 3098SOL    HW210194   2.622   3.467   1.142
 3099SOL     OW10195   6.840   5.712   4.497
 3099SOL    HW110196   6.766   5.773   4.468
 3099SOL    HW210197   6.840   5.705   4.597
 3100SOL     OW10198   6.772   6.928   4.800
 3100SOL    HW110199   6.827   6.847   4.778
 3100SOL    HW210200   6.824   7.011   4.780
 3101SOL     OW10201   4.924   5.893   5.200
 3101SOL    HW110202   4.834   5.852   5.217
 3101SOL    HW210203   4.924   5.988   5.229
 3102SOL     OW10204   0.771   4.366   1.073
 3102SOL    HW110205   0.681   4.371   1.116
 3102SOL    HW210206   0.761   4.377   0.974
 3103SOL     OW10207   3.660   2.392   0.647
 3103SOL    HW110208   3.607   2.311   0.673
 3103SOL    HW210209   3.622   2.431   0.564
 3104SOL     OW10210   5.496   5.821   4.177
 3104SOL    HW110211   5.517   5.870   4.093
 3104SOL    HW210212   5.578   5.816   4.234
 3105SOL     OW10213   5.520   5.732   3.522
 3105SOL    HW110214   5.580   5.724   3.602
 3105SOL    HW210215   5.457   5.654   3.521
 3106SOL     OW10216   6.526   2.250   2.379
 3106SOL    HW110217   6.556   2.162   2.417
 3106SOL    HW210218   6.448   2.284   2.432
 3107SOL     OW10219   3.339   0.631   4.189
 3107SOL    HW110220   3.327   0.533   4.176
 3107SOL    HW210221   3.296   0.659   4.275
 3108SOL     OW10222   1.555   0.739   4.570
 3108SOL    HW110223   1.476   0.795   4.595
 3108SOL    HW210224   1.608   0.787   4.500
 3109SOL     OW10225   5.241   6.002   2.559
 3109SOL    HW110226   5.281   6.078   2.610
 3109SOL    HW210227   5.240   6.024   2.461
 3110SOL     OW10228   0.335   2.850   3.751
 3110SOL    HW110229   0.386   2.764   3.760
 3110SOL    HW210230   0.399   2.925   3.731
 3111SOL     OW10231   6.276   5.395   3.895
 3111SOL    HW110232   6.276   5.419   3.992
 3111SOL    HW210233   6.334   5.460   3.845
 3112SOL     OW10234   4.460   2.665   6.013
 3112SOL    HW110235   4.535   2.730   5.997
 3112SOL    HW210236   4.384   2.686   5.951
 3113SOL     OW10237   2.520   0.048   3.931
 3113SOL    HW110238   2.531   6.999   3.858
 3113SOL    HW210239   2.499   0.000   4.017
 3114SOL     OW10240   5.308   3.780   6.653
 3114SOL    HW110241   5.359   3.709   6.701
 3114SOL    HW210242   5.342   3.870   6.681
 3115SOL     OW10243   3.707   4.004   0.602
 3115SOL    HW110244   3.662   4.020   0.515
 3115SOL    HW210245   3.704   3.906   0.624
 3116SOL     OW10246   6.791   2.433   6.477
 3116SOL    HW110247   6.825   2.361   6.538
 3116SOL    HW210248   6.715   2.397   6.424
 3117SOL     OW10249   4.389   3.285   5.519
 3117SOL    HW110250   4.373   3.369   5.467
 3117SOL    HW210251   4.487   3.276   5.538
 3118SOL     OW10252   6.385   4.510   6.799
 3118SOL    HW110253   6.343   4.522   6.889
 3118SOL    HW210254   6.382   4.597   6.749
 3119SOL     OW10255   2.051   4.624   5.251
 3119SOL    HW110256   2.138   4.577   5.235
 3119SOL    HW210257   2.032   4.626   5.349
 3120SOL     OW10258   2.148   5.690   4.722
 3120SOL    HW110259   2.059   5.648   4.744
 3120SOL    HW210260   2.150   5.783   4.757
 3121SOL     OW10261   0.720   1.558   1.891
 3121SOL    HW110262   0.727   1.472   1.942
 3121SOL    HW210263   0.747   1.542   1.795
 3122SOL     OW10264   3.051   5.376   6.275
 3122SOL    HW110265   2.963   5.394   6.319
 3122SOL    HW210266   3.038   5.309   6.202
 3123SOL     OW10267   3.187   6.133   3.765
 3123SOL    HW110268   3.131   6.051   3.754
 3123SOL    HW210269   3.283   6.110   3.751
 3124SOL     OW10270   4.619   0.444   5.320
 3124SOL    HW110271   4.665   0.480   5.238
 3124SOL    HW210272   4.688   0.407   5.382
 3125SOL     OW10273   6.424   2.017   5.448
 3125SOL    HW110274   6.340   1.983   5.406
 3125SOL    HW210275   6.453   2.100   5.401
 3126SOL     OW10276   5.379   4.626   6.045
 3126SOL    HW110277   5.347   4.711   6.087
 3126SOL    HW210278   5.302   4.574   6.010
 3127SOL     OW10279   1.015   1.525   3.470
 3127SOL    HW110280   1.084   1.526   3.542
 3127SOL    HW210281   1.004   1.431   3.436
 3128SOL     OW10282   1.674   0.765   0.151
 3128SOL    HW110283   1.769   0.793   0.163
 3128SOL    HW210284   1.664   0.670   0.180
 3129SOL     OW10285   0.787   3.912   5.723
 3129SOL    HW110286   0.725   3.841   5.688
 3129SOL    HW210287   0.734   3.979   5.774
 3130SOL     OW10288   2.543   4.579   2.707
 3130SOL    HW110289   2.594   4.576   2.793
 3130SOL    HW210290   2.590   4.639   2.642
 3131SOL     OW10291   0.984   3.136   3.155
 3131SOL    HW110292   1.047   3.063   3.131
 3131SOL    HW210293   1.035   3.215   3.187
 3132SOL     OW10294   5.434   5.869   5.119
 3132SOL    HW110295   5.409   5.819   5.202
 3132SOL    HW210296   5.381   5.954   5.113
 3133SOL     OW10297   2.216   1.983   4.084
 3133SOL    HW110298   2.221   2.062   4.144
 3133SOL    HW210299   2.192   1.902   4.137
 3134SOL     OW10300   4.779   3.310   1.478
 3134SOL    HW110301   4.714   3.318   1.553
 3134SOL    HW210302   4.872   3.318   1.514
 3135SOL     OW10303   4.404   1.825   4.419
 3135SOL    HW110304   4.456   1.740   4.431
 3135SOL    HW210305   4.436   1.872   4.336
 3136SOL     OW10306   5.748   5.965   6.332
 3136SOL    HW110307   5.753   5.976   6.431
 3136SOL    HW210308   5.758   6.054   6.287
 3137SOL     OW10309   5.040   1.532   3.917
 3137SOL    HW110310   5.003   1.441   3.899
 3137SOL    HW210311   4.965   1.599   3.915
 3138SOL     OW10312   6.048   1.685   4.836
 3138SOL    HW110313   6.109   1.748   4.788
 3138SOL    HW210314   5.953   1.713   4.823
 3139SOL     OW10315   5.089   6.656   5.738
 3139SOL    HW110316   5.178   6.622   5.706
 3139SOL    HW210317   5.026   6.659   5.661
 3140SOL     OW10318   6.768   6.637   6.458
 3140SOL    HW110319   6.841   6.594   6.404
 3140SOL    HW210320   6.808   6.705   6.520
 3141SOL     OW10321   0.512   6.282   6.901
 3141SOL    HW110322   0.514   6.321   6.994
 3141SOL    HW210323   0.566   6.199   6.898
 3142SOL     OW10324   4.994   6.022   0.054
 3142SOL    HW110325   4.995   5.998   6.975
 3142SOL    HW210326   4.987   5.939   0.109
 3143SOL     OW10327   6.858   1.979   6.993
 3143SOL    HW110328   6.956   1.984   6.973
 3143SOL    HW210329   6.844   1.961   0.072
 3144SOL     OW10330   1.750   3.549   0.719
 3144SOL    HW110331   1.785   3.529   0.628
 3144SOL    HW210332   1.824   3.583   0.777
 3145SOL     OW10333   2.840   5.751   2.976
 3145SOL    HW110334   2.867   5.674   2.919
 3145SOL    HW210335   2.740   5.757   2.980
 3146SOL     OW10336   1.513   0.022   3.251
 3146SOL    HW110337   1.515   0.081   3.331
 3146SOL    HW210338   1.488   0.076   3.171
 3147SOL     OW10339   4.349   4.859   0.879
 3147SOL    HW110340   4.320   4.898   0.967
 3147SOL    HW210341   4.403   4.927   0.830
 3148SOL     OW10342   3.891   5.272   3.799
 3148SOL    HW110343   3.815   5.324   3.838
 3148SOL    HW210344   3.965   5.264   3.865
 3149SOL     OW10345   3.118   0.377   5.565
 3149SOL    HW110346   3.063   0.304   5.606
 3149SOL    HW210347   3.077   0.465   5.585
 3150SOL     OW10348   5.019   0.047   5.192
 3150SOL    HW110349   5.046   6.991   5.130
 3150SOL    HW210350   5.096   0.072   5.250
 3151SOL     OW10351   4.999   1.310   6.544
 3151SOL    HW110352   4.948   1.356   6.471
 3151SOL    HW210353   5.079   1.364   6.569
 3152SOL     OW10354   0.569   5.222   1.492
 3152SOL    HW110355   0.570   5.141   1.433
 3152SOL    HW210356   0.627   5.205   1.572
 3153SOL     OW10357   6.473   4.107   1.588
 3153SOL    HW110358   6.414   4.026   1.592
 3153SOL    HW210359   6.500   4.124   1.493
 3154SOL     OW10360   6.544   2.327   6.337
 3154SOL    HW110361   6.565   2.231   6.360
 3154SOL    HW210362   6.446   2.337   6.324
 3155SOL     OW10363   6.541   5.256   0.894
 3155SOL    HW110364   6.541   5.303   0.806
 3155SOL    HW210365   6.634   5.229   0.917
 3156SOL     OW10366   3.694   4.086   3.068
 3156SOL    HW110367   3.704   3.994   3.029
 3156SOL    HW210368   3.784   4.124   3.088
 3157SOL     OW10369   1.933   3.505   4.716
 3157SOL    HW110370   1.872   3.516   4.637
 3157SOL    HW210371   1.924   3.412   4.752
 3158SOL     OW10372   4.689   6.623   1.955
 3158SOL    HW110373   4.747   6.544   1.977
 3158SOL    HW210374   4.744   6.695   1.913
 3159SOL     OW10375   4.967   5.234   5.770
 3159SOL    HW110376   5.020   5.194   5.696
 3159SOL    HW210377   4.942   5.328   5.746
 3160SOL     OW10378   5.098   3.675   6.049
 3160SOL    HW110379   5.180   3.714   6.007
 3160SOL    HW210380   5.124   3.594   6.102
 3161SOL     OW10381   1.645   1.101   2.810
 3161SOL    HW110382   1.620   1.195   2.835
 3161SOL    HW210383   1.720   1.070   2.869
 3162SOL     OW10384   0.281   5.677   6.858
 3162SOL    HW110385   0.362   5.735   6.871
 3162SOL    HW210386   0.250   5.643   6.947
 3163SOL     OW10387   3.862   3.133   6.943
 3163SOL    HW110388   3.882   3.140   6.845
 3163SOL    HW210389   3.891   3.217   6.989
 3164SOL     OW10390   5.203   4.301   0.808
 3164SOL    HW110391   5.193   4.212   0.765
 3164SOL    HW210392   5.263   4.293   0.888
 3165SOL     OW10393   0.793   0.043   1.982
 3165SOL    HW110394   0.728   0.100   2.031
 3165SOL    HW210395   0.878   0.036   2.035
 3166SOL     OW10396   4.641   2.889   5.984
 3166SOL    HW110397   4.725   2.899   5.930
 3166SOL    HW210398   4.651   2.939   6.070
 3167SOL     OW10399   0.255   4.484   1.882
 3167SOL    HW110400   0.327   4.448   1.823
 3167SOL    HW210401   0.294   4.509   1.971
 3168SOL     OW10402   5.342   2.806   0.642
 3168SOL    HW110403   5.308   2.775   0.730
 3168SOL    HW210404   5.334   2.906   0.636
 3169SOL     OW10405   0.815   2.376   5.744
 3169SOL    HW110406   0.835   2.290   5.697
 3169SOL    HW210407   0.750   2.359   5.818
 3170SOL     OW10408   4.486   0.666   6.235
 3170SOL    HW110409   4.403   0.644   6.287
 3170SOL    HW210410   4.487   0.763   6.213
 3171SOL     OW10411   6.724   0.165   1.977
 3171SOL    HW110412   6.644   0.225   1.977
 3171SOL    HW210413   6.792   0.200   1.914
 3172SOL     OW10414   6.185   6.737   4.859
 3172SOL    HW110415   6.168   6.831   4.829
 3172SOL    HW210416   6.224   6.738   4.951
 3173SOL     OW10417   2.394   0.375   2.016
 3173SOL    HW110418   2.436   0.425   2.093
 3173SOL    HW210419   2.388   0.278   2.039
 3174SOL     OW10420   3.063   2.866   5.704
 3174SOL    HW110421   3.117   2.871   5.620
 3174SOL    HW210422   2.972   2.831   5.683
 3175SOL     OW10423   1.045   6.324   0.090
 3175SOL    HW110424   1.091   6.382   0.023
 3175SOL    HW210425   1.110   6.259   0.129
 3176SOL     OW10426   1.513   4.142   6.341
 3176SOL    HW110427   1.533   4.168   6.435
 3176SOL    HW210428   1.598   4.136   6.289
 3177SOL     OW10429   5.461   5.222   5.680
 3177SOL    HW110430   5.415   5.254   5.597
 3177SOL    HW210431   5.417   5.263   5.760
 3178SOL     OW10432   0.301   4.490   2.378
 3178SOL    HW110433   0.393   4.531   2.377
 3178SOL    HW210434   0.284   4.450   2.468
 3179SOL     OW10435   1.736   2.200   2.260
 3179SOL    HW110436   1.817   2.205   2.202
 3179SOL    HW210437   1.654   2.218   2.205
 3180SOL     OW10438   5.640   0.083   5.755
 3180SOL    HW110439   5.564   0.049   5.698
 3180SOL    HW210440   5.721   0.096   5.698
 3181SOL     OW10441   0.693   1.194   3.780
 3181SOL    HW110442   0.761   1.262   3.808
 3181SOL    HW210443   0.692   1.188   3.680
 3182SOL     OW10444   0.806   5.913   5.664
 3182SOL    HW110445   0.773   5.977   5.594
 3182SOL    HW210446   0.801   5.820   5.628
 3183SOL     OW10447   4.434   5.162   1.892
 3183SOL    HW110448   4.460   5.138   1.985
 3183SOL    HW210449   4.339   5.135   1.875
 3184SOL     OW10450   2.393   1.971   2.882
 3184SOL    HW110451   2.444   2.052   2.853
 3184SOL    HW210452   2.447   1.889   2.863
 3185SOL     OW10453   0.256   6.587   5.117
 3185SOL    HW110454   0.188   6.606   5.188
 3185SOL    HW210455   0.340   6.554   5.160
 3186SOL     OW10456   3.540   1.016   3.105
 3186SOL    HW110457   3.568   1.070   3.026
 3186SOL    HW210458   3.577   0.923   3.097
 3187SOL     OW10459   3.370   4.850   6.949
 3187SOL    HW110460   3.441   4.846   6.879
 3187SOL    HW210461   3.303   4.920   6.925
 3188SOL     OW10462   3.265   5.630   2.881
 3188SOL    HW110463   3.236   5.720   2.913
 3188SOL    HW210464   3.186   5.571   2.870
 3189SOL     OW10465   1.139   0.512   3.456
 3189SOL    HW110466   1.040   0.504   3.450
 3189SOL    HW210467   1.180   0.488   3.368
 3190SOL     OW10468   1.496   5.961   1.878
 3190SOL    HW110469   1.407   6.008   1.878
 3190SOL    HW210470   1.560   6.011   1.821
 3191SOL     OW10471   4.254   0.423   0.658
 3191SOL    HW110472   4.319   0.485   0.614
 3191SOL    HW210473   4.161   0.451   0.635
 3192SOL     OW10474   0.566   2.779   2.192
 3192SOL    HW110475   0.478   2.810   2.229
 3192SOL    HW210476   0.596   2.698   2.241
 3193SOL     OW10477   4.389   1.847   6.143
 3193SOL    HW110478   4.433   1.937   6.143
 3193SOL    HW210479   4.431   1.789   6.212
 3194SOL     OW10480   1.285   3.395   5.958
 3194SOL    HW110481   1.222   3.326   5.993
 3194SOL    HW210482   1.372   3.352   5.936
 3195SOL     OW10483   1.288   3.025   3.759
 3195SOL    HW110484   1.320   3.046   3.667
 3195SOL    HW210485   1.232   2.942   3.756
 3196SOL     OW10486   0.115   0.355   4.842
 3196SOL    HW110487   0.187   0.338   4.910
 3196SOL    HW210488   0.130   0.443   4.798
 3197SOL     OW10489   1.246   5.073   3.621
 3197SOL    HW110490   1.278   5.003   3.557
 3197SOL    HW210491   1.206   5.029   3.702
 3198SOL     OW10492   0.219   1.937   6.417
 3198SOL    HW110493   0.267   1.999   6.480
 3198SOL    HW210494   0.217   1.977   6.326
 3199SOL     OW10495   4.575   1.872   2.300
 3199SOL    HW110496   4.574   1.785   2.251
 3199SOL    HW210497   4.566   1.856   2.398
 3200SOL     OW10498   6.444   2.367   0.518
 3200SOL    HW110499   6.505   2.303   0.564
 3200SOL    HW210500   6.418   2.331   0.428
 3201SOL     OW10501   5.278   3.728   3.654
 3201SOL    HW110502   5.282   3.758   3.559
 3201SOL    HW210503   5.330   3.642   3.664
 3202SOL     OW10504   1.831   4.836   2.298
 3202SOL    HW110505   1.761   4.824   2.368
 3202SOL    HW210506   1.861   4.747   2.265
 3203SOL     OW10507   6.930   0.852   1.207
 3203SOL    HW110508   6.933   0.832   1.109
 3203SOL    HW210509   6.852   0.805   1.248
 3204SOL     OW10510   6.861   5.227   1.962
 3204SOL    HW110511   6.874   5.137   2.004
 3204SOL    HW210512   6.912   5.295   2.014
 3205SOL     OW10513   0.054   3.609   5.106
 3205SOL    HW110514   6.999   3.606   5.038
 3205SOL    HW210515   0.083   3.704   5.120
 3206SOL     OW10516   1.245   6.562   5.757
 3206SOL    HW110517   1.337   6.536   5.786
 3206SOL    HW210518   1.248   6.593   5.662
 3207SOL     OW10519   0.911   1.315   4.956
 3207SOL    HW110520   0.956   1.269   5.033
 3207SOL    HW210521   0.946   1.279   4.870
 3208SOL     OW10522   4.577   5.585   5.209
 3208SOL    HW110523   4.577   5.677   5.247
 3208SOL    HW210524   4.642   5.528   5.260
 3209SOL     OW10525   2.410   0.532   4.034
 3209SOL    HW110526   2.476   0.572   4.098
 3209SOL    HW210527   2.378   0.444   4.070
 3210SOL     OW10528   6.602   4.173   2.740
 3210SOL    HW110529   6.560   4.235   2.807
 3210SOL    HW210530   6.701   4.169   2.757
 3211SOL     OW10531   2.293   4.601   1.530
 3211SOL    HW110532   2.210   4.653   1.509
 3211SOL    HW210533   2.331   4.563   1.445
 3212SOL     OW10534   4.999   2.218   6.774
 3212SOL    HW110535   5.057   2.265   6.708
 3212SOL    HW210536   5.017   2.255   6.865
 3213SOL     OW10537   5.635   5.645   2.650
 3213SOL    HW110538   5.598   5.631   2.741
 3213SOL    HW210539   5.730   5.613   2.647
 3214SOL     OW10540   4.285   5.686   6.605
 3214SOL    HW110541   4.323   5.666   6.514
 3214SOL    HW210542   4.205   5.628   6.621
 3215SOL     OW10543   6.130   2.695   6.386
 3215SOL    HW110544   6.032   2.682   6.372
 3215SOL    HW210545   6.155   2.790   6.367
 3216SOL     OW10546   5.404   6.949   2.703
 3216SOL    HW110547   5.462   0.012   2.703
 3216SOL    HW210548   5.445   6.879   2.763
 3217SOL     OW10549   6.875   4.668   2.294
 3217SOL    HW110550   6.939   4.740   2.318
 3217SOL    HW210551   6.925   4.587   2.263
 3218SOL     OW10552   3.971   0.565   3.664
 3218SOL    HW110553   4.014   0.507   3.595
 3218SOL    HW210554   3.920   0.638   3.619
 3219SOL     OW10555   0.353   0.614   3.358
 3219SOL    HW110556   0.335   0.531   3.306
 3219SOL    HW210557   0.441   0.606   3.405
 3220SOL     OW10558   0.175   4.438   5.194
 3220SOL    HW110559   0.110   4.385   5.139
 3220SOL    HW210560   0.186   4.529   5.153
 3221SOL     OW10561   2.875   0.065   3.776
 3221SOL    HW110562   2.865   0.030   3.869
 3221SOL    HW210563   2.895   7.007   3.713
 3222SOL     OW10564   6.021   2.441   3.112
 3222SOL    HW110565   5.977   2.528   3.091
 3222SOL    HW210566   6.065   2.448   3.202
 3223SOL     OW10567   2.201   5.147   6.172
 3223SOL    HW110568   2.159   5.086   6.106
 3223SOL    HW210569   2.188   5.111   6.265
 3224SOL     OW10570   4.337   4.664   0.667
 3224SOL    HW110571   4.301   4.755   0.688
 3224SOL    HW210572   4.335   4.650   0.568
 3225SOL     OW10573   2.718   3.457   0.584
 3225SOL    HW110574   2.793   3.510   0.543
 3225SOL    HW210575   2.671   3.513   0.652
 3226SOL     OW10576   1.256   0.541   3.892
 3226SOL    HW110577   1.315   0.460   3.895
 3226SOL    HW210578   1.253   0.584   3.983
 3227SOL     OW10579   3.218   1.029   5.446
 3227SOL    HW110580   3.183   0.949   5.398
 3227SOL    HW210581   3.238   1.101   5.381
 3228SOL     OW10582   5.496   3.625   4.321
 3228SOL    HW110583   5.469   3.607   4.416
 3228SOL    HW210584   5.415   3.618   4.262
 3229SOL     OW10585   4.272   1.658   5.327
 3229SOL    HW110586   4.269   1.579   5.267
 3229SOL    HW210587   4.186   1.666   5.377
 3230SOL     OW10588   0.807   0.595   3.918
 3230SOL    HW110589   0.880   0.551   3.971
 3230SOL    HW210590   0.738   0.632   3.980
 3231SOL     OW10591   6.003   6.490   0.842
 3231SOL    HW110592   5.999   6.507   0.940
 3231SOL    HW210593   6.034   6.397   0.825
 3232SOL     OW10594   2.868   4.814   4.505
 3232SOL    HW110595   2.914   4.805   4.593
 3232SOL    HW210596   2.773   4.838   4.518
 3233SOL     OW10597   0.623   4.078   1.321
 3233SOL    HW110598   0.722   4.087   1.320
 3233SOL    HW210599   0.594   4.021   1.244
 3234SOL     OW10600   0.144   1.719   6.605
 3234SOL    HW110601   0.222   1.672   6.646
 3234SOL    HW210602   0.175   1.804   6.562
 3235SOL     OW10603   5.223   6.816   2.539
 3235SOL    HW110604   5.294   6.864   2.590
 3235SOL    HW210605   5.135   6.863   2.550
 3236SOL     OW10606   0.843   3.211   2.623
 3236SOL    HW110607   0.863   3.199   2.720
 3236SOL    HW210608   0.747   3.236   2.611
 3237SOL     OW10609   3.024   0.194   4.955
 3237SOL    HW110610   2.928   0.214   4.936
 3237SOL    HW210611   3.054   0.116   4.899
 3238SOL     OW10612   0.367   6.296   6.127
 3238SOL    HW110613   0.445   6.284   6.066
 3238SOL    HW210614   0.390   6.362   6.199
 3239SOL     OW10615   0.016   0.205   5.178
 3239SOL    HW110616   0.015   0.212   5.078
 3239SOL    HW210617   0.038   0.111   5.204
 3240SOL     OW10618   1.775   0.381   4.871
 3240SOL    HW110619   1.752   0.290   4.836
 3240SOL    HW210620   1.715   0.449   4.829
 3241SOL     OW10621   4.891   0.920   4.101
 3241SOL    HW110622   4.931   0.849   4.160
 3241SOL    HW210623   4.895   0.889   4.006
 3242SOL     OW10624   3.885   6.543   0.013
 3242SOL    HW110625   3.974   6.496   0.010
 3242SOL    HW210626   3.833   6.511   0.091
 3243SOL     OW10627   4.456   5.103   0.997
 3243SOL    HW110628   4.406   5.179   0.954
 3243SOL    HW210629   4.554   5.120   0.988
 3244SOL     OW10630   2.861   6.397   6.363
 3244SOL    HW110631   2.918   6.406   6.445
 3244SOL    HW210632   2.824   6.487   6.339
 3245SOL     OW10633   3.619   2.443   6.642
 3245SOL    HW110634   3.654   2.533   6.666
 3245SOL    HW210635   3.679   2.401   6.574
 3246SOL     OW10636   5.227   6.147   2.875
 3246SOL    HW110637   5.265   6.183   2.790
 3246SOL    HW210638   5.202   6.223   2.935
 3247SOL     OW10639   0.735   2.448   3.879
 3247SOL    HW110640   0.750   2.355   3.846
 3247SOL    HW210641   0.795   2.466   3.957
 3248SOL     OW10642   6.171   3.317   1.562
 3248SOL    HW110643   6.224   3.297   1.479
 3248SOL    HW210644   6.128   3.407   1.553
 3249SOL     OW10645   2.412   4.691   4.972
 3249SOL    HW110646   2.404   4.645   4.884
 3249SOL    HW210647   2.348   4.650   5.037
 3250SOL     OW10648   4.708   6.367   2.476
 3250SOL    HW110649   4.686   6.363   2.378
 3250SOL    HW210650   4.745   6.457   2.498
 3251SOL     OW10651   3.443   2.071   3.107
 3251SOL    HW110652   3.518   2.091   3.044
 3251SOL    HW210653   3.363   2.125   3.082
 3252SOL     OW10654   3.094   1.026   2.740
 3252SOL    HW110655   3.163   1.044   2.810
 3252SOL    HW210656   3.127   0.954   2.679
 3253SOL     OW10657   5.198   3.065   0.972
 3253SOL    HW110658   5.241   3.097   1.057
 3253SOL    HW210659   5.265   3.014   0.918
 3254SOL     OW10660   4.798   4.105   3.153
 3254SOL    HW110661   4.806   4.074   3.248
 3254SOL    HW210662   4.739   4.186   3.149
 3255SOL     OW10663   4.776   5.392   0.224
 3255SOL    HW110664   4.728   5.306   0.207
 3255SOL    HW210665   4.871   5.372   0.248
 3256SOL     OW10666   5.312   6.478   5.806
 3256SOL    HW110667   5.321   6.529   5.892
 3256SOL    HW210668   5.248   6.403   5.819
 3257SOL     OW10669   1.772   2.455   1.384
 3257SOL    HW110670   1.717   2.372   1.376
 3257SOL    HW210671   1.779   2.481   1.480
 3258SOL     OW10672   5.499   6.649   1.922
 3258SOL    HW110673   5.429   6.611   1.982
 3258SOL    HW210674   5.461   6.662   1.830
 3259SOL     OW10675   4.110   6.602   4.062
 3259SOL    HW110676   4.012   6.615   4.046
 3259SOL    HW210677   4.127   6.506   4.085
 3260SOL     OW10678   2.299   2.256   6.935
 3260SOL    HW110679   2.374   2.190   6.932
 3260SOL    HW210680   2.261   2.267   6.843
 3261SOL     OW10681   4.375   0.346   1.084
 3261SOL    HW110682   4.417   0.360   0.995
 3261SOL    HW210683   4.275   0.344   1.074
 3262SOL     OW10684   3.999   1.917   3.172
 3262SOL    HW110685   3.950   1.835   3.201
 3262SOL    HW210686   3.939   1.997   3.184
 3263SOL     OW10687   4.244   6.703   1.404
 3263SOL    HW110688   4.160   6.659   1.373
 3263SOL    HW210689   4.314   6.696   1.333
 3264SOL     OW10690   6.309   4.811   6.967
 3264SOL    HW110691   6.382   4.749   6.994
 3264SOL    HW210692   6.321   4.899   7.012
 3265SOL     OW10693   5.060   0.408   5.917
 3265SOL    HW110694   5.133   0.431   5.981
 3265SOL    HW210695   5.022   0.318   5.939
 3266SOL     OW10696   1.202   1.315   6.173
 3266SOL    HW110697   1.239   1.235   6.220
 3266SOL    HW210698   1.109   1.332   6.203
 3267SOL     OW10699   3.453   1.711   0.652
 3267SOL    HW110700   3.530   1.775   0.652
 3267SOL    HW210701   3.475   1.633   0.710
 3268SOL     OW10702   1.234   4.350   6.114
 3268SOL    HW110703   1.306   4.415   6.139
 3268SOL    HW210704   1.275   4.266   6.080
 3269SOL     OW10705   4.436   4.409   1.449
 3269SOL    HW110706   4.394   4.476   1.388
 3269SOL    HW210707   4.448   4.323   1.400
 3270SOL     OW10708   0.570   6.144   4.458
 3270SOL    HW110709   0.638   6.133   4.386
 3270SOL    HW210710   0.479   6.153   4.418
 3271SOL     OW10711   5.974   1.687   1.376
 3271SOL    HW110712   6.007   1.778   1.400
 3271SOL    HW210713   5.908   1.693   1.302
 3272SOL     OW10714   4.540   0.197   0.494
 3272SOL    HW110715   4.578   0.282   0.531
 3272SOL    HW210716   4.440   0.202   0.496
 3273SOL     OW10717   0.334   6.645   2.071
 3273SOL    HW110718   0.397   6.709   2.115
 3273SOL    HW210719   0.248   6.693   2.050
 3274SOL     OW10720   3.032   1.866   5.626
 3274SOL    HW110721   3.128   1.841   5.611
 3274SOL    HW210722   2.978   1.783   5.643
 3275SOL     OW10723   2.672   0.186   6.746
 3275SOL    HW110724   2.698   0.131   6.666
 3275SOL    HW210725   2.587   0.149   6.785
 3276SOL     OW10726   3.163   6.348   0.244
 3276SOL    HW110727   3.067   6.324   0.260
 3276SOL    HW210728   3.215   6.338   0.329
 3277SOL     OW10729   0.097   6.126   5.103
 3277SOL    HW110730   0.109   6.030   5.075
 3277SOL    HW210731   0.185   6.173   5.096
 3278SOL     OW10732   1.175   0.553   6.206
 3278SOL    HW110733   1.271   0.580   6.192
 3278SOL    HW210734   1.147   0.573   6.299
 3279SOL     OW10735   1.162   0.037   1.061
 3279SOL    HW110736   1.243   0.095   1.053
 3279SOL    HW210737   1.085   0.091   1.095
 3280SOL     OW10738   2.095   4.548   5.800
 3280SOL    HW110739   2.141   4.623   5.847
 3280SOL    HW210740   2.161   4.475   5.783
 3281SOL     OW10741   2.306   5.516   0.832
 3281SOL    HW110742   2.257   5.595   0.869
 3281SOL    HW210743   2.404   5.525   0.853
 3282SOL     OW10744   2.624   5.301   3.428
 3282SOL    HW110745   2.718   5.277   3.407
 3282SOL    HW210746   2.563   5.262   3.359
 3283SOL     OW10747   2.312   1.015   3.880
 3283SOL    HW110748   2.364   1.098   3.857
 3283SOL    HW210749   2.271   0.978   3.797
 3284SOL     OW10750   0.293   4.778   6.912
 3284SOL    HW110751   0.274   4.719   6.833
 3284SOL    HW210752   0.219   4.843   6.925
 3285SOL     OW10753   0.780   1.458   3.874
 3285SOL    HW110754   0.726   1.513   3.938
 3285SOL    HW210755   0.877   1.483   3.882
 3286SOL     OW10756   3.516   3.535   4.672
 3286SOL    HW110757   3.598   3.585   4.646
 3286SOL    HW210758   3.507   3.535   4.772
 3287SOL     OW10759   1.667   5.244   0.887
 3287SOL    HW110760   1.719   5.324   0.857
 3287SOL    HW210761   1.596   5.273   0.952
 3288SOL     OW10762   0.393   5.976   6.100
 3288SOL    HW110763   0.470   6.039   6.111
 3288SOL    HW210764   0.332   5.983   6.179
 3289SOL     OW10765   1.480   6.260   4.809
 3289SOL    HW110766   1.402   6.311   4.772
 3289SOL    HW210767   1.465   6.242   4.906
 3290SOL     OW10768   6.765   4.901   1.408
 3290SOL    HW110769   6.807   4.819   1.368
 3290SOL    HW210770   6.836   4.955   1.453
 3291SOL     OW10771   1.729   6.504   0.391
 3291SOL    HW110772   1.777   6.580   0.347
 3291SOL    HW210773   1.749   6.502   0.489
 3292SOL     OW10774   0.071   6.585   5.315
 3292SOL    HW110775   0.051   6.546   5.404
 3292SOL    HW210776   7.014   6.565   5.252
 3293SOL     OW10777   6.973   1.262   2.501
 3293SOL    HW110778   0.011   1.344   2.503
 3293SOL    HW210779   6.998   1.206   2.422
 3294SOL     OW10780   0.174   0.790   0.180
 3294SOL    HW110781   0.134   0.848   0.109
 3294SOL    HW210782   0.193   0.846   0.261
 3295SOL     OW10783   1.701   2.744   0.069
 3295SOL    HW110784   1.645   2.814   0.025
 3295SOL    HW210785   1.772   2.712   0.007
 3296SOL     OW10786   1.846   0.050   2.428
 3296SOL    HW110787   1.824   6.975   2.459
 3296SOL    HW210788   1.850   0.111   2.507
 3297SOL     OW10789   3.052   2.257   6.480
 3297SOL    HW110790   3.026   2.293   6.570
 3297SOL    HW210791   3.102   2.327   6.430
 3298SOL     OW10792   6.215   3.180   2.759
 3298SOL    HW110793   6.158   3.115   2.709
 3298SOL    HW210794   6.258   3.134   2.836
 3299SOL     OW10795   1.963   6.888   5.061
 3299SOL    HW110796   1.950   6.792   5.038
 3299SOL    HW210797   1.885   6.941   5.028
 3300SOL     OW10798   6.262   6.397   4.232
 3300SOL    HW110799   6.315   6.480   4.250
 3300SOL    HW210800   6.298   6.322   4.287
 3301SOL     OW10801   0.476   3.959   2.964
 3301SOL    HW110802   0.415   3.928   3.037
 3301SOL    HW210803   0.568   3.972   3.002
 3302SOL     OW10804   1.040   4.775   4.179
 3302SOL    HW110805   1.063   4.863   4.221
 3302SOL    HW210806   0.946   4.752   4.201
 3303SOL     OW10807   3.672   3.699   3.491
 3303SOL    HW110808   3.728   3.770   3.449
 3303SOL    HW210809   3.576   3.712   3.465
 3304SOL     OW10810   0.258   6.527   4.509
 3304SOL    HW110811   0.238   6.430   4.502
 3304SOL    HW210812   0.199   6.578   4.447
 3305SOL     OW10813   2.265   1.157   2.358
 3305SOL    HW110814   2.321   1.171   2.439
 3305SOL    HW210815   2.323   1.146   2.278
 3306SOL     OW10816   1.524   4.012   3.449
 3306SOL    HW110817   1.615   3.971   3.455
 3306SOL    HW210818   1.470   3.963   3.381
 3307SOL     OW10819   6.875   5.743   6.608
 3307SOL    HW110820   6.965   5.724   6.647
 3307SOL    HW210821   6.870   5.840   6.582
 3308SOL     OW10822   4.795   6.093   0.731
 3308SOL    HW110823   4.743   6.009   0.747
 3308SOL    HW210824   4.769   6.162   0.798
 3309SOL     OW10825   6.957   4.610   3.073
 3309SOL    HW110826   6.883   4.612   3.141
 3309SOL    HW210827   0.026   4.629   3.118
 3310SOL     OW10828   1.046   5.553   2.163
 3310SOL    HW110829   1.136   5.557   2.120
 3310SOL    HW210830   1.026   5.640   2.207
 3311SOL     OW10831   4.579   6.632   0.861
 3311SOL    HW110832   4.591   6.542   0.821
 3311SOL    HW210833   4.487   6.666   0.841
 3312SOL     OW10834   3.516   3.719   6.739
 3312SOL    HW110835   3.441   3.785   6.746
 3312SOL    HW210836   3.601   3.761   6.772
 3313SOL     OW10837   6.884   5.476   3.999
 3313SOL    HW110838   6.884   5.410   3.924
 3313SOL    HW210839   6.797   5.471   4.048
 3314SOL     OW10840   1.246   3.172   5.497
 3314SOL    HW110841   1.275   3.266   5.513
 3314SOL    HW210842   1.216   3.161   5.402
 3315SOL     OW10843   0.065   2.206   3.874
 3315SOL    HW110844   0.002   2.282   3.858
 3315SOL    HW210845   0.159   2.241   3.875
 3316SOL     OW10846   4.608   1.863   6.557
 3316SOL    HW110847   4.583   1.858   6.654
 3316SOL    HW210848   4.701   1.898   6.549
 3317SOL     OW10849   4.434   2.832   0.832
 3317SOL    HW110850   4.465   2.822   0.737
 3317SOL    HW210851   4.408   2.742   0.868
 3318SOL     OW10852   2.447   5.482   5.751
 3318SOL    HW110853   2.480   5.472   5.657
 3318SOL    HW210854   2.523   5.473   5.815
 3319SOL     OW10855   0.323   5.583   5.123
 3319SOL    HW110856   0.356   5.657   5.064
 3319SOL    HW210857   0.351   5.601   5.218
 3320SOL     OW10858   6.510   0.926   5.861
 3320SOL    HW110859   6.592   0.876   5.834
 3320SOL    HW210860   6.536   1.008   5.911
 3321SOL     OW10861   3.495   3.518   3.200
 3321SOL    HW110862   3.508   3.586   3.127
 3321SOL    HW210863   3.581   3.505   3.249
 3322SOL     OW10864   3.698   1.555   0.306
 3322SOL    HW110865   3.729   1.644   0.271
 3322SOL    HW210866   3.707   1.553   0.405
 3323SOL     OW10867   2.234   4.997   0.429
 3323SOL    HW110868   2.272   4.954   0.510
 3323SOL    HW210869   2.137   5.016   0.443
 3324SOL     OW10870   1.349   2.626   0.783
 3324SOL    HW110871   1.427   2.621   0.720
 3324SOL    HW210872   1.270   2.580   0.742
 3325SOL     OW10873   1.335   2.987   1.145
 3325SOL    HW110874   1.257   3.047   1.128
 3325SOL    HW210875   1.420   3.037   1.124
 3326SOL     OW10876   5.894   1.489   1.128
 3326SOL    HW110877   5.841   1.524   1.205
 3326SOL    HW210878   5.839   1.496   1.045
 3327SOL     OW10879   2.990   6.700   2.546
 3327SOL    HW110880   2.953   6.719   2.455
 3327SOL    HW210881   3.069   6.639   2.537
 3328SOL     OW10882   4.592   1.033   2.133
 3328SOL    HW110883   4.585   1.024   2.233
 3328SOL    HW210884   4.572   0.945   2.090
 3329SOL     OW10885   4.939   0.114   5.568
 3329SOL    HW110886   5.003   0.090   5.642
 3329SOL    HW210887   4.874   0.039   5.555
 3330SOL     OW10888   6.512   5.861   2.427
 3330SOL    HW110889   6.542   5.954   2.446
 3330SOL    HW210890   6.488   5.815   2.513
 3331SOL     OW10891   1.888   3.368   2.847
 3331SOL    HW110892   1.851   3.335   2.760
 3331SOL    HW210893   1.970   3.317   2.871
 3332SOL     OW10894   4.088   5.465   1.066
 3332SOL    HW110895   4.154   5.536   1.043
 3332SOL    HW210896   4.132   5.396   1.124
 3333SOL     OW10897   3.882   3.613   1.481
 3333SOL    HW110898   3.829   3.544   1.529
 3333SOL    HW210899   3.929   3.672   1.546
 3334SOL     OW10900   1.676   2.298   2.858
 3334SOL    HW110901   1.731   2.228   2.812
 3334SOL    HW210902   1.737   2.370   2.890
 3335SOL     OW10903   4.177   4.612   5.303
 3335SOL    HW110904   4.081   4.641   5.302
 3335SOL    HW210905   4.191   4.542   5.234
 3336SOL     OW10906   4.896   5.997   4.112
 3336SOL    HW110907   4.822   6.043   4.162
 3336SOL    HW210908   4.888   5.898   4.125
 3337SOL     OW10909   3.382   3.575   3.496
 3337SOL    HW110910   3.315   3.513   3.536
 3337SOL    HW210911   3.424   3.531   3.416
 3338SOL     OW10912   2.121   1.903   1.293
 3338SOL    HW110913   2.213   1.877   1.263
 3338SOL    HW210914   2.109   1.875   1.389
 3339SOL     OW10915   1.871   0.005   5.410
 3339SOL    HW110916   1.931   0.084   5.416
 3339SOL    HW210917   1.922   6.940   5.433
 3340SOL     OW10918   4.302   0.980   4.652
 3340SOL    HW110919   4.219   0.970   4.597
 3340SOL    HW210920   4.369   1.035   4.602
 3341SOL     OW10921   2.231   4.337   2.894
 3341SOL    HW110922   2.300   4.322   2.823
 3341SOL    HW210923   2.209   4.251   2.938
 3342SOL     OW10924   6.996   0.611   2.800
 3342SOL    HW110925   0.028   0.583   2.718
 3342SOL    HW210926   6.990   0.533   2.863
 3343SOL     OW10927   4.874   5.244   6.727
 3343SOL    HW110928   4.921   5.194   6.800
 3343SOL    HW210929   4.880   5.193   6.642
 3344SOL     OW10930   0.583   2.790   3.115
 3344SOL    HW110931   0.629   2.744   3.039
 3344SOL    HW210932   0.648   2.849   3.162
 3345SOL     OW10933   6.680   4.630   0.345
 3345SOL    HW110934   6.639   4.704   0.292
 3345SOL    HW210935   6.731   4.669   0.422
 3346SOL     OW10936   1.924   0.866   0.215
 3346SOL    HW110937   1.908   0.933   0.287
 3346SOL    HW210938   1.981   0.791   0.251
 3347SOL     OW10939   0.068   3.514   6.136
 3347SOL    HW110940   7.016   3.457   6.092
 3347SOL    HW210941   0.104   3.465   6.216
 3348SOL     OW10942   3.923   3.749   6.104
 3348SOL    HW110943   3.947   3.811   6.179
 3348SOL    HW210944   3.825   3.729   6.108
 3349SOL     OW10945   2.382   5.107   4.023
 3349SOL    HW110946   2.322   5.162   3.966
 3349SOL    HW210947   2.414   5.161   4.101
 3350SOL     OW10948   0.391   3.887   5.238
 3350SOL    HW110949   0.451   3.807   5.240
 3350SOL    HW210950   0.423   3.951   5.168
 3351SOL     OW10951   5.408   0.966   1.428
 3351SOL    HW110952   5.422   1.054   1.383
 3351SOL    HW210953   5.413   0.893   1.360
 3352SOL     OW10954   5.666   2.145   6.830
 3352SOL    HW110955   5.686   2.191   6.917
 3352SOL    HW210956   5.752   2.124   6.783
 3353SOL     OW10957   2.804   0.451   1.677
 3353SOL    HW110958   2.731   0.429   1.741
 3353SOL    HW210959   2.885   0.480   1.728
 3354SOL     OW10960   3.773   3.747   6.507
 3354SOL    HW110961   3.686   3.797   6.500
 3354SOL    HW210962   3.762   3.669   6.569
 3355SOL     OW10963   2.271   0.395   5.475
 3355SOL    HW110964   2.240   0.393   5.570
 3355SOL    HW210965   2.279   0.490   5.444
 3356SOL     OW10966   1.724   6.765   5.279
 3356SOL    HW110967   1.761   6.853   5.309
 3356SOL    HW210968   1.790   6.693   5.299
 3357SOL     OW10969   3.322   3.403   1.373
 3357SOL    HW110970   3.361   3.316   1.342
 3357SOL    HW210971   3.223   3.394   1.383
 3358SOL     OW10972   0.115   1.317   2.082
 3358SOL    HW110973   0.082   1.411   2.067
 3358SOL    HW210974   0.215   1.318   2.093
 3359SOL     OW10975   6.534   6.369   4.001
 3359SOL    HW110976   6.531   6.426   4.083
 3359SOL    HW210977   6.549   6.426   3.920
 3360SOL     OW10978   0.148   3.227   5.090
 3360SOL    HW110979   0.057   3.267   5.075
 3360SOL    HW210980   0.218   3.297   5.078
 3361SOL     OW10981   0.172   0.783   4.525
 3361SOL    HW110982   0.148   0.880   4.522
 3361SOL    HW210983   0.179   0.747   4.432
 3362SOL     OW10984   3.862   1.606   3.962
 3362SOL    HW110985   3.806   1.676   3.918
 3362SOL    HW210986   3.828   1.516   3.937
 3363SOL     OW10987   5.915   3.744   0.414
 3363SOL    HW110988   5.897   3.721   0.509
 3363SOL    HW210989   6.010   3.772   0.403
 3364SOL     OW10990   1.996   4.298   4.052
 3364SOL    HW110991   2.089   4.292   4.088
 3364SOL    HW210992   1.995   4.364   3.976
 3365SOL     OW10993   2.222   4.001   4.090
 3365SOL    HW110994   2.158   4.023   4.164
 3365SOL    HW210995   2.220   3.903   4.072
 3366SOL     OW10996   5.933   3.625   4.387
 3366SOL    HW110997   5.877   3.680   4.448
 3366SOL    HW210998   5.981   3.555   4.441
 3367SOL     OW10999   3.800   3.468   3.829
 3367SOL    HW111000   3.750   3.432   3.908
 3367SOL    HW211001   3.784   3.410   3.749
 3368SOL     OW11002   1.315   5.862   0.891
 3368SOL    HW111003   1.263   5.936   0.934
 3368SOL    HW211004   1.295   5.860   0.793
 3369SOL     OW11005   4.512   2.994   1.049
 3369SOL    HW111006   4.435   3.047   1.087
 3369SOL    HW211007   4.478   2.936   0.975
 3370SOL     OW11008   0.588   6.062   2.971
 3370SOL    HW111009   0.603   5.998   3.046
 3370SOL    HW211010   0.492   6.090   2.968
 3371SOL     OW11011   1.401   3.077   3.492
 3371SOL    HW111012   1.421   2.979   3.495
 3371SOL    HW211013   1.404   3.109   3.397
 3372SOL     OW11014   6.661   3.947   1.742
 3372SOL    HW111015   6.629   4.035   1.707
 3372SOL    HW211016   6.708   3.960   1.829
 3373SOL     OW11017   6.910   2.839   1.649
 3373SOL    HW111018   6.993   2.807   1.603
 3373SOL    HW211019   6.843   2.766   1.652
 3374SOL     OW11020   0.219   0.724   4.282
 3374SOL    HW111021   0.216   0.628   4.307
 3374SOL    HW211022   0.156   0.740   4.205
 3375SOL     OW11023   6.483   5.319   5.927
 3375SOL    HW111024   6.420   5.374   5.981
 3375SOL    HW211025   6.496   5.230   5.971
 3376SOL     OW11026   2.750   3.858   5.231
 3376SOL    HW111027   2.794   3.827   5.147
 3376SOL    HW211028   2.662   3.899   5.210
 3377SOL     OW11029   6.093   4.547   3.346
 3377SOL    HW111030   6.001   4.507   3.343
 3377SOL    HW211031   6.107   4.605   3.267
 3378SOL     OW11032   1.145   6.158   0.644
 3378SOL    HW111033   1.144   6.255   0.669
 3378SOL    HW211034   1.214   6.143   0.574
 3379SOL     OW11035   6.774   4.576   3.758
 3379SOL    HW111036   6.851   4.547   3.701
 3379SOL    HW211037   6.807   4.605   3.848
 3380SOL     OW11038   3.271   4.440   6.406
 3380SOL    HW111039   3.229   4.427   6.496
 3380SOL    HW211040   3.368   4.461   6.418
 3381SOL     OW11041   1.493   3.560   0.840
 3381SOL    HW111042   1.585   3.546   0.803
 3381SOL    HW211043   1.427   3.508   0.786
 3382SOL     OW11044   0.054   2.728   1.438
 3382SOL    HW111045   0.095   2.767   1.356
 3382SOL    HW211046   0.024   2.634   1.419
 3383SOL     OW11047   5.311   5.169   0.337
 3383SOL    HW111048   5.322   5.267   0.320
 3383SOL    HW211049   5.337   5.118   0.255
 3384SOL     OW11050   2.529   4.491   6.921
 3384SOL    HW111051   2.488   4.470   7.009
 3384SOL    HW211052   2.471   4.556   6.871
 3385SOL     OW11053   0.528   2.070   3.919
 3385SOL    HW111054   0.516   2.120   3.833
 3385SOL    HW211055   0.509   2.131   3.996
 3386SOL     OW11056   6.935   4.738   5.967
 3386SOL    HW111057   6.966   4.644   5.982
 3386SOL    HW211058   6.969   4.796   6.040
 3387SOL     OW11059   6.552   0.334   3.496
 3387SOL    HW111060   6.479   0.376   3.549
 3387SOL    HW211061   6.613   0.284   3.557
 3388SOL     OW11062   6.386   3.232   1.377
 3388SOL    HW111063   6.310   3.254   1.316
 3388SOL    HW211064   6.422   3.142   1.352
 3389SOL     OW11065   6.411   6.214   0.396
 3389SOL    HW111066   6.453   6.149   0.333
 3389SOL    HW211067   6.373   6.166   0.474
 3390SOL     OW11068   4.114   6.668   5.837
 3390SOL    HW111069   4.137   6.764   5.857
 3390SOL    HW211070   4.147   6.610   5.912
 3391SOL     OW11071   5.662   3.102   4.104
 3391SOL    HW111072   5.693   3.119   4.010
 3391SOL    HW211073   5.620   3.184   4.141
 3392SOL     OW11074   4.666   6.474   5.635
 3392SOL    HW111075   4.729   6.509   5.566
 3392SOL    HW211076   4.581   6.444   5.591
 3393SOL     OW11077   4.884   5.684   1.110
 3393SOL    HW111078   4.938   5.675   1.193
 3393SOL    HW211079   4.934   5.738   1.042
 3394SOL     OW11080   2.694   5.178   1.706
 3394SOL    HW111081   2.633   5.201   1.630
 3394SOL    HW211082   2.695   5.078   1.718
 3395SOL     OW11083   2.686   0.172   3.590
 3395SOL    HW111084   2.748   0.245   3.561
 3395SOL    HW211085   2.728   0.122   3.667
 3396SOL     OW11086   4.801   2.170   4.626
 3396SOL    HW111087   4.851   2.124   4.552
 3396SOL    HW211088   4.854   2.164   4.710
 3397SOL     OW11089   2.245   5.691   0.568
 3397SOL    HW111090   2.259   5.614   0.631
 3397SOL    HW211091   2.329   5.745   0.562
 3398SOL     OW11092   6.512   2.199   3.913
 3398SOL    HW111093   6.415   2.176   3.920
 3398SOL    HW211094   6.549   2.160   3.828
 3399SOL     OW11095   6.577   5.299   2.344
 3399SOL    HW111096   6.510   5.360   2.386
 3399SOL    HW211097   6.530   5.226   2.296
 3400SOL     OW11098   5.635   1.700   5.956
 3400SOL    HW111099   5.657   1.744   5.869
 3400SOL    HW211100   5.538   1.712   5.976
 3401SOL     OW11101   7.014   3.170   5.433
 3401SOL    HW111102   6.955   3.095   5.402
 3401SOL    HW211103   0.091   3.144   5.420
 3402SOL     OW11104   6.339   3.584   1.587
 3402SOL    HW111105   6.251   3.566   1.630
 3402SOL    HW211106   6.409   3.594   1.657
 3403SOL     OW11107   4.760   6.442   0.029
 3403SOL    HW111108   4.816   6.515   0.067
 3403SOL    HW211109   4.703   6.478   6.974
 3404SOL     OW11110   5.072   4.101   4.886
 3404SOL    HW111111   5.147   4.062   4.831
 3404SOL    HW211112   5.073   4.059   4.976
 3405SOL     OW11113   5.247   5.757   5.729
 3405SOL    HW111114   5.242   5.832   5.663
 3405SOL    HW211115   5.330   5.703   5.713
 3406SOL     OW11116   2.272   4.980   1.671
 3406SOL    HW111117   2.233   4.933   1.591
 3406SOL    HW211118   2.343   4.922   1.712
 3407SOL     OW11119   1.281   3.524   0.638
 3407SOL    HW111120   1.218   3.494   0.565
 3407SOL    HW211121   1.333   3.603   0.606
 3408SOL     OW11122   5.071   2.286   3.691
 3408SOL    HW111123   5.122   2.229   3.626
 3408SOL    HW211124   4.993   2.234   3.727
 3409SOL     OW11125   4.705   0.388   0.600
 3409SOL    HW111126   4.791   0.395   0.650
 3409SOL    HW211127   4.724   0.384   0.501
 3410SOL     OW11128   4.827   0.036   2.528
 3410SOL    HW111129   4.915   0.076   2.556
 3410SOL    HW211130   4.785   0.093   2.458
 3411SOL     OW11131   6.367   2.640   0.691
 3411SOL    HW111132   6.349   2.666   0.596
 3411SOL    HW211133   6.285   2.657   0.746
 3412SOL     OW11134   5.277   3.423   1.417
 3412SOL    HW111135   5.315   3.507   1.377
 3412SOL    HW211136   5.269   3.434   1.516
 3413SOL     OW11137   0.203   3.037   6.314
 3413SOL    HW111138   0.229   3.089   6.395
 3413SOL    HW211139   0.278   2.976   6.289
 3414SOL     OW11140   3.125   3.931   0.985
 3414SOL    HW111141   3.186   4.007   1.008
 3414SOL    HW211142   3.176   3.845   0.986
 3415SOL     OW11143   2.400   2.467   5.699
 3415SOL    HW111144   2.341   2.514   5.765
 3415SOL    HW211145   2.428   2.378   5.736
 3416SOL     OW11146   6.215   0.177   6.494
 3416SOL    HW111147   6.223   0.121   6.412
 3416SOL    HW211148   6.182   0.268   6.470
 3417SOL     OW11149   6.128   0.110   2.810
 3417SOL    HW111150   6.144   0.050   2.732
 3417SOL    HW211151   6.083   0.059   2.883
 3418SOL     OW11152   4.784   4.543   0.831
 3418SOL    HW111153   4.791   4.444   0.842
 3418SOL    HW211154   4.813   4.589   0.915
 3419SOL     OW11155   2.674   5.939   5.699
 3419SOL    HW111156   2.630   6.013   5.751
 3419SOL    HW211157   2.621   5.918   5.618
 3420SOL     OW11158   4.258   2.327   3.120
 3420SOL    HW111159   4.325   2.399   3.108
 3420SOL    HW211160   4.280   2.274   3.202
 3421SOL     OW11161   6.439   2.310   3.211
 3421SOL    HW111162   6.452   2.278   3.117
 3421SOL    HW211163   6.382   2.245   3.261
 3422SOL     OW11164   2.515   6.982   1.035
 3422SOL    HW111165   2.541   7.010   1.127
 3422SOL    HW211166   2.590   6.931   0.992
 3423SOL     OW11167   1.415   4.817   6.285
 3423SOL    HW111168   1.336   4.783   6.336
 3423SOL    HW211169   1.450   4.900   6.329
 3424SOL     OW11170   4.374   0.567   1.770
 3424SOL    HW111171   4.384   0.516   1.855
 3424SOL    HW211172   4.278   0.568   1.743
 3425SOL     OW11173   5.971   3.516   0.919
 3425SOL    HW111174   5.932   3.549   1.005
 3425SOL    HW211175   6.006   3.593   0.866
 3426SOL     OW11176   5.776   3.165   6.922
 3426SOL    HW111177   5.865   3.162   6.877
 3426SOL    HW211178   5.705   3.177   6.853
 3427SOL     OW11179   1.499   2.343   0.658
 3427SOL    HW111180   1.473   2.334   0.562
 3427SOL    HW211181   1.542   2.432   0.673
 3428SOL     OW11182   4.653   5.993   6.169
 3428SOL    HW111183   4.688   5.909   6.129
 3428SOL    HW211184   4.651   5.985   6.269
 3429SOL     OW11185   6.690   0.174   1.246
 3429SOL    HW111186   6.783   0.202   1.266
 3429SOL    HW211187   6.640   0.249   1.203
 3430SOL     OW11188   2.377   4.705   5.374
 3430SOL    HW111189   2.364   4.802   5.352
 3430SOL    HW211190   2.362   4.650   5.292
 3431SOL     OW11191   1.664   5.653   3.338
 3431SOL    HW111192   1.629   5.588   3.270
 3431SOL    HW211193   1.636   5.746   3.312
 3432SOL     OW11194   1.794   4.381   0.860
 3432SOL    HW111195   1.878   4.418   0.819
 3432SOL    HW211196   1.718   4.397   0.797
 3433SOL     OW11197   2.475   1.772   6.773
 3433SOL    HW111198   2.481   1.717   6.689
 3433SOL    HW211199   2.567   1.788   6.809
 3434SOL     OW11200   3.100   2.432   0.597
 3434SOL    HW111201   3.141   2.349   0.634
 3434SOL    HW211202   3.010   2.447   0.638
 3435SOL     OW11203   2.389   0.651   0.851
 3435SOL    HW111204   2.453   0.679   0.778
 3435SOL    HW211205   2.299   0.689   0.832
 3436SOL     OW11206   3.042   6.410   6.578
 3436SOL    HW111207   3.049   6.465   6.662
 3436SOL    HW211208   3.104   6.331   6.585
 3437SOL     OW11209   1.506   6.543   6.778
 3437SOL    HW111210   1.604   6.543   6.794
 3437SOL    HW211211   1.485   6.595   6.696
 3438SOL     OW11212   1.257   3.595   1.432
 3438SOL    HW111213   1.324   3.659   1.395
 3438SOL    HW211214   1.247   3.610   1.531
 3439SOL     OW11215   2.393   5.210   2.040
 3439SOL    HW111216   2.371   5.118   2.073
 3439SOL    HW211217   2.367   5.217   1.943
 3440SOL     OW11218   3.751   3.631   4.591
 3440SOL    HW111219   3.771   3.552   4.534
 3440SOL    HW211220   3.836   3.674   4.620
 3441SOL     OW11221   5.374   4.820   5.801
 3441SOL    HW111222   5.375   4.758   5.879
 3441SOL    HW211223   5.314   4.897   5.820
 3442SOL     OW11224   3.163   3.409   0.898
 3442SOL    HW111225   3.215   3.495   0.902
 3442SOL    HW211226   3.208   3.340   0.954
 3443SOL     OW11227   1.483   6.852   2.235
 3443SOL    HW111228   1.493   6.940   2.280
 3443SOL    HW211229   1.519   6.857   2.142
 3444SOL     OW11230   6.449   4.040   0.138
 3444SOL    HW111231   6.380   4.112   0.138
 3444SOL    HW211232   6.469   4.014   0.233
 3445SOL     OW11233   5.879   4.566   2.909
 3445SOL    HW111234   5.948   4.495   2.917
 3445SOL    HW211235   5.913   4.639   2.849
 3446SOL     OW11236   5.016   1.069   1.079
 3446SOL    HW111237   4.984   1.048   1.171
 3446SOL    HW211238   5.082   1.144   1.083
 3447SOL     OW11239   5.528   1.120   6.833
 3447SOL    HW111240   5.617   1.132   6.788
 3447SOL    HW211241   5.501   1.207   6.876
 3448SOL     OW11242   1.641   6.076   5.049
 3448SOL    HW111243   1.543   6.081   5.031
 3448SOL    HW211244   1.676   6.169   5.065
 3449SOL     OW11245   6.936   4.090   5.168
 3449SOL    HW111246   6.850   4.108   5.120
 3449SOL    HW211247   6.938   4.142   5.254
 3450SOL     OW11248   1.828   6.433   1.534
 3450SOL    HW111249   1.911   6.486   1.515
 3450SOL    HW211250   1.802   6.444   1.630
 3451SOL     OW11251   2.362   1.008   1.332
 3451SOL    HW111252   2.457   0.991   1.356
 3451SOL    HW211253   2.322   0.924   1.296
 3452SOL     OW11254   4.596   0.154   5.053
 3452SOL    HW111255   4.598   0.254   5.044
 3452SOL    HW211256   4.646   0.127   5.135
 3453SOL     OW11257   4.805   6.185   6.322
 3453SOL    HW111258   4.765   6.138   6.243
 3453SOL    HW211259   4.821   6.281   6.299
 3454SOL     OW11260   0.785   2.814   1.559
 3454SOL    HW111261   0.796   2.743   1.628
 3454SOL    HW211262   0.721   2.883   1.592
 3455SOL     OW11263   0.628   3.155   5.565
 3455SOL    HW111264   0.692   3.101   5.511
 3455SOL    HW211265   0.627   3.249   5.530
 3456SOL     OW11266   5.689   4.370   2.348
 3456SOL    HW111267   5.591   4.353   2.334
 3456SOL    HW211268   5.739   4.346   2.265
 3457SOL     OW11269   4.046   5.040   5.769
 3457SOL    HW111270   3.998   5.125   5.789
 3457SOL    HW211271   4.031   5.014   5.673
 3458SOL     OW11272   4.150   1.161   2.405
 3458SOL    HW111273   4.059   1.183   2.371
 3458SOL    HW211274   4.203   1.245   2.417
 3459SOL     OW11275   4.971   6.125   3.105
 3459SOL    HW111276   4.936   6.212   3.073
 3459SOL    HW211277   4.914   6.091   3.180
 3460SOL     OW11278   3.969   1.383   5.103
 3460SOL    HW111279   3.977   1.407   5.199
 3460SOL    HW211280   4.017   1.451   5.047
 3461SOL     OW11281   6.071   5.444   4.975
 3461SOL    HW111282   5.996   5.509   4.959
 3461SOL    HW211283   6.047   5.382   5.049
 3462SOL     OW11284   1.608   4.180   6.603
 3462SOL    HW111285   1.629   4.278   6.593
 3462SOL    HW211286   1.692   4.132   6.629
 3463SOL     OW11287   6.106   4.284   1.024
 3463SOL    HW111288   6.148   4.235   1.101
 3463SOL    HW211289   6.154   4.371   1.010
 3464SOL     OW11290   6.737   4.880   6.141
 3464SOL    HW111291   6.717   4.824   6.061
 3464SOL    HW211292   6.792   4.827   6.206
 3465SOL     OW11293   2.043   0.712   1.117
 3465SOL    HW111294   2.005   0.657   1.043
 3465SOL    HW211295   1.982   0.788   1.137
 3466SOL     OW11296   6.455   4.111   5.332
 3466SOL    HW111297   6.361   4.076   5.331
 3466SOL    HW211298   6.453   4.209   5.355
 3467SOL     OW11299   1.818   1.920   6.998
 3467SOL    HW111300   1.896   1.950   0.036
 3467SOL    HW211301   1.832   1.824   6.973
 3468SOL     OW11302   3.412   0.056   4.182
 3468SOL    HW111303   3.416   0.012   4.092
 3468SOL    HW211304   3.316   0.070   4.208
 3469SOL     OW11305   5.573   2.542   2.799
 3469SOL    HW111306   5.541   2.454   2.763
 3469SOL    HW211307   5.523   2.616   2.754
 3470SOL     OW11308   0.200   5.595   1.129
 3470SOL    HW111309   0.188   5.542   1.214
 3470SOL    HW211310   0.118   5.649   1.112
 3471SOL     OW11311   3.889   6.401   4.577
 3471SOL    HW111312   3.869   6.488   4.532
 3471SOL    HW211313   3.865   6.408   4.674
 3472SOL     OW11314   3.271   1.401   5.089
 3472SOL    HW111315   3.290   1.443   5.000
 3472SOL    HW211316   3.236   1.471   5.152
 3473SOL     OW11317   5.558   0.504   6.060
 3473SOL    HW111318   5.470   0.519   6.015
 3473SOL    HW211319   5.622   0.464   5.995
 3474SOL     OW11320   4.898   5.422   1.020
 3474SOL    HW111321   4.827   5.354   1.034
 3474SOL    HW211322   4.866   5.511   1.054
 3475SOL     OW11323   1.651   5.844   4.719
 3475SOL    HW111324   1.655   5.852   4.818
 3475SOL    HW211325   1.731   5.888   4.679
 3476SOL     OW11326   4.812   0.501   4.332
 3476SOL    HW111327   4.887   0.516   4.397
 3476SOL    HW211328   4.793   0.403   4.325
 3477SOL     OW11329   4.068   6.082   1.165
 3477SOL    HW111330   4.157   6.063   1.206
 3477SOL    HW211331   4.066   6.176   1.130
 3478SOL     OW11332   4.028   4.521   0.560
 3478SOL    HW111333   4.104   4.546   0.621
 3478SOL    HW211334   4.056   4.538   0.465
 3479SOL     OW11335   1.081   0.538   2.285
 3479SOL    HW111336   1.096   0.588   2.200
 3479SOL    HW211337   1.014   0.465   2.269
 3480SOL     OW11338   0.937   1.247   3.409
 3480SOL    HW111339   0.853   1.197   3.432
 3480SOL    HW211340   0.987   1.198   3.338
 3481SOL     OW11341   2.346   6.323   6.936
 3481SOL    HW111342   2.323   6.235   6.977
 3481SOL    HW211343   2.335   6.396   7.004
 3482SOL     OW11344   0.355   2.424   0.460
 3482SOL    HW111345   0.410   2.504   0.485
 3482SOL    HW211346   0.386   2.389   0.372
 3483SOL     OW11347   3.188   6.813   1.385
 3483SOL    HW111348   3.266   6.865   1.349
 3483SOL    HW211349   3.135   6.776   1.309
 3484SOL     OW11350   3.565   4.081   3.419
 3484SOL    HW111351   3.527   4.156   3.472
 3484SOL    HW211352   3.512   4.069   3.334
 3485SOL     OW11353   1.064   2.525   5.088
 3485SOL    HW111354   1.021   2.472   5.014
 3485SOL    HW211355   1.141   2.577   5.050
 3486SOL     OW11356   4.202   1.778   1.980
 3486SOL    HW111357   4.225   1.866   1.938
 3486SOL    HW211358   4.106   1.758   1.965
 3487SOL     OW11359   6.546   0.596   0.190
 3487SOL    HW111360   6.624   0.627   0.137
 3487SOL    HW211361   6.577   0.563   0.280
 3488SOL     OW11362   5.495   3.357   3.791
 3488SOL    HW111363   5.505   3.432   3.726
 3488SOL    HW211364   5.579   3.350   3.846
 3489SOL     OW11365   3.479   6.969   1.031
 3489SOL    HW111366   3.544   6.989   1.104
 3489SOL    HW211367   3.427   6.887   1.054
 3490SOL     OW11368   4.040   4.207   0.354
 3490SOL    HW111369   4.115   4.260   0.315
 3490SOL    HW211370   4.018   4.243   0.445
 3491SOL     OW11371   0.596   2.915   5.048
 3491SOL    HW111372   0.595   3.014   5.066
 3491SOL    HW211373   0.505   2.887   5.015
 3492SOL     OW11374   6.639   4.439   6.783
 3492SOL    HW111375   6.542   4.463   6.793
 3492SOL    HW211376   6.674   4.478   6.698
 3493SOL     OW11377   6.544   4.278   0.850
 3493SOL    HW111378   6.613   4.271   0.778
 3493SOL    HW211379   6.574   4.345   0.918
 3494SOL     OW11380   3.303   0.367   0.467
 3494SOL    HW111381   3.219   0.381   0.414
 3494SOL    HW211382   3.337   0.274   0.452
 3495SOL     OW11383   5.101   4.883   0.533
 3495SOL    HW111384   5.026   4.948   0.522
 3495SOL    HW211385   5.064   4.790   0.534
 3496SOL     OW11386   2.361   3.021   1.201
 3496SOL    HW111387   2.419   3.089   1.155
 3496SOL    HW211388   2.415   2.940   1.222
 3497SOL     OW11389   4.553   0.223   3.379
 3497SOL    HW111390   4.549   0.281   3.459
 3497SOL    HW211391   4.485   0.149   3.388
 3498SOL     OW11392   2.541   1.224   1.774
 3498SOL    HW111393   2.457   1.229   1.719
 3498SOL    HW211394   2.608   1.289   1.737
 3499SOL     OW11395   6.649   3.298   3.800
 3499SOL    HW111396   6.615   3.291   3.894
 3499SOL    HW211397   6.681   3.392   3.784
 3500SOL     OW11398   6.641   3.491   0.053
 3500SOL    HW111399   6.639   3.565   0.121
 3500SOL    HW211400   6.552   3.486   0.007
 3501SOL     OW11401   1.593   4.422   4.696
 3501SOL    HW111402   1.662   4.454   4.632
 3501SOL    HW211403   1.626   4.431   4.789
 3502SOL     OW11404   0.656   3.246   1.354
 3502SOL    HW111405   0.736   3.223   1.298
 3502SOL    HW211406   0.657   3.190   1.437
 3503SOL     OW11407   5.263   5.760   4.695
 3503SOL    HW111408   5.263   5.673   4.745
 3503SOL    HW211409   5.228   5.833   4.754
 3504SOL     OW11410   2.271   3.204   1.740
 3504SOL    HW111411   2.284   3.291   1.788
 3504SOL    HW211412   2.360   3.161   1.725
 3505SOL     OW11413   5.390   4.995   5.047
 3505SOL    HW111414   5.373   4.947   5.133
 3505SOL    HW211415   5.384   4.931   4.971
 3506SOL     OW11416   4.625   5.149   2.882
 3506SOL    HW111417   4.559   5.216   2.847
 3506SOL    HW211418   4.576   5.081   2.938
 3507SOL     OW11419   0.978   0.020   6.234
 3507SOL    HW111420   1.038   0.029   6.314
 3507SOL    HW211421   0.883   0.016   6.264
 3508SOL     OW11422   6.144   3.390   6.875
 3508SOL    HW111423   6.070   3.446   6.837
 3508SOL    HW211424   6.119   3.293   6.867
 3509SOL     OW11425   6.722   6.631   1.035
 3509SOL    HW111426   6.666   6.711   1.055
 3509SOL    HW211427   6.663   6.552   1.017
 3510SOL     OW11428   2.033   2.966   2.099
 3510SOL    HW111429   2.057   3.050   2.051
 3510SOL    HW211430   2.014   2.987   2.195
 3511SOL     OW11431   0.707   1.808   5.963
 3511SOL    HW111432   0.668   1.897   5.986
 3511SOL    HW211433   0.634   1.745   5.938
 3512SOL     OW11434   2.614   3.317   0.868
 3512SOL    HW111435   2.658   3.406   0.860
 3512SOL    HW211436   2.609   3.274   0.778
 3513SOL     OW11437   6.517   4.851   1.253
 3513SOL    HW111438   6.590   4.874   1.319
 3513SOL    HW211439   6.539   4.764   1.209
 3514SOL     OW11440   0.979   6.254   1.327
 3514SOL    HW111441   0.917   6.192   1.374
 3514SOL    HW211442   1.056   6.277   1.387
 3515SOL     OW11443   2.550   6.200   3.734
 3515SOL    HW111444   2.569   6.138   3.811
 3515SOL    HW211445   2.509   6.284   3.769
 3516SOL     OW11446   2.966   1.303   1.095
 3516SOL    HW111447   2.980   1.379   1.158
 3516SOL    HW211448   2.935   1.338   1.006
 3517SOL     OW11449   1.113   0.888   6.310
 3517SOL    HW111450   1.021   0.926   6.306
 3517SOL    HW211451   1.110   0.800   6.359
 3518SOL     OW11452   4.008   2.956   5.646
 3518SOL    HW111453   3.984   3.051   5.665
 3518SOL    HW211454   3.997   2.901   5.729
 3519SOL     OW11455   1.695   6.062   0.546
 3519SOL    HW111456   1.615   6.076   0.605
 3519SOL    HW211457   1.775   6.040   0.602
 3520SOL     OW11458   4.448   5.758   0.882
 3520SOL    HW111459   4.445   5.658   0.880
 3520SOL    HW211460   4.382   5.792   0.950
 3521SOL     OW11461   5.758   2.914   0.447
 3521SOL    HW111462   5.838   2.856   0.433
 3521SOL    HW211463   5.711   2.927   0.359
 3522SOL     OW11464   3.164   4.865   2.168
 3522SOL    HW111465   3.146   4.884   2.265
 3522SOL    HW211466   3.262   4.846   2.156
 3523SOL     OW11467   2.515   4.814   5.565
 3523SOL    HW111468   2.467   4.771   5.489
 3523SOL    HW211469   2.465   4.796   5.650
 3524SOL     OW11470   2.848   0.227   0.696
 3524SOL    HW111471   2.860   0.158   0.766
 3524SOL    HW211472   2.902   0.308   0.719
 3525SOL     OW11473   0.768   2.680   2.954
 3525SOL    HW111474   0.772   2.583   2.927
 3525SOL    HW211475   0.758   2.736   2.872
 3526SOL     OW11476   2.402   1.234   2.566
 3526SOL    HW111477   2.392   1.163   2.637
 3526SOL    HW211478   2.478   1.294   2.590
 3527SOL     OW11479   5.223   2.652   5.808
 3527SOL    HW111480   5.259   2.559   5.795
 3527SOL    HW211481   5.193   2.688   5.720
 3528SOL     OW11482   0.053   6.807   4.572
 3528SOL    HW111483   0.128   6.772   4.517
 3528SOL    HW211484   0.034   6.902   4.545
 3529SOL     OW11485   3.628   6.302   6.301
 3529SOL    HW111486   3.711   6.322   6.353
 3529SOL    HW211487   3.589   6.388   6.267
 3530SOL     OW11488   1.973   6.169   3.512
 3530SOL    HW111489   1.932   6.079   3.528
 3530SOL    HW211490   2.041   6.188   3.583
 3531SOL     OW11491   4.831   3.719   6.878
 3531SOL    HW111492   4.824   3.747   6.782
 3531SOL    HW211493   4.922   3.681   6.894
 3532SOL     OW11494   1.930   6.878   0.022
 3532SOL    HW111495   1.841   6.867   0.067
 3532SOL    HW211496   1.933   6.820   6.959
 3533SOL     OW11497   1.846   1.408   2.774
 3533SOL    HW111498   1.896   1.485   2.815
 3533SOL    HW211499   1.912   1.345   2.732
 3534SOL     OW11500   5.222   0.993   4.363
 3534SOL    HW111501   5.169   1.053   4.423
 3534SOL    HW211502   5.249   0.911   4.414
 3535SOL     OW11503   5.508   5.346   6.400
 3535SOL    HW111504   5.558   5.427   6.430
 3535SOL    HW211505   5.548   5.312   6.315
 3536SOL     OW11506   0.986   4.098   3.432
 3536SOL    HW111507   0.925   4.058   3.500
 3536SOL    HW211508   1.019   4.187   3.465
 3537SOL     OW11509   2.184   4.739   0.971
 3537SOL    HW111510   2.140   4.810   1.025
 3537SOL    HW211511   2.282   4.740   0.988
 3538SOL     OW11512   2.692   1.143   4.285
 3538SOL    HW111513   2.737   1.054   4.283
 3538SOL    HW211514   2.647   1.156   4.373
 3539SOL     OW11515   5.203   5.032   6.346
 3539SOL    HW111516   5.226   5.097   6.418
 3539SOL    HW211517   5.147   5.078   6.276
 3540SOL     OW11518   3.033   3.676   6.378
 3540SOL    HW111519   3.024   3.623   6.293
 3540SOL    HW211520   2.943   3.709   6.406
 3541SOL     OW11521   3.039   2.462   1.063
 3541SOL    HW111522   3.105   2.525   1.104
 3541SOL    HW211523   3.022   2.489   0.968
 3542SOL     OW11524   5.633   2.099   6.085
 3542SOL    HW111525   5.632   2.158   6.167
 3542SOL    HW211526   5.643   2.004   6.113
 3543SOL     OW11527   0.992   2.487   3.583
 3543SOL    HW111528   1.004   2.528   3.493
 3543SOL    HW211529   1.051   2.407   3.592
 3544SOL     OW11530   2.508   4.472   6.187
 3544SOL    HW111531   2.495   4.516   6.098
 3544SOL    HW211532   2.558   4.386   6.175
 3545SOL     OW11533   3.603   6.634   1.016
 3545SOL    HW111534   3.675   6.634   1.085
 3545SOL    HW211535   3.536   6.563   1.038
 3546SOL     OW11536   0.135   3.878   3.363
 3546SOL    HW111537   0.106   3.813   3.292
 3546SOL    HW211538   0.057   3.935   3.389
 3547SOL     OW11539   0.673   4.190   5.668
 3547SOL    HW111540   0.601   4.216   5.732
 3547SOL    HW211541   0.632   4.167   5.579
 3548SOL     OW11542   6.252   0.538   5.237
 3548SOL    HW111543   6.242   0.592   5.153
 3548SOL    HW211544   6.281   0.597   5.312
 3549SOL     OW11545   2.902   6.312   0.007
 3549SOL    HW111546   2.816   6.319   0.058
 3549SOL    HW211547   2.960   6.241   0.047
 3550SOL     OW11548   5.673   1.176   5.087
 3550SOL    HW111549   5.582   1.168   5.128
 3550SOL    HW211550   5.735   1.112   5.131
 3551SOL     OW11551   4.559   1.605   4.449
 3551SOL    HW111552   4.625   1.627   4.378
 3551SOL    HW211553   4.607   1.575   4.532
 3552SOL     OW11554   0.548   6.451   3.051
 3552SOL    HW111555   0.528   6.486   2.959
 3552SOL    HW211556   0.622   6.383   3.045
 3553SOL     OW11557   5.065   5.384   0.259
 3553SOL    HW111558   5.153   5.419   0.292
 3553SOL    HW211559   5.065   5.385   0.159
 3554SOL     OW11560   5.308   3.263   1.143
 3554SOL    HW111561   5.348   3.323   1.074
 3554SOL    HW211562   5.366   3.262   1.224
 3555SOL     OW11563   2.430   2.086   5.544
 3555SOL    HW111564   2.344   2.041   5.567
 3555SOL    HW211565   2.501   2.018   5.527
 3556SOL     OW11566   5.090   0.956   5.594
 3556SOL    HW111567   5.123   0.899   5.519
 3556SOL    HW211568   5.031   0.901   5.654
 3557SOL     OW11569   0.013   1.105   1.166
 3557SOL    HW111570   6.992   1.015   1.186
 3557SOL    HW211571   7.018   1.165   1.245
 3558SOL     OW11572   3.413   6.290   2.233
 3558SOL    HW111573   3.489   6.244   2.188
 3558SOL    HW211574   3.331   6.233   2.228
 3559SOL     OW11575   4.240   6.067   5.040
 3559SOL    HW111576   4.145   6.052   5.013
 3559SOL    HW211577   4.246   6.148   5.099
 3560SOL     OW11578   2.025   5.385   4.368
 3560SOL    HW111579   1.931   5.389   4.402
 3560SOL    HW211580   2.082   5.445   4.424
 3561SOL     OW11581   4.907   3.913   5.407
 3561SOL    HW111582   4.860   3.998   5.384
 3561SOL    HW211583   4.840   3.839   5.418
 3562SOL     OW11584   2.394   1.404   5.719
 3562SOL    HW111585   2.299   1.436   5.730
 3562SOL    HW211586   2.416   1.340   5.792
 3563SOL     OW11587   5.861   2.898   4.752
 3563SOL    HW111588   5.777   2.910   4.698
 3563SOL    HW211589   5.837   2.891   4.849
 3564SOL     OW11590   6.470   4.067   2.079
 3564SOL    HW111591   6.478   4.035   2.173
 3564SOL    HW211592   6.448   3.990   2.019
 3565SOL     OW11593   3.842   5.921   3.307
 3565SOL    HW111594   3.777   5.846   3.315
 3565SOL    HW211595   3.928   5.896   3.352
 3566SOL     OW11596   1.443   0.492   5.607
 3566SOL    HW111597   1.500   0.510   5.686
 3566SOL    HW211598   1.384   0.413   5.625
 3567SOL     OW11599   0.612   3.981   6.263
 3567SOL    HW111600   0.560   3.959   6.346
 3567SOL    HW211601   0.581   3.922   6.188
 3568SOL     OW11602   6.071   3.780   5.800
 3568SOL    HW111603   6.054   3.878   5.790
 3568SOL    HW211604   6.046   3.751   5.892
 3569SOL     OW11605   1.352   1.809   5.376
 3569SOL    HW111606   1.445   1.844   5.387
 3569SOL    HW211607   1.329   1.805   5.279
 3570SOL     OW11608   6.534   1.600   3.880
 3570SOL    HW111609   6.548   1.516   3.827
 3570SOL    HW211610   6.507   1.576   3.973
 3571SOL     OW11611   6.452   6.023   5.825
 3571SOL    HW111612   6.411   5.953   5.884
 3571SOL    HW211613   6.515   6.079   5.879
 3572SOL     OW11614   5.913   4.955   4.603
 3572SOL    HW111615   5.932   5.039   4.552
 3572SOL    HW211616   5.997   4.900   4.608
 3573SOL     OW11617   1.480   2.928   2.562
 3573SOL    HW111618   1.556   2.864   2.565
 3573SOL    HW211619   1.516   3.022   2.564
 3574SOL     OW11620   0.166   3.946   0.705
 3574SOL    HW111621   0.244   3.894   0.669
 3574SOL    HW211622   0.102   3.883   0.749
 3575SOL     OW11623   6.025   4.669   2.138
 3575SOL    HW111624   6.063   4.675   2.045
 3575SOL    HW211625   6.096   4.693   2.204
 3576SOL     OW11626   0.380   1.372   6.233
 3576SOL    HW111627   0.421   1.462   6.217
 3576SOL    HW211628   0.377   1.321   6.147
 3577SOL     OW11629   1.085   2.933   0.114
 3577SOL    HW111630   1.093   3.032   0.123
 3577SOL    HW211631   1.012   2.900   0.174
 3578SOL     OW11632   3.413   5.224   0.713
 3578SOL    HW111633   3.459   5.135   0.708
 3578SOL    HW211634   3.331   5.215   0.771
 3579SOL     OW11635   6.835   3.783   4.390
 3579SOL    HW111636   6.933   3.772   4.374
 3579SOL    HW211637   6.807   3.876   4.365
 3580SOL     OW11638   6.190   2.255   2.110
 3580SOL    HW111639   6.149   2.206   2.033
 3580SOL    HW211640   6.289   2.239   2.111
 3581SOL     OW11641   0.193   0.207   3.045
 3581SOL    HW111642   0.188   0.256   2.958
 3581SOL    HW211643   0.117   0.236   3.104
 3582SOL     OW11644   1.290   0.134   6.625
 3582SOL    HW111645   1.388   0.117   6.629
 3582SOL    HW211646   1.272   0.208   6.560
 3583SOL     OW11647   1.116   5.300   0.396
 3583SOL    HW111648   1.017   5.288   0.393
 3583SOL    HW211649   1.138   5.397   0.400
 3584SOL     OW11650   5.160   5.894   6.499
 3584SOL    HW111651   5.236   5.898   6.434
 3584SOL    HW211652   5.104   5.814   6.479
 3585SOL     OW11653   3.471   4.900   4.207
 3585SOL    HW111654   3.513   4.944   4.287
 3585SOL    HW211655   3.377   4.875   4.230
 3586SOL     OW11656   6.687   3.297   5.726
 3586SOL    HW111657   6.719   3.203   5.720
 3586SOL    HW211658   6.600   3.300   5.776
 3587SOL     OW11659   4.334   6.377   6.870
 3587SOL    HW111660   4.289   6.409   6.953
 3587SOL    HW211661   4.266   6.363   6.798
 3588SOL     OW11662   1.092   2.091   6.106
 3588SOL    HW111663   1.141   2.032   6.042
 3588SOL    HW211664   1.121   2.186   6.092
 3589SOL     OW11665   2.991   0.836   5.331
 3589SOL    HW111666   2.941   0.864   5.413
 3589SOL    HW211667   2.930   0.836   5.252
 3590SOL     OW11668   1.533   5.068   6.656
 3590SOL    HW111669   1.516   5.070   6.755
 3590SOL    HW211670   1.542   5.162   6.623
 3591SOL     OW11671   5.411   1.967   5.911
 3591SOL    HW111672   5.354   1.920   5.979
 3591SOL    HW211673   5.492   2.004   5.955
 3592SOL     OW11674   5.087   2.983   2.571
 3592SOL    HW111675   5.075   2.888   2.600
 3592SOL    HW211676   5.011   3.009   2.511
 3593SOL     OW11677   1.485   6.536   3.938
 3593SOL    HW111678   1.523   6.545   3.846
 3593SOL    HW211679   1.544   6.476   3.992
 3594SOL     OW11680   2.767   1.412   4.204
 3594SOL    HW111681   2.708   1.474   4.255
 3594SOL    HW211682   2.748   1.318   4.232
 3595SOL     OW11683   2.741   5.917   6.335
 3595SOL    HW111684   2.715   5.990   6.272
 3595SOL    HW211685   2.838   5.927   6.359
 3596SOL     OW11686   6.404   1.936   2.432
 3596SOL    HW111687   6.401   1.839   2.408
 3596SOL    HW211688   6.320   1.980   2.400
 3597SOL     OW11689   2.682   5.783   3.795
 3597SOL    HW111690   2.650   5.692   3.825
 3597SOL    HW211691   2.681   5.845   3.873
 3598SOL     OW11692   1.127   7.004   6.767
 3598SOL    HW111693   1.059   6.969   6.703
 3598SOL    HW211694   1.187   0.051   6.720
 3599SOL     OW11695   0.344   1.487   4.718
 3599SOL    HW111696   0.345   1.416   4.788
 3599SOL    HW211697   0.249   1.505   4.691
 3600SOL     OW11698   5.657   2.591   0.565
 3600SOL    HW111699   5.733   2.549   0.515
 3600SOL    HW211700   5.613   2.660   0.508
 3601SOL     OW11701   0.231   4.165   6.368
 3601SOL    HW111702   0.250   4.258   6.337
 3601SOL    HW211703   0.316   4.112   6.369
 3602SOL     OW11704   2.005   0.965   6.964
 3602SOL    HW111705   1.978   0.941   0.039
 3602SOL    HW211706   1.974   0.894   6.901
 3603SOL     OW11707   3.799   4.852   3.583
 3603SOL    HW111708   3.888   4.810   3.566
 3603SOL    HW211709   3.788   4.870   3.680
 3604SOL     OW11710   0.307   2.400   2.852
 3604SOL    HW111711   0.338   2.475   2.911
 3604SOL    HW211712   0.237   2.347   2.900
 3605SOL     OW11713   5.602   3.346   6.177
 3605SOL    HW111714   5.521   3.373   6.229
 3605SOL    HW211715   5.679   3.402   6.205
 3606SOL     OW11716   0.511   4.147   5.416
 3606SOL    HW111717   0.525   4.067   5.357
 3606SOL    HW211718   0.418   4.182   5.402
 3607SOL     OW11719   5.583   6.782   0.712
 3607SOL    HW111720   5.490   6.761   0.742
 3607SOL    HW211721   5.586   6.784   0.612
 3608SOL     OW11722   0.582   2.224   1.451
 3608SOL    HW111723   0.606   2.187   1.361
 3608SOL    HW211724   0.587   2.324   1.448
 3609SOL     OW11725   6.456   0.684   4.778
 3609SOL    HW111726   6.365   0.643   4.770
 3609SOL    HW211727   6.463   0.761   4.715
 3610SOL     OW11728   1.220   6.220   5.955
 3610SOL    HW111729   1.315   6.204   5.980
 3610SOL    HW211730   1.210   6.221   5.856
 3611SOL     OW11731   3.696   5.432   5.932
 3611SOL    HW111732   3.606   5.408   5.898
 3611SOL    HW211733   3.709   5.531   5.925
 3612SOL     OW11734   1.551   6.691   1.003
 3612SOL    HW111735   1.631   6.722   0.951
 3612SOL    HW211736   1.467   6.718   0.956
 3613SOL     OW11737   5.471   4.925   6.534
 3613SOL    HW111738   5.412   5.002   6.509
 3613SOL    HW211739   5.414   4.846   6.557
 3614SOL     OW11740   3.875   3.070   3.320
 3614SOL    HW111741   3.781   3.062   3.352
 3614SOL    HW211742   3.918   2.979   3.320
 3615SOL     OW11743   5.845   5.193   5.397
 3615SOL    HW111744   5.878   5.264   5.459
 3615SOL    HW211745   5.750   5.212   5.371
 3616SOL     OW11746   6.901   2.044   4.883
 3616SOL    HW111747   6.998   2.068   4.878
 3616SOL    HW211748   6.849   2.124   4.914
 3617SOL     OW11749   6.825   1.380   6.457
 3617SOL    HW111750   6.870   1.456   6.504
 3617SOL    HW211751   6.874   1.295   6.476
 3618SOL     OW11752   1.829   2.024   6.698
 3618SOL    HW111753   1.860   1.969   6.776
 3618SOL    HW211754   1.873   1.990   6.615
 3619SOL     OW11755   5.777   2.026   4.229
 3619SOL    HW111756   5.761   2.121   4.203
 3619SOL    HW211757   5.778   2.018   4.329
 3620SOL     OW11758   5.765   0.093   5.035
 3620SOL    HW111759   5.676   0.107   4.991
 3620SOL    HW211760   5.824   0.173   5.018
 3621SOL     OW11761   2.662   3.286   5.893
 3621SOL    HW111762   2.629   3.271   5.800
 3621SOL    HW211763   2.599   3.245   5.958
 3622SOL     OW11764   0.967   2.206   2.167
 3622SOL    HW111765   1.058   2.220   2.205
 3622SOL    HW211766   0.928   2.121   2.204
 3623SOL     OW11767   4.761   5.065   3.428
 3623SOL    HW111768   4.801   5.003   3.360
 3623SOL    HW211769   4.817   5.147   3.436
 3624SOL     OW11770   2.780   6.719   2.789
 3624SOL    HW111771   2.834   6.635   2.796
 3624SOL    HW211772   2.840   6.798   2.805
 3625SOL     OW11773   5.926   2.905   5.744
 3625SOL    HW111774   5.882   2.815   5.740
 3625SOL    HW211775   6.025   2.894   5.745
 3626SOL     OW11776   1.843   4.003   5.622
 3626SOL    HW111777   1.870   4.003   5.718
 3626SOL    HW211778   1.909   3.950   5.568
 3627SOL     OW11779   3.442   3.852   3.770
 3627SOL    HW111780   3.361   3.802   3.801
 3627SOL    HW211781   3.522   3.793   3.775
 3628SOL     OW11782   2.065   5.477   2.607
 3628SOL    HW111783   2.124   5.438   2.536
 3628SOL    HW211784   2.119   5.533   2.669
 3629SOL     OW11785   5.961   1.913   5.104
 3629SOL    HW111786   5.908   1.877   5.027
 3629SOL    HW211787   6.046   1.953   5.070
 3630SOL     OW11788   6.222   2.068   4.274
 3630SOL    HW111789   6.164   2.089   4.353
 3630SOL    HW211790   6.314   2.048   4.305
 3631SOL     OW11791   2.392   0.101   4.613
 3631SOL    HW111792   2.300   0.064   4.599
 3631SOL    HW211793   2.400   0.136   4.706
 3632SOL     OW11794   4.860   1.032   0.842
 3632SOL    HW111795   4.919   1.012   0.764
 3632SOL    HW211796   4.911   1.086   0.910
 3633SOL     OW11797   2.839   2.576   6.082
 3633SOL    HW111798   2.756   2.592   6.135
 3633SOL    HW211799   2.815   2.554   5.987
 3634SOL     OW11800   1.962   6.310   4.897
 3634SOL    HW111801   1.950   6.236   4.963
 3634SOL    HW211802   1.894   6.303   4.824
 3635SOL     OW11803   2.845   1.691   5.686
 3635SOL    HW111804   2.772   1.758   5.697
 3635SOL    HW211805   2.835   1.619   5.756
 3636SOL     OW11806   0.223   5.514   5.790
 3636SOL    HW111807   0.239   5.613   5.783
 3636SOL    HW211808   0.304   5.465   5.757
 3637SOL     OW11809   5.411   1.223   1.728
 3637SOL    HW111810   5.446   1.130   1.740
 3637SOL    HW211811   5.478   1.279   1.680
 3638SOL     OW11812   6.822   4.498   4.445
 3638SOL    HW111813   6.725   4.480   4.430
 3638SOL    HW211814   6.836   4.533   4.538
 3639SOL     OW11815   2.272   4.403   0.973
 3639SOL    HW111816   2.245   4.439   0.883
 3639SOL    HW211817   2.238   4.309   0.982
 3640SOL     OW11818   3.241   5.795   1.238
 3640SOL    HW111819   3.311   5.746   1.186
 3640SOL    HW211820   3.232   5.756   1.329
 3641SOL     OW11821   3.213   1.256   4.851
 3641SOL    HW111822   3.307   1.244   4.818
 3641SOL    HW211823   3.213   1.319   4.929
 3642SOL     OW11824   4.649   0.429   4.759
 3642SOL    HW111825   4.593   0.449   4.839
 3642SOL    HW211826   4.589   0.412   4.680
 3643SOL     OW11827   2.609   5.133   4.946
 3643SOL    HW111828   2.564   5.198   4.884
 3643SOL    HW211829   2.620   5.046   4.899
 3644SOL     OW11830   6.325   2.726   1.058
 3644SOL    HW111831   6.318   2.649   1.121
 3644SOL    HW211832   6.344   2.810   1.109
 3645SOL     OW11833   4.660   1.617   3.382
 3645SOL    HW111834   4.736   1.667   3.340
 3645SOL    HW211835   4.677   1.519   3.376
 3646SOL     OW11836   0.246   5.007   6.080
 3646SOL    HW111837   0.160   4.996   6.128
 3646SOL    HW211838   0.238   5.082   6.014
 3647SOL     OW11839   1.317   2.886   0.873
 3647SOL    HW111840   1.313   2.894   0.973
 3647SOL    HW211841   1.333   2.790   0.849
 3648SOL     OW11842   3.630   5.456   1.936
 3648SOL    HW111843   3.536   5.458   1.970
 3648SOL    HW211844   3.689   5.507   2.000
 3649SOL     OW11845   4.365   3.879   0.970
 3649SOL    HW111846   4.311   3.862   0.888
 3649SOL    HW211847   4.305   3.910   1.044
 3650SOL     OW11848   0.440   6.196   1.237
 3650SOL    HW111849   0.485   6.187   1.148
 3650SOL    HW211850   0.436   6.292   1.263
 3651SOL     OW11851   0.276   5.741   2.641
 3651SOL    HW111852   0.330   5.793   2.707
 3651SOL    HW211853   0.232   5.805   2.577
 3652SOL     OW11854   4.570   5.957   3.700
 3652SOL    HW111855   4.562   6.053   3.677
 3652SOL    HW211856   4.600   5.906   3.619
 3653SOL     OW11857   6.210   1.666   3.287
 3653SOL    HW111858   6.288   1.645   3.228
 3653SOL    HW211859   6.125   1.648   3.237
 3654SOL     OW11860   2.239   6.505   0.376
 3654SOL    HW111861   2.231   6.605   0.387
 3654SOL    HW211862   2.165   6.460   0.426
 3655SOL     OW11863   1.824   0.137   4.757
 3655SOL    HW111864   1.778   0.139   4.668
 3655SOL    HW211865   1.768   0.086   4.823
 3656SOL     OW11866   1.999   2.431   1.954
 3656SOL    HW111867   1.960   2.522   1.964
 3656SOL    HW211868   2.078   2.421   2.015
 3657SOL     OW11869   3.978   5.674   0.376
 3657SOL    HW111870   4.031   5.756   0.352
 3657SOL    HW211871   3.954   5.678   0.473
 3658SOL     OW11872   1.266   5.488   5.021
 3658SOL    HW111873   1.279   5.389   5.016
 3658SOL    HW211874   1.347   5.530   5.064
 3659SOL     OW11875   2.942   5.014   0.303
 3659SOL    HW111876   2.856   5.015   0.352
 3659SOL    HW211877   2.974   4.919   0.294
 3660SOL     OW11878   4.697   5.793   1.545
 3660SOL    HW111879   4.645   5.802   1.460
 3660SOL    HW211880   4.704   5.696   1.569
 3661SOL     OW11881   5.174   1.983   0.736
 3661SOL    HW111882   5.228   1.918   0.791
 3661SOL    HW211883   5.181   2.074   0.778
 3662SOL     OW11884   3.746   0.353   5.048
 3662SOL    HW111885   3.781   0.297   4.973
 3662SOL    HW211886   3.646   0.362   5.039
 3663SOL     OW11887   1.681   2.193   0.273
 3663SOL    HW111888   1.772   2.153   0.287
 3663SOL    HW211889   1.639   2.152   0.192
 3664SOL     OW11890   5.359   1.769   0.510
 3664SOL    HW111891   5.298   1.734   0.581
 3664SOL    HW211892   5.346   1.717   0.426
 3665SOL     OW11893   0.553   6.890   5.029
 3665SOL    HW111894   0.564   6.892   5.128
 3665SOL    HW211895   0.467   6.936   5.004
 3666SOL     OW11896   1.716   4.165   4.248
 3666SOL    HW111897   1.766   4.173   4.162
 3666SOL    HW211898   1.759   4.223   4.317
 3667SOL     OW11899   6.443   0.860   6.450
 3667SOL    HW111900   6.477   0.863   6.544
 3667SOL    HW211901   6.465   0.771   6.410
 3668SOL     OW11902   1.330   0.130   3.033
 3668SOL    HW111903   1.282   0.157   2.950
 3668SOL    HW211904   1.278   0.161   3.113
 3669SOL     OW11905   6.073   1.908   4.145
 3669SOL    HW111906   6.159   1.919   4.194
 3669SOL    HW211907   5.998   1.946   4.200
 3670SOL     OW11908   2.010   5.446   6.826
 3670SOL    HW111909   2.028   5.527   6.770
 3670SOL    HW211910   1.914   5.420   6.819
 3671SOL     OW11911   6.983   0.563   3.547
 3671SOL    HW111912   0.030   0.629   3.510
 3671SOL    HW211913   7.005   0.472   3.512
 3672SOL     OW11914   6.158   2.454   0.553
 3672SOL    HW111915   6.160   2.510   0.470
 3672SOL    HW211916   6.248   2.412   0.567
 3673SOL     OW11917   4.165   1.346   6.931
 3673SOL    HW111918   4.070   1.376   6.933
 3673SOL    HW211919   4.169   1.247   6.913
 3674SOL     OW11920   0.477   6.624   6.943
 3674SOL    HW111921   0.438   6.664   0.008
 3674SOL    HW211922   0.412   6.636   6.867
 3675SOL     OW11923   1.352   2.819   5.860
 3675SOL    HW111924   1.359   2.726   5.827
 3675SOL    HW211925   1.379   2.883   5.788
 3676SOL     OW11926   3.700   5.121   4.223
 3676SOL    HW111927   3.701   5.108   4.322
 3676SOL    HW211928   3.722   5.035   4.177
 3677SOL     OW11929   6.957   6.754   2.967
 3677SOL    HW111930   0.022   6.766   2.912
 3677SOL    HW211931   6.902   6.838   2.962
 3678SOL     OW11932   1.619   2.510   3.799
 3678SOL    HW111933   1.572   2.580   3.853
 3678SOL    HW211934   1.677   2.455   3.858
 3679SOL     OW11935   0.548   0.827   2.655
 3679SOL    HW111936   0.527   0.814   2.558
 3679SOL    HW211937   0.638   0.787   2.675
 3680SOL     OW11938   6.126   3.029   3.928
 3680SOL    HW111939   6.177   3.043   3.844
 3680SOL    HW211940   6.190   3.014   4.004
 3681SOL     OW11941   0.725   0.250   6.105
 3681SOL    HW111942   0.692   0.273   6.013
 3681SOL    HW211943   0.824   0.257   6.107
 3682SOL     OW11944   6.601   1.749   5.334
 3682SOL    HW111945   6.697   1.721   5.343
 3682SOL    HW211946   6.550   1.678   5.286
 3683SOL     OW11947   6.237   6.284   4.726
 3683SOL    HW111948   6.227   6.185   4.728
 3683SOL    HW211949   6.149   6.326   4.704
 3684SOL     OW11950   1.865   2.937   1.807
 3684SOL    HW111951   1.857   2.839   1.788
 3684SOL    HW211952   1.873   2.951   1.906
 3685SOL     OW11953   6.275   5.954   6.233
 3685SOL    HW111954   6.207   6.005   6.285
 3685SOL    HW211955   6.343   6.017   6.196
 3686SOL     OW11956   6.261   5.109   2.373
 3686SOL    HW111957   6.259   5.191   2.430
 3686SOL    HW211958   6.168   5.075   2.358
 3687SOL     OW11959   2.833   6.653   6.633
 3687SOL    HW111960   2.798   6.679   6.723
 3687SOL    HW211961   2.928   6.684   6.625
 3688SOL     OW11962   1.121   3.372   0.460
 3688SOL    HW111963   1.153   3.354   0.367
 3688SOL    HW211964   1.023   3.351   0.465
 3689SOL     OW11965   1.884   1.468   5.305
 3689SOL    HW111966   1.867   1.567   5.303
 3689SOL    HW211967   1.798   1.420   5.321
 3690SOL     OW11968   5.272   0.607   6.010
 3690SOL    HW111969   5.269   0.681   5.943
 3690SOL    HW211970   5.204   0.624   6.081
 3691SOL     OW11971   3.027   3.692   6.876
 3691SOL    HW111972   2.963   3.620   6.899
 3691SOL    HW211973   3.048   3.746   6.958
 3692SOL     OW11974   0.866   6.007   4.995
 3692SOL    HW111975   0.780   5.956   4.984
 3692SOL    HW211976   0.888   6.014   5.092
 3693SOL     OW11977   2.514   2.552   3.465
 3693SOL    HW111978   2.597   2.555   3.521
 3693SOL    HW211979   2.535   2.514   3.375
 3694SOL     OW11980   0.777   6.173   3.280
 3694SOL    HW111981   0.789   6.088   3.331
 3694SOL    HW211982   0.688   6.213   3.303
 3695SOL     OW11983   1.484   2.091   2.897
 3695SOL    HW111984   1.422   2.084   2.819
 3695SOL    HW211985   1.529   2.180   2.896
 3696SOL     OW11986   4.561   6.462   5.141
 3696SOL    HW111987   4.485   6.499   5.087
 3696SOL    HW211988   4.525   6.403   5.212
 3697SOL     OW11989   6.852   6.731   3.626
 3697SOL    HW111990   6.842   6.633   3.645
 3697SOL    HW211991   6.790   6.757   3.552
 3698SOL     OW11992   3.619   0.433   5.501
 3698SOL    HW111993   3.661   0.376   5.572
 3698SOL    HW211994   3.524   0.405   5.488
 3699SOL     OW11995   0.042   3.570   2.740
 3699SOL    HW111996   0.013   3.475   2.726
 3699SOL    HW211997   0.124   3.589   2.686
 3700SOL     OW11998   6.303   6.987   4.337
 3700SOL    HW111999   6.318   6.906   4.394
 3700SOL    HW212000   6.280   0.046   4.396
 3701SOL     OW12001   0.042   0.799   3.797
 3701SOL    HW112002   6.970   0.805   3.841
 3701SOL    HW212003   0.031   0.768   3.702
 3702SOL     OW12004   3.843   0.291   1.552
 3702SOL    HW112005   3.835   0.198   1.516
 3702SOL    HW212006   3.874   0.288   1.647
 3703SOL     OW12007   4.238   4.497   6.123
 3703SOL    HW112008   4.318   4.457   6.079
 3703SOL    HW212009   4.203   4.572   6.067
 3704SOL     OW12010   2.988   1.341   2.514
 3704SOL    HW112011   3.074   1.310   2.473
 3704SOL    HW212012   2.960   1.277   2.585
 3705SOL     OW12013   5.031   0.424   3.764
 3705SOL    HW112014   4.972   0.414   3.844
 3705SOL    HW212015   5.038   0.336   3.717
 3706SOL     OW12016   1.891   3.157   4.496
 3706SOL    HW112017   1.810   3.212   4.515
 3706SOL    HW212018   1.879   3.065   4.534
 3707SOL     OW12019   5.275   2.361   5.710
 3707SOL    HW112020   5.219   2.281   5.730
 3707SOL    HW212021   5.341   2.375   5.784
 3708SOL     OW12022   6.090   0.433   6.879
 3708SOL    HW112023   6.122   0.527   6.879
 3708SOL    HW212024   6.009   0.425   6.936
 3709SOL     OW12025   4.259   0.692   5.946
 3709SOL    HW112026   4.237   0.686   6.043
 3709SOL    HW212027   4.182   0.735   5.897
 3710SOL     OW12028   6.077   5.329   0.507
 3710SOL    HW112029   5.995   5.383   0.489
 3710SOL    HW212030   6.078   5.248   0.449
 3711SOL     OW12031   0.354   6.118   2.035
 3711SOL    HW112032   0.429   6.108   2.099
 3711SOL    HW212033   0.292   6.191   2.066
 3712SOL     OW12034   0.581   6.703   6.472
 3712SOL    HW112035   0.637   6.627   6.505
 3712SOL    HW212036   0.605   6.786   6.523
 3713SOL     OW12037   2.625   5.940   4.857
 3713SOL    HW112038   2.723   5.921   4.861
 3713SOL    HW212039   2.574   5.855   4.873
 3714SOL     OW12040   4.402   6.797   4.219
 3714SOL    HW112041   4.303   6.805   4.236
 3714SOL    HW212042   4.426   6.851   4.139
 3715SOL     OW12043   5.203   4.880   3.933
 3715SOL    HW112044   5.302   4.884   3.917
 3715SOL    HW212045   5.159   4.829   3.859
 3716SOL     OW12046   6.236   0.131   4.539
 3716SOL    HW112047   6.184   0.216   4.553
 3716SOL    HW212048   6.226   0.072   4.619
 3717SOL     OW12049   6.241   5.491   1.023
 3717SOL    HW112050   6.316   5.474   1.087
 3717SOL    HW212051   6.210   5.586   1.032
 3718SOL     OW12052   1.010   6.821   0.157
 3718SOL    HW112053   1.076   6.753   0.126
 3718SOL    HW212054   0.981   6.877   0.080
 3719SOL     OW12055   4.917   4.796   0.247
 3719SOL    HW112056   4.910   4.894   0.229
 3719SOL    HW212057   5.011   4.766   0.232
 3720SOL     OW12058   6.872   1.772   6.288
 3720SOL    HW112059   6.870   1.862   6.244
 3720SOL    HW212060   6.942   1.770   6.359
 3721SOL     OW12061   6.098   4.674   6.830
 3721SOL    HW112062   6.071   4.702   6.738
 3721SOL    HW212063   6.181   4.723   6.856
 3722SOL     OW12064   6.976   5.906   2.690
 3722SOL    HW112065   6.953   5.873   2.782
 3722SOL    HW212066   6.894   5.902   2.632
 3723SOL     OW12067   5.769   6.746   1.636
 3723SOL    HW112068   5.737   6.705   1.551
 3723SOL    HW212069   5.868   6.755   1.634
 3724SOL     OW12070   0.802   5.150   0.519
 3724SOL    HW112071   0.873   5.153   0.449
 3724SOL    HW212072   0.713   5.170   0.479
 3725SOL     OW12073   6.723   6.163   6.796
 3725SOL    HW112074   6.742   6.094   6.726
 3725SOL    HW212075   6.772   6.247   6.774
 3726SOL     OW12076   6.065   3.582   1.853
 3726SOL    HW112077   5.992   3.643   1.883
 3726SOL    HW212078   6.147   3.600   1.907
 3727SOL     OW12079   1.047   3.080   5.026
 3727SOL    HW112080   1.072   3.127   4.941
 3727SOL    HW212081   1.039   2.982   5.009
 3728SOL     OW12082   2.302   3.162   0.268
 3728SOL    HW112083   2.383   3.113   0.300
 3728SOL    HW212084   2.282   3.135   0.174
 3729SOL     OW12085   0.717   2.095   3.140
 3729SOL    HW112086   0.652   2.075   3.214
 3729SOL    HW212087   0.753   2.009   3.104
 3730SOL     OW12088   3.116   0.812   6.864
 3730SOL    HW112089   3.087   0.907   6.870
 3730SOL    HW212090   3.149   0.782   6.954
 3731SOL     OW12091   4.254   1.647   1.059
 3731SOL    HW112092   4.295   1.669   0.971
 3731SOL    HW212093   4.326   1.646   1.130
 3732SOL     OW12094   2.051   3.520   6.057
 3732SOL    HW112095   2.010   3.596   6.006
 3732SOL    HW212096   1.988   3.443   6.059
 3733SOL     OW12097   2.457   3.859   1.449
 3733SOL    HW112098   2.488   3.782   1.393
 3733SOL    HW212099   2.508   3.861   1.535
 3734SOL     OW12100   4.300   1.411   2.513
 3734SOL    HW112101   4.325   1.450   2.602
 3734SOL    HW212102   4.234   1.471   2.467
 3735SOL     OW12103   1.877   2.477   2.914
 3735SOL    HW112104   1.942   2.408   2.883
 3735SOL    HW212105   1.918   2.533   2.986
 3736SOL     OW12106   6.733   2.903   0.878
 3736SOL    HW112107   6.659   2.837   0.889
 3736SOL    HW212108   6.769   2.928   0.967
 3737SOL     OW12109   5.090   0.095   2.563
 3737SOL    HW112110   5.143   0.167   2.519
 3737SOL    HW212111   5.100   0.101   2.662
 3738SOL     OW12112   6.022   6.307   3.415
 3738SOL    HW112113   5.966   6.390   3.420
 3738SOL    HW212114   5.978   6.241   3.355
 3739SOL     OW12115   1.333   3.990   1.967
 3739SOL    HW112116   1.309   3.930   2.042
 3739SOL    HW212117   1.428   4.020   1.977
 3740SOL     OW12118   5.076   1.387   0.067
 3740SOL    HW112119   5.068   1.452   7.010
 3740SOL    HW212120   5.068   1.436   0.154
 3741SOL     OW12121   4.275   3.418   1.048
 3741SOL    HW112122   4.260   3.319   1.047
 3741SOL    HW212123   4.310   3.445   1.137
 3742SOL     OW12124   3.440   1.928   5.769
 3742SOL    HW112125   3.394   1.903   5.683
 3742SOL    HW212126   3.427   2.025   5.786
 3743SOL     OW12127   6.408   5.188   0.433
 3743SOL    HW112128   6.397   5.281   0.468
 3743SOL    HW212129   6.320   5.141   0.436
 3744SOL     OW12130   0.146   5.301   4.048
 3744SOL    HW112131   0.164   5.372   3.981
 3744SOL    HW212132   0.225   5.291   4.108
 3745SOL     OW12133   3.803   5.418   2.425
 3745SOL    HW112134   3.738   5.493   2.413
 3745SOL    HW212135   3.790   5.351   2.351
 3746SOL     OW12136   4.261   2.149   1.526
 3746SOL    HW112137   4.272   2.241   1.563
 3746SOL    HW212138   4.233   2.087   1.599
 3747SOL     OW12139   3.302   6.753   6.847
 3747SOL    HW112140   3.269   6.780   6.937
 3747SOL    HW212141   3.396   6.722   6.854
 3748SOL     OW12142   5.735   0.470   1.250
 3748SOL    HW112143   5.768   0.525   1.173
 3748SOL    HW212144   5.690   0.530   1.317
 3749SOL     OW12145   1.247   6.732   4.187
 3749SOL    HW112146   1.180   6.691   4.125
 3749SOL    HW212147   1.203   6.756   4.273
 3750SOL     OW12148   0.103   3.765   0.299
 3750SOL    HW112149   0.081   3.730   0.208
 3750SOL    HW212150   0.196   3.802   0.300
 3751SOL     OW12151   0.226   4.228   3.036
 3751SOL    HW112152   0.214   4.141   3.084
 3751SOL    HW212153   0.292   4.217   2.962
 3752SOL     OW12154   6.239   1.367   5.781
 3752SOL    HW112155   6.294   1.287   5.757
 3752SOL    HW212156   6.145   1.338   5.800
 3753SOL     OW12157   6.129   1.156   3.744
 3753SOL    HW112158   6.049   1.212   3.766
 3753SOL    HW212159   6.200   1.214   3.703
 3754SOL     OW12160   2.088   1.514   2.112
 3754SOL    HW112161   2.014   1.452   2.085
 3754SOL    HW212162   2.051   1.588   2.167
 3755SOL     OW12163   3.145   5.078   4.401
 3755SOL    HW112164   3.105   5.053   4.312
 3755SOL    HW212165   3.072   5.093   4.468
 3756SOL     OW12166   2.458   5.946   0.239
 3756SOL    HW112167   2.431   5.897   0.156
 3756SOL    HW212168   2.543   5.995   0.223
 3757SOL     OW12169   6.490   4.554   1.785
 3757SOL    HW112170   6.527   4.585   1.873
 3757SOL    HW212171   6.438   4.470   1.799
 3758SOL     OW12172   1.891   0.124   3.441
 3758SOL    HW112173   1.883   0.108   3.343
 3758SOL    HW212174   1.914   0.039   3.487
 3759SOL     OW12175   5.170   0.402   4.130
 3759SOL    HW112176   5.098   0.471   4.133
 3759SOL    HW212177   5.165   0.343   4.210
 3760SOL     OW12178   6.838   0.466   3.776
 3760SOL    HW112179   6.859   0.524   3.696
 3760SOL    HW212180   6.788   0.521   3.843
 3761SOL     OW12181   5.662   0.902   4.089
 3761SOL    HW112182   5.703   0.988   4.058
 3761SOL    HW212183   5.633   0.848   4.010
 3762SOL     OW12184   1.066   4.085   2.574
 3762SOL    HW112185   1.030   4.138   2.497
 3762SOL    HW212186   1.157   4.052   2.551
 3763SOL     OW12187   0.039   4.347   0.249
 3763SOL    HW112188   0.030   4.421   0.316
 3763SOL    HW212189   6.967   4.311   0.226
 3764SOL     OW12190   1.619   0.568   3.290
 3764SOL    HW112191   1.690   0.510   3.251
 3764SOL    HW212192   1.537   0.566   3.232
 3765SOL     OW12193   6.217   1.667   1.511
 3765SOL    HW112194   6.201   1.707   1.601
 3765SOL    HW212195   6.132   1.668   1.458
 3766SOL     OW12196   1.718   3.834   3.309
 3766SOL    HW112197   1.749   3.812   3.401
 3766SOL    HW212198   1.793   3.874   3.257
 3767SOL     OW12199   2.811   4.941   6.427
 3767SOL    HW112200   2.858   5.029   6.419
 3767SOL    HW212201   2.739   4.948   6.496
 3768SOL     OW12202   1.689   0.215   5.155
 3768SOL    HW112203   1.777   0.247   5.192
 3768SOL    HW212204   1.631   0.294   5.136
 3769SOL     OW12205   4.654   5.928   4.687
 3769SOL    HW112206   4.557   5.916   4.709
 3769SOL    HW212207   4.665   5.929   4.587
 3770SOL     OW12208   0.915   1.525   0.359
 3770SOL    HW112209   0.995   1.575   0.326
 3770SOL    HW212210   0.843   1.527   0.290
 3771SOL     OW12211   0.514   4.631   0.624
 3771SOL    HW112212   0.421   4.637   0.660
 3771SOL    HW212213   0.552   4.722   0.612
 3772SOL     OW12214   1.298   5.845   0.617
 3772SOL    HW112215   1.252   5.876   0.534
 3772SOL    HW212216   1.254   5.761   0.650
 3773SOL     OW12217   5.686   3.092   6.115
 3773SOL    HW112218   5.692   3.091   6.015
 3773SOL    HW212219   5.649   3.180   6.145
 3774SOL     OW12220   5.307   6.204   1.351
 3774SOL    HW112221   5.383   6.256   1.311
 3774SOL    HW212222   5.310   6.110   1.318
 3775SOL     OW12223   3.786   4.875   3.325
 3775SOL    HW112224   3.787   4.865   3.425
 3775SOL    HW212225   3.868   4.833   3.287
 3776SOL     OW12226   3.411   2.667   6.815
 3776SOL    HW112227   3.386   2.608   6.738
 3776SOL    HW212228   3.403   2.763   6.788
 3777SOL     OW12229   2.891   6.143   3.882
 3777SOL    HW112230   2.866   6.169   3.788
 3777SOL    HW212231   2.828   6.073   3.915
 3778SOL     OW12232   3.094   5.541   4.866
 3778SOL    HW112233   3.092   5.478   4.943
 3778SOL    HW212234   3.000   5.569   4.843
 3779SOL     OW12235   6.979   5.178   0.117
 3779SOL    HW112236   6.986   5.253   0.184
 3779SOL    HW212237   0.029   5.192   0.045
 3780SOL     OW12238   6.605   3.231   1.550
 3780SOL    HW112239   6.670   3.307   1.544
 3780SOL    HW212240   6.518   3.258   1.508
 3781SOL     OW12241   2.179   6.534   5.219
 3781SOL    HW112242   2.122   6.528   5.137
 3781SOL    HW212243   2.240   6.613   5.212
 3782SOL     OW12244   5.026   6.029   1.374
 3782SOL    HW112245   5.076   6.080   1.443
 3782SOL    HW212246   5.091   5.980   1.315
 3783SOL     OW12247   5.541   5.047   6.010
 3783SOL    HW112248   5.620   5.046   5.949
 3783SOL    HW212249   5.534   5.137   6.054
 3784SOL     OW12250   5.460   2.203   3.675
 3784SOL    HW112251   5.502   2.114   3.694
 3784SOL    HW212252   5.411   2.234   3.756
 3785SOL     OW12253   1.106   4.005   4.563
 3785SOL    HW112254   1.170   4.008   4.639
 3785SOL    HW212255   1.012   4.011   4.599
 3786SOL     OW12256   2.252   2.644   4.514
 3786SOL    HW112257   2.347   2.633   4.488
 3786SOL    HW212258   2.244   2.636   4.614
 3787SOL     OW12259   4.333   0.210   3.164
 3787SOL    HW112260   4.366   0.298   3.199
 3787SOL    HW212261   4.383   0.135   3.207
 3788SOL     OW12262   0.348   2.812   4.988
 3788SOL    HW112263   0.374   2.722   4.954
 3788SOL    HW212264   0.260   2.805   5.035
 3789SOL     OW12265   1.846   2.706   2.763
 3789SOL    HW112266   1.928   2.758   2.785
 3789SOL    HW212267   1.850   2.618   2.810
 3790SOL     OW12268   0.599   6.752   0.563
 3790SOL    HW112269   0.652   6.744   0.479
 3790SOL    HW212270   0.562   6.845   0.570
 3791SOL     OW12271   5.877   0.823   6.017
 3791SOL    HW112272   5.863   0.822   5.918
 3791SOL    HW212273   5.792   0.795   6.062
 3792SOL     OW12274   0.707   1.067   4.043
 3792SOL    HW112275   0.708   1.094   3.947
 3792SOL    HW212276   0.702   0.967   4.049
 3793SOL     OW12277   6.139   6.276   0.342
 3793SOL    HW112278   6.141   6.300   0.245
 3793SOL    HW212279   6.233   6.270   0.376
 3794SOL     OW12280   2.273   4.005   0.318
 3794SOL    HW112281   2.299   3.908   0.319
 3794SOL    HW212282   2.356   4.061   0.326
 3795SOL     OW12283   2.542   5.533   1.194
 3795SOL    HW112284   2.484   5.454   1.176
 3795SOL    HW212285   2.492   5.599   1.250
 3796SOL     OW12286   3.942   2.306   6.713
 3796SOL    HW112287   3.898   2.219   6.692
 3796SOL    HW212288   3.994   2.338   6.634
 3797SOL     OW12289   0.809   4.754   3.444
 3797SOL    HW112290   0.850   4.702   3.519
 3797SOL    HW212291   0.882   4.796   3.389
 3798SOL     OW12292   2.410   6.154   3.297
 3798SOL    HW112293   2.461   6.109   3.224
 3798SOL    HW212294   2.379   6.244   3.266
 3799SOL     OW12295   6.920   2.402   2.989
 3799SOL    HW112296   6.826   2.419   3.018
 3799SOL    HW212297   6.921   2.375   2.893
 3800SOL     OW12298   5.400   1.814   3.290
 3800SOL    HW112299   5.432   1.843   3.200
 3800SOL    HW212300   5.471   1.760   3.335
 3801SOL     OW12301   5.391   0.236   2.380
 3801SOL    HW112302   5.363   0.143   2.356
 3801SOL    HW212303   5.344   0.302   2.321
 3802SOL     OW12304   6.151   1.809   1.759
 3802SOL    HW112305   6.216   1.764   1.819
 3802SOL    HW212306   6.058   1.778   1.781
 3803SOL     OW12307   2.939   3.644   4.267
 3803SOL    HW112308   2.909   3.680   4.179
 3803SOL    HW212309   3.002   3.709   4.309
 3804SOL     OW12310   3.600   0.115   4.811
 3804SOL    HW112311   3.672   0.175   4.846
 3804SOL    HW212312   3.564   0.152   4.726
 3805SOL     OW12313   2.183   3.044   0.009
 3805SOL    HW112314   2.155   2.962   0.059
 3805SOL    HW212315   2.280   3.036   7.001
 3806SOL     OW12316   4.109   4.488   6.915
 3806SOL    HW112317   4.075   4.399   6.944
 3806SOL    HW212318   4.034   4.554   6.913
 3807SOL     OW12319   1.171   4.929   3.843
 3807SOL    HW112320   1.153   5.014   3.893
 3807SOL    HW212321   1.207   4.860   3.906
 3808SOL     OW12322   4.572   6.951   6.220
 3808SOL    HW112323   4.503   6.884   6.195
 3808SOL    HW212324   4.663   6.912   6.205
 3809SOL     OW12325   5.570   2.076   1.614
 3809SOL    HW112326   5.554   2.155   1.554
 3809SOL    HW212327   5.484   2.025   1.626
 3810SOL     OW12328   6.450   2.216   2.104
 3810SOL    HW112329   6.520   2.262   2.051
 3810SOL    HW212330   6.473   2.219   2.201
 3811SOL     OW12331   6.690   5.110   4.857
 3811SOL    HW112332   6.777   5.065   4.837
 3811SOL    HW212333   6.628   5.100   4.779
 3812SOL     OW12334   3.622   6.104   0.220
 3812SOL    HW112335   3.601   6.010   0.246
 3812SOL    HW212336   3.545   6.163   0.244
 3813SOL     OW12337   6.700   3.483   0.902
 3813SOL    HW112338   6.677   3.451   0.810
 3813SOL    HW212339   6.618   3.520   0.946
 3814SOL     OW12340   6.457   0.299   4.496
 3814SOL    HW112341   6.390   0.227   4.511
 3814SOL    HW212342   6.524   0.298   4.570
 3815SOL     OW12343   4.537   3.522   0.371
 3815SOL    HW112344   4.487   3.437   0.355
 3815SOL    HW212345   4.635   3.503   0.373
 3816SOL     OW12346   1.502   6.211   6.035
 3816SOL    HW112347   1.588   6.235   5.991
 3816SOL    HW212348   1.508   6.119   6.073
 3817SOL     OW12349   5.173   3.557   2.488
 3817SOL    HW112350   5.183   3.488   2.560
 3817SOL    HW212351   5.204   3.519   2.401
 3818SOL     OW12352   0.623   0.880   2.019
 3818SOL    HW112353   0.667   0.908   1.934
 3818SOL    HW212354   0.541   0.935   2.034
 3819SOL     OW12355   6.236   4.864   3.447
 3819SOL    HW112356   6.147   4.827   3.419
 3819SOL    HW212357   6.261   4.940   3.386
 3820SOL     OW12358   5.619   6.980   4.360
 3820SOL    HW112359   5.696   6.939   4.311
 3820SOL    HW212360   5.620   6.948   4.455
 3821SOL     OW12361   0.547   6.944   6.983
 3821SOL    HW112362   0.493   6.965   6.902
 3821SOL    HW212363   0.593   0.010   7.015
 3822SOL     OW12364   3.632   1.178   6.993
 3822SOL    HW112365   3.655   1.208   6.900
 3822SOL    HW212366   3.593   1.255   0.026
 3823SOL     OW12367   5.000   4.498   6.232
 3823SOL    HW112368   5.077   4.542   6.279
 3823SOL    HW212369   4.980   4.411   6.276
 3824SOL     OW12370   1.774   3.193   0.295
 3824SOL    HW112371   1.750   3.096   0.298
 3824SOL    HW212372   1.721   3.242   0.364
 3825SOL     OW12373   1.738   3.810   6.812
 3825SOL    HW112374   1.751   3.886   6.749
 3825SOL    HW212375   1.649   3.818   6.857
 3826SOL     OW12376   6.099   4.255   1.941
 3826SOL    HW112377   6.110   4.155   1.945
 3826SOL    HW212378   6.168   4.298   1.999
 3827SOL     OW12379   1.069   0.998   1.453
 3827SOL    HW112380   1.114   1.051   1.381
 3827SOL    HW212381   1.127   0.921   1.479
 3828SOL     OW12382   3.821   3.927   4.782
 3828SOL    HW112383   3.865   3.852   4.733
 3828SOL    HW212384   3.811   4.005   4.721
 3829SOL     OW12385   0.162   4.721   2.422
 3829SOL    HW112386   0.213   4.645   2.381
 3829SOL    HW212387   0.168   4.716   2.521
 3830SOL     OW12388   0.782   0.886   5.151
 3830SOL    HW112389   0.749   0.975   5.182
 3830SOL    HW212390   0.832   0.898   5.065
 3831SOL     OW12391   4.742   1.884   3.083
 3831SOL    HW112392   4.663   1.900   3.141
 3831SOL    HW212393   4.784   1.796   3.108
 3832SOL     OW12394   0.870   0.374   2.161
 3832SOL    HW112395   0.797   0.308   2.178
 3832SOL    HW212396   0.832   0.466   2.155
 3833SOL     OW12397   1.159   6.983   6.431
 3833SOL    HW112398   1.216   0.008   6.501
 3833SOL    HW212399   1.217   6.933   6.367
 3834SOL     OW12400   4.708   3.986   1.198
 3834SOL    HW112401   4.785   4.042   1.168
 3834SOL    HW212402   4.676   3.929   1.121
 3835SOL     OW12403   3.599   6.124   5.406
 3835SOL    HW112404   3.577   6.065   5.328
 3835SOL    HW212405   3.594   6.071   5.491
 3836SOL     OW12406   0.486   5.300   6.541
 3836SOL    HW112407   0.416   5.233   6.514
 3836SOL    HW212408   0.502   5.363   6.465
 3837SOL     OW12409   3.904   4.693   5.286
 3837SOL    HW112410   3.812   4.722   5.315
 3837SOL    HW212411   3.916   4.712   5.189
 3838SOL     OW12412   2.037   1.290   3.332
 3838SOL    HW112413   1.995   1.379   3.350
 3838SOL    HW212414   2.136   1.299   3.335
 3839SOL     OW12415   4.429   0.420   3.552
 3839SOL    HW112416   4.451   0.453   3.643
 3839SOL    HW212417   4.341   0.372   3.554
 3840SOL     OW12418   2.574   0.450   0.492
 3840SOL    HW112419   2.553   0.377   0.427
 3840SOL    HW212420   2.591   0.410   0.582
 3841SOL     OW12421   6.654   5.147   4.142
 3841SOL    HW112422   6.654   5.246   4.128
 3841SOL    HW212423   6.572   5.107   4.102
 3842SOL     OW12424   2.392   2.701   4.977
 3842SOL    HW112425   2.433   2.651   5.053
 3842SOL    HW212426   2.385   2.798   5.000
 3843SOL     OW12427   5.068   3.246   0.567
 3843SOL    HW112428   5.045   3.197   0.483
 3843SOL    HW212429   4.988   3.249   0.627
 3844SOL     OW12430   1.277   4.959   0.420
 3844SOL    HW112431   1.374   4.940   0.405
 3844SOL    HW212432   1.265   4.999   0.510
 3845SOL     OW12433   1.964   5.851   0.063
 3845SOL    HW112434   2.041   5.803   0.022
 3845SOL    HW212435   1.926   5.917   7.015
 3846SOL     OW12436   0.908   3.228   4.317
 3846SOL    HW112437   0.987   3.250   4.261
 3846SOL    HW212438   0.825   3.235   4.262
 3847SOL     OW12439   5.604   1.609   4.975
 3847SOL    HW112440   5.626   1.631   5.070
 3847SOL    HW212441   5.655   1.528   4.947
 3848SOL     OW12442   4.860   3.072   2.433
 3848SOL    HW112443   4.875   2.999   2.366
 3848SOL    HW212444   4.863   3.161   2.387
 3849SOL     OW12445   0.578   6.231   5.971
 3849SOL    HW112446   0.645   6.174   5.925
 3849SOL    HW212447   0.604   6.328   5.963
 3850SOL     OW12448   2.946   2.168   1.480
 3850SOL    HW112449   2.850   2.148   1.499
 3850SOL    HW212450   2.992   2.193   1.566
 3851SOL     OW12451   0.247   5.443   3.536
 3851SOL    HW112452   0.202   5.451   3.624
 3851SOL    HW212453   0.213   5.513   3.474
 3852SOL     OW12454   2.968   6.883   4.200
 3852SOL    HW112455   2.990   6.799   4.249
 3852SOL    HW212456   2.970   6.960   4.264
 3853SOL     OW12457   2.145   1.580   3.815
 3853SOL    HW112458   2.147   1.481   3.825
 3853SOL    HW212459   2.163   1.605   3.720
 3854SOL     OW12460   1.582   2.682   2.863
 3854SOL    HW112461   1.548   2.602   2.814
 3854SOL    HW212462   1.676   2.702   2.834
 3855SOL     OW12463   4.898   6.607   0.263
 3855SOL    HW112464   4.883   6.704   0.244
 3855SOL    HW212465   4.857   6.583   0.350
 3856SOL     OW12466   7.002   2.053   6.554
 3856SOL    HW112467   0.048   2.077   6.628
 3856SOL    HW212468   0.025   2.074   6.466
 3857SOL     OW12469   2.241   6.751   5.869
 3857SOL    HW112470   2.277   6.684   5.934
 3857SOL    HW212471   2.198   6.826   5.919
 3858SOL     OW12472   3.614   1.528   5.256
 3858SOL    HW112473   3.656   1.612   5.291
 3858SOL    HW212474   3.543   1.552   5.190
 3859SOL     OW12475   5.549   0.494   0.967
 3859SOL    HW112476   5.632   0.535   1.005
 3859SOL    HW212477   5.483   0.480   1.041
 3860SOL     OW12478   1.766   0.808   4.340
 3860SOL    HW112479   1.822   0.740   4.389
 3860SOL    HW212480   1.809   0.827   4.252
 3861SOL     OW12481   4.390   5.782   2.636
 3861SOL    HW112482   4.385   5.724   2.718
 3861SOL    HW212483   4.441   5.865   2.658
 3862SOL     OW12484   0.470   0.633   4.306
 3862SOL    HW112485   0.383   0.676   4.285
 3862SOL    HW212486   0.482   0.551   4.249
 3863SOL     OW12487   5.005   0.452   0.008
 3863SOL    HW112488   4.937   0.461   0.081
 3863SOL    HW212489   5.085   0.509   0.030
 3864SOL     OW12490   2.441   0.574   5.113
 3864SOL    HW112491   2.479   0.494   5.158
 3864SOL    HW212492   2.392   0.631   5.180
 3865SOL     OW12493   4.761   1.080   0.271
 3865SOL    HW112494   4.765   1.045   0.177
 3865SOL    HW212495   4.837   1.143   0.286
 3866SOL     OW12496   3.450   1.731   6.724
 3866SOL    HW112497   3.369   1.674   6.708
 3866SOL    HW212498   3.470   1.734   6.822
 3867SOL     OW12499   1.358   4.765   3.104
 3867SOL    HW112500   1.365   4.668   3.083
 3867SOL    HW212501   1.367   4.778   3.203
 3868SOL     OW12502   3.773   0.733   6.695
 3868SOL    HW112503   3.774   0.724   6.596
 3868SOL    HW212504   3.810   0.821   6.722
 3869SOL     OW12505   6.729   3.549   3.758
 3869SOL    HW112506   6.828   3.564   3.752
 3869SOL    HW212507   6.690   3.552   3.666
 3870SOL     OW12508   6.628   6.663   3.008
 3870SOL    HW112509   6.622   6.748   3.061
 3870SOL    HW212510   6.617   6.683   2.911
 3871SOL     OW12511   2.991   6.654   3.591
 3871SOL    HW112512   3.037   6.633   3.504
 3871SOL    HW212513   2.992   6.574   3.650
 3872SOL     OW12514   3.399   2.885   4.309
 3872SOL    HW112515   3.358   2.976   4.303
 3872SOL    HW212516   3.399   2.855   4.405
 3873SOL     OW12517   5.132   4.043   0.735
 3873SOL    HW112518   5.088   3.988   0.806
 3873SOL    HW212519   5.109   4.005   0.645
 3874SOL     OW12520   4.595   0.378   0.295
 3874SOL    HW112521   4.496   0.388   0.283
 3874SOL    HW212522   4.624   0.288   0.261
 3875SOL     OW12523   2.129   3.219   4.251
 3875SOL    HW112524   2.160   3.291   4.314
 3875SOL    HW212525   2.136   3.252   4.157
 3876SOL     OW12526   4.007   6.076   0.306
 3876SOL    HW112527   4.015   6.114   0.214
 3876SOL    HW212528   4.062   5.993   0.312
 3877SOL     OW12529   6.429   2.445   0.914
 3877SOL    HW112530   6.400   2.443   0.819
 3877SOL    HW212531   6.529   2.453   0.918
 3878SOL     OW12532   4.849   6.656   4.468
 3878SOL    HW112533   4.843   6.756   4.472
 3878SOL    HW212534   4.774   6.616   4.520
 3879SOL     OW12535   5.709   5.000   0.101
 3879SOL    HW112536   5.768   4.941   0.155
 3879SOL    HW212537   5.763   5.076   0.064
 3880SOL     OW12538   5.447   3.527   4.568
 3880SOL    HW112539   5.468   3.430   4.578
 3880SOL    HW212540   5.359   3.547   4.612
 3881SOL     OW12541   1.179   3.466   1.203
 3881SOL    HW112542   1.186   3.512   1.291
 3881SOL    HW212543   1.097   3.498   1.155
 3882SOL     OW12544   1.484   1.188   6.814
 3882SOL    HW112545   1.559   1.140   6.768
 3882SOL    HW212546   1.510   1.284   6.829
 3883SOL     OW12547   4.678   0.564   2.634
 3883SOL    HW112548   4.716   0.655   2.623
 3883SOL    HW212549   4.620   0.542   2.555
 3884SOL     OW12550   0.717   5.812   3.066
 3884SOL    HW112551   0.793   5.816   3.130
 3884SOL    HW212552   0.734   5.741   2.998
 3885SOL     OW12553   5.813   6.459   3.099
 3885SOL    HW112554   5.841   6.538   3.155
 3885SOL    HW212555   5.735   6.485   3.042
 3886SOL     OW12556   5.037   5.848   5.460
 3886SOL    HW112557   4.997   5.848   5.369
 3886SOL    HW212558   4.987   5.785   5.519
 3887SOL     OW12559   0.982   6.710   0.504
 3887SOL    HW112560   0.996   6.674   0.596
 3887SOL    HW212561   0.904   6.772   0.504
 3888SOL     OW12562   6.250   5.996   4.719
 3888SOL    HW112563   6.176   5.931   4.733
 3888SOL    HW212564   6.338   5.949   4.728
 3889SOL     OW12565   6.347   2.533   6.939
 3889SOL    HW112566   6.308   2.584   6.862
 3889SOL    HW212567   6.426   2.583   6.976
 3890SOL     OW12568   5.483   4.288   4.061
 3890SOL    HW112569   5.551   4.321   3.996
 3890SOL    HW212570   5.481   4.349   4.141
 3891SOL     OW12571   5.199   3.760   3.394
 3891SOL    HW112572   5.105   3.794   3.382
 3891SOL    HW212573   5.236   3.733   3.306
 3892SOL     OW12574   0.269   3.145   1.524
 3892SOL    HW112575   0.260   3.233   1.477
 3892SOL    HW212576   0.331   3.086   1.473
 3893SOL     OW12577   4.188   3.887   1.179
 3893SOL    HW112578   4.204   3.959   1.247
 3893SOL    HW212579   4.095   3.853   1.189
 3894SOL     OW12580   5.347   0.770   6.534
 3894SOL    HW112581   5.394   0.683   6.543
 3894SOL    HW212582   5.252   0.760   6.562
 3895SOL     OW12583   1.903   0.390   5.272
 3895SOL    HW112584   1.944   0.317   5.328
 3895SOL    HW212585   1.835   0.440   5.327
 3896SOL     OW12586   0.548   1.122   6.536
 3896SOL    HW112587   0.454   1.157   6.543
 3896SOL    HW212588   0.613   1.192   6.565
 3897SOL     OW12589   4.183   5.654   2.497
 3897SOL    HW112590   4.237   5.719   2.550
 3897SOL    HW212591   4.166   5.691   2.406
 3898SOL     OW12592   3.468   2.353   6.954
 3898SOL    HW112593   3.458   2.428   6.890
 3898SOL    HW212594   3.463   2.266   6.905
 3899SOL     OW12595   4.740   6.458   6.290
 3899SOL    HW112596   4.715   6.457   6.193
 3899SOL    HW212597   4.659   6.473   6.346
 3900SOL     OW12598   5.195   2.618   4.003
 3900SOL    HW112599   5.137   2.689   4.044
 3900SOL    HW212600   5.258   2.660   3.938
 3901SOL     OW12601   3.559   0.858   6.289
 3901SOL    HW112602   3.491   0.808   6.343
 3901SOL    HW212603   3.594   0.935   6.342
 3902SOL     OW12604   5.948   3.100   2.009
 3902SOL    HW112605   6.042   3.120   1.984
 3902SOL    HW212606   5.940   3.092   2.108
 3903SOL     OW12607   3.608   6.692   0.171
 3903SOL    HW112608   3.646   6.617   0.225
 3903SOL    HW212609   3.646   6.779   0.203
 3904SOL     OW12610   1.769   0.552   6.674
 3904SOL    HW112611   1.670   0.562   6.685
 3904SOL    HW212612   1.789   0.476   6.611
 3905SOL     OW12613   0.088   6.468   5.600
 3905SOL    HW112614   0.114   6.372   5.603
 3905SOL    HW212615   0.157   6.520   5.551
 3906SOL     OW12616   5.644   6.714   6.005
 3906SOL    HW112617   5.684   6.805   5.994
 3906SOL    HW212618   5.717   6.646   6.009
 3907SOL     OW12619   5.924   0.941   3.869
 3907SOL    HW112620   5.899   0.907   3.960
 3907SOL    HW212621   6.011   0.900   3.841
 3908SOL     OW12622   0.762   2.522   6.824
 3908SOL    HW112623   0.810   2.596   6.871
 3908SOL    HW212624   0.780   2.528   6.726
 3909SOL     OW12625   5.742   5.838   4.294
 3909SOL    HW112626   5.725   5.867   4.388
 3909SOL    HW212627   5.803   5.759   4.293
 3910SOL     OW12628   3.498   3.909   2.721
 3910SOL    HW112629   3.457   3.823   2.690
 3910SOL    HW212630   3.428   3.980   2.725
 3911SOL     OW12631   6.125   1.706   5.209
 3911SOL    HW112632   6.147   1.653   5.127
 3911SOL    HW212633   6.035   1.748   5.198
 3912SOL     OW12634   5.642   0.354   4.840
 3912SOL    HW112635   5.675   0.433   4.890
 3912SOL    HW212636   5.708   0.329   4.768
 3913SOL     OW12637   2.262   6.546   6.122
 3913SOL    HW112638   2.269   6.472   6.190
 3913SOL    HW212639   2.195   6.613   6.153
 3914SOL     OW12640   2.845   0.875   1.606
 3914SOL    HW112641   2.875   0.818   1.529
 3914SOL    HW212642   2.921   0.932   1.636
 3915SOL     OW12643   5.386   6.381   0.949
 3915SOL    HW112644   5.415   6.304   0.892
 3915SOL    HW212645   5.311   6.352   1.008
 3916SOL     OW12646   0.954   6.953   3.993
 3916SOL    HW112647   1.037   6.911   3.957
 3916SOL    HW212648   0.941   6.925   4.089
 3917SOL     OW12649   0.020   6.268   6.673
 3917SOL    HW112650   6.980   6.338   6.715
 3917SOL    HW212651   0.054   6.301   6.585
 3918SOL     OW12652   5.642   5.891   1.345
 3918SOL    HW112653   5.691   5.904   1.259
 3918SOL    HW212654   5.679   5.954   1.414
 3919SOL     OW12655   4.810   6.870   0.267
 3919SOL    HW112656   4.746   6.870   0.190
 3919SOL    HW212657   4.804   6.957   0.315
 3920SOL     OW12658   2.524   3.605   0.433
 3920SOL    HW112659   2.526   3.671   0.508
 3920SOL    HW212660   2.568   3.520   0.462
 3921SOL     OW12661   0.010   3.050   1.334
 3921SOL    HW112662   0.090   3.017   1.385
 3921SOL    HW212663   6.948   3.048   1.393
 3922SOL     OW12664   6.898   3.724   1.915
 3922SOL    HW112665   6.977   3.782   1.893
 3922SOL    HW212666   6.828   3.779   1.960
 3923SOL     OW12667   0.144   1.091   0.268
 3923SOL    HW112668   0.070   1.106   0.333
 3923SOL    HW212669   0.188   1.178   0.247
 3924SOL     OW12670   5.141   5.396   3.723
 3924SOL    HW112671   5.054   5.346   3.730
 3924SOL    HW212672   5.217   5.330   3.727
 3925SOL     OW12673   1.852   5.147   1.211
 3925SOL    HW112674   1.878   5.172   1.117
 3925SOL    HW212675   1.770   5.089   1.209
 3926SOL     OW12676   5.357   4.752   1.961
 3926SOL    HW112677   5.396   4.678   1.906
 3926SOL    HW212678   5.259   4.735   1.974
 3927SOL     OW12679   6.640   2.635   4.947
 3927SOL    HW112680   6.716   2.577   4.919
 3927SOL    HW212681   6.568   2.632   4.878
 3928SOL     OW12682   3.915   6.068   6.607
 3928SOL    HW112683   3.857   5.987   6.595
 3928SOL    HW212684   4.011   6.039   6.611
 3929SOL     OW12685   0.303   0.667   4.760
 3929SOL    HW112686   0.236   0.681   4.832
 3929SOL    HW212687   0.263   0.692   4.671
 3930SOL     OW12688   2.852   2.243   4.129
 3930SOL    HW112689   2.783   2.312   4.149
 3930SOL    HW212690   2.871   2.189   4.211
 3931SOL     OW12691   1.422   1.616   1.555
 3931SOL    HW112692   1.323   1.605   1.555
 3931SOL    HW212693   1.461   1.562   1.630
 3932SOL     OW12694   1.204   4.684   3.552
 3932SOL    HW112695   1.223   4.640   3.639
 3932SOL    HW212696   1.239   4.628   3.477
 3933SOL     OW12697   1.682   6.290   6.641
 3933SOL    HW112698   1.676   6.237   6.725
 3933SOL    HW212699   1.746   6.366   6.653
 3934SOL     OW12700   6.907   1.128   6.947
 3934SOL    HW112701   6.969   1.194   6.988
 3934SOL    HW212702   6.951   1.038   6.944
 3935SOL     OW12703   3.097   6.789   6.671
 3935SOL    HW112704   3.169   6.752   6.729
 3935SOL    HW212705   3.138   6.827   6.588
 3936SOL     OW12706   6.642   5.054   5.337
 3936SOL    HW112707   6.584   5.133   5.319
 3936SOL    HW212708   6.716   5.080   5.398
 3937SOL     OW12709   0.511   1.732   3.046
 3937SOL    HW112710   0.546   1.807   2.990
 3937SOL    HW212711   0.418   1.752   3.074
 3938SOL     OW12712   0.503   2.290   3.351
 3938SOL    HW112713   0.419   2.332   3.387
 3938SOL    HW212714   0.563   2.361   3.315
 3939SOL     OW12715   1.844   3.261   3.203
 3939SOL    HW112716   1.751   3.235   3.179
 3939SOL    HW212717   1.841   3.344   3.259
 3940SOL     OW12718   4.968   4.372   1.234
 3940SOL    HW112719   4.868   4.364   1.239
 3940SOL    HW212720   5.006   4.376   1.327
 3941SOL     OW12721   5.567   3.417   4.979
 3941SOL    HW112722   5.651   3.374   4.945
 3941SOL    HW212723   5.490   3.392   4.920
 3942SOL     OW12724   0.360   6.690   6.662
 3942SOL    HW112725   0.291   6.650   6.602
 3942SOL    HW212726   0.442   6.712   6.609
 3943SOL     OW12727   0.110   2.846   3.575
 3943SOL    HW112728   0.150   2.877   3.488
 3943SOL    HW212729   0.151   2.898   3.650
 3944SOL     OW12730   4.621   2.743   4.734
 3944SOL    HW112731   4.677   2.782   4.807
 3944SOL    HW212732   4.621   2.805   4.656
 3945SOL     OW12733   0.201   2.150   0.526
 3945SOL    HW112734   0.148   2.131   0.609
 3945SOL    HW212735   0.242   2.241   0.534
 3946SOL     OW12736   5.183   4.622   4.573
 3946SOL    HW112737   5.189   4.614   4.672
 3946SOL    HW212738   5.125   4.548   4.537
 3947SOL     OW12739   5.596   6.081   0.195
 3947SOL    HW112740   5.592   6.181   0.196
 3947SOL    HW212741   5.565   6.047   0.107
 3948SOL     OW12742   0.002   5.224   2.672
 3948SOL    HW112743   0.086   5.243   2.723
 3948SOL    HW212744   7.008   5.125   2.664
 3949SOL     OW12745   5.108   6.898   3.362
 3949SOL    HW112746   5.207   6.890   3.375
 3949SOL    HW212747   5.064   6.816   3.397
 3950SOL     OW12748   1.921   4.370   0.568
 3950SOL    HW112749   1.823   4.377   0.549
 3950SOL    HW212750   1.961   4.299   0.509
 3951SOL     OW12751   4.457   0.803   1.290
 3951SOL    HW112752   4.476   0.707   1.310
 3951SOL    HW212753   4.446   0.815   1.191
 3952SOL     OW12754   6.883   2.682   1.989
 3952SOL    HW112755   6.820   2.750   2.023
 3952SOL    HW212756   6.901   2.613   2.060
 3953SOL     OW12757   4.251   4.680   1.442
 3953SOL    HW112758   4.172   4.714   1.492
 3953SOL    HW212759   4.222   4.641   1.354
 3954SOL     OW12760   4.286   5.164   5.549
 3954SOL    HW112761   4.290   5.080   5.603
 3954SOL    HW212762   4.249   5.144   5.459
 3955SOL     OW12763   2.962   0.354   6.289
 3955SOL    HW112764   3.060   0.345   6.307
 3955SOL    HW212765   2.921   0.415   6.357
 3956SOL     OW12766   1.188   0.749   2.705
 3956SOL    HW112767   1.200   0.842   2.670
 3956SOL    HW212768   1.179   0.752   2.805
 3957SOL     OW12769   4.576   6.624   4.101
 3957SOL    HW112770   4.501   6.667   4.151
 3957SOL    HW212771   4.661   6.671   4.122
 3958SOL     OW12772   5.476   1.392   4.326
 3958SOL    HW112773   5.385   1.351   4.335
 3958SOL    HW212774   5.498   1.402   4.230
 3959SOL     OW12775   5.073   6.335   0.374
 3959SOL    HW112776   5.136   6.408   0.402
 3959SOL    HW212777   5.050   6.278   0.453
 3960SOL     OW12778   5.053   1.042   6.511
 3960SOL    HW112779   5.036   1.139   6.528
 3960SOL    HW212780   5.151   1.028   6.500
 3961SOL     OW12781   5.111   1.210   2.573
 3961SOL    HW112782   5.111   1.145   2.649
 3961SOL    HW212783   5.019   1.215   2.534
 3962SOL     OW12784   2.458   5.119   6.492
 3962SOL    HW112785   2.395   5.195   6.508
 3962SOL    HW212786   2.468   5.065   6.575
 3963SOL     OW12787   4.556   5.718   2.375
 3963SOL    HW112788   4.638   5.774   2.360
 3963SOL    HW212789   4.492   5.767   2.434
 3964SOL     OW12790   4.060   4.797   3.504
 3964SOL    HW112791   4.096   4.886   3.477
 3964SOL    HW212792   4.070   4.733   3.428
 3965SOL     OW12793   4.825   3.023   4.661
 3965SOL    HW112794   4.791   3.117   4.664
 3965SOL    HW212795   4.896   3.011   4.730
 3966SOL     OW12796   4.162   5.955   6.628
 3966SOL    HW112797   4.236   6.022   6.623
 3966SOL    HW212798   4.194   5.868   6.590
 3967SOL     OW12799   2.215   3.858   2.014
 3967SOL    HW112800   2.313   3.843   2.004
 3967SOL    HW212801   2.174   3.780   2.061
 3968SOL     OW12802   4.349   0.736   0.766
 3968SOL    HW112803   4.274   0.671   0.780
 3968SOL    HW212804   4.424   0.690   0.719
 3969SOL     OW12805   1.278   4.962   2.329
 3969SOL    HW112806   1.234   4.905   2.259
 3969SOL    HW212807   1.371   4.929   2.345
 3970SOL     OW12808   4.703   5.971   3.067
 3970SOL    HW112809   4.688   6.033   2.990
 3970SOL    HW212810   4.650   6.003   3.146
 3971SOL     OW12811   3.250   5.358   4.289
 3971SOL    HW112812   3.298   5.304   4.220
 3971SOL    HW212813   3.196   5.298   4.347
 3972SOL     OW12814   1.402   3.775   0.543
 3972SOL    HW112815   1.499   3.770   0.518
 3972SOL    HW212816   1.392   3.825   0.629
 3973SOL     OW12817   1.517   5.763   6.661
 3973SOL    HW112818   1.553   5.744   6.752
 3973SOL    HW212819   1.561   5.703   6.594
 3974SOL     OW12820   1.993   6.807   5.540
 3974SOL    HW112821   2.092   6.817   5.528
 3974SOL    HW212822   1.958   6.739   5.476
 3975SOL     OW12823   5.165   1.555   6.292
 3975SOL    HW112824   5.181   1.636   6.349
 3975SOL    HW212825   5.252   1.520   6.259
 3976SOL     OW12826   1.601   6.237   2.970
 3976SOL    HW112827   1.667   6.289   2.915
 3976SOL    HW212828   1.641   6.215   3.059
 3977SOL     OW12829   1.674   2.920   6.183
 3977SOL    HW112830   1.585   2.941   6.143
 3977SOL    HW212831   1.722   3.005   6.205
 3978SOL     OW12832   5.633   5.166   3.451
 3978SOL    HW112833   5.720   5.127   3.420
 3978SOL    HW212834   5.606   5.240   3.389
 3979SOL     OW12835   4.089   0.808   6.812
 3979SOL    HW112836   4.061   0.814   6.908
 3979SOL    HW212837   4.105   0.712   6.788
 3980SOL     OW12838   5.706   6.602   6.741
 3980SOL    HW112839   5.795   6.620   6.782
 3980SOL    HW212840   5.641   6.673   6.768
 3981SOL     OW12841   3.781   6.513   0.308
 3981SOL    HW112842   3.821   6.592   0.355
 3981SOL    HW212843   3.799   6.430   0.361
 3982SOL     OW12844   2.302   6.407   3.460
 3982SOL    HW112845   2.280   6.333   3.523
 3982SOL    HW212846   2.256   6.392   3.373
 3983SOL     OW12847   4.616   4.894   3.932
 3983SOL    HW112848   4.679   4.899   3.854
 3983SOL    HW212849   4.663   4.927   4.014
 3984SOL     OW12850   6.762   1.430   1.879
 3984SOL    HW112851   6.767   1.334   1.850
 3984SOL    HW212852   6.667   1.454   1.896
 3985SOL     OW12853   2.874   4.926   6.756
 3985SOL    HW112854   2.787   4.898   6.715
 3985SOL    HW212855   2.921   4.846   6.793
 3986SOL     OW12856   5.195   1.597   2.621
 3986SOL    HW112857   5.259   1.666   2.656
 3986SOL    HW212858   5.156   1.629   2.535
 3987SOL     OW12859   3.561   5.065   3.739
 3987SOL    HW112860   3.495   5.051   3.665
 3987SOL    HW212861   3.516   5.046   3.827
 3988SOL     OW12862   3.420   5.156   7.006
 3988SOL    HW112863   3.385   5.125   6.918
 3988SOL    HW212864   3.445   5.253   6.999
 3989SOL     OW12865   6.470   2.285   7.017
 3989SOL    HW112866   6.521   2.242   6.942
 3989SOL    HW212867   6.426   2.368   6.983
 3990SOL     OW12868   4.583   2.500   2.526
 3990SOL    HW112869   4.643   2.429   2.564
 3990SOL    HW212870   4.635   2.559   2.465
 3991SOL     OW12871   6.980   1.620   1.699
 3991SOL    HW112872   6.916   1.552   1.665
 3991SOL    HW212873   6.999   1.603   1.796
 3992SOL     OW12874   3.007   1.512   0.205
 3992SOL    HW112875   3.068   1.589   0.183
 3992SOL    HW212876   2.996   1.454   0.125
 3993SOL     OW12877   1.524   3.102   2.073
 3993SOL    HW112878   1.492   3.017   2.116
 3993SOL    HW212879   1.530   3.089   1.974
 3994SOL     OW12880   2.822   7.016   5.957
 3994SOL    HW112881   2.895   6.973   5.903
 3994SOL    HW212882   2.841   7.005   6.054
 3995SOL     OW12883   2.076   3.815   6.337
 3995SOL    HW112884   2.151   3.778   6.283
 3995SOL    HW212885   2.089   3.914   6.348
 3996SOL     OW12886   0.358   6.595   4.758
 3996SOL    HW112887   0.333   6.547   4.675
 3996SOL    HW212888   0.277   6.610   4.814
 3997SOL     OW12889   5.720   2.058   3.339
 3997SOL    HW112890   5.711   1.992   3.264
 3997SOL    HW212891   5.696   2.013   3.426
 3998SOL     OW12892   3.763   1.482   4.302
 3998SOL    HW112893   3.733   1.497   4.208
 3998SOL    HW212894   3.806   1.392   4.310
 3999SOL     OW12895   5.981   2.418   3.819
 3999SOL    HW112896   5.961   2.416   3.917
 3999SOL    HW212897   6.077   2.395   3.805
 4000SOL     OW12898   2.767   6.734   3.903
 4000SOL    HW112899   2.733   6.644   3.929
 4000SOL    HW212900   2.703   6.777   3.839
 4001SOL     OW12901   2.665   1.862   4.107
 4001SOL    HW112902   2.630   1.924   4.176
 4001SOL    HW212903   2.660   1.905   4.017
 4002SOL     OW12904   3.410   4.125   1.475
 4002SOL    HW112905   3.333   4.069   1.446
 4002SOL    HW212906   3.490   4.067   1.491
 4003SOL     OW12907   3.351   0.357   4.097
 4003SOL    HW112908   3.337   0.323   4.004
 4003SOL    HW212909   3.417   0.299   4.144
 4004SOL     OW12910   5.787   2.142   4.519
 4004SOL    HW112911   5.692   2.123   4.496
 4004SOL    HW212912   5.802   2.126   4.616
 4005SOL     OW12913   4.919   5.122   6.481
 4005SOL    HW112914   4.846   5.091   6.419
 4005SOL    HW212915   4.982   5.046   6.497
 4006SOL     OW12916   4.161   5.329   1.915
 4006SOL    HW112917   4.149   5.240   1.957
 4006SOL    HW212918   4.080   5.385   1.931
 4007SOL     OW12919   0.217   2.914   6.990
 4007SOL    HW112920   0.279   2.988   6.964
 4007SOL    HW212921   0.144   2.950   0.029
 4008SOL     OW12922   2.490   2.361   4.639
 4008SOL    HW112923   2.544   2.288   4.680
 4008SOL    HW212924   2.488   2.440   4.700
 4009SOL     OW12925   4.429   3.019   1.486
 4009SOL    HW112926   4.486   3.072   1.423
 4009SOL    HW212927   4.339   3.062   1.493
 4010SOL     OW12928   2.728   2.811   1.371
 4010SOL    HW112929   2.731   2.716   1.340
 4010SOL    HW212930   2.734   2.814   1.471
 4011SOL     OW12931   1.039   1.767   1.973
 4011SOL    HW112932   1.076   1.855   2.004
 4011SOL    HW212933   0.939   1.769   1.983
 4012SOL     OW12934   6.573   4.019   2.359
 4012SOL    HW112935   6.477   4.040   2.377
 4012SOL    HW212936   6.595   3.929   2.396
 4013SOL     OW12937   3.703   2.118   4.771
 4013SOL    HW112938   3.708   2.110   4.671
 4013SOL    HW212939   3.790   2.152   4.806
 4014SOL     OW12940   6.280   6.591   2.243
 4014SOL    HW112941   6.362   6.644   2.221
 4014SOL    HW212942   6.229   6.570   2.160
 4015SOL     OW12943   4.947   4.155   6.131
 4015SOL    HW112944   4.919   4.105   6.213
 4015SOL    HW212945   4.889   4.236   6.121
 4016SOL     OW12946   2.741   6.119   6.114
 4016SOL    HW112947   2.709   6.176   6.189
 4016SOL    HW212948   2.682   6.131   6.035
 4017SOL     OW12949   6.824   5.947   0.586
 4017SOL    HW112950   6.839   6.005   0.506
 4017SOL    HW212951   6.906   5.893   0.604
 4018SOL     OW12952   4.610   6.369   2.186
 4018SOL    HW112953   4.526   6.358   2.240
 4018SOL    HW212954   4.586   6.384   2.090
 4019SOL     OW12955   5.220   4.239   2.935
 4019SOL    HW112956   5.129   4.262   2.899
 4019SOL    HW212957   5.290   4.292   2.888
 4020SOL     OW12958   4.458   2.485   5.475
 4020SOL    HW112959   4.440   2.403   5.421
 4020SOL    HW212960   4.432   2.566   5.422
 4021SOL     OW12961   3.746   5.284   6.709
 4021SOL    HW112962   3.750   5.228   6.792
 4021SOL    HW212963   3.694   5.236   6.639
 4022SOL     OW12964   4.761   1.965   0.023
 4022SOL    HW112965   4.697   1.890   0.003
 4022SOL    HW212966   4.768   1.978   0.122
 4023SOL     OW12967   6.403   2.230   4.817
 4023SOL    HW112968   6.435   2.292   4.890
 4023SOL    HW212969   6.480   2.205   4.758
 4024SOL     OW12970   4.029   5.614   4.662
 4024SOL    HW112971   3.996   5.554   4.735
 4024SOL    HW212972   3.955   5.673   4.630
 4025SOL     OW12973   0.604   3.793   3.365
 4025SOL    HW112974   0.685   3.850   3.374
 4025SOL    HW212975   0.631   3.697   3.356
 4026SOL     OW12976   5.005   6.583   4.083
 4026SOL    HW112977   5.019   6.485   4.072
 4026SOL    HW212978   5.073   6.619   4.148
 4027SOL     OW12979   3.794   4.690   1.670
 4027SOL    HW112980   3.811   4.615   1.606
 4027SOL    HW212981   3.702   4.680   1.709
 4028SOL     OW12982   1.790   1.991   4.086
 4028SOL    HW112983   1.712   2.000   4.147
 4028SOL    HW212984   1.837   1.905   4.105
 4029SOL     OW12985   1.983   3.976   5.856
 4029SOL    HW112986   2.010   4.067   5.887
 4029SOL    HW212987   1.957   3.921   5.934
 4030SOL     OW12988   0.431   2.130   4.931
 4030SOL    HW112989   0.431   2.036   4.965
 4030SOL    HW212990   0.510   2.145   4.873
 4031SOL     OW12991   3.991   5.847   4.258
 4031SOL    HW112992   3.972   5.756   4.222
 4031SOL    HW212993   3.904   5.892   4.280
 4032SOL     OW12994   5.355   6.777   3.438
 4032SOL    HW112995   5.394   6.798   3.528
 4032SOL    HW212996   5.362   6.678   3.422
 4033SOL     OW12997   3.008   3.273   4.413
 4033SOL    HW112998   2.974   3.300   4.323
 4033SOL    HW212999   3.016   3.174   4.418
 4034SOL     OW13000   6.731   1.744   3.741
 4034SOL    HW113001   6.677   1.696   3.809
 4034SOL    HW213002   6.675   1.762   3.660
 4035SOL     OW13003   0.876   4.035   6.757
 4035SOL    HW113004   0.923   4.123   6.757
 4035SOL    HW213005   0.786   4.046   6.799
 4036SOL     OW13006   6.021   6.738   2.660
 4036SOL    HW113007   5.992   6.712   2.568
 4036SOL    HW213008   5.952   6.708   2.726
 4037SOL     OW13009   1.030   3.137   6.867
 4037SOL    HW113010   0.971   3.074   6.817
 4037SOL    HW213011   1.106   3.165   6.809
 4038SOL     OW13012   4.992   4.789   2.977
 4038SOL    HW113013   4.939   4.844   3.042
 4038SOL    HW213014   4.978   4.823   2.884
 4039SOL     OW13015   5.601   6.358   0.198
 4039SOL    HW113016   5.666   6.403   0.136
 4039SOL    HW213017   5.508   6.384   0.173
 4040SOL     OW13018   3.334   6.544   1.151
 4040SOL    HW113019   3.246   6.523   1.193
 4040SOL    HW213020   3.406   6.495   1.199
 4041SOL     OW13021   1.147   6.256   3.758
 4041SOL    HW113022   1.092   6.181   3.722
 4041SOL    HW213023   1.182   6.311   3.681
 4042SOL     OW13024   5.702   5.101   1.672
 4042SOL    HW113025   5.698   5.031   1.744
 4042SOL    HW213026   5.779   5.163   1.690
 4043SOL     OW13027   5.661   2.204   1.850
 4043SOL    HW113028   5.606   2.183   1.931
 4043SOL    HW213029   5.640   2.138   1.777
 4044SOL     OW13030   5.914   6.975   3.306
 4044SOL    HW113031   6.002   0.003   3.304
 4044SOL    HW213032   5.851   0.003   3.244
 4045SOL     OW13033   1.546   5.357   6.662
 4045SOL    HW113034   1.462   5.408   6.678
 4045SOL    HW213035   1.607   5.411   6.603
 4046SOL     OW13036   0.888   2.939   1.863
 4046SOL    HW113037   0.953   2.941   1.787
 4046SOL    HW213038   0.884   3.029   1.906
 4047SOL     OW13039   2.741   3.672   1.728
 4047SOL    HW113040   2.648   3.640   1.710
 4047SOL    HW213041   2.770   3.734   1.655
 4048SOL     OW13042   4.818   0.453   1.034
 4048SOL    HW113043   4.775   0.363   1.044
 4048SOL    HW213044   4.797   0.509   1.115
 4049SOL     OW13045   5.348   6.576   5.438
 4049SOL    HW113046   5.425   6.639   5.445
 4049SOL    HW213047   5.332   6.553   5.342
 4050SOL     OW13048   1.760   6.728   0.609
 4050SOL    HW113049   1.771   6.642   0.659
 4050SOL    HW213050   1.836   6.741   0.546
 4051SOL     OW13051   3.202   4.162   1.126
 4051SOL    HW113052   3.115   4.150   1.173
 4051SOL    HW213053   3.188   4.214   1.042
 4052SOL     OW13054   0.520   0.933   0.401
 4052SOL    HW113055   0.473   1.004   0.347
 4052SOL    HW213056   0.480   0.929   0.492
 4053SOL     OW13057   3.414   4.910   3.529
 4053SOL    HW113058   3.478   4.844   3.568
 4053SOL    HW213059   3.340   4.927   3.594
 4054SOL     OW13060   3.480   2.644   1.119
 4054SOL    HW113061   3.393   2.606   1.151
 4054SOL    HW213062   3.547   2.640   1.193
 4055SOL     OW13063   3.924   1.553   5.823
 4055SOL    HW113064   3.899   1.637   5.774
 4055SOL    HW213065   3.907   1.566   5.921
 4056SOL     OW13066   3.595   3.509   0.096
 4056SOL    HW113067   3.547   3.424   0.117
 4056SOL    HW213068   3.560   3.582   0.155
 4057SOL     OW13069   4.843   2.851   6.647
 4057SOL    HW113070   4.747   2.877   6.655
 4057SOL    HW213071   4.893   2.923   6.599
 4058SOL     OW13072   2.087   0.821   5.713
 4058SOL    HW113073   2.012   0.782   5.660
 4058SOL    HW213074   2.165   0.759   5.711
 4059SOL     OW13075   0.977   1.837   5.157
 4059SOL    HW113076   0.891   1.877   5.187
 4059SOL    HW213077   0.960   1.763   5.093
 4060SOL     OW13078   4.208   5.224   4.213
 4060SOL    HW113079   4.182   5.318   4.236
 4060SOL    HW213080   4.147   5.160   4.259
 4061SOL     OW13081   2.968   3.800   2.258
 4061SOL    HW113082   2.895   3.823   2.193
 4061SOL    HW213083   3.046   3.762   2.208
 4062SOL     OW13084   2.918   0.672   3.484
 4062SOL    HW113085   3.006   0.706   3.515
 4062SOL    HW213086   2.896   0.713   3.396
 4063SOL     OW13087   2.767   5.212   6.210
 4063SOL    HW113088   2.811   5.195   6.298
 4063SOL    HW213089   2.692   5.147   6.197
 4064SOL     OW13090   6.538   1.207   3.485
 4064SOL    HW113091   6.535   1.301   3.453
 4064SOL    HW213092   6.632   1.174   3.485
 4065SOL     OW13093   6.794   6.716   0.233
 4065SOL    HW113094   6.826   6.622   0.220
 4065SOL    HW213095   6.738   6.721   0.316
 4066SOL     OW13096   6.332   4.301   1.738
 4066SOL    HW113097   6.265   4.267   1.804
 4066SOL    HW213098   6.368   4.225   1.684
 4067SOL     OW13099   6.182   1.395   2.191
 4067SOL    HW113100   6.264   1.443   2.220
 4067SOL    HW213101   6.101   1.451   2.210
 4068SOL     OW13102   5.844   0.227   3.554
 4068SOL    HW113103   5.821   0.130   3.553
 4068SOL    HW213104   5.792   0.274   3.483
 4069SOL     OW13105   5.843   5.105   1.100
 4069SOL    HW113106   5.771   5.037   1.095
 4069SOL    HW213107   5.865   5.124   1.196
 4070SOL     OW13108   1.567   3.699   2.809
 4070SOL    HW113109   1.476   3.724   2.840
 4070SOL    HW213110   1.616   3.653   2.883
 4071SOL     OW13111   0.786   0.144   4.036
 4071SOL    HW113112   0.756   0.188   3.952
 4071SOL    HW213113   0.832   0.058   4.013
 4072SOL     OW13114   1.713   0.001   4.950
 4072SOL    HW113115   1.655   6.938   4.938
 4072SOL    HW213116   1.677   0.057   5.024
 4073SOL     OW13117   2.264   6.139   0.114
 4073SOL    HW113118   2.281   6.098   0.204
 4073SOL    HW213119   2.263   6.068   0.044
 4074SOL     OW13120   1.506   3.223   1.025
 4074SOL    HW113121   1.561   3.142   1.042
 4074SOL    HW213122   1.451   3.210   0.943
 4075SOL     OW13123   4.789   1.967   3.427
 4075SOL    HW113124   4.734   2.032   3.479
 4075SOL    HW213125   4.816   1.891   3.486
 4076SOL     OW13126   1.622   3.589   4.289
 4076SOL    HW113127   1.705   3.538   4.267
 4076SOL    HW213128   1.637   3.686   4.273
 4077SOL     OW13129   3.783   1.332   0.750
 4077SOL    HW113130   3.867   1.302   0.794
 4077SOL    HW213131   3.704   1.302   0.804
 4078SOL     OW13132   6.209   4.132   1.264
 4078SOL    HW113133   6.110   4.119   1.268
 4078SOL    HW213134   6.255   4.044   1.276
 4079SOL     OW13135   0.468   0.812   3.616
 4079SOL    HW113136   0.456   0.844   3.710
 4079SOL    HW213137   0.393   0.845   3.560
 4080SOL     OW13138   3.388   3.593   1.551
 4080SOL    HW113139   3.302   3.642   1.541
 4080SOL    HW213140   3.394   3.521   1.482
 4081SOL     OW13141   2.119   2.253   5.736
 4081SOL    HW113142   2.099   2.206   5.650
 4081SOL    HW213143   2.069   2.339   5.740
 4082SOL     OW13144   1.114   2.879   4.277
 4082SOL    HW113145   1.125   2.834   4.188
 4082SOL    HW213146   1.059   2.963   4.266
 4083SOL     OW13147   5.544   5.281   2.487
 4083SOL    HW113148   5.460   5.305   2.535
 4083SOL    HW213149   5.534   5.190   2.446
 4084SOL     OW13150   4.616   0.755   3.325
 4084SOL    HW113151   4.673   0.748   3.243
 4084SOL    HW213152   4.524   0.720   3.304
 4085SOL     OW13153   3.282   4.871   2.633
 4085SOL    HW113154   3.332   4.934   2.692
 4085SOL    HW213155   3.312   4.884   2.538
 4086SOL     OW13156   5.968   5.586   6.043
 4086SOL    HW113157   5.904   5.658   6.066
 4086SOL    HW213158   6.019   5.611   5.960
 4087SOL     OW13159   2.960   6.978   2.596
 4087SOL    HW113160   2.880   6.949   2.544
 4087SOL    HW213161   3.008   6.898   2.632
 4088SOL     OW13162   0.540   1.599   5.637
 4088SOL    HW113163   0.549   1.679   5.579
 4088SOL    HW213164   0.505   1.522   5.583
 4089SOL     OW13165   0.082   0.338   4.203
 4089SOL    HW113166   0.050   0.340   4.108
 4089SOL    HW213167   0.007   0.312   4.263
 4090SOL     OW13168   2.496   0.601   6.121
 4090SOL    HW113169   2.494   0.504   6.097
 4090SOL    HW213170   2.563   0.648   6.064
 4091SOL     OW13171   2.066   5.763   2.380
 4091SOL    HW113172   1.986   5.800   2.332
 4091SOL    HW213173   2.045   5.670   2.412
 4092SOL     OW13174   5.219   3.018   3.845
 4092SOL    HW113175   5.289   2.977   3.904
 4092SOL    HW213176   5.212   2.965   3.760
 4093SOL     OW13177   3.997   5.194   2.796
 4093SOL    HW113178   4.011   5.285   2.758
 4093SOL    HW213179   3.986   5.201   2.896
 4094SOL     OW13180   6.608   5.333   6.450
 4094SOL    HW113181   6.670   5.336   6.528
 4094SOL    HW213182   6.548   5.413   6.452
 4095SOL     OW13183   0.688   4.952   6.746
 4095SOL    HW113184   0.654   4.866   6.708
 4095SOL    HW213185   0.631   4.979   6.823
 4096SOL     OW13186   1.448   1.661   6.982
 4096SOL    HW113187   1.378   1.643   6.913
 4096SOL    HW213188   1.447   1.758   7.007
 4097SOL     OW13189   0.141   4.988   4.908
 4097SOL    HW113190   0.071   4.938   4.856
 4097SOL    HW213191   0.221   5.000   4.850
 4098SOL     OW13192   2.314   4.919   3.318
 4098SOL    HW113193   2.374   4.857   3.369
 4098SOL    HW213194   2.232   4.869   3.288
 4099SOL     OW13195   4.508   4.927   5.540
 4099SOL    HW113196   4.417   4.885   5.549
 4099SOL    HW213197   4.520   4.960   5.446
 4100SOL     OW13198   1.384   6.897   3.939
 4100SOL    HW113199   1.429   6.844   4.012
 4100SOL    HW213200   1.384   6.994   3.964
 4101SOL     OW13201   6.406   6.924   0.732
 4101SOL    HW113202   6.442   6.972   0.812
 4101SOL    HW213203   6.357   6.988   0.673
 4102SOL     OW13204   1.277   1.076   0.223
 4102SOL    HW113205   1.334   0.995   0.213
 4102SOL    HW213206   1.283   1.110   0.317
 4103SOL     OW13207   1.320   6.880   2.960
 4103SOL    HW113208   1.300   6.975   2.984
 4103SOL    HW213209   1.361   6.834   3.039
 4104SOL     OW13210   1.035   5.951   4.517
 4104SOL    HW113211   1.032   5.961   4.617
 4104SOL    HW213212   0.951   5.907   4.486
 4105SOL     OW13213   4.701   1.395   1.233
 4105SOL    HW113214   4.684   1.298   1.219
 4105SOL    HW213215   4.644   1.448   1.169
 4106SOL     OW13216   0.190   2.328   3.502
 4106SOL    HW113217   0.203   2.416   3.547
 4106SOL    HW213218   0.113   2.335   3.438
 4107SOL     OW13219   0.383   6.307   6.677
 4107SOL    HW113220   0.284   6.311   6.690
 4107SOL    HW213221   0.428   6.314   6.766
 4108SOL     OW13222   6.644   5.456   4.113
 4108SOL    HW113223   6.552   5.491   4.128
 4108SOL    HW213224   6.695   5.459   4.199
 4109SOL     OW13225   6.429   6.973   2.736
 4109SOL    HW113226   6.383   6.890   2.705
 4109SOL    HW213227   6.427   6.976   2.836
 4110SOL     OW13228   4.545   3.952   0.480
 4110SOL    HW113229   4.629   3.986   0.521
 4110SOL    HW213230   4.470   3.962   0.546
 4111SOL     OW13231   6.567   4.033   4.007
 4111SOL    HW113232   6.492   4.038   3.942
 4111SOL    HW213233   6.602   3.939   4.011
 4112SOL     OW13234   4.711   6.671   5.290
 4112SOL    HW113235   4.790   6.680   5.230
 4112SOL    HW213236   4.654   6.595   5.260
 4113SOL     OW13237   4.189   4.941   4.984
 4113SOL    HW113238   4.137   5.021   4.953
 4113SOL    HW213239   4.214   4.885   4.905
 4114SOL     OW13240   0.280   1.855   2.163
 4114SOL    HW113241   0.295   1.864   2.064
 4114SOL    HW213242   0.246   1.942   2.199
 4115SOL     OW13243   3.553   5.533   4.272
 4115SOL    HW113244   3.472   5.588   4.252
 4115SOL    HW213245   3.546   5.493   4.363
 4116SOL     OW13246   5.482   2.664   3.381
 4116SOL    HW113247   5.570   2.711   3.383
 4116SOL    HW213248   5.421   2.711   3.317
 4117SOL     OW13249   1.257   2.245   3.127
 4117SOL    HW113250   1.316   2.171   3.158
 4117SOL    HW213251   1.297   2.333   3.154
 4118SOL     OW13252   0.299   6.122   5.859
 4118SOL    HW113253   0.322   6.087   5.950
 4118SOL    HW213254   0.381   6.126   5.803
 4119SOL     OW13255   1.558   1.237   3.518
 4119SOL    HW113256   1.649   1.249   3.479
 4119SOL    HW213257   1.496   1.201   3.448
 4120SOL     OW13258   1.505   1.391   6.258
 4120SOL    HW113259   1.469   1.362   6.169
 4120SOL    HW213260   1.430   1.403   6.323
 4121SOL     OW13261   6.511   6.622   1.631
 4121SOL    HW113262   6.547   6.528   1.627
 4121SOL    HW213263   6.540   6.671   1.549
 4122SOL     OW13264   6.573   4.595   3.282
 4122SOL    HW113265   6.554   4.512   3.230
 4122SOL    HW213266   6.539   4.585   3.376
 4123SOL     OW13267   3.994   5.110   2.037
 4123SOL    HW113268   3.953   5.199   2.020
 4123SOL    HW213269   3.923   5.046   2.069
 4124SOL     OW13270   6.510   5.807   0.309
 4124SOL    HW113271   6.556   5.894   0.295
 4124SOL    HW213272   6.450   5.788   0.231
 4125SOL     OW13273   5.858   1.862   1.923
 4125SOL    HW113274   5.861   1.852   2.023
 4125SOL    HW213275   5.795   1.795   1.885
 4126SOL     OW13276   1.433   3.370   2.072
 4126SOL    HW113277   1.455   3.273   2.072
 4126SOL    HW213278   1.499   3.420   2.127
 4127SOL     OW13279   3.918   1.857   3.782
 4127SOL    HW113280   3.855   1.855   3.859
 4127SOL    HW213281   3.907   1.943   3.733
 4128SOL     OW13282   0.514   2.775   0.431
 4128SOL    HW113283   0.568   2.826   0.498
 4128SOL    HW213284   0.417   2.781   0.456
 4129SOL     OW13285   2.378   2.145   0.627
 4129SOL    HW113286   2.327   2.075   0.676
 4129SOL    HW213287   2.346   2.236   0.656
 4130SOL     OW13288   5.248   2.681   0.898
 4130SOL    HW113289   5.297   2.595   0.912
 4130SOL    HW213290   5.197   2.705   0.980
 4131SOL     OW13291   4.648   0.324   2.857
 4131SOL    HW113292   4.619   0.396   2.794
 4131SOL    HW213293   4.636   0.235   2.812
 4132SOL     OW13294   6.883   4.646   4.005
 4132SOL    HW113295   6.958   4.709   4.027
 4132SOL    HW213296   6.812   4.655   4.074
 4133SOL     OW13297   5.865   0.074   2.479
 4133SOL    HW113298   5.812   0.157   2.498
 4133SOL    HW213299   5.802   7.014   2.472
 4134SOL     OW13300   2.148   3.181   1.281
 4134SOL    HW113301   2.248   3.178   1.274
 4134SOL    HW213302   2.109   3.203   1.192
 4135SOL     OW13303   0.406   1.675   2.753
 4135SOL    HW113304   0.476   1.685   2.823
 4135SOL    HW213305   0.448   1.653   2.666
 4136SOL     OW13306   1.653   4.735   1.702
 4136SOL    HW113307   1.683   4.830   1.709
 4136SOL    HW213308   1.674   4.687   1.787
 4137SOL     OW13309   2.021   2.293   0.109
 4137SOL    HW113310   2.062   2.208   0.139
 4137SOL    HW213311   2.064   2.370   0.156
 4138SOL     OW13312   5.287   6.909   0.742
 4138SOL    HW113313   5.306   6.901   0.840
 4138SOL    HW213314   5.189   6.901   0.726
 4139SOL     OW13315   2.038   2.883   2.828
 4139SOL    HW113316   1.973   2.922   2.893
 4139SOL    HW213317   2.090   2.957   2.784
 4140SOL     OW13318   2.579   2.614   5.566
 4140SOL    HW113319   2.507   2.572   5.620
 4140SOL    HW213320   2.539   2.662   5.488
 4141SOL     OW13321   4.600   6.875   6.552
 4141SOL    HW113322   4.579   6.972   6.539
 4141SOL    HW213323   4.676   6.849   6.493
 4142SOL     OW13324   6.833   4.385   3.010
 4142SOL    HW113325   6.877   4.475   3.015
 4142SOL    HW213326   6.852   4.344   2.921
 4143SOL     OW13327   5.871   3.110   0.154
 4143SOL    HW113328   5.894   3.014   0.165
 4143SOL    HW213329   5.832   3.125   0.063
 4144SOL     OW13330   5.781   2.184   0.815
 4144SOL    HW113331   5.776   2.205   0.913
 4144SOL    HW213332   5.867   2.219   0.777
 4145SOL     OW13333   0.158   6.904   1.364
 4145SOL    HW113334   0.111   6.817   1.380
 4145SOL    HW213335   0.166   6.954   1.450
 4146SOL     OW13336   4.715   6.268   3.312
 4146SOL    HW113337   4.712   6.354   3.262
 4146SOL    HW213338   4.742   6.285   3.407
 4147SOL     OW13339   5.347   4.166   5.838
 4147SOL    HW113340   5.293   4.191   5.919
 4147SOL    HW213341   5.401   4.085   5.858
 4148SOL     OW13342   2.707   1.243   6.000
 4148SOL    HW113343   2.725   1.336   5.969
 4148SOL    HW213344   2.608   1.229   6.006
 4149SOL     OW13345   2.309   2.681   0.114
 4149SOL    HW113346   2.404   2.660   0.135
 4149SOL    HW213347   2.280   2.630   0.033
 4150SOL     OW13348   6.154   2.285   5.768
 4150SOL    HW113349   6.087   2.238   5.712
 4150SOL    HW213350   6.159   2.241   5.858
 4151SOL     OW13351   2.370   6.657   4.017
 4151SOL    HW113352   2.367   6.588   4.089
 4151SOL    HW213353   2.422   6.737   4.048
 4152SOL     OW13354   2.531   5.018   1.349
 4152SOL    HW113355   2.603   5.008   1.280
 4152SOL    HW213356   2.535   4.942   1.413
 4153SOL     OW13357   6.996   4.969   1.759
 4153SOL    HW113358   7.012   5.067   1.774
 4153SOL    HW213359   6.901   4.947   1.782
 4154SOL     OW13360   1.081   6.091   3.993
 4154SOL    HW113361   1.142   6.144   3.934
 4154SOL    HW213362   1.084   6.127   4.086
 4155SOL     OW13363   0.741   1.841   1.275
 4155SOL    HW113364   0.672   1.912   1.288
 4155SOL    HW213365   0.764   1.800   1.363
 4156SOL     OW13366   6.642   5.299   5.087
 4156SOL    HW113367   6.655   5.274   4.991
 4156SOL    HW213368   6.731   5.312   5.130
 4157SOL     OW13369   6.720   5.902   2.023
 4157SOL    HW113370   6.705   5.896   1.925
 4157SOL    HW213371   6.636   5.878   2.071
 4158SOL     OW13372   1.382   2.485   2.449
 4158SOL    HW113373   1.447   2.495   2.524
 4158SOL    HW213374   1.299   2.535   2.470
 4159SOL     OW13375   2.925   1.362   3.617
 4159SOL    HW113376   2.837   1.347   3.662
 4159SOL    HW213377   2.985   1.413   3.679
 4160SOL     OW13378   6.538   6.734   6.616
 4160SOL    HW113379   6.579   6.680   6.690
 4160SOL    HW213380   6.596   6.730   6.535
 4161SOL     OW13381   3.145   2.565   1.462
 4161SOL    HW113382   3.133   2.478   1.413
 4161SOL    HW213383   3.209   2.552   1.537
 4162SOL     OW13384   5.788   5.806   1.893
 4162SOL    HW113385   5.731   5.777   1.816
 4162SOL    HW213386   5.847   5.730   1.921
 4163SOL     OW13387   3.981   7.012   0.703
 4163SOL    HW113388   4.044   0.048   0.759
 4163SOL    HW213389   3.932   6.946   0.760
 4164SOL     OW13390   6.230   0.250   4.861
 4164SOL    HW113391   6.199   0.215   4.950
 4164SOL    HW213392   6.313   0.200   4.833
 4165SOL     OW13393   4.782   1.110   5.406
 4165SOL    HW113394   4.708   1.045   5.390
 4165SOL    HW213395   4.831   1.126   5.321
 4166SOL     OW13396   6.012   0.849   1.646
 4166SOL    HW113397   5.982   0.764   1.687
 4166SOL    HW213398   6.018   0.839   1.547
 4167SOL     OW13399   4.212   5.157   5.247
 4167SOL    HW113400   4.168   5.101   5.177
 4167SOL    HW213401   4.160   5.241   5.260
 4168SOL     OW13402   4.954   4.412   6.670
 4168SOL    HW113403   4.858   4.422   6.646
 4168SOL    HW213404   4.986   4.321   6.645
 4169SOL     OW13405   4.977   3.686   4.829
 4169SOL    HW113406   5.030   3.739   4.895
 4169SOL    HW213407   4.916   3.623   4.877
 4170SOL     OW13408   6.382   3.568   4.378
 4170SOL    HW113409   6.307   3.562   4.444
 4170SOL    HW213410   6.469   3.561   4.426
 4171SOL     OW13411   0.599   3.497   1.158
 4171SOL    HW113412   0.524   3.510   1.093
 4171SOL    HW213413   0.651   3.415   1.132
 4172SOL     OW13414   2.803   4.466   0.499
 4172SOL    HW113415   2.834   4.561   0.508
 4172SOL    HW213416   2.756   4.438   0.582
 4173SOL     OW13417   4.922   3.173   5.143
 4173SOL    HW113418   4.948   3.076   5.140
 4173SOL    HW213419   4.921   3.210   5.050
 4174SOL     OW13420   4.060   0.881   4.829
 4174SOL    HW113421   4.029   0.805   4.772
 4174SOL    HW213422   4.142   0.922   4.788
 4175SOL     OW13423   1.498   4.589   6.494
 4175SOL    HW113424   1.454   4.565   6.407
 4175SOL    HW213425   1.428   4.612   6.562
 4176SOL     OW13426   5.387   6.588   6.303
 4176SOL    HW113427   5.472   6.629   6.337
 4176SOL    HW213428   5.367   6.506   6.356
 4177SOL     OW13429   4.787   4.307   3.354
 4177SOL    HW113430   4.708   4.362   3.328
 4177SOL    HW213431   4.869   4.343   3.310
 4178SOL     OW13432   3.906   5.368   2.039
 4178SOL    HW113433   3.927   5.464   2.062
 4178SOL    HW213434   3.845   5.330   2.108
 4179SOL     OW13435   5.106   3.098   4.894
 4179SOL    HW113436   5.171   3.126   4.965
 4179SOL    HW213437   5.033   3.166   4.887
 4180SOL     OW13438   5.055   3.806   0.200
 4180SOL    HW113439   5.101   3.778   0.116
 4180SOL    HW213440   4.956   3.803   0.187
 4181SOL     OW13441   4.921   0.541   5.679
 4181SOL    HW113442   4.946   0.492   5.762
 4181SOL    HW213443   4.926   0.640   5.696
 4182SOL     OW13444   0.050   6.324   4.179
 4182SOL    HW113445   0.042   6.331   4.278
 4182SOL    HW213446   6.986   6.279   4.142
 4183SOL     OW13447   3.765   1.677   1.987
 4183SOL    HW113448   3.748   1.721   2.076
 4183SOL    HW213449   3.813   1.740   1.927
 4184SOL     OW13450   3.346   5.626   3.418
 4184SOL    HW113451   3.321   5.597   3.325
 4184SOL    HW213452   3.380   5.547   3.469
 4185SOL     OW13453   6.569   3.702   2.973
 4185SOL    HW113454   6.522   3.711   3.061
 4185SOL    HW213455   6.511   3.651   2.910
 4186SOL     OW13456   1.608   6.255   0.340
 4186SOL    HW113457   1.665   6.208   0.407
 4186SOL    HW213458   1.630   6.352   0.340
 4187SOL     OW13459   1.742   3.546   0.204
 4187SOL    HW113460   1.757   3.588   0.115
 4187SOL    HW213461   1.656   3.495   0.203
 4188SOL     OW13462   4.734   0.146   6.737
 4188SOL    HW113463   4.708   0.087   6.813
 4188SOL    HW213464   4.663   0.144   6.667
 4189SOL     OW13465   4.711   5.593   2.728
 4189SOL    HW113466   4.617   5.562   2.739
 4189SOL    HW213467   4.764   5.567   2.809
 4190SOL     OW13468   0.336   6.946   1.061
 4190SOL    HW113469   0.338   6.865   1.119
 4190SOL    HW213470   0.292   6.923   0.974
 4191SOL     OW13471   4.515   4.328   5.759
 4191SOL    HW113472   4.583   4.298   5.692
 4191SOL    HW213473   4.433   4.360   5.712
 4192SOL     OW13474   1.149   2.521   1.803
 4192SOL    HW113475   1.051   2.542   1.799
 4192SOL    HW213476   1.162   2.423   1.786
 4193SOL     OW13477   6.661   0.613   0.833
 4193SOL    HW113478   6.629   0.520   0.849
 4193SOL    HW213479   6.582   0.674   0.822
 4194SOL     OW13480   4.538   0.742   5.224
 4194SOL    HW113481   4.502   0.790   5.304
 4194SOL    HW213482   4.520   0.644   5.233
 4195SOL     OW13483   4.791   5.551   1.614
 4195SOL    HW113484   4.791   5.461   1.571
 4195SOL    HW213485   4.763   5.543   1.709
 4196SOL     OW13486   6.911   2.216   3.187
 4196SOL    HW113487   6.920   2.269   3.102
 4196SOL    HW213488   6.901   2.279   3.264
 4197SOL     OW13489   3.507   6.520   6.213
 4197SOL    HW113490   3.502   6.620   6.219
 4197SOL    HW213491   3.427   6.481   6.260
 4198SOL     OW13492   6.458   0.755   2.067
 4198SOL    HW113493   6.480   0.706   1.983
 4198SOL    HW213494   6.359   0.764   2.075
 4199SOL     OW13495   1.280   3.818   5.978
 4199SOL    HW113496   1.356   3.863   5.930
 4199SOL    HW213497   1.305   3.806   6.074
 4200SOL     OW13498   4.823   0.627   4.660
 4200SOL    HW113499   4.871   0.602   4.576
 4200SOL    HW213500   4.770   0.549   4.693
 4201SOL     OW13501   5.491   6.900   3.141
 4201SOL    HW113502   5.438   6.981   3.165
 4201SOL    HW213503   5.588   6.922   3.142
 4202SOL     OW13504   4.450   5.363   0.283
 4202SOL    HW113505   4.468   5.312   0.199
 4202SOL    HW213506   4.352   5.376   0.294
 4203SOL     OW13507   5.918   5.488   6.780
 4203SOL    HW113508   5.828   5.528   6.763
 4203SOL    HW213509   5.986   5.534   6.723
 4204SOL     OW13510   2.997   3.593   5.708
 4204SOL    HW113511   3.066   3.653   5.668
 4204SOL    HW213512   3.030   3.559   5.796
 4205SOL     OW13513   3.698   5.451   5.499
 4205SOL    HW113514   3.748   5.536   5.513
 4205SOL    HW213515   3.607   5.458   5.541
 4206SOL     OW13516   1.823   2.197   5.008
 4206SOL    HW113517   1.773   2.116   5.039
 4206SOL    HW213518   1.918   2.191   5.036
 4207SOL     OW13519   1.750   2.351   1.887
 4207SOL    HW113520   1.846   2.364   1.914
 4207SOL    HW213521   1.701   2.438   1.898
 4208SOL     OW13522   2.139   3.645   5.150
 4208SOL    HW113523   2.169   3.690   5.234
 4208SOL    HW213524   2.129   3.713   5.077
 4209SOL     OW13525   6.872   6.270   2.757
 4209SOL    HW113526   6.897   6.350   2.703
 4209SOL    HW213527   6.954   6.214   2.773
 4210SOL     OW13528   4.166   3.665   4.803
 4210SOL    HW113529   4.219   3.730   4.857
 4210SOL    HW213530   4.222   3.585   4.784
 4211SOL     OW13531   4.045   2.214   5.160
 4211SOL    HW113532   4.015   2.247   5.250
 4211SOL    HW213533   4.086   2.290   5.109
 4212SOL     OW13534   7.004   1.396   3.202
 4212SOL    HW113535   0.034   1.452   3.134
 4212SOL    HW213536   7.006   1.300   3.173
 4213SOL     OW13537   3.223   0.283   3.165
 4213SOL    HW113538   3.223   0.372   3.210
 4213SOL    HW213539   3.307   0.273   3.111
 4214SOL     OW13540   0.902   5.032   4.424
 4214SOL    HW113541   0.927   4.955   4.365
 4214SOL    HW213542   0.985   5.076   4.459
 4215SOL     OW13543   4.789   6.029   4.887
 4215SOL    HW113544   4.828   6.119   4.867
 4215SOL    HW213545   4.737   5.996   4.808
 4216SOL     OW13546   2.229   0.272   2.714
 4216SOL    HW113547   2.209   0.261   2.811
 4216SOL    HW213548   2.324   0.300   2.702
 4217SOL     OW13549   1.267   0.455   1.985
 4217SOL    HW113550   1.174   0.422   1.973
 4217SOL    HW213551   1.303   0.487   1.897
 4218SOL     OW13552   3.237   1.228   1.668
 4218SOL    HW113553   3.250   1.276   1.582
 4218SOL    HW213554   3.234   1.295   1.743
 4219SOL     OW13555   3.685   6.273   3.759
 4219SOL    HW113556   3.592   6.245   3.786
 4219SOL    HW213557   3.725   6.204   3.699
 4220SOL     OW13558   4.533   2.216   1.433
 4220SOL    HW113559   4.550   2.228   1.531
 4220SOL    HW213560   4.439   2.183   1.420
 4221SOL     OW13561   6.323   5.814   5.953
 4221SOL    HW113562   6.284   5.816   6.045
 4221SOL    HW213563   6.384   5.736   5.943
 4222SOL     OW13564   5.089   1.954   3.596
 4222SOL    HW113565   5.172   1.936   3.649
 4222SOL    HW213566   5.106   2.028   3.532
 4223SOL     OW13567   4.088   4.388   1.461
 4223SOL    HW113568   4.128   4.417   1.374
 4223SOL    HW213569   4.156   4.399   1.534
 4224SOL     OW13570   5.193   3.865   4.496
 4224SOL    HW113571   5.128   3.932   4.461
 4224SOL    HW213572   5.286   3.892   4.472
 4225SOL     OW13573   0.965   2.370   4.851
 4225SOL    HW113574   1.016   2.330   4.775
 4225SOL    HW213575   0.898   2.435   4.816
 4226SOL     OW13576   1.089   5.611   4.832
 4226SOL    HW113577   1.121   5.568   4.916
 4226SOL    HW213578   1.168   5.641   4.778
 4227SOL     OW13579   5.136   5.595   1.776
 4227SOL    HW113580   5.161   5.555   1.688
 4227SOL    HW213581   5.148   5.694   1.774
 4228SOL     OW13582   1.159   5.913   4.846
 4228SOL    HW113583   1.230   5.845   4.865
 4228SOL    HW213584   1.072   5.880   4.884
 4229SOL     OW13585   5.856   4.928   6.123
 4229SOL    HW113586   5.808   4.881   6.198
 4229SOL    HW213587   5.836   4.881   6.037
 4230SOL     OW13588   1.546   0.375   2.110
 4230SOL    HW113589   1.450   0.369   2.082
 4230SOL    HW213590   1.579   0.284   2.136
 4231SOL     OW13591   5.604   0.898   4.930
 4231SOL    HW113592   5.601   0.870   4.834
 4231SOL    HW213593   5.676   0.967   4.942
 4232SOL     OW13594   1.994   5.230   4.120
 4232SOL    HW113595   2.035   5.293   4.187
 4232SOL    HW213596   2.061   5.212   4.048
 4233SOL     OW13597   5.647   6.481   3.594
 4233SOL    HW113598   5.634   6.383   3.606
 4233SOL    HW213599   5.713   6.497   3.520
 4234SOL     OW13600   2.120   5.334   5.783
 4234SOL    HW113601   2.202   5.392   5.780
 4234SOL    HW213602   2.042   5.387   5.751
 4235SOL     OW13603   6.874   4.482   5.733
 4235SOL    HW113604   6.864   4.579   5.756
 4235SOL    HW213605   6.946   4.471   5.665
 4236SOL     OW13606   0.390   5.095   1.848
 4236SOL    HW113607   0.348   5.021   1.795
 4236SOL    HW213608   0.421   5.060   1.936
 4237SOL     OW13609   6.903   3.855   3.813
 4237SOL    HW113610   6.946   3.765   3.799
 4237SOL    HW213611   6.900   3.876   3.910
 4238SOL     OW13612   1.638   0.824   3.144
 4238SOL    HW113613   1.676   0.903   3.194
 4238SOL    HW213614   1.662   0.740   3.192
 4239SOL     OW13615   3.853   0.959   3.042
 4239SOL    HW113616   3.786   0.911   3.099
 4239SOL    HW213617   3.919   1.006   3.101
 4240SOL     OW13618   0.938   4.968   0.725
 4240SOL    HW113619   0.991   5.040   0.680
 4240SOL    HW213620   0.914   4.897   0.659
 4241SOL     OW13621   6.923   1.791   0.222
 4241SOL    HW113622   6.998   1.848   0.189
 4241SOL    HW213623   6.891   1.825   0.310
 4242SOL     OW13624   2.289   2.215   4.479
 4242SOL    HW113625   2.365   2.164   4.439
 4242SOL    HW213626   2.325   2.288   4.538
 4243SOL     OW13627   5.573   0.674   3.058
 4243SOL    HW113628   5.645   0.742   3.042
 4243SOL    HW213629   5.615   0.588   3.087
 4244SOL     OW13630   3.605   3.653   2.455
 4244SOL    HW113631   3.693   3.682   2.492
 4244SOL    HW213632   3.531   3.691   2.510
 4245SOL     OW13633   6.850   2.310   5.435
 4245SOL    HW113634   6.901   2.342   5.515
 4245SOL    HW213635   6.912   2.261   5.373
 4246SOL     OW13636   6.819   3.674   3.033
 4246SOL    HW113637   6.728   3.661   2.994
 4246SOL    HW213638   6.855   3.586   3.065
 4247SOL     OW13639   6.908   6.030   5.322
 4247SOL    HW113640   6.986   6.090   5.307
 4247SOL    HW213641   6.928   5.939   5.284
 4248SOL     OW13642   1.280   2.544   5.698
 4248SOL    HW113643   1.225   2.473   5.743
 4248SOL    HW213644   1.368   2.551   5.745
 4249SOL     OW13645   6.397   3.114   5.605
 4249SOL    HW113646   6.337   3.035   5.619
 4249SOL    HW213647   6.461   3.121   5.682
 4250SOL     OW13648   6.918   5.279   3.757
 4250SOL    HW113649   6.892   5.337   3.680
 4250SOL    HW213650   6.908   5.183   3.731
 4251SOL     OW13651   5.450   4.187   0.539
 4251SOL    HW113652   5.505   4.224   0.614
 4251SOL    HW213653   5.469   4.089   0.530
 4252SOL     OW13654   6.418   5.864   5.017
 4252SOL    HW113655   6.492   5.839   5.079
 4252SOL    HW213656   6.435   5.825   4.926
 4253SOL     OW13657   4.509   1.112   1.729
 4253SOL    HW113658   4.515   1.039   1.661
 4253SOL    HW213659   4.504   1.201   1.683
 4254SOL     OW13660   1.723   3.232   1.482
 4254SOL    HW113661   1.673   3.318   1.491
 4254SOL    HW213662   1.768   3.228   1.393
 4255SOL     OW13663   5.894   2.876   4.006
 4255SOL    HW113664   5.972   2.936   3.988
 4255SOL    HW213665   5.869   2.883   4.103
 4256SOL     OW13666   1.419   0.005   1.306
 4256SOL    HW113667   1.377   7.009   1.395
 4256SOL    HW213668   1.466   6.940   1.277
 4257SOL     OW13669   3.494   1.783   5.094
 4257SOL    HW113670   3.426   1.843   5.137
 4257SOL    HW213671   3.447   1.709   5.046
 4258SOL     OW13672   5.716   6.518   1.786
 4258SOL    HW113673   5.759   6.596   1.742
 4258SOL    HW213674   5.646   6.550   1.851
 4259SOL     OW13675   2.565   1.523   6.624
 4259SOL    HW113676   2.504   1.502   6.548
 4259SOL    HW213677   2.517   1.510   6.711
 4260SOL     OW13678   4.018   5.637   3.952
 4260SOL    HW113679   4.084   5.563   3.951
 4260SOL    HW213680   4.064   5.723   3.930
 4261SOL     OW13681   2.167   6.369   2.018
 4261SOL    HW113682   2.102   6.302   2.054
 4261SOL    HW213683   2.259   6.346   2.050
 4262SOL     OW13684   2.187   5.093   6.454
 4262SOL    HW113685   2.170   5.128   6.546
 4262SOL    HW213686   2.277   5.048   6.451
 4263SOL     OW13687   2.235   6.041   5.165
 4263SOL    HW113688   2.227   5.941   5.167
 4263SOL    HW213689   2.209   6.074   5.074
 4264SOL     OW13690   6.824   1.831   0.496
 4264SOL    HW113691   6.889   1.793   0.562
 4264SOL    HW213692   6.808   1.927   0.517
 4265SOL     OW13693   6.381   1.956   0.377
 4265SOL    HW113694   6.418   1.908   0.297
 4265SOL    HW213695   6.353   2.048   0.350
 4266SOL     OW13696   2.806   5.517   0.446
 4266SOL    HW113697   2.836   5.473   0.361
 4266SOL    HW213698   2.741   5.590   0.424
 4267SOL     OW13699   2.163   3.834   4.951
 4267SOL    HW113700   2.203   3.910   5.003
 4267SOL    HW213701   2.225   3.809   4.876
 4268SOL     OW13702   1.854   6.821   0.356
 4268SOL    HW113703   1.781   6.842   0.291
 4268SOL    HW213704   1.883   6.905   0.402
 4269SOL     OW13705   2.928   2.872   0.223
 4269SOL    HW113706   2.943   2.943   0.155
 4269SOL    HW213707   3.002   2.873   0.289
 4270SOL     OW13708   3.928   3.083   4.735
 4270SOL    HW113709   3.944   3.052   4.641
 4270SOL    HW213710   3.874   3.014   4.783
 4271SOL     OW13711   0.296   6.607   5.516
 4271SOL    HW113712   0.320   6.582   5.423
 4271SOL    HW213713   0.299   6.707   5.526
 4272SOL     OW13714   0.047   4.983   5.156
 4272SOL    HW113715   6.965   4.991   5.148
 4272SOL    HW213716   0.088   4.985   5.066
 4273SOL     OW13717   4.774   6.759   4.794
 4273SOL    HW113718   4.786   6.805   4.706
 4273SOL    HW213719   4.730   6.670   4.779
 4274SOL     OW13720   1.194   6.753   3.415
 4274SOL    HW113721   1.249   6.812   3.474
 4274SOL    HW213722   1.116   6.717   3.467
 4275SOL     OW13723   0.212   1.041   5.744
 4275SOL    HW113724   0.200   1.123   5.688
 4275SOL    HW213725   0.131   1.025   5.799
 4276SOL     OW13726   2.298   5.009   3.020
 4276SOL    HW113727   2.365   4.965   2.960
 4276SOL    HW213728   2.334   5.010   3.113
 4277SOL     OW13729   6.563   5.446   3.805
 4277SOL    HW113730   6.616   5.443   3.720
 4277SOL    HW213731   6.600   5.379   3.869
 4278SOL     OW13732   6.506   6.336   4.955
 4278SOL    HW113733   6.417   6.337   4.999
 4278SOL    HW213734   6.573   6.380   5.015
 4279SOL     OW13735   3.381   6.481   5.504
 4279SOL    HW113736   3.287   6.510   5.520
 4279SOL    HW213737   3.424   6.459   5.592
 4280SOL     OW13738   6.483   1.549   5.131
 4280SOL    HW113739   6.503   1.464   5.181
 4280SOL    HW213740   6.389   1.546   5.097
 4281SOL     OW13741   1.515   4.840   5.174
 4281SOL    HW113742   1.481   4.760   5.124
 4281SOL    HW213743   1.614   4.831   5.188
 4282SOL     OW13744   2.789   2.245   0.473
 4282SOL    HW113745   2.789   2.315   0.544
 4282SOL    HW213746   2.846   2.276   0.396
 4283SOL     OW13747   1.722   6.977   3.647
 4283SOL    HW113748   1.782   6.902   3.619
 4283SOL    HW213749   1.696   0.012   3.566
 4284SOL     OW13750   5.575   0.726   2.549
 4284SOL    HW113751   5.482   0.734   2.585
 4284SOL    HW213752   5.625   0.656   2.600
 4285SOL     OW13753   0.013   6.684   5.755
 4285SOL    HW113754   0.020   6.614   5.684
 4285SOL    HW213755   0.014   6.640   5.845
 4286SOL     OW13756   4.285   5.757   6.954
 4286SOL    HW113757   4.220   5.832   6.945
 4286SOL    HW213758   4.377   5.789   6.931
 4287SOL     OW13759   5.927   6.544   4.941
 4287SOL    HW113760   5.945   6.643   4.941
 4287SOL    HW213761   5.967   6.503   5.023
 4288SOL     OW13762   0.589   6.881   3.849
 4288SOL    HW113763   0.584   6.872   3.750
 4288SOL    HW213764   0.669   6.936   3.874
 4289SOL     OW13765   5.223   2.339   1.532
 4289SOL    HW113766   5.176   2.419   1.496
 4289SOL    HW213767   5.278   2.298   1.459
 4290SOL     OW13768   2.091   6.815   1.950
 4290SOL    HW113769   2.101   6.915   1.952
 4290SOL    HW213770   2.168   6.775   1.901
 4291SOL     OW13771   5.093   3.501   1.038
 4291SOL    HW113772   5.006   3.466   1.072
 4291SOL    HW213773   5.168   3.460   1.091
 4292SOL     OW13774   6.477   4.395   5.403
 4292SOL    HW113775   6.569   4.431   5.389
 4292SOL    HW213776   6.457   4.388   5.501
 4293SOL     OW13777   6.994   4.153   6.334
 4293SOL    HW113778   0.075   4.152   6.352
 4293SOL    HW213779   6.967   4.066   6.293
 4294SOL     OW13780   3.873   2.566   6.284
 4294SOL    HW113781   3.847   2.624   6.361
 4294SOL    HW213782   3.943   2.613   6.230
 4295SOL     OW13783   3.221   0.370   4.904
 4295SOL    HW113784   3.154   0.297   4.890
 4295SOL    HW213785   3.174   0.458   4.907
 4296SOL     OW13786   2.653   2.038   0.665
 4296SOL    HW113787   2.571   2.045   0.607
 4296SOL    HW213788   2.723   2.101   0.631
 4297SOL     OW13789   5.036   6.432   4.523
 4297SOL    HW113790   5.101   6.399   4.454
 4297SOL    HW213791   4.993   6.515   4.489
 4298SOL     OW13792   1.374   5.927   1.191
 4298SOL    HW113793   1.469   5.912   1.166
 4298SOL    HW213794   1.326   5.972   1.115
 4299SOL     OW13795   0.857   3.401   6.143
 4299SOL    HW113796   0.914   3.390   6.224
 4299SOL    HW213797   0.916   3.412   6.063
 4300SOL     OW13798   2.945   1.069   6.672
 4300SOL    HW113799   2.887   0.988   6.674
 4300SOL    HW213800   2.995   1.072   6.586
 4301SOL     OW13801   2.144   1.730   0.466
 4301SOL    HW113802   2.217   1.667   0.494
 4301SOL    HW213803   2.065   1.677   0.436
 4302SOL     OW13804   1.332   5.994   6.590
 4302SOL    HW113805   1.349   6.075   6.647
 4302SOL    HW213806   1.379   5.915   6.630
 4303SOL     OW13807   6.518   4.255   3.304
 4303SOL    HW113808   6.532   4.299   3.215
 4303SOL    HW213809   6.428   4.278   3.339
 4304SOL     OW13810   3.685   3.395   4.078
 4304SOL    HW113811   3.608   3.370   4.136
 4304SOL    HW213812   3.742   3.462   4.125
 4305SOL     OW13813   6.306   1.204   3.038
 4305SOL    HW113814   6.388   1.260   3.029
 4305SOL    HW213815   6.311   1.150   3.122
 4306SOL     OW13816   0.299   3.917   6.010
 4306SOL    HW113817   0.391   3.955   6.019
 4306SOL    HW213818   0.237   3.988   5.975
 4307SOL     OW13819   4.683   4.084   5.692
 4307SOL    HW113820   4.624   4.007   5.717
 4307SOL    HW213821   4.756   4.094   5.760
 4308SOL     OW13822   5.321   5.736   5.363
 4308SOL    HW113823   5.223   5.750   5.354
 4308SOL    HW213824   5.339   5.650   5.410
 4309SOL     OW13825   1.398   0.825   0.648
 4309SOL    HW113826   1.446   0.737   0.643
 4309SOL    HW213827   1.463   0.897   0.671
 4310SOL     OW13828   1.470   2.823   3.585
 4310SOL    HW113829   1.553   2.778   3.552
 4310SOL    HW213830   1.437   2.776   3.667
 4311SOL     OW13831   1.197   6.122   3.256
 4311SOL    HW113832   1.295   6.106   3.250
 4311SOL    HW213833   1.165   6.101   3.348
 4312SOL     OW13834   1.508   5.714   2.009
 4312SOL    HW113835   1.515   5.798   1.955
 4312SOL    HW213836   1.592   5.701   2.062
 4313SOL     OW13837   5.780   0.989   1.526
 4313SOL    HW113838   5.855   0.930   1.555
 4313SOL    HW213839   5.803   1.030   1.438
 4314SOL     OW13840   4.766   2.910   2.829
 4314SOL    HW113841   4.776   2.863   2.741
 4314SOL    HW213842   4.726   2.847   2.895
 4315SOL     OW13843   2.537   0.612   2.207
 4315SOL    HW113844   2.604   0.628   2.280
 4315SOL    HW213845   2.580   0.629   2.118
 4316SOL     OW13846   4.748   6.868   1.285
 4316SOL    HW113847   4.666   6.911   1.248
 4316SOL    HW213848   4.724   6.781   1.329
 4317SOL     OW13849   3.349   1.441   5.469
 4317SOL    HW113850   3.308   1.507   5.406
 4317SOL    HW213851   3.402   1.490   5.539
 4318SOL     OW13852   1.156   4.302   4.165
 4318SOL    HW113853   1.245   4.255   4.170
 4318SOL    HW213854   1.114   4.301   4.256
 4319SOL     OW13855   2.634   3.535   6.624
 4319SOL    HW113856   2.611   3.502   6.533
 4319SOL    HW213857   2.714   3.595   6.619
 4320SOL     OW13858   1.543   6.691   2.716
 4320SOL    HW113859   1.519   6.605   2.671
 4320SOL    HW213860   1.478   6.709   2.790
 4321SOL     OW13861   6.227   0.544   4.492
 4321SOL    HW113862   6.231   0.506   4.400
 4321SOL    HW213863   6.165   0.622   4.493
 4322SOL     OW13864   6.968   1.239   6.710
 4322SOL    HW113865   6.952   1.194   6.798
 4322SOL    HW213866   0.039   1.284   6.711
 4323SOL     OW13867   5.582   2.789   2.164
 4323SOL    HW113868   5.514   2.821   2.229
 4323SOL    HW213869   5.556   2.699   2.130
 4324SOL     OW13870   5.847   3.614   6.555
 4324SOL    HW113871   5.843   3.712   6.533
 4324SOL    HW213872   5.896   3.602   6.641
 4325SOL     OW13873   2.196   0.435   0.094
 4325SOL    HW113874   2.280   0.394   0.059
 4325SOL    HW213875   2.193   0.426   0.193
 4326SOL     OW13876   6.734   3.156   4.934
 4326SOL    HW113877   6.806   3.093   4.962
 4326SOL    HW213878   6.649   3.132   4.982
 4327SOL     OW13879   5.251   5.557   2.433
 4327SOL    HW113880   5.152   5.568   2.440
 4327SOL    HW213881   5.271   5.482   2.370
 4328SOL     OW13882   4.673   5.268   5.884
 4328SOL    HW113883   4.723   5.244   5.801
 4328SOL    HW213884   4.580   5.295   5.860
 4329SOL     OW13885   3.386   1.742   5.960
 4329SOL    HW113886   3.398   1.650   5.922
 4329SOL    HW213887   3.389   1.809   5.885
 4330SOL     OW13888   2.398   0.125   6.086
 4330SOL    HW113889   2.337   0.148   6.162
 4330SOL    HW213890   2.344   0.087   6.010
 4331SOL     OW13891   5.184   3.488   0.498
 4331SOL    HW113892   5.132   3.408   0.530
 4331SOL    HW213893   5.221   3.537   0.576
 4332SOL     OW13894   5.263   3.447   2.255
 4332SOL    HW113895   5.351   3.486   2.229
 4332SOL    HW213896   5.218   3.408   2.175
 4333SOL     OW13897   5.148   1.470   5.182
 4333SOL    HW113898   5.186   1.396   5.238
 4333SOL    HW213899   5.065   1.505   5.226
 4334SOL     OW13900   2.989   2.043   2.018
 4334SOL    HW113901   2.967   2.139   1.997
 4334SOL    HW213902   2.906   1.994   2.041
 4335SOL     OW13903   2.902   3.713   3.896
 4335SOL    HW113904   2.946   3.767   3.968
 4335SOL    HW213905   2.925   3.751   3.807
 4336SOL     OW13906   1.493   6.267   5.524
 4336SOL    HW113907   1.460   6.230   5.437
 4336SOL    HW213908   1.505   6.366   5.516
 4337SOL     OW13909   0.551   4.894   0.301
 4337SOL    HW113910   0.501   4.980   0.314
 4337SOL    HW213911   0.495   4.831   0.247
 4338SOL     OW13912   5.884   5.366   4.585
 4338SOL    HW113913   5.825   5.356   4.665
 4338SOL    HW213914   5.854   5.445   4.532
 4339SOL     OW13915   6.444   2.662   4.751
 4339SOL    HW113916   6.448   2.698   4.658
 4339SOL    HW213917   6.406   2.569   4.749
 4340SOL     OW13918   6.745   3.167   2.589
 4340SOL    HW113919   6.716   3.242   2.529
 4340SOL    HW213920   6.692   3.085   2.568
 4341SOL     OW13921   1.647   4.001   1.969
 4341SOL    HW113922   1.674   3.950   1.887
 4341SOL    HW213923   1.729   4.037   2.013
 4342SOL     OW13924   0.732   2.455   3.226
 4342SOL    HW113925   0.750   2.429   3.131
 4342SOL    HW213926   0.761   2.550   3.240
 4343SOL     OW13927   3.875   1.076   0.165
 4343SOL    HW113928   3.792   1.096   0.113
 4343SOL    HW213929   3.864   1.111   0.258
 4344SOL     OW13930   1.688   4.821   3.692
 4344SOL    HW113931   1.651   4.878   3.764
 4344SOL    HW213932   1.631   4.828   3.610
 4345SOL     OW13933   1.609   2.953   5.451
 4345SOL    HW113934   1.674   2.878   5.461
 4345SOL    HW213935   1.644   3.018   5.382
 4346SOL     OW13936   2.464   2.999   1.697
 4346SOL    HW113937   2.464   3.040   1.605
 4346SOL    HW213938   2.402   2.921   1.699
 4347SOL     OW13939   6.978   0.432   1.647
 4347SOL    HW113940   7.011   0.419   1.740
 4347SOL    HW213941   0.037   0.429   1.583
 4348SOL     OW13942   0.881   3.933   1.825
 4348SOL    HW113943   0.852   4.009   1.882
 4348SOL    HW213944   0.804   3.901   1.770
 4349SOL     OW13945   0.353   1.595   3.405
 4349SOL    HW113946   0.377   1.547   3.320
 4349SOL    HW213947   0.277   1.657   3.387
 4350SOL     OW13948   5.307   2.413   4.565
 4350SOL    HW113949   5.218   2.414   4.519
 4350SOL    HW213950   5.357   2.498   4.543
 4351SOL     OW13951   2.643   6.118   2.127
 4351SOL    HW113952   2.696   6.049   2.077
 4351SOL    HW213953   2.692   6.145   2.209
 4352SOL     OW13954   0.337   2.140   1.943
 4352SOL    HW113955   0.410   2.185   1.994
 4352SOL    HW213956   0.279   2.210   1.900
 4353SOL     OW13957   2.135   5.700   0.925
 4353SOL    HW113958   2.086   5.637   0.985
 4353SOL    HW213959   2.152   5.786   0.973
 4354SOL     OW13960   2.333   6.508   0.096
 4354SOL    HW113961   2.302   6.490   0.189
 4354SOL    HW213962   2.414   6.568   0.098
 4355SOL     OW13963   4.246   1.046   1.136
 4355SOL    HW113964   4.285   1.137   1.141
 4355SOL    HW213965   4.274   1.002   1.051
 4356SOL     OW13966   4.707   3.817   1.797
 4356SOL    HW113967   4.776   3.857   1.857
 4356SOL    HW213968   4.732   3.722   1.777
 4357SOL     OW13969   5.963   0.799   0.045
 4357SOL    HW113970   5.960   0.899   0.047
 4357SOL    HW213971   6.015   0.768   6.984
 4358SOL     OW13972   0.328   6.473   1.228
 4358SOL    HW113973   0.245   6.484   1.282
 4358SOL    HW213974   0.306   6.430   1.141
 4359SOL     OW13975   1.013   2.406   4.561
 4359SOL    HW113976   1.030   2.466   4.483
 4359SOL    HW213977   1.008   2.311   4.529
 4360SOL     OW13978   0.649   4.095   2.468
 4360SOL    HW113979   0.633   4.184   2.510
 4360SOL    HW213980   0.721   4.047   2.518
 4361SOL     OW13981   4.191   2.659   1.715
 4361SOL    HW113982   4.283   2.696   1.703
 4361SOL    HW213983   4.129   2.733   1.739
 4362SOL     OW13984   6.117   3.605   5.369
 4362SOL    HW113985   6.107   3.697   5.331
 4362SOL    HW213986   6.205   3.567   5.341
 4363SOL     OW13987   4.997   2.370   5.345
 4363SOL    HW113988   4.976   2.427   5.424
 4363SOL    HW213989   4.985   2.274   5.370
 4364SOL     OW13990   3.029   4.029   4.903
 4364SOL    HW113991   2.955   4.096   4.896
 4364SOL    HW213992   3.102   4.067   4.961
 4365SOL     OW13993   3.669   2.146   2.512
 4365SOL    HW113994   3.719   2.215   2.565
 4365SOL    HW213995   3.716   2.059   2.518
 4366SOL     OW13996   6.269   6.960   1.589
 4366SOL    HW113997   6.237   6.866   1.587
 4366SOL    HW213998   6.197   0.003   1.556
 4367SOL     OW13999   1.003   5.270   5.601
 4367SOL    HW114000   0.937   5.279   5.526
 4367SOL    HW214001   1.096   5.274   5.564
 4368SOL     OW14002   5.118   5.005   1.550
 4368SOL    HW114003   5.116   5.017   1.450
 4368SOL    HW214004   5.130   5.093   1.594
 4369SOL     OW14005   4.760   4.858   2.617
 4369SOL    HW114006   4.796   4.823   2.530
 4369SOL    HW214007   4.701   4.937   2.599
 4370SOL     OW14008   5.513   4.434   3.197
 4370SOL    HW114009   5.606   4.423   3.233
 4370SOL    HW214010   5.515   4.427   3.097
 4371SOL     OW14011   6.495   0.617   1.818
 4371SOL    HW114012   6.408   0.573   1.794
 4371SOL    HW214013   6.548   0.631   1.734
 4372SOL     OW14014   4.679   1.221   3.176
 4372SOL    HW114015   4.693   1.263   3.265
 4372SOL    HW214016   4.583   1.230   3.149
 4373SOL     OW14017   6.586   2.537   6.715
 4373SOL    HW114018   6.561   2.564   6.622
 4373SOL    HW214019   6.685   2.539   6.724
 4374SOL     OW14020   1.181   2.030   2.335
 4374SOL    HW114021   1.112   2.039   2.408
 4374SOL    HW214022   1.214   2.121   2.310
 4375SOL     OW14023   2.478   6.864   4.148
 4375SOL    HW114024   2.414   6.876   4.224
 4375SOL    HW214025   2.569   6.893   4.176
 4376SOL     OW14026   6.550   0.254   2.961
 4376SOL    HW114027   6.476   0.193   2.932
 4376SOL    HW214028   6.522   0.305   3.042
 4377SOL     OW14029   5.571   3.931   0.073
 4377SOL    HW114030   5.642   3.871   0.109
 4377SOL    HW214031   5.546   3.999   0.142
 4378SOL     OW14032   2.295   0.627   3.681
 4378SOL    HW114033   2.227   0.554   3.675
 4378SOL    HW214034   2.251   0.715   3.662
 4379SOL     OW14035   2.481   1.350   4.902
 4379SOL    HW114036   2.466   1.254   4.876
 4379SOL    HW214037   2.407   1.406   4.866
 4380SOL     OW14038   1.278   1.389   1.199
 4380SOL    HW114039   1.377   1.397   1.202
 4380SOL    HW214040   1.237   1.472   1.238
 4381SOL     OW14041   0.687   5.485   5.153
 4381SOL    HW114042   0.595   5.476   5.192
 4381SOL    HW214043   0.754   5.451   5.218
 4382SOL     OW14044   6.637   3.383   5.225
 4382SOL    HW114045   6.589   3.470   5.231
 4382SOL    HW214046   6.727   3.397   5.183
 4383SOL     OW14047   5.672   2.801   6.216
 4383SOL    HW114048   5.611   2.746   6.159
 4383SOL    HW214049   5.667   2.897   6.186
 4384SOL     OW14050   6.802   0.622   3.337
 4384SOL    HW114051   6.816   0.562   3.259
 4384SOL    HW214052   6.874   0.605   3.405
 4385SOL     OW14053   4.923   2.044   4.428
 4385SOL    HW114054   4.960   2.072   4.339
 4385SOL    HW214055   4.952   1.951   4.448
 4386SOL     OW14056   1.498   3.913   5.710
 4386SOL    HW114057   1.411   3.937   5.666
 4386SOL    HW214058   1.561   3.991   5.704
 4387SOL     OW14059   6.106   2.914   0.661
 4387SOL    HW114060   6.113   2.831   0.717
 4387SOL    HW214061   6.050   2.981   0.709
 4388SOL     OW14062   5.234   1.790   6.024
 4388SOL    HW114063   5.163   1.756   5.963
 4388SOL    HW214064   5.193   1.832   6.104
 4389SOL     OW14065   6.976   3.482   2.039
 4389SOL    HW114066   6.906   3.446   2.101
 4389SOL    HW214067   6.959   3.579   2.023
 4390SOL     OW14068   5.766   6.979   0.708
 4390SOL    HW114069   5.701   0.037   0.699
 4390SOL    HW214070   5.716   6.894   0.721
 4391SOL     OW14071   1.903   5.678   6.305
 4391SOL    HW114072   1.826   5.617   6.289
 4391SOL    HW214073   1.966   5.672   6.227
 4392SOL     OW14074   1.044   1.391   4.077
 4392SOL    HW114075   1.114   1.416   4.011
 4392SOL    HW214076   1.003   1.474   4.115
 4393SOL     OW14077   5.955   0.545   1.463
 4393SOL    HW114078   5.872   0.519   1.414
 4393SOL    HW214079   5.965   0.488   1.545
 4394SOL     OW14080   0.792   0.438   1.338
 4394SOL    HW114081   0.883   0.397   1.328
 4394SOL    HW214082   0.733   0.377   1.391
 4395SOL     OW14083   2.478   0.256   2.308
 4395SOL    HW114084   2.434   0.181   2.257
 4395SOL    HW214085   2.535   0.217   2.380
 4396SOL     OW14086   1.382   1.131   3.295
 4396SOL    HW114087   1.350   1.225   3.284
 4396SOL    HW214088   1.310   1.076   3.338
 4397SOL     OW14089   2.401   2.705   3.859
 4397SOL    HW114090   2.336   2.660   3.798
 4397SOL    HW214091   2.369   2.798   3.879
 4398SOL     OW14092   2.097   3.552   6.605
 4398SOL    HW114093   2.004   3.552   6.641
 4398SOL    HW214094   2.134   3.645   6.607
 4399SOL     OW14095   2.150   6.273   2.311
 4399SOL    HW114096   2.093   6.248   2.232
 4399SOL    HW214097   2.217   6.201   2.327
 4400SOL     OW14098   1.701   6.831   3.945
 4400SOL    HW114099   1.651   6.905   3.900
 4400SOL    HW214100   1.726   6.860   4.038
 4401SOL     OW14101   3.696   6.377   5.406
 4401SOL    HW114102   3.782   6.372   5.457
 4401SOL    HW214103   3.650   6.288   5.409
 4402SOL     OW14104   1.631   0.628   2.843
 4402SOL    HW114105   1.533   0.626   2.861
 4402SOL    HW214106   1.648   0.602   2.748
 4403SOL     OW14107   0.764   5.424   1.288
 4403SOL    HW114108   0.711   5.416   1.373
 4403SOL    HW214109   0.791   5.332   1.258
 4404SOL     OW14110   1.507   5.676   5.958
 4404SOL    HW114111   1.496   5.763   6.007
 4404SOL    HW214112   1.603   5.661   5.938
 4405SOL     OW14113   2.704   4.840   3.823
 4405SOL    HW114114   2.686   4.938   3.814
 4405SOL    HW214115   2.700   4.797   3.733
 4406SOL     OW14116   6.311   3.333   2.128
 4406SOL    HW114117   6.305   3.298   2.034
 4406SOL    HW214118   6.235   3.395   2.146
 4407SOL     OW14119   6.958   6.071   2.365
 4407SOL    HW114120   6.886   6.128   2.325
 4407SOL    HW214121   6.917   5.994   2.414
 4408SOL     OW14122   3.933   6.819   0.114
 4408SOL    HW114123   4.008   6.874   0.076
 4408SOL    HW214124   3.925   6.734   0.062
 4409SOL     OW14125   3.971   0.514   2.767
 4409SOL    HW114126   3.949   0.611   2.778
 4409SOL    HW214127   4.067   0.498   2.792
 4410SOL     OW14128   0.336   5.981   0.939
 4410SOL    HW114129   0.336   5.888   0.977
 4410SOL    HW214130   0.419   6.029   0.969
 4411SOL     OW14131   3.321   4.780   5.906
 4411SOL    HW114132   3.223   4.771   5.889
 4411SOL    HW214133   3.354   4.699   5.955
 4412SOL     OW14134   4.317   6.773   3.815
 4412SOL    HW114135   4.416   6.764   3.814
 4412SOL    HW214136   4.275   6.686   3.838
 4413SOL     OW14137   3.115   0.234   4.214
 4413SOL    HW114138   3.119   0.234   4.314
 4413SOL    HW214139   3.189   0.292   4.178
 4414SOL     OW14140   5.030   4.974   2.055
 4414SOL    HW114141   4.949   5.031   2.036
 4414SOL    HW214142   5.107   5.007   2.000
 4415SOL     OW14143   3.351   4.104   1.779
 4415SOL    HW114144   3.344   4.016   1.732
 4415SOL    HW214145   3.410   4.165   1.726
 4416SOL     OW14146   4.036   1.501   4.459
 4416SOL    HW114147   4.023   1.413   4.415
 4416SOL    HW214148   4.103   1.555   4.408
 4417SOL     OW14149   0.419   3.150   4.282
 4417SOL    HW114150   0.382   3.151   4.189
 4417SOL    HW214151   0.349   3.181   4.346
 4418SOL     OW14152   6.534   0.888   1.234
 4418SOL    HW114153   6.531   0.973   1.287
 4418SOL    HW214154   6.561   0.813   1.294
 4419SOL     OW14155   6.613   5.764   5.699
 4419SOL    HW114156   6.596   5.850   5.651
 4419SOL    HW214157   6.568   5.766   5.788
 4420SOL     OW14158   3.592   2.046   1.411
 4420SOL    HW114159   3.497   2.019   1.402
 4420SOL    HW214160   3.617   2.052   1.508
 4421SOL     OW14161   1.230   2.798   4.781
 4421SOL    HW114162   1.259   2.743   4.860
 4421SOL    HW214163   1.136   2.775   4.757
 4422SOL     OW14164   0.277   4.638   0.415
 4422SOL    HW114165   0.347   4.567   0.406
 4422SOL    HW214166   0.289   4.686   0.503
 4423SOL     OW14167   6.292   4.573   5.889
 4423SOL    HW114168   6.317   4.539   5.979
 4423SOL    HW214169   6.194   4.595   5.888
 4424SOL     OW14170   4.593   5.721   4.278
 4424SOL    HW114171   4.508   5.734   4.227
 4424SOL    HW214172   4.575   5.665   4.359
 4425SOL     OW14173   1.818   4.836   1.457
 4425SOL    HW114174   1.810   4.928   1.494
 4425SOL    HW214175   1.729   4.792   1.457
 4426SOL     OW14176   0.948   0.160   4.276
 4426SOL    HW114177   0.903   0.122   4.356
 4426SOL    HW214178   0.888   0.149   4.196
 4427SOL     OW14179   3.380   6.204   2.930
 4427SOL    HW114180   3.455   6.270   2.919
 4427SOL    HW214181   3.415   6.111   2.921
 4428SOL     OW14182   5.948   0.876   4.324
 4428SOL    HW114183   5.979   0.941   4.255
 4428SOL    HW214184   5.912   0.794   4.279
 4429SOL     OW14185   2.802   6.348   3.379
 4429SOL    HW114186   2.707   6.373   3.367
 4429SOL    HW214187   2.811   6.287   3.458
 4430SOL     OW14188   5.155   4.677   4.128
 4430SOL    HW114189   5.079   4.694   4.190
 4430SOL    HW214190   5.196   4.765   4.101
 4431SOL     OW14191   3.577   0.577   3.873
 4431SOL    HW114192   3.480   0.595   3.890
 4431SOL    HW214193   3.616   0.532   3.953
 4432SOL     OW14194   1.545   3.565   6.567
 4432SOL    HW114195   1.481   3.636   6.595
 4432SOL    HW214196   1.500   3.503   6.503
 4433SOL     OW14197   0.924   1.548   4.814
 4433SOL    HW114198   0.896   1.475   4.877
 4433SOL    HW214199   0.930   1.512   4.722
 4434SOL     OW14200   6.768   1.586   1.351
 4434SOL    HW114201   6.816   1.673   1.351
 4434SOL    HW214202   6.775   1.544   1.441
 4435SOL     OW14203   2.925   3.581   0.431
 4435SOL    HW114204   2.855   3.610   0.366
 4435SOL    HW214205   2.965   3.662   0.474
 4436SOL     OW14206   4.581   1.966   1.003
 4436SOL    HW114207   4.582   2.065   0.988
 4436SOL    HW214208   4.666   1.938   1.046
 4437SOL     OW14209   0.332   3.705   2.356
 4437SOL    HW114210   0.274   3.749   2.287
 4437SOL    HW214211   0.379   3.776   2.410
 4438SOL     OW14212   4.483   6.260   5.330
 4438SOL    HW114213   4.506   6.213   5.415
 4438SOL    HW214214   4.391   6.299   5.337
 4439SOL     OW14215   1.931   0.066   3.181
 4439SOL    HW114216   1.949   0.159   3.149
 4439SOL    HW214217   1.985   0.001   3.128
 4440SOL     OW14218   1.710   4.774   1.006
 4440SOL    HW114219   1.615   4.743   0.995
 4440SOL    HW214220   1.728   4.848   0.941
 4441SOL     OW14221   0.941   1.756   0.533
 4441SOL    HW114222   0.983   1.827   0.477
 4441SOL    HW214223   0.858   1.723   0.489
 4442SOL     OW14224   1.942   4.986   6.301
 4442SOL    HW114225   1.993   4.912   6.258
 4442SOL    HW214226   1.887   4.950   6.376
 4443SOL     OW14227   0.525   5.010   6.956
 4443SOL    HW114228   0.482   4.935   7.007
 4443SOL    HW214229   0.490   5.097   6.989
 4444SOL     OW14230   4.899   4.266   0.855
 4444SOL    HW114231   4.894   4.167   0.844
 4444SOL    HW214232   4.995   4.295   0.854
 4445SOL     OW14233   0.118   5.750   6.668
 4445SOL    HW114234   0.181   5.717   6.738
 4445SOL    HW214235   0.109   5.850   6.675
 4446SOL     OW14236   4.851   1.382   0.623
 4446SOL    HW114237   4.813   1.409   0.534
 4446SOL    HW214238   4.797   1.307   0.661
 4447SOL     OW14239   5.669   5.030   4.755
 4447SOL    HW114240   5.609   4.952   4.773
 4447SOL    HW214241   5.752   4.998   4.711
 4448SOL     OW14242   2.741   6.570   1.482
 4448SOL    HW114243   2.655   6.539   1.440
 4448SOL    HW214244   2.770   6.505   1.552
 4449SOL     OW14245   4.217   1.091   6.823
 4449SOL    HW114246   4.306   1.046   6.829
 4449SOL    HW214247   4.144   1.023   6.829
 4450SOL     OW14248   3.753   0.567   0.013
 4450SOL    HW114249   3.737   0.606   0.104
 4450SOL    HW214250   3.798   0.479   0.022
 4451SOL     OW14251   4.540   4.742   3.607
 4451SOL    HW114252   4.493   4.654   3.607
 4451SOL    HW214253   4.608   4.744   3.534
 4452SOL     OW14254   5.413   5.945   4.461
 4452SOL    HW114255   5.384   5.885   4.386
 4452SOL    HW214256   5.347   5.939   4.536
 4453SOL     OW14257   0.043   3.403   1.419
 4453SOL    HW114258   0.029   3.328   1.355
 4453SOL    HW214259   7.007   3.387   1.502
 4454SOL     OW14260   0.968   1.822   0.242
 4454SOL    HW114261   1.038   1.754   0.260
 4454SOL    HW214262   1.011   1.907   0.211
 4455SOL     OW14263   6.370   5.363   4.880
 4455SOL    HW114264   6.284   5.409   4.905
 4455SOL    HW214265   6.447   5.419   4.908
 4456SOL     OW14266   1.697   6.634   3.760
 4456SOL    HW114267   1.745   6.678   3.684
 4456SOL    HW214268   1.704   6.691   3.841
 4457SOL     OW14269   1.351   2.173   5.111
 4457SOL    HW114270   1.273   2.112   5.098
 4457SOL    HW214271   1.360   2.233   5.031
 4458SOL     OW14272   2.119   3.964   1.773
 4458SOL    HW114273   2.090   3.966   1.869
 4458SOL    HW214274   2.060   3.902   1.722
 4459SOL     OW14275   1.273   3.053   4.430
 4459SOL    HW114276   1.344   3.012   4.488
 4459SOL    HW214277   1.222   2.981   4.383
 4460SOL     OW14278   0.278   3.560   4.130
 4460SOL    HW114279   0.201   3.522   4.181
 4460SOL    HW214280   0.302   3.497   4.056
 4461SOL     OW14281   2.637   1.007   1.375
 4461SOL    HW114282   2.698   0.944   1.422
 4461SOL    HW214283   2.660   1.101   1.401
 4462SOL     OW14284   6.356   3.600   1.949
 4462SOL    HW114285   6.375   3.543   1.869
 4462SOL    HW214286   6.371   3.547   2.032
 4463SOL     OW14287   5.597   1.817   1.544
 4463SOL    HW114288   5.602   1.914   1.568
 4463SOL    HW214289   5.588   1.763   1.628
 4464SOL     OW14290   0.384   5.581   0.233
 4464SOL    HW114291   0.383   5.665   0.178
 4464SOL    HW214292   0.338   5.597   0.320
 4465SOL     OW14293   2.273   6.024   0.515
 4465SOL    HW114294   2.190   5.974   0.491
 4465SOL    HW214295   2.353   5.977   0.478
 4466SOL     OW14296   1.864   2.223   3.971
 4466SOL    HW114297   1.837   2.140   4.021
 4466SOL    HW214298   1.825   2.303   4.017
 4467SOL     OW14299   2.935   5.855   3.331
 4467SOL    HW114300   2.866   5.865   3.403
 4467SOL    HW214301   2.916   5.921   3.257
 4468SOL     OW14302   1.273   2.896   1.979
 4468SOL    HW114303   1.311   2.884   2.070
 4468SOL    HW214304   1.345   2.925   1.916
 4469SOL     OW14305   2.618   0.075   1.692
 4469SOL    HW114306   2.525   0.038   1.695
 4469SOL    HW214307   2.684   7.018   1.692
 4470SOL     OW14308   1.272   0.382   2.403
 4470SOL    HW114309   1.213   0.319   2.455
 4470SOL    HW214310   1.216   0.439   2.344
 4471SOL     OW14311   2.394   2.128   6.411
 4471SOL    HW114312   2.466   2.090   6.354
 4471SOL    HW214313   2.338   2.191   6.357
 4472SOL     OW14314   1.864   3.121   1.225
 4472SOL    HW114315   1.961   3.111   1.247
 4472SOL    HW214316   1.854   3.186   1.149
 4473SOL     OW14317   0.361   3.143   4.010
 4473SOL    HW114318   0.279   3.086   4.000
 4473SOL    HW214319   0.338   3.238   3.986
 4474SOL     OW14320   3.500   0.915   1.862
 4474SOL    HW114321   3.501   1.013   1.845
 4474SOL    HW214322   3.592   0.883   1.883
 4475SOL     OW14323   0.968   4.025   2.188
 4475SOL    HW114324   0.878   4.063   2.168
 4475SOL    HW214325   1.026   4.095   2.229
 4476SOL     OW14326   5.565   1.203   3.743
 4476SOL    HW114327   5.567   1.104   3.730
 4476SOL    HW214328   5.595   1.248   3.658
 4477SOL     OW14329   2.904   0.212   5.738
 4477SOL    HW114330   2.890   0.237   5.834
 4477SOL    HW214331   2.827   0.157   5.706
 4478SOL     OW14332   1.870   0.252   0.625
 4478SOL    HW114333   1.847   0.206   0.711
 4478SOL    HW214334   1.872   0.351   0.641
 4479SOL     OW14335   0.673   2.437   0.070
 4479SOL    HW114336   0.642   2.530   0.093
 4479SOL    HW214337   0.700   2.435   6.992
 4480SOL     OW14338   6.517   5.502   4.627
 4480SOL    HW114339   6.585   5.545   4.687
 4480SOL    HW214340   6.450   5.453   4.683
 4481SOL     OW14341   2.502   5.046   6.226
 4481SOL    HW114342   2.505   5.057   6.325
 4481SOL    HW214343   2.422   4.991   6.201
 4482SOL     OW14344   2.758   5.469   6.328
 4482SOL    HW114345   2.695   5.546   6.323
 4482SOL    HW214346   2.720   5.391   6.278
 4483SOL     OW14347   0.343   2.836   1.976
 4483SOL    HW114348   0.297   2.866   1.893
 4483SOL    HW214349   0.436   2.873   1.978
 4484SOL     OW14350   2.570   3.056   6.800
 4484SOL    HW114351   2.641   2.986   6.791
 4484SOL    HW214352   2.513   3.035   6.879
 4485SOL     OW14353   5.129   2.405   4.782
 4485SOL    HW114354   5.070   2.485   4.771
 4485SOL    HW214355   5.203   2.409   4.715
 4486SOL     OW14356   5.149   4.789   4.953
 4486SOL    HW114357   5.202   4.820   5.032
 4486SOL    HW214358   5.196   4.713   4.909
 4487SOL     OW14359   1.650   2.512   0.190
 4487SOL    HW114360   1.651   2.597   0.138
 4487SOL    HW214361   1.670   2.436   0.129
 4488SOL     OW14362   0.596   4.884   4.217
 4488SOL    HW114363   0.659   4.807   4.206
 4488SOL    HW214364   0.531   4.862   4.290
 4489SOL     OW14365   4.828   5.459   5.337
 4489SOL    HW114366   4.863   5.516   5.411
 4489SOL    HW214367   4.904   5.408   5.296
 4490SOL     OW14368   5.345   1.852   0.932
 4490SOL    HW114369   5.327   1.760   0.896
 4490SOL    HW214370   5.438   1.879   0.909
 4491SOL     OW14371   1.318   3.166   3.241
 4491SOL    HW114372   1.235   3.220   3.232
 4491SOL    HW214373   1.300   3.072   3.213
 4492SOL     OW14374   5.284   0.543   1.899
 4492SOL    HW114375   5.221   0.619   1.912
 4492SOL    HW214376   5.359   0.550   1.966
 4493SOL     OW14377   5.158   0.375   5.094
 4493SOL    HW114378   5.095   0.320   5.040
 4493SOL    HW214379   5.108   0.450   5.137
 4494SOL     OW14380   0.164   0.710   6.862
 4494SOL    HW114381   0.222   0.742   6.787
 4494SOL    HW214382   0.177   0.770   6.941
 4495SOL     OW14383   3.760   6.034   2.254
 4495SOL    HW114384   3.802   6.051   2.343
 4495SOL    HW214385   3.811   5.963   2.205
 4496SOL     OW14386   4.065   6.305   6.023
 4496SOL    HW114387   4.052   6.330   6.119
 4496SOL    HW214388   4.123   6.224   6.017
 4497SOL     OW14389   4.049   1.962   6.275
 4497SOL    HW114390   3.950   1.973   6.264
 4497SOL    HW214391   4.078   1.879   6.228
 4498SOL     OW14392   0.229   5.216   5.908
 4498SOL    HW114393   0.147   5.258   5.949
 4498SOL    HW214394   0.261   5.273   5.833
 4499SOL     OW14395   5.889   1.737   2.711
 4499SOL    HW114396   5.899   1.749   2.810
 4499SOL    HW214397   5.800   1.697   2.691
 4500SOL     OW14398   3.399   5.403   0.465
 4500SOL    HW114399   3.417   5.338   0.391
 4500SOL    HW214400   3.402   5.355   0.553
 4501SOL     OW14401   5.601   1.648   2.141
 4501SOL    HW114402   5.658   1.568   2.119
 4501SOL    HW214403   5.646   1.704   2.210
 4502SOL     OW14404   0.604   3.578   0.197
 4502SOL    HW114405   0.507   3.556   0.200
 4502SOL    HW214406   0.635   3.584   0.102
 4503SOL     OW14407   2.749   0.386   2.327
 4503SOL    HW114408   2.708   0.313   2.272
 4503SOL    HW214409   2.801   0.346   2.402
 4504SOL     OW14410   0.333   2.109   3.541
 4504SOL    HW114411   0.265   2.038   3.519
 4504SOL    HW214412   0.290   2.199   3.535
 4505SOL     OW14413   6.321   3.989   2.441
 4505SOL    HW114414   6.244   3.926   2.454
 4505SOL    HW214415   6.378   3.988   2.523
 4506SOL     OW14416   5.073   2.751   4.450
 4506SOL    HW114417   5.096   2.815   4.523
 4506SOL    HW214418   4.980   2.771   4.417
 4507SOL     OW14419   6.459   3.064   3.224
 4507SOL    HW114420   6.437   3.123   3.302
 4507SOL    HW214421   6.453   2.968   3.251
 4508SOL     OW14422   0.660   5.043   0.778
 4508SOL    HW114423   0.639   4.999   0.866
 4508SOL    HW214424   0.758   5.039   0.761
 4509SOL     OW14425   4.386   2.098   2.278
 4509SOL    HW114426   4.460   2.032   2.286
 4509SOL    HW214427   4.422   2.190   2.293
 4510SOL     OW14428   4.740   1.379   4.175
 4510SOL    HW114429   4.836   1.403   4.162
 4510SOL    HW214430   4.733   1.288   4.217
 4511SOL     OW14431   0.363   4.523   1.053
 4511SOL    HW114432   0.428   4.448   1.065
 4511SOL    HW214433   0.270   4.492   1.074
 4512SOL     OW14434   3.796   2.076   5.918
 4512SOL    HW114435   3.864   2.148   5.930
 4512SOL    HW214436   3.709   2.115   5.887
 4513SOL     OW14437   1.466   6.022   6.965
 4513SOL    HW114438   1.433   5.929   6.952
 4513SOL    HW214439   1.546   6.037   6.907
 4514SOL     OW14440   3.274   3.821   6.425
 4514SOL    HW114441   3.230   3.910   6.439
 4514SOL    HW214442   3.204   3.752   6.408
 4515SOL     OW14443   5.147   6.774   5.428
 4515SOL    HW114444   5.176   6.866   5.456
 4515SOL    HW214445   5.226   6.713   5.426
 4516SOL     OW14446   3.511   1.573   5.626
 4516SOL    HW114447   3.504   1.529   5.715
 4516SOL    HW214448   3.598   1.622   5.620
 4517SOL     OW14449   4.541   0.369   5.931
 4517SOL    HW114450   4.586   0.332   5.850
 4517SOL    HW214451   4.555   0.468   5.935
 4518SOL     OW14452   2.129   0.103   1.219
 4518SOL    HW114453   2.117   0.127   1.316
 4518SOL    HW214454   2.174   0.014   1.213
 4519SOL     OW14455   5.860   6.544   0.334
 4519SOL    HW114456   5.849   6.523   0.236
 4519SOL    HW214457   5.901   6.635   0.344
 4520SOL     OW14458   4.139   6.730   5.121
 4520SOL    HW114459   4.204   6.745   5.046
 4520SOL    HW214460   4.142   6.808   5.183
 4521SOL     OW14461   4.965   2.889   5.163
 4521SOL    HW114462   4.980   2.815   5.097
 4521SOL    HW214463   4.915   2.853   5.242
 4522SOL     OW14464   5.176   3.255   3.439
 4522SOL    HW114465   5.231   3.338   3.433
 4522SOL    HW214466   5.192   3.210   3.527
 4523SOL     OW14467   0.551   3.335   6.524
 4523SOL    HW114468   0.610   3.383   6.459
 4523SOL    HW214469   0.586   3.349   6.617
 4524SOL     OW14470   0.595   3.279   2.659
 4524SOL    HW114471   0.572   3.282   2.756
 4524SOL    HW214472   0.511   3.267   2.605
 4525SOL     OW14473   2.015   2.532   5.832
 4525SOL    HW114474   1.962   2.598   5.885
 4525SOL    HW214475   2.109   2.530   5.866
 4526SOL     OW14476   0.701   7.009   6.264
 4526SOL    HW114477   0.691   0.050   6.183
 4526SOL    HW214478   0.615   6.961   6.281
 4527SOL     OW14479   6.355   0.190   3.226
 4527SOL    HW114480   6.386   0.135   3.304
 4527SOL    HW214481   6.324   0.279   3.258
 4528SOL     OW14482   4.209   1.192   5.297
 4528SOL    HW114483   4.129   1.217   5.352
 4528SOL    HW214484   4.200   1.097   5.268
 4529SOL     OW14485   2.788   0.959   5.123
 4529SOL    HW114486   2.751   0.984   5.213
 4529SOL    HW214487   2.734   0.884   5.085
 4530SOL     OW14488   2.503   6.482   4.916
 4530SOL    HW114489   2.539   6.409   4.975
 4530SOL    HW214490   2.406   6.468   4.901
 4531SOL     OW14491   1.150   5.152   6.190
 4531SOL    HW114492   1.230   5.112   6.145
 4531SOL    HW214493   1.114   5.088   6.258
 4532SOL     OW14494   5.450   0.358   2.769
 4532SOL    HW114495   5.369   0.390   2.719
 4532SOL    HW214496   5.440   0.382   2.866
 4533SOL     OW14497   2.308   0.672   1.894
 4533SOL    HW114498   2.318   0.582   1.936
 4533SOL    HW214499   2.371   0.736   1.938
 4534SOL     OW14500   4.703   1.643   4.228
 4534SOL    HW114501   4.691   1.544   4.232
 4534SOL    HW214502   4.796   1.664   4.196
 4535SOL     OW14503   3.020   1.552   1.216
 4535SOL    HW114504   2.975   1.619   1.157
 4535SOL    HW214505   3.017   1.584   1.310
 4536SOL     OW14506   3.033   1.592   6.087
 4536SOL    HW114507   3.129   1.569   6.104
 4536SOL    HW214508   3.019   1.690   6.102
 4537SOL     OW14509   3.627   4.073   4.272
 4537SOL    HW114510   3.641   3.979   4.303
 4537SOL    HW214511   3.627   4.134   4.351
 4538SOL     OW14512   6.586   2.674   1.012
 4538SOL    HW114513   6.489   2.686   1.033
 4538SOL    HW214514   6.624   2.604   1.072
 4539SOL     OW14515   1.321   5.624   5.624
 4539SOL    HW114516   1.383   5.600   5.698
 4539SOL    HW214517   1.233   5.579   5.638
 4540SOL     OW14518   6.921   1.164   0.921
 4540SOL    HW114519   6.987   1.143   0.993
 4540SOL    HW214520   6.858   1.088   0.910
 4541SOL     OW14521   4.249   2.164   5.933
 4541SOL    HW114522   4.310   2.133   6.006
 4541SOL    HW214523   4.281   2.127   5.845
 4542SOL     OW14524   0.192   2.844   1.195
 4542SOL    HW114525   0.277   2.889   1.223
 4542SOL    HW214526   0.213   2.776   1.125
 4543SOL     OW14527   3.530   2.179   6.765
 4543SOL    HW114528   3.539   2.268   6.720
 4543SOL    HW214529   3.443   2.137   6.739
 4544SOL     OW14530   5.871   5.015   0.407
 4544SOL    HW114531   5.900   5.002   0.502
 4544SOL    HW214532   5.861   4.926   0.363
 4545SOL     OW14533   1.856   3.605   5.147
 4545SOL    HW114534   1.837   3.627   5.051
 4545SOL    HW214535   1.952   3.619   5.167
 4546SOL     OW14536   2.435   1.288   5.963
 4546SOL    HW114537   2.403   1.194   5.978
 4546SOL    HW214538   2.366   1.352   5.995
 4547SOL     OW14539   6.287   0.380   0.261
 4547SOL    HW114540   6.321   0.421   0.346
 4547SOL    HW214541   6.351   0.401   0.187
 4548SOL     OW14542   2.137   3.084   2.630
 4548SOL    HW114543   2.132   3.162   2.692
 4548SOL    HW214544   2.230   3.047   2.629
 4549SOL     OW14545   5.812   3.962   2.359
 4549SOL    HW114546   5.762   3.993   2.440
 4549SOL    HW214547   5.772   4.003   2.277
 4550SOL     OW14548   0.514   4.520   2.995
 4550SOL    HW114549   0.548   4.587   2.929
 4550SOL    HW214550   0.584   4.503   3.064
 4551SOL     OW14551   1.191   3.634   4.991
 4551SOL    HW114552   1.214   3.544   5.026
 4551SOL    HW214553   1.175   3.696   5.067
 4552SOL     OW14554   5.838   1.251   1.234
 4552SOL    HW114555   5.835   1.280   1.330
 4552SOL    HW214556   5.861   1.329   1.176
 4553SOL     OW14557   5.244   4.601   6.319
 4553SOL    HW114558   5.334   4.558   6.313
 4553SOL    HW214559   5.245   4.688   6.270
 4554SOL     OW14560   0.659   6.536   1.787
 4554SOL    HW114561   0.727   6.609   1.795
 4554SOL    HW214562   0.697   6.450   1.820
 4555SOL     OW14563   0.916   1.253   6.787
 4555SOL    HW114564   0.874   1.247   6.877
 4555SOL    HW214565   0.940   1.162   6.754
 4556SOL     OW14566   6.181   3.156   5.888
 4556SOL    HW114567   6.185   3.209   5.973
 4556SOL    HW214568   6.164   3.218   5.811
 4557SOL     OW14569   5.693   5.004   3.101
 4557SOL    HW114570   5.733   4.915   3.124
 4557SOL    HW214571   5.614   4.990   3.042
 4558SOL     OW14572   6.580   3.196   5.396
 4558SOL    HW114573   6.538   3.235   5.477
 4558SOL    HW214574   6.609   3.269   5.334
 4559SOL     OW14575   1.023   2.970   2.709
 4559SOL    HW114576   0.998   3.050   2.654
 4559SOL    HW214577   0.940   2.926   2.743
 4560SOL     OW14578   6.218   4.721   2.326
 4560SOL    HW114579   6.242   4.628   2.355
 4560SOL    HW214580   6.298   4.780   2.336
 4561SOL     OW14581   3.843   2.105   4.241
 4561SOL    HW114582   3.898   2.077   4.162
 4561SOL    HW214583   3.755   2.141   4.209
 4562SOL     OW14584   2.123   0.446   0.881
 4562SOL    HW114585   2.130   0.352   0.848
 4562SOL    HW214586   2.212   0.491   0.872
 4563SOL     OW14587   0.350   3.333   1.965
 4563SOL    HW114588   0.308   3.245   1.946
 4563SOL    HW214589   0.287   3.390   2.017
 4564SOL     OW14590   0.098   4.528   2.143
 4564SOL    HW114591   0.115   4.468   2.064
 4564SOL    HW214592   0.115   4.477   2.227
 4565SOL     OW14593   2.209   6.977   4.938
 4565SOL    HW114594   2.254   6.902   4.891
 4565SOL    HW214595   2.119   6.948   4.970
 4566SOL     OW14596   6.879   4.341   1.629
 4566SOL    HW114597   6.805   4.299   1.680
 4566SOL    HW214598   6.950   4.373   1.692
 4567SOL     OW14599   0.308   0.125   6.125
 4567SOL    HW114600   0.268   0.101   6.036
 4567SOL    HW214601   0.350   0.215   6.119
 4568SOL     OW14602   0.533   5.335   3.548
 4568SOL    HW114603   0.545   5.324   3.450
 4568SOL    HW214604   0.483   5.256   3.585
 4569SOL     OW14605   2.943   1.364   3.062
 4569SOL    HW114606   2.972   1.458   3.043
 4569SOL    HW214607   2.900   1.360   3.152
 4570SOL     OW14608   6.458   5.492   1.213
 4570SOL    HW114609   6.542   5.446   1.186
 4570SOL    HW214610   6.480   5.573   1.267
 4571SOL     OW14611   3.331   3.108   6.259
 4571SOL    HW114612   3.243   3.154   6.276
 4571SOL    HW214613   3.321   3.011   6.279
 4572SOL     OW14614   2.476   2.942   0.832
 4572SOL    HW114615   2.382   2.917   0.811
 4572SOL    HW214616   2.495   2.922   0.928
 4573SOL     OW14617   1.401   6.538   1.194
 4573SOL    HW114618   1.376   6.619   1.247
 4573SOL    HW214619   1.474   6.561   1.130
 4574SOL     OW14620   6.708   3.212   0.419
 4574SOL    HW114621   6.771   3.288   0.402
 4574SOL    HW214622   6.631   3.218   0.354
 4575SOL     OW14623   6.192   0.796   4.000
 4575SOL    HW114624   6.209   0.875   4.060
 4575SOL    HW214625   6.200   0.825   3.905
 4576SOL     OW14626   2.781   5.386   5.049
 4576SOL    HW114627   2.725   5.430   5.120
 4576SOL    HW214628   2.727   5.314   5.004
 4577SOL     OW14629   2.160   1.560   3.066
 4577SOL    HW114630   2.190   1.654   3.048
 4577SOL    HW214631   2.088   1.535   3.002
 4578SOL     OW14632   1.371   0.832   2.398
 4578SOL    HW114633   1.419   0.893   2.462
 4578SOL    HW214634   1.383   0.737   2.427
 4579SOL     OW14635   4.081   0.268   2.018
 4579SOL    HW114636   4.168   0.313   1.999
 4579SOL    HW214637   4.067   0.264   2.117
 4580SOL     OW14638   6.851   3.558   6.915
 4580SOL    HW114639   6.827   3.568   6.819
 4580SOL    HW214640   6.773   3.522   6.966
 4581SOL     OW14641   3.400   6.948   1.851
 4581SOL    HW114642   3.337   6.905   1.915
 4581SOL    HW214643   3.381   0.029   1.847
 4582SOL     OW14644   6.021   0.678   2.938
 4582SOL    HW114645   5.937   0.729   2.956
 4582SOL    HW214646   6.020   0.593   2.991
 4583SOL     OW14647   2.182   6.984   6.720
 4583SOL    HW114648   2.121   6.908   6.696
 4583SOL    HW214649   2.140   0.022   6.791
 4584SOL     OW14650   1.921   0.554   6.154
 4584SOL    HW114651   1.959   0.503   6.077
 4584SOL    HW214652   1.906   0.649   6.126
 4585SOL     OW14653   1.326   4.241   3.355
 4585SOL    HW114654   1.414   4.195   3.366
 4585SOL    HW214655   1.253   4.173   3.353
 4586SOL     OW14656   5.162   4.461   6.846
 4586SOL    HW114657   5.173   4.560   6.860
 4586SOL    HW214658   5.069   4.442   6.817
 4587SOL     OW14659   3.204   3.703   4.666
 4587SOL    HW114660   3.117   3.747   4.643
 4587SOL    HW214661   3.216   3.621   4.610
 4588SOL     OW14662   2.842   3.953   5.938
 4588SOL    HW114663   2.865   3.951   6.035
 4588SOL    HW214664   2.812   4.045   5.913
 4589SOL     OW14665   5.229   6.364   2.121
 4589SOL    HW114666   5.322   6.330   2.107
 4589SOL    HW214667   5.163   6.294   2.094
 4590SOL     OW14668   3.384   5.173   2.081
 4590SOL    HW114669   3.331   5.250   2.117
 4590SOL    HW214670   3.361   5.160   1.984
 4591SOL     OW14671   2.578   0.042   5.390
 4591SOL    HW114672   2.493   0.090   5.369
 4591SOL    HW214673   2.637   0.041   5.309
 4592SOL     OW14674   2.298   1.487   4.700
 4592SOL    HW114675   2.358   1.555   4.658
 4592SOL    HW214676   2.275   1.417   4.632
 4593SOL     OW14677   0.148   5.666   3.463
 4593SOL    HW114678   0.208   5.741   3.435
 4593SOL    HW214679   0.104   5.689   3.550
 4594SOL     OW14680   1.850   0.315   2.905
 4594SOL    HW114681   1.769   0.324   2.963
 4594SOL    HW214682   1.932   0.339   2.957
 4595SOL     OW14683   4.897   1.507   6.365
 4595SOL    HW114684   4.980   1.474   6.321
 4595SOL    HW214685   4.902   1.607   6.377
 4596SOL     OW14686   1.007   0.892   2.173
 4596SOL    HW114687   1.037   0.985   2.149
 4596SOL    HW214688   1.073   0.826   2.138
 4597SOL     OW14689   2.698   5.588   0.015
 4597SOL    HW114690   2.602   5.573   7.011
 4597SOL    HW214691   2.746   5.500   0.017
 4598SOL     OW14692   1.774   5.382   0.198
 4598SOL    HW114693   1.861   5.339   0.223
 4598SOL    HW214694   1.772   5.475   0.234
 4599SOL     OW14695   1.948   4.539   2.943
 4599SOL    HW114696   2.020   4.472   2.957
 4599SOL    HW214697   1.933   4.553   2.845
 4600SOL     OW14698   6.759   6.306   5.360
 4600SOL    HW114699   6.787   6.212   5.341
 4600SOL    HW214700   6.839   6.366   5.360
 4601SOL     OW14701   0.757   1.065   4.361
 4601SOL    HW114702   0.668   1.021   4.347
 4601SOL    HW214703   0.771   1.133   4.290
 4602SOL     OW14704   3.278   0.704   6.685
 4602SOL    HW114705   3.207   0.750   6.738
 4602SOL    HW214706   3.366   0.713   6.731
 4603SOL     OW14707   4.404   5.823   1.203
 4603SOL    HW114708   4.498   5.812   1.235
 4603SOL    HW214709   4.373   5.738   1.159
 4604SOL     OW14710   5.384   6.669   6.019
 4604SOL    HW114711   5.355   6.684   6.113
 4604SOL    HW214712   5.483   6.677   6.013
 4605SOL     OW14713   2.942   6.832   1.989
 4605SOL    HW114714   2.944   6.796   1.896
 4605SOL    HW214715   3.033   6.864   2.014
 4606SOL     OW14716   0.222   6.464   3.057
 4606SOL    HW114717   0.315   6.428   3.052
 4606SOL    HW214718   0.181   6.464   2.965
 4607SOL     OW14719   1.832   3.725   2.731
 4607SOL    HW114720   1.876   3.639   2.704
 4607SOL    HW214721   1.738   3.706   2.761
 4608SOL     OW14722   6.748   3.198   4.664
 4608SOL    HW114723   6.735   3.172   4.759
 4608SOL    HW214724   6.840   3.174   4.634
 4609SOL     OW14725   4.177   6.304   6.653
 4609SOL    HW114726   4.182   6.390   6.601
 4609SOL    HW214727   4.092   6.302   6.705
 4610SOL     OW14728   5.315   2.282   0.585
 4610SOL    HW114729   5.386   2.303   0.652
 4610SOL    HW214730   5.236   2.241   0.631
 4611SOL     OW14731   0.988   0.344   5.855
 4611SOL    HW114732   1.036   0.276   5.911
 4611SOL    HW214733   0.989   0.433   5.902
 4612SOL     OW14734   1.822   6.483   2.275
 4612SOL    HW114735   1.858   6.392   2.255
 4612SOL    HW214736   1.850   6.546   2.203
 4613SOL     OW14737   2.060   4.667   1.841
 4613SOL    HW114738   2.149   4.630   1.815
 4613SOL    HW214739   2.066   4.709   1.932
 4614SOL     OW14740   6.082   3.383   4.701
 4614SOL    HW114741   6.013   3.312   4.687
 4614SOL    HW214742   6.135   3.361   4.783
 4615SOL     OW14743   1.384   1.773   1.291
 4615SOL    HW114744   1.316   1.738   1.226
 4615SOL    HW214745   1.407   1.701   1.356
 4616SOL     OW14746   6.027   3.203   4.359
 4616SOL    HW114747   6.095   3.256   4.308
 4616SOL    HW214748   6.072   3.123   4.400
 4617SOL     OW14749   0.410   2.451   2.104
 4617SOL    HW114750   0.386   2.545   2.081
 4617SOL    HW214751   0.359   2.422   2.185
 4618SOL     OW14752   2.751   4.212   5.915
 4618SOL    HW114753   2.835   4.260   5.890
 4618SOL    HW214754   2.736   4.219   6.013
 4619SOL     OW14755   3.015   6.156   4.635
 4619SOL    HW114756   2.927   6.182   4.675
 4619SOL    HW214757   3.023   6.198   4.544
 4620SOL     OW14758   0.773   5.505   2.198
 4620SOL    HW114759   0.758   5.564   2.277
 4620SOL    HW214760   0.864   5.522   2.160
 4621SOL     OW14761   5.028   0.546   2.563
 4621SOL    HW114762   4.986   0.636   2.576
 4621SOL    HW214763   4.972   0.492   2.500
 4622SOL     OW14764   4.147   5.643   1.452
 4622SOL    HW114765   4.191   5.718   1.500
 4622SOL    HW214766   4.172   5.646   1.355
 4623SOL     OW14767   3.328   5.150   1.212
 4623SOL    HW114768   3.391   5.172   1.138
 4623SOL    HW214769   3.352   5.061   1.252
 4624SOL     OW14770   4.070   1.083   3.163
 4624SOL    HW114771   4.092   1.141   3.241
 4624SOL    HW214772   4.150   1.075   3.103
 4625SOL     OW14773   1.828   4.926   1.844
 4625SOL    HW114774   1.768   5.005   1.827
 4625SOL    HW214775   1.924   4.956   1.839
 4626SOL     OW14776   3.995   4.126   1.552
 4626SOL    HW114777   4.024   4.216   1.520
 4626SOL    HW214778   4.066   4.089   1.612
 4627SOL     OW14779   6.877   6.354   4.763
 4627SOL    HW114780   6.977   6.355   4.768
 4627SOL    HW214781   6.843   6.262   4.783
 4628SOL     OW14782   4.425   5.312   3.303
 4628SOL    HW114783   4.428   5.229   3.359
 4628SOL    HW214784   4.509   5.320   3.250
 4629SOL     OW14785   1.791   5.661   6.926
 4629SOL    HW114786   1.787   5.561   6.924
 4629SOL    HW214787   1.819   5.691   7.017
 4630SOL     OW14788   1.872   4.393   2.169
 4630SOL    HW114789   1.892   4.319   2.105
 4630SOL    HW214790   1.856   4.478   2.118
 4631SOL     OW14791   0.423   0.921   3.855
 4631SOL    HW114792   0.427   1.013   3.815
 4631SOL    HW214793   0.411   0.929   3.954
 4632SOL     OW14794   3.384   4.978   2.393
 4632SOL    HW114795   3.436   4.920   2.329
 4632SOL    HW214796   3.421   5.071   2.390
 4633SOL     OW14797   5.015   1.130   3.976
 4633SOL    HW114798   5.112   1.152   3.988
 4633SOL    HW214799   4.990   1.054   4.035
 4634SOL     OW14800   3.174   3.281   4.746
 4634SOL    HW114801   3.129   3.203   4.702
 4634SOL    HW214802   3.106   3.335   4.796
 4635SOL     OW14803   5.403   5.515   0.633
 4635SOL    HW114804   5.471   5.450   0.668
 4635SOL    HW214805   5.448   5.601   0.610
 4636SOL     OW14806   1.995   5.276   0.298
 4636SOL    HW114807   1.979   5.181   0.270
 4636SOL    HW214808   2.090   5.287   0.325
 4637SOL     OW14809   2.059   0.160   2.271
 4637SOL    HW114810   2.121   0.223   2.318
 4637SOL    HW214811   1.995   0.121   2.337
 4638SOL     OW14812   3.974   4.813   0.870
 4638SOL    HW114813   3.997   4.849   0.779
 4638SOL    HW214814   3.913   4.734   0.860
 4639SOL     OW14815   2.024   2.038   0.516
 4639SOL    HW114816   1.955   2.020   0.446
 4639SOL    HW214817   2.080   1.956   0.529
 4640SOL     OW14818   6.304   3.212   5.336
 4640SOL    HW114819   6.288   3.126   5.286
 4640SOL    HW214820   6.391   3.207   5.385
 4641SOL     OW14821   0.726   5.704   4.108
 4641SOL    HW114822   0.647   5.761   4.131
 4641SOL    HW214823   0.740   5.636   4.180
 4642SOL     OW14824   1.847   1.820   3.349
 4642SOL    HW114825   1.904   1.900   3.369
 4642SOL    HW214826   1.900   1.737   3.363
 4643SOL     OW14827   6.697   2.071   0.190
 4643SOL    HW114828   6.714   2.160   0.146
 4643SOL    HW214829   6.716   2.078   0.288
 4644SOL     OW14830   1.928   1.012   0.448
 4644SOL    HW114831   1.913   1.110   0.463
 4644SOL    HW214832   1.995   0.978   0.514
 4645SOL     OW14833   1.384   0.898   3.743
 4645SOL    HW114834   1.400   0.805   3.711
 4645SOL    HW214835   1.440   0.962   3.691
 4646SOL     OW14836   1.952   5.234   3.791
 4646SOL    HW114837   1.918   5.320   3.753
 4646SOL    HW214838   1.879   5.189   3.843
 4647SOL     OW14839   1.739   6.623   2.892
 4647SOL    HW114840   1.659   6.662   2.846
 4647SOL    HW214841   1.736   6.646   2.989
 4648SOL     OW14842   3.048   1.408   4.281
 4648SOL    HW114843   3.043   1.313   4.252
 4648SOL    HW214844   2.956   1.448   4.282
 4649SOL     OW14845   6.022   0.425   0.289
 4649SOL    HW114846   6.120   0.411   0.273
 4649SOL    HW214847   6.000   0.398   0.382
 4650SOL     OW14848   5.002   6.310   1.363
 4650SOL    HW114849   5.021   6.214   1.346
 4650SOL    HW214850   4.938   6.318   1.440
 4651SOL     OW14851   6.542   3.083   5.979
 4651SOL    HW114852   6.628   3.041   5.949
 4651SOL    HW214853   6.486   3.015   6.026
 4652SOL     OW14854   7.001   6.349   4.447
 4652SOL    HW114855   6.972   6.436   4.408
 4652SOL    HW214856   6.929   6.314   4.508
 4653SOL     OW14857   5.294   5.763   1.019
 4653SOL    HW114858   5.294   5.679   1.073
 4653SOL    HW214859   5.289   5.741   0.922
 4654SOL     OW14860   6.728   6.666   4.487
 4654SOL    HW114861   6.751   6.637   4.580
 4654SOL    HW214862   6.667   6.745   4.491
 4655SOL     OW14863   4.777   2.814   0.813
 4655SOL    HW114864   4.707   2.757   0.855
 4655SOL    HW214865   4.799   2.890   0.874
 4656SOL     OW14866   0.643   1.361   1.536
 4656SOL    HW114867   0.569   1.349   1.469
 4656SOL    HW214868   0.687   1.273   1.552
 4657SOL     OW14869   5.146   6.589   2.396
 4657SOL    HW114870   5.223   6.566   2.336
 4657SOL    HW214871   5.173   6.662   2.458
 4658SOL     OW14872   2.681   2.206   5.033
 4658SOL    HW114873   2.771   2.167   5.015
 4658SOL    HW214874   2.631   2.148   5.097
 4659SOL     OW14875   3.316   4.655   0.769
 4659SOL    HW114876   3.237   4.716   0.768
 4659SOL    HW214877   3.314   4.599   0.851
 4660SOL     OW14878   1.170   6.404   4.308
 4660SOL    HW114879   1.222   6.332   4.354
 4660SOL    HW214880   1.209   6.421   4.218
 4661SOL     OW14881   2.266   3.648   6.165
 4661SOL    HW114882   2.178   3.618   6.130
 4661SOL    HW214883   2.339   3.591   6.125
 4662SOL     OW14884   3.005   6.537   4.598
 4662SOL    HW114885   3.101   6.517   4.617
 4662SOL    HW214886   2.950   6.455   4.617
 4663SOL     OW14887   1.113   0.296   0.132
 4663SOL    HW114888   1.069   0.216   0.173
 4663SOL    HW214889   1.135   0.276   0.036
 4664SOL     OW14890   6.666   6.720   0.476
 4664SOL    HW114891   6.650   6.817   0.495
 4664SOL    HW214892   6.630   6.665   0.550
 4665SOL     OW14893   1.966   0.758   5.417
 4665SOL    HW114894   2.027   0.738   5.340
 4665SOL    HW214895   1.896   0.824   5.388
 4666SOL     OW14896   1.953   2.557   6.251
 4666SOL    HW114897   1.933   2.484   6.186
 4666SOL    HW214898   1.915   2.533   6.341
 4667SOL     OW14899   6.384   3.381   1.790
 4667SOL    HW114900   6.303   3.333   1.757
 4667SOL    HW214901   6.437   3.320   1.849
 4668SOL     OW14902   4.308   2.356   4.526
 4668SOL    HW114903   4.384   2.294   4.507
 4668SOL    HW214904   4.222   2.312   4.500
 4669SOL     OW14905   5.649   6.818   0.447
 4669SOL    HW114906   5.648   6.897   0.386
 4669SOL    HW214907   5.743   6.803   0.480
 4670SOL     OW14908   0.795   3.465   0.346
 4670SOL    HW114909   0.717   3.504   0.298
 4670SOL    HW214910   0.782   3.366   0.355
 4671SOL     OW14911   0.664   3.815   0.406
 4671SOL    HW114912   0.676   3.829   0.504
 4671SOL    HW214913   0.616   3.894   0.367
 4672SOL     OW14914   3.351   4.345   5.847
 4672SOL    HW114915   3.392   4.270   5.794
 4672SOL    HW214916   3.252   4.335   5.848
 4673SOL     OW14917   5.564   0.528   6.624
 4673SOL    HW114918   5.589   0.493   6.534
 4673SOL    HW214919   5.564   0.452   6.690
 4674SOL     OW14920   0.522   1.917   0.369
 4674SOL    HW114921   0.426   1.944   0.374
 4674SOL    HW214922   0.580   1.999   0.368
 4675SOL     OW14923   3.092   5.670   0.259
 4675SOL    HW114924   3.126   5.585   0.219
 4675SOL    HW214925   2.994   5.677   0.244
 4676SOL     OW14926   0.533   6.542   4.315
 4676SOL    HW114927   0.480   6.604   4.373
 4676SOL    HW214928   0.473   6.472   4.276
 4677SOL     OW14929   4.322   0.217   6.787
 4677SOL    HW114930   4.399   0.240   6.846
 4677SOL    HW214931   4.237   0.247   6.831
 4678SOL     OW14932   1.982   4.707   0.535
 4678SOL    HW114933   2.036   4.626   0.509
 4678SOL    HW214934   1.928   4.686   0.616
 4679SOL     OW14935   2.620   0.434   6.646
 4679SOL    HW114936   2.614   0.457   6.549
 4679SOL    HW214937   2.636   0.336   6.657
 4680SOL     OW14938   1.422   4.775   0.982
 4680SOL    HW114939   1.361   4.807   1.056
 4680SOL    HW214940   1.474   4.852   0.946
 4681SOL     OW14941   0.303   4.801   5.623
 4681SOL    HW114942   0.224   4.774   5.677
 4681SOL    HW214943   0.366   4.854   5.680
 4682SOL     OW14944   4.101   6.431   0.401
 4682SOL    HW114945   4.164   6.417   0.478
 4682SOL    HW214946   4.015   6.385   0.419
 4683SOL     OW14947   6.019   3.404   2.425
 4683SOL    HW114948   5.937   3.450   2.458
 4683SOL    HW214949   6.089   3.404   2.497
 4684SOL     OW14950   1.281   2.118   4.741
 4684SOL    HW114951   1.284   2.128   4.642
 4684SOL    HW214952   1.186   2.102   4.769
 4685SOL     OW14953   5.152   5.110   4.066
 4685SOL    HW114954   5.196   5.196   4.040
 4685SOL    HW214955   5.203   5.033   4.026
 4686SOL     OW14956   4.829   5.486   6.840
 4686SOL    HW114957   4.828   5.397   6.793
 4686SOL    HW214958   4.737   5.525   6.839
 4687SOL     OW14959   6.147   4.282   4.753
 4687SOL    HW114960   6.239   4.301   4.787
 4687SOL    HW214961   6.087   4.262   4.830
 4688SOL     OW14962   0.645   3.320   6.784
 4688SOL    HW114963   0.727   3.318   6.842
 4688SOL    HW214964   0.577   3.381   6.823
 4689SOL     OW14965   6.567   6.076   4.952
 4689SOL    HW114966   6.512   6.009   5.002
 4689SOL    HW214967   6.536   6.168   4.975
 4690SOL     OW14968   1.652   1.425   0.203
 4690SOL    HW114969   1.619   1.498   0.263
 4690SOL    HW214970   1.632   1.448   0.108
 4691SOL     OW14971   2.502   4.526   0.955
 4691SOL    HW114972   2.438   4.455   0.983
 4691SOL    HW214973   2.592   4.485   0.939
 4692SOL     OW14974   6.981   5.000   2.971
 4692SOL    HW114975   0.006   4.945   3.042
 4692SOL    HW214976   0.010   5.088   2.964
 4693SOL     OW14977   0.388   1.085   4.532
 4693SOL    HW114978   0.478   1.088   4.575
 4693SOL    HW214979   0.372   1.171   4.482
 4694SOL     OW14980   1.858   1.333   0.527
 4694SOL    HW114981   1.908   1.360   0.445
 4694SOL    HW214982   1.787   1.401   0.547
 4695SOL     OW14983   3.774   2.980   1.842
 4695SOL    HW114984   3.725   2.896   1.865
 4695SOL    HW214985   3.813   3.020   1.925
 4696SOL     OW14986   6.813   3.361   5.996
 4696SOL    HW114987   6.769   3.292   5.940
 4696SOL    HW214988   6.806   3.451   5.952
 4697SOL     OW14989   1.109   4.208   0.118
 4697SOL    HW114990   1.196   4.174   0.154
 4697SOL    HW214991   1.122   4.241   0.025
 4698SOL     OW14992   5.486   3.802   1.478
 4698SOL    HW114993   5.564   3.784   1.539
 4698SOL    HW214994   5.474   3.901   1.469
 4699SOL     OW14995   0.282   0.719   2.563
 4699SOL    HW114996   0.235   0.803   2.538
 4699SOL    HW214997   0.362   0.741   2.620
 4700SOL     OW14998   5.163   1.348   1.059
 4700SOL    HW114999   5.181   1.343   1.157
 4700SOL    HW215000   5.230   1.292   1.010
 4701SOL     OW15001   0.783   1.619   0.120
 4701SOL    HW115002   0.820   1.555   0.052
 4701SOL    HW215003   0.849   1.692   0.136
 4702SOL     OW15004   3.647   4.358   6.657
 4702SOL    HW115005   3.698   4.316   6.732
 4702SOL    HW215006   3.604   4.287   6.601
 4703SOL     OW15007   2.029   0.918   2.787
 4703SOL    HW115008   1.955   0.964   2.837
 4703SOL    HW215009   2.034   0.823   2.815
 4704SOL     OW15010   0.447   6.961   0.609
 4704SOL    HW115011   0.362   6.936   0.563
 4704SOL    HW215012   0.451   0.042   0.621
 4705SOL     OW15013   3.630   3.200   4.529
 4705SOL    HW115014   3.573   3.189   4.611
 4705SOL    HW215015   3.667   3.111   4.502
 4706SOL     OW15016   3.791   6.223   0.043
 4706SOL    HW115017   3.890   6.232   0.055
 4706SOL    HW215018   3.749   6.201   0.131
 4707SOL     OW15019   2.035   5.482   1.080
 4707SOL    HW115020   1.941   5.483   1.115
 4707SOL    HW215021   2.099   5.490   1.157
 4708SOL     OW15022   3.160   2.659   1.205
 4708SOL    HW115023   3.143   2.646   1.302
 4708SOL    HW215024   3.190   2.753   1.188
 4709SOL     OW15025   3.991   4.914   5.539
 4709SOL    HW115026   3.934   4.851   5.592
 4709SOL    HW215027   3.942   4.943   5.457
 4710SOL     OW15028   4.833   0.960   0.028
 4710SOL    HW115029   4.856   1.056   0.013
 4710SOL    HW215030   4.793   0.922   6.963
 4711SOL     OW15031   3.184   0.043   2.493
 4711SOL    HW115032   3.252   0.019   2.563
 4711SOL    HW215033   3.095   0.008   2.520
 4712SOL     OW15034   1.853   4.532   1.085
 4712SOL    HW115035   1.805   4.464   1.028
 4712SOL    HW215036   1.847   4.505   1.181
 4713SOL     OW15037   2.265   5.358   1.264
 4713SOL    HW115038   2.292   5.412   1.344
 4713SOL    HW215039   2.202   5.286   1.292
 4714SOL     OW15040   3.057   1.843   1.691
 4714SOL    HW115041   3.118   1.881   1.761
 4714SOL    HW215042   3.106   1.773   1.639
 4715SOL     OW15043   0.065   2.599   3.015
 4715SOL    HW115044   0.093   2.638   2.927
 4715SOL    HW215045   7.014   2.529   3.000
 4716SOL     OW15046   3.598   5.569   0.553
 4716SOL    HW115047   3.522   5.508   0.530
 4716SOL    HW215048   3.564   5.646   0.606
 4717SOL     OW15049   1.097   5.906   3.136
 4717SOL    HW115050   1.114   5.994   3.181
 4717SOL    HW215051   1.149   5.902   3.051
 4718SOL     OW15052   5.549   1.449   6.477
 4718SOL    HW115053   5.639   1.464   6.436
 4718SOL    HW215054   5.558   1.388   6.555
 4719SOL     OW15055   5.179   3.206   2.070
 4719SOL    HW115056   5.241   3.170   2.139
 4719SOL    HW215057   5.224   3.204   1.980
 4720SOL     OW15058   2.321   6.975   5.720
 4720SOL    HW115059   2.419   6.960   5.726
 4720SOL    HW215060   2.272   6.892   5.749
 4721SOL     OW15061   1.516   2.097   1.049
 4721SOL    HW115062   1.424   2.088   1.087
 4721SOL    HW215063   1.512   2.087   0.949
 4722SOL     OW15064   1.679   6.869   0.116
 4722SOL    HW115065   1.624   6.932   0.170
 4722SOL    HW215066   1.619   6.797   0.078
 4723SOL     OW15067   2.652   6.600   6.200
 4723SOL    HW115068   2.713   6.656   6.256
 4723SOL    HW215069   2.589   6.551   6.260
 4724SOL     OW15070   3.883   6.647   1.642
 4724SOL    HW115071   3.954   6.643   1.713
 4724SOL    HW215072   3.800   6.603   1.676
 4725SOL     OW15073   5.415   6.618   3.129
 4725SOL    HW115074   5.435   6.716   3.125
 4725SOL    HW215075   5.446   6.581   3.216
 4726SOL     OW15076   0.989   3.834   6.917
 4726SOL    HW115077   0.967   3.894   6.841
 4726SOL    HW215078   0.925   3.851   6.992
 4727SOL     OW15079   6.724   5.667   6.843
 4727SOL    HW115080   6.768   5.694   6.757
 4727SOL    HW215081   6.721   5.746   6.904
 4728SOL     OW15082   0.054   0.804   6.114
 4728SOL    HW115083   6.974   0.785   6.126
 4728SOL    HW215084   0.107   0.734   6.161
 4729SOL     OW15085   3.292   7.005   2.236
 4729SOL    HW115086   3.265   0.008   2.330
 4729SOL    HW215087   3.372   0.042   2.212
 4730SOL     OW15088   2.205   6.367   5.800
 4730SOL    HW115089   2.156   6.450   5.772
 4730SOL    HW215090   2.172   6.289   5.746
 4731SOL     OW15091   5.866   1.081   4.803
 4731SOL    HW115092   5.939   1.055   4.866
 4731SOL    HW215093   5.900   1.151   4.740
 4732SOL     OW15094   0.324   3.164   6.925
 4732SOL    HW115095   0.405   3.221   6.913
 4732SOL    HW215096   0.249   3.199   6.868
 4733SOL     OW15097   0.224   3.805   3.612
 4733SOL    HW115098   0.200   3.811   3.515
 4733SOL    HW215099   0.318   3.771   3.622
 4734SOL     OW15100   4.371   3.888   0.017
 4734SOL    HW115101   4.363   3.837   0.103
 4734SOL    HW215102   4.406   3.980   0.036
 4735SOL     OW15103   0.688   5.155   3.944
 4735SOL    HW115104   0.667   5.063   3.975
 4735SOL    HW215105   0.769   5.153   3.886
 4736SOL     OW15106   1.081   0.969   6.934
 4736SOL    HW115107   1.064   0.954   0.014
 4736SOL    HW215108   1.146   1.044   6.923
 4737SOL     OW15109   2.574   4.982   2.134
 4737SOL    HW115110   2.619   4.950   2.051
 4737SOL    HW215111   2.643   5.017   2.197
 4738SOL     OW15112   6.839   6.556   1.580
 4738SOL    HW115113   6.823   6.651   1.607
 4738SOL    HW215114   6.773   6.496   1.626
 4739SOL     OW15115   4.330   0.798   2.506
 4739SOL    HW115116   4.232   0.819   2.505
 4739SOL    HW215117   4.343   0.700   2.495
 4740SOL     OW15118   1.027   1.975   2.596
 4740SOL    HW115119   1.015   1.896   2.536
 4740SOL    HW215120   0.980   2.054   2.558
 4741SOL     OW15121   4.175   3.451   1.800
 4741SOL    HW115122   4.112   3.385   1.760
 4741SOL    HW215123   4.258   3.457   1.744
 4742SOL     OW15124   3.395   0.026   0.516
 4742SOL    HW115125   3.437   6.971   0.570
 4742SOL    HW215126   3.307   0.051   0.557
 4743SOL     OW15127   1.952   4.750   1.208
 4743SOL    HW115128   1.920   4.779   1.298
 4743SOL    HW215129   1.876   4.754   1.142
 4744SOL     OW15130   2.055   6.543   0.990
 4744SOL    HW115131   2.040   6.627   0.938
 4744SOL    HW215132   1.968   6.508   1.023
 4745SOL     OW15133   1.900   4.309   0.245
 4745SOL    HW115134   1.849   4.373   0.303
 4745SOL    HW215135   1.932   4.232   0.299
 4746SOL     OW15136   4.413   5.465   4.363
 4746SOL    HW115137   4.489   5.419   4.408
 4746SOL    HW215138   4.342   5.486   4.431
 4747SOL     OW15139   1.851   2.577   0.932
 4747SOL    HW115140   1.937   2.562   0.981
 4747SOL    HW215141   1.788   2.502   0.952
 4748SOL     OW15142   2.009   6.422   3.052
 4748SOL    HW115143   2.001   6.521   3.066
 4748SOL    HW215144   1.939   6.392   2.988
 4749SOL     OW15145   1.948   0.037   0.473
 4749SOL    HW115146   1.897   0.113   0.515
 4749SOL    HW215147   1.992   7.002   0.545
 4750SOL     OW15148   5.436   3.556   5.471
 4750SOL    HW115149   5.386   3.517   5.549
 4750SOL    HW215150   5.510   3.494   5.444
 4751SOL     OW15151   4.778   1.124   2.944
 4751SOL    HW115152   4.857   1.179   2.917
 4751SOL    HW215153   4.743   1.157   3.032
 4752SOL     OW15154   4.417   2.313   6.858
 4752SOL    HW115155   4.377   2.367   6.931
 4752SOL    HW215156   4.379   2.341   6.770
 4753SOL     OW15157   2.749   6.122   5.130
 4753SOL    HW115158   2.674   6.059   5.109
 4753SOL    HW215159   2.739   6.156   5.223
 4754SOL     OW15160   4.337   4.962   6.421
 4754SOL    HW115161   4.252   4.946   6.471
 4754SOL    HW215162   4.411   4.981   6.485
 4755SOL     OW15163   1.344   0.821   1.292
 4755SOL    HW115164   1.352   0.851   1.197
 4755SOL    HW215165   1.322   0.900   1.350
 4756SOL     OW15166   6.541   4.230   6.451
 4756SOL    HW115167   6.520   4.303   6.386
 4756SOL    HW215168   6.458   4.204   6.500
 4757SOL     OW15169   2.028   3.152   1.567
 4757SOL    HW115170   2.035   3.168   1.468
 4757SOL    HW215171   2.119   3.150   1.607
 4758SOL     OW15172   1.611   0.268   3.075
 4758SOL    HW115173   1.543   0.222   3.018
 4758SOL    HW215174   1.666   0.200   3.123
 4759SOL     OW15175   1.071   4.746   1.390
 4759SOL    HW115176   1.125   4.733   1.474
 4759SOL    HW215177   0.977   4.769   1.414
 4760SOL     OW15178   1.953   6.255   0.728
 4760SOL    HW115179   2.018   6.275   0.800
 4760SOL    HW215180   1.969   6.162   0.693
 4761SOL     OW15181   0.662   0.007   1.146
 4761SOL    HW115182   0.639   6.940   1.099
 4761SOL    HW215183   0.595   0.077   1.122
 4762SOL     OW15184   1.814   5.571   2.614
 4762SOL    HW115185   1.747   5.498   2.596
 4762SOL    HW215186   1.905   5.532   2.620
 4763SOL     OW15187   4.968   5.911   1.948
 4763SOL    HW115188   4.947   5.815   1.934
 4763SOL    HW215189   4.998   5.925   2.042
 4764SOL     OW15190   4.136   3.793   5.941
 4764SOL    HW115191   4.205   3.808   6.012
 4764SOL    HW215192   4.048   3.775   5.984
 4765SOL     OW15193   3.794   1.548   4.967
 4765SOL    HW115194   3.848   1.489   5.027
 4765SOL    HW215195   3.833   1.640   4.968
 4766SOL     OW15196   6.958   6.874   4.212
 4766SOL    HW115197   7.001   6.943   4.154
 4766SOL    HW215198   6.871   6.845   4.171
 4767SOL     OW15199   1.917   4.880   5.189
 4767SOL    HW115200   1.983   4.955   5.185
 4767SOL    HW215201   1.964   4.797   5.219
 4768SOL     OW15202   4.519   2.226   0.108
 4768SOL    HW115203   4.466   2.142   0.098
 4768SOL    HW215204   4.531   2.270   0.019
 4769SOL     OW15205   3.244   5.699   1.507
 4769SOL    HW115206   3.276   5.654   1.590
 4769SOL    HW215207   3.145   5.716   1.514
 4770SOL     OW15208   0.677   1.263   5.613
 4770SOL    HW115209   0.726   1.348   5.634
 4770SOL    HW215210   0.588   1.286   5.574
 4771SOL     OW15211   2.331   6.754   5.170
 4771SOL    HW115212   2.430   6.751   5.179
 4771SOL    HW215213   2.296   6.840   5.205
 4772SOL     OW15214   2.119   6.354   1.373
 4772SOL    HW115215   2.166   6.345   1.284
 4772SOL    HW215216   2.049   6.283   1.381
 4773SOL     OW15217   2.630   5.508   5.238
 4773SOL    HW115218   2.675   5.581   5.289
 4773SOL    HW215219   2.583   5.447   5.301
 4774SOL     OW15220   1.690   3.795   0.480
 4774SOL    HW115221   1.723   3.867   0.540
 4774SOL    HW215222   1.749   3.715   0.487
 4775SOL     OW15223   5.963   6.504   5.213
 4775SOL    HW115224   5.911   6.424   5.185
 4775SOL    HW215225   5.916   6.550   5.289
 4776SOL     OW15226   0.984   0.586   6.018
 4776SOL    HW115227   1.062   0.568   6.077
 4776SOL    HW215228   1.012   0.648   5.944
 4777SOL     OW15229   0.943   6.257   1.049
 4777SOL    HW115230   0.932   6.228   1.144
 4777SOL    HW215231   0.869   6.320   1.024
 4778SOL     OW15232   1.159   2.790   5.578
 4778SOL    HW115233   1.169   2.697   5.615
 4778SOL    HW215234   1.247   2.837   5.584
 4779SOL     OW15235   5.248   0.810   3.854
 4779SOL    HW115236   5.288   0.858   3.932
 4779SOL    HW215237   5.183   0.870   3.807
 4780SOL     OW15238   6.130   2.300   5.081
 4780SOL    HW115239   6.101   2.348   5.163
 4780SOL    HW215240   6.209   2.243   5.102
 4781SOL     OW15241   2.386   6.269   2.909
 4781SOL    HW115242   2.295   6.230   2.896
 4781SOL    HW215243   2.378   6.356   2.957
 4782SOL     OW15244   6.041   5.400   4.186
 4782SOL    HW115245   6.013   5.306   4.204
 4782SOL    HW215246   5.990   5.436   4.109
 4783SOL     OW15247   6.382   2.977   1.207
 4783SOL    HW115248   6.375   3.029   1.121
 4783SOL    HW215249   6.476   2.948   1.220
 4784SOL     OW15250   5.704   1.860   6.189
 4784SOL    HW115251   5.694   1.769   6.149
 4784SOL    HW215252   5.696   1.854   6.288
 4785SOL     OW15253   0.846   5.901   3.967
 4785SOL    HW115254   0.943   5.922   3.961
 4785SOL    HW215255   0.833   5.817   4.020
 4786SOL     OW15256   2.609   6.589   0.673
 4786SOL    HW115257   2.591   6.687   0.677
 4786SOL    HW215258   2.585   6.554   0.583
 4787SOL     OW15259   3.323   1.098   4.382
 4787SOL    HW115260   3.243   1.141   4.341
 4787SOL    HW215261   3.399   1.099   4.317
 4788SOL     OW15262   6.428   6.416   6.455
 4788SOL    HW115263   6.515   6.386   6.494
 4788SOL    HW215264   6.427   6.516   6.448
 4789SOL     OW15265   5.244   0.398   2.605
 4789SOL    HW115266   5.162   0.455   2.593
 4789SOL    HW215267   5.272   0.361   2.517
 4790SOL     OW15268   5.960   2.355   4.871
 4790SOL    HW115269   5.872   2.307   4.863
 4790SOL    HW215270   6.006   2.327   4.954
 4791SOL     OW15271   6.613   2.226   0.710
 4791SOL    HW115272   6.587   2.132   0.732
 4791SOL    HW215273   6.630   2.277   0.794
 4792SOL     OW15274   1.928   3.698   3.977
 4792SOL    HW115275   1.947   3.720   3.881
 4792SOL    HW215276   1.831   3.677   3.988
 4793SOL     OW15277   0.956   3.495   5.880
 4793SOL    HW115278   0.968   3.444   5.795
 4793SOL    HW215279   1.026   3.567   5.886
 4794SOL     OW15280   4.668   0.720   4.008
 4794SOL    HW115281   4.633   0.748   3.919
 4794SOL    HW215282   4.681   0.800   4.066
 4795SOL     OW15283   1.383   0.962   5.136
 4795SOL    HW115284   1.341   0.990   5.223
 4795SOL    HW215285   1.431   1.039   5.096
 4796SOL     OW15286   3.735   1.776   5.369
 4796SOL    HW115287   3.707   1.846   5.435
 4796SOL    HW215288   3.753   1.818   5.281
 4797SOL     OW15289   0.812   5.686   4.741
 4797SOL    HW115290   0.736   5.685   4.806
 4797SOL    HW215291   0.898   5.682   4.791
 4798SOL     OW15292   4.676   4.306   6.161
 4798SOL    HW115293   4.682   4.406   6.161
 4798SOL    HW215294   4.629   4.275   6.243
 4799SOL     OW15295   3.711   3.245   6.680
 4799SOL    HW115296   3.711   3.314   6.752
 4799SOL    HW215297   3.625   3.250   6.629
 4800SOL     OW15298   0.849   4.826   6.968
 4800SOL    HW115299   0.815   4.870   0.032
 4800SOL    HW215300   0.833   4.885   6.889
 4801SOL     OW15301   4.634   2.295   1.675
 4801SOL    HW115302   4.707   2.232   1.703
 4801SOL    HW215303   4.616   2.360   1.749
 4802SOL     OW15304   0.090   6.842   2.095
 4802SOL    HW115305   0.106   6.912   2.164
 4802SOL    HW215306   0.108   6.880   2.004
 4803SOL     OW15307   5.571   3.970   5.920
 4803SOL    HW115308   5.632   4.012   5.853
 4803SOL    HW215309   5.600   3.996   6.013
 4804SOL     OW15310   5.457   1.175   0.543
 4804SOL    HW115311   5.523   1.138   0.477
 4804SOL    HW215312   5.385   1.108   0.559
 4805SOL     OW15313   6.086   2.097   0.895
 4805SOL    HW115314   5.987   2.106   0.888
 4805SOL    HW215315   6.109   2.001   0.913
 4806SOL     OW15316   0.784   2.256   3.469
 4806SOL    HW115317   0.772   2.309   3.385
 4806SOL    HW215318   0.861   2.194   3.457
 4807SOL     OW15319   1.004   2.652   6.315
 4807SOL    HW115320   1.003   2.732   6.256
 4807SOL    HW215321   0.965   2.574   6.267
 4808SOL     OW15322   4.367   5.810   0.622
 4808SOL    HW115323   4.402   5.785   0.712
 4808SOL    HW215324   4.409   5.752   0.552
 4809SOL     OW15325   3.568   4.973   1.725
 4809SOL    HW115326   3.482   4.932   1.755
 4809SOL    HW215327   3.580   5.062   1.771
 4810SOL     OW15328   0.910   4.400   3.868
 4810SOL    HW115329   0.980   4.445   3.923
 4810SOL    HW215330   0.849   4.468   3.829
 4811SOL     OW15331   2.927   3.567   4.792
 4811SOL    HW115332   2.954   3.486   4.844
 4811SOL    HW215333   2.918   3.542   4.695
 4812SOL     OW15334   0.442   0.254   2.095
 4812SOL    HW115335   0.520   0.229   2.152
 4812SOL    HW215336   0.399   0.170   2.059
 4813SOL     OW15337   6.280   1.437   6.668
 4813SOL    HW115338   6.291   1.353   6.721
 4813SOL    HW215339   6.354   1.443   6.600
 4814SOL     OW15340   6.943   3.569   1.616
 4814SOL    HW115341   0.010   3.598   1.574
 4814SOL    HW215342   6.893   3.649   1.650
 4815SOL     OW15343   5.719   4.244   2.582
 4815SOL    HW115344   5.812   4.212   2.597
 4815SOL    HW215345   5.709   4.276   2.488
 4816SOL     OW15346   1.804   0.487   2.402
 4816SOL    HW115347   1.827   0.455   2.310
 4816SOL    HW215348   1.815   0.586   2.407
 4817SOL     OW15349   3.992   1.201   1.116
 4817SOL    HW115350   4.059   1.146   1.166
 4817SOL    HW215351   4.036   1.285   1.083
 4818SOL     OW15352   3.489   0.328   4.980
 4818SOL    HW115353   3.476   0.383   5.062
 4818SOL    HW215354   3.403   0.327   4.927
 4819SOL     OW15355   2.895   0.691   1.402
 4819SOL    HW115356   2.802   0.705   1.367
 4819SOL    HW215357   2.918   0.594   1.397
 4820SOL     OW15358   6.854   4.003   2.261
 4820SOL    HW115359   6.777   4.005   2.325
 4820SOL    HW215360   6.936   4.039   2.306
 4821SOL     OW15361   6.620   5.126   1.613
 4821SOL    HW115362   6.643   5.032   1.637
 4821SOL    HW215363   6.667   5.151   1.528
 4822SOL     OW15364   1.846   4.005   2.884
 4822SOL    HW115365   1.923   4.027   2.944
 4822SOL    HW215366   1.841   3.906   2.871
 4823SOL     OW15367   1.041   0.468   4.964
 4823SOL    HW115368   0.964   0.528   4.942
 4823SOL    HW215369   1.107   0.517   5.020
 4824SOL     OW15370   5.343   2.630   2.401
 4824SOL    HW115371   5.408   2.560   2.372
 4824SOL    HW215372   5.356   2.651   2.498
 4825SOL     OW15373   1.089   3.592   3.022
 4825SOL    HW115374   1.032   3.635   3.091
 4825SOL    HW215375   1.065   3.495   3.015
 4826SOL     OW15376   0.156   6.324   0.627
 4826SOL    HW115377   0.237   6.288   0.674
 4826SOL    HW215378   0.149   6.423   0.642
 4827SOL     OW15379   4.601   1.125   1.179
 4827SOL    HW115380   4.618   1.042   1.232
 4827SOL    HW215381   4.589   1.100   1.082
 4828SOL     OW15382   4.637   3.609   1.560
 4828SOL    HW115383   4.620   3.554   1.479
 4828SOL    HW215384   4.669   3.700   1.532
 4829SOL     OW15385   3.287   1.045   6.182
 4829SOL    HW115386   3.346   0.990   6.122
 4829SOL    HW215387   3.270   1.133   6.138
 4830SOL     OW15388   4.539   6.562   3.848
 4830SOL    HW115389   4.448   6.521   3.845
 4830SOL    HW215390   4.561   6.587   3.942
 4831SOL     OW15391   6.678   4.549   5.267
 4831SOL    HW115392   6.705   4.492   5.190
 4831SOL    HW215393   6.725   4.638   5.261
 4832SOL     OW15394   2.933   3.284   5.863
 4832SOL    HW115395   2.952   3.227   5.783
 4832SOL    HW215396   2.836   3.278   5.886
 4833SOL     OW15397   4.099   1.279   3.372
 4833SOL    HW115398   4.156   1.269   3.454
 4833SOL    HW215399   4.073   1.375   3.361
 4834SOL     OW15400   4.589   1.607   2.189
 4834SOL    HW115401   4.493   1.607   2.160
 4834SOL    HW215402   4.609   1.520   2.235
 4835SOL     OW15403   2.441   6.853   6.912
 4835SOL    HW115404   2.441   6.874   6.814
 4835SOL    HW215405   2.469   6.934   6.964
 4836SOL     OW15406   5.037   1.821   4.119
 4836SOL    HW115407   5.121   1.810   4.065
 4836SOL    HW215408   5.003   1.914   4.109
 4837SOL     OW15409   2.523   2.474   0.770
 4837SOL    HW115410   2.468   2.409   0.823
 4837SOL    HW215411   2.462   2.534   0.718
 4838SOL     OW15412   3.783   4.965   2.138
 4838SOL    HW115413   3.836   4.911   2.203
 4838SOL    HW215414   3.687   4.939   2.144
 4839SOL     OW15415   0.432   5.374   5.707
 4839SOL    HW115416   0.506   5.361   5.774
 4839SOL    HW215417   0.440   5.305   5.635
 4840SOL     OW15418   6.496   6.310   6.948
 4840SOL    HW115419   6.499   6.212   6.929
 4840SOL    HW215420   6.414   6.349   6.907
 4841SOL     OW15421   2.959   5.257   2.079
 4841SOL    HW115422   2.942   5.307   2.164
 4841SOL    HW215423   2.952   5.319   2.001
 4842SOL     OW15424   4.306   6.035   1.333
 4842SOL    HW115425   4.348   5.946   1.315
 4842SOL    HW215426   4.329   6.064   1.426
 4843SOL     OW15427   6.839   3.991   6.836
 4843SOL    HW115428   6.870   3.951   6.750
 4843SOL    HW215429   6.772   3.931   6.879
 4844SOL     OW15430   6.453   2.595   6.471
 4844SOL    HW115431   6.425   2.518   6.414
 4844SOL    HW215432   6.387   2.608   6.545
 4845SOL     OW15433   5.522   5.054   3.677
 4845SOL    HW115434   5.572   5.066   3.591
 4845SOL    HW215435   5.523   5.139   3.729
 4846SOL     OW15436   1.612   3.032   1.184
 4846SOL    HW115437   1.705   3.055   1.213
 4846SOL    HW215438   1.555   3.014   1.264
 4847SOL     OW15439   3.574   2.120   5.022
 4847SOL    HW115440   3.626   2.092   4.941
 4847SOL    HW215441   3.481   2.086   5.015
 4848SOL     OW15442   2.499   1.382   3.007
 4848SOL    HW115443   2.428   1.335   2.955
 4848SOL    HW215444   2.502   1.346   3.101
 4849SOL     OW15445   1.462   0.369   0.315
 4849SOL    HW115446   1.415   0.304   0.256
 4849SOL    HW215447   1.501   0.321   0.393
 4850SOL     OW15448   4.490   0.398   1.569
 4850SOL    HW115449   4.455   0.312   1.606
 4850SOL    HW215450   4.447   0.475   1.616
 4851SOL     OW15451   4.140   6.024   5.556
 4851SOL    HW115452   4.042   6.003   5.562
 4851SOL    HW215453   4.153   6.107   5.502
 4852SOL     OW15454   2.407   0.745   6.934
 4852SOL    HW115455   2.439   0.825   6.985
 4852SOL    HW215456   2.484   0.686   6.912
 4853SOL     OW15457   3.579   1.498   2.656
 4853SOL    HW115458   3.485   1.489   2.689
 4853SOL    HW215459   3.628   1.564   2.713
 4854SOL     OW15460   4.827   6.098   2.244
 4854SOL    HW115461   4.924   6.100   2.271
 4854SOL    HW215462   4.815   6.149   2.159
 4855SOL     OW15463   5.942   1.268   2.014
 4855SOL    HW115464   6.036   1.303   2.013
 4855SOL    HW215465   5.908   1.261   1.920
 4856SOL     OW15466   2.656   5.055   4.307
 4856SOL    HW115467   2.732   5.120   4.319
 4856SOL    HW215468   2.679   4.990   4.235
 4857SOL     OW15469   0.407   2.005   5.815
 4857SOL    HW115470   0.396   2.083   5.754
 4857SOL    HW215471   0.323   1.951   5.817
 4858SOL     OW15472   1.698   2.360   4.646
 4858SOL    HW115473   1.618   2.408   4.612
 4858SOL    HW215474   1.673   2.267   4.673
 4859SOL     OW15475   1.700   5.833   4.983
 4859SOL    HW115476   1.699   5.930   5.006
 4859SOL    HW215477   1.627   5.786   5.034
 4860SOL     OW15478   4.504   5.389   1.597
 4860SOL    HW115479   4.439   5.423   1.664
 4860SOL    HW215480   4.542   5.302   1.628
 4861SOL     OW15481   4.871   4.073   5.894
 4861SOL    HW115482   4.918   4.006   5.837
 4861SOL    HW215483   4.909   4.073   5.986
 4862SOL     OW15484   1.371   5.503   2.722
 4862SOL    HW115485   1.344   5.563   2.646
 4862SOL    HW215486   1.290   5.458   2.759
 4863SOL     OW15487   5.745   4.078   6.924
 4863SOL    HW115488   5.731   4.175   6.942
 4863SOL    HW215489   5.679   4.025   6.977
 4864SOL     OW15490   2.697   1.188   3.398
 4864SOL    HW115491   2.782   1.240   3.395
 4864SOL    HW215492   2.696   1.129   3.478
 4865SOL     OW15493   2.553   5.717   4.607
 4865SOL    HW115494   2.597   5.631   4.578
 4865SOL    HW215495   2.491   5.698   4.683
 4866SOL     OW15496   0.302   3.775   0.916
 4866SOL    HW115497   0.216   3.757   0.868
 4866SOL    HW215498   0.283   3.821   1.003
 4867SOL     OW15499   4.789   5.974   2.801
 4867SOL    HW115500   4.827   5.950   2.711
 4867SOL    HW215501   4.857   5.954   2.872
 4868SOL     OW15502   6.668   4.233   1.756
 4868SOL    HW115503   6.589   4.211   1.699
 4868SOL    HW215504   6.639   4.282   1.837
 4869SOL     OW15505   0.518   1.602   6.156
 4869SOL    HW115506   0.517   1.616   6.057
 4869SOL    HW215507   0.456   1.667   6.200
 4870SOL     OW15508   0.376   5.892   1.867
 4870SOL    HW115509   0.474   5.873   1.871
 4870SOL    HW215510   0.352   5.958   1.939
 4871SOL     OW15511   1.113   0.685   4.519
 4871SOL    HW115512   1.060   0.744   4.459
 4871SOL    HW215513   1.154   0.739   4.592
 4872SOL     OW15514   0.077   6.441   3.576
 4872SOL    HW115515   0.023   6.472   3.654
 4872SOL    HW215516   0.148   6.509   3.556
 4873SOL     OW15517   6.918   6.063   4.779
 4873SOL    HW115518   6.985   6.130   4.810
 4873SOL    HW215519   6.900   5.998   4.852
 4874SOL     OW15520   4.641   2.635   3.261
 4874SOL    HW115521   4.668   2.713   3.318
 4874SOL    HW215522   4.697   2.556   3.283
 4875SOL     OW15523   5.281   6.378   6.866
 4875SOL    HW115524   5.196   6.427   6.887
 4875SOL    HW215525   5.347   6.396   6.939
 4876SOL     OW15526   1.964   1.687   2.885
 4876SOL    HW115527   2.003   1.763   2.833
 4876SOL    HW215528   1.903   1.723   2.955
 4877SOL     OW15529   0.544   1.416   4.252
 4877SOL    HW115530   0.526   1.390   4.346
 4877SOL    HW215531   0.635   1.385   4.225
 4878SOL     OW15532   6.303   1.670   1.951
 4878SOL    HW115533   6.247   1.688   2.031
 4878SOL    HW215534   6.400   1.673   1.976
 4879SOL     OW15535   4.819   1.823   2.745
 4879SOL    HW115536   4.855   1.915   2.756
 4879SOL    HW215537   4.888   1.756   2.772
 4880SOL     OW15538   6.312   3.024   6.592
 4880SOL    HW115539   6.342   3.119   6.588
 4880SOL    HW215540   6.213   3.020   6.587
 4881SOL     OW15541   1.642   2.696   1.938
 4881SOL    HW115542   1.568   2.644   1.981
 4881SOL    HW215543   1.729   2.673   1.981
 4882SOL     OW15544   4.295   2.098   4.958
 4882SOL    HW115545   4.353   2.032   4.909
 4882SOL    HW215546   4.305   2.085   5.056
 4883SOL     OW15547   5.614   3.574   1.255
 4883SOL    HW115548   5.586   3.498   1.197
 4883SOL    HW215549   5.539   3.638   1.266
 4884SOL     OW15550   1.252   6.133   1.610
 4884SOL    HW115551   1.211   6.202   1.551
 4884SOL    HW215552   1.308   6.071   1.555
 4885SOL     OW15553   2.315   5.003   1.111
 4885SOL    HW115554   2.362   4.915   1.112
 4885SOL    HW215555   2.376   5.073   1.149
 4886SOL     OW15556   3.596   0.329   2.404
 4886SOL    HW115557   3.512   0.281   2.432
 4886SOL    HW215558   3.675   0.271   2.423
 4887SOL     OW15559   1.339   6.681   1.946
 4887SOL    HW115560   1.381   6.772   1.939
 4887SOL    HW215561   1.381   6.630   2.021
 4888SOL     OW15562   2.681   6.843   3.292
 4888SOL    HW115563   2.585   6.861   3.268
 4888SOL    HW215564   2.738   6.852   3.210
 4889SOL     OW15565   6.345   2.569   3.713
 4889SOL    HW115566   6.265   2.608   3.667
 4889SOL    HW215567   6.330   2.569   3.812
 4890SOL     OW15568   1.305   0.625   5.394
 4890SOL    HW115569   1.330   0.630   5.490
 4890SOL    HW215570   1.206   0.613   5.385
 4891SOL     OW15571   2.164   5.389   6.267
 4891SOL    HW115572   2.217   5.394   6.352
 4891SOL    HW215573   2.168   5.296   6.231
 4892SOL     OW15574   5.694   6.946   2.173
 4892SOL    HW115575   5.668   6.914   2.264
 4892SOL    HW215576   5.784   6.991   2.178
 4893SOL     OW15577   0.362   3.978   1.728
 4893SOL    HW115578   0.358   4.001   1.631
 4893SOL    HW215579   0.418   3.896   1.742
 4894SOL     OW15580   3.762   6.887   2.070
 4894SOL    HW115581   3.850   6.858   2.108
 4894SOL    HW215582   3.778   6.940   1.987
 4895SOL     OW15583   7.012   4.866   3.220
 4895SOL    HW115584   0.066   4.905   3.278
 4895SOL    HW215585   6.956   4.803   3.273
 4896SOL     OW15586   1.573   5.039   3.855
 4896SOL    HW115587   1.663   5.068   3.890
 4896SOL    HW215588   1.501   5.079   3.913
 4897SOL     OW15589   1.744   5.877   5.688
 4897SOL    HW115590   1.699   5.966   5.678
 4897SOL    HW215591   1.727   5.822   5.607
 4898SOL     OW15592   3.988   1.734   4.611
 4898SOL    HW115593   3.934   1.761   4.531
 4898SOL    HW215594   4.020   1.640   4.599
 4899SOL     OW15595   6.156   5.488   2.214
 4899SOL    HW115596   6.093   5.565   2.202
 4899SOL    HW215597   6.227   5.493   2.144
 4900SOL     OW15598   4.206   6.328   5.308
 4900SOL    HW115599   4.195   6.422   5.341
 4900SOL    HW215600   4.117   6.288   5.288
 4901SOL     OW15601   0.940   2.087   5.830
 4901SOL    HW115602   0.858   2.135   5.859
 4901SOL    HW215603   0.954   2.006   5.886
 4902SOL     OW15604   2.142   0.487   6.647
 4902SOL    HW115605   2.050   0.483   6.608
 4902SOL    HW215606   2.138   0.529   6.738
 4903SOL     OW15607   5.181   5.281   1.166
 4903SOL    HW115608   5.178   5.181   1.160
 4903SOL    HW215609   5.089   5.317   1.149
 4904SOL     OW15610   1.926   0.745   6.837
 4904SOL    HW115611   2.009   0.696   6.864
 4904SOL    HW215612   1.860   0.680   6.798
 4905SOL     OW15613   3.284   6.980   3.618
 4905SOL    HW115614   3.320   6.893   3.651
 4905SOL    HW215615   3.198   6.964   3.569
 4906SOL     OW15616   4.729   3.329   5.290
 4906SOL    HW115617   4.784   3.261   5.243
 4906SOL    HW215618   4.707   3.404   5.227
 4907SOL     OW15619   4.375   1.561   0.108
 4907SOL    HW115620   4.436   1.640   0.099
 4907SOL    HW215621   4.420   1.480   0.071
 4908SOL     OW15622   4.886   0.060   0.049
 4908SOL    HW115623   4.937   0.126   0.103
 4908SOL    HW215624   4.947   7.005   0.019
 4909SOL     OW15625   6.262   4.297   3.352
 4909SOL    HW115626   6.237   4.394   3.358
 4909SOL    HW215627   6.207   4.244   3.416
 4910SOL     OW15628   5.318   0.573   5.375
 4910SOL    HW115629   5.358   0.665   5.368
 4910SOL    HW215630   5.219   0.580   5.366
 4911SOL     OW15631   1.410   2.182   2.493
 4911SOL    HW115632   1.352   2.177   2.574
 4911SOL    HW215633   1.448   2.274   2.485
 4912SOL     OW15634   5.840   2.012   5.580
 4912SOL    HW115635   5.838   2.030   5.482
 4912SOL    HW215636   5.850   2.098   5.630
 4913SOL     OW15637   5.540   2.430   5.238
 4913SOL    HW115638   5.580   2.475   5.158
 4913SOL    HW215639   5.469   2.366   5.208
 4914SOL     OW15640   4.822   0.257   4.265
 4914SOL    HW115641   4.730   0.225   4.285
 4914SOL    HW215642   4.886   0.180   4.274
 4915SOL     OW15643   3.195   5.816   5.321
 4915SOL    HW115644   3.097   5.828   5.306
 4915SOL    HW215645   3.242   5.817   5.232
 4916SOL     OW15646   5.954   0.700   4.101
 4916SOL    HW115647   5.953   0.626   4.033
 4916SOL    HW215648   6.035   0.758   4.086
 4917SOL     OW15649   3.640   6.163   0.868
 4917SOL    HW115650   3.731   6.194   0.895
 4917SOL    HW215651   3.642   6.133   0.772
 4918SOL     OW15652   6.092   5.430   1.898
 4918SOL    HW115653   6.006   5.472   1.928
 4918SOL    HW215654   6.100   5.437   1.799
 4919SOL     OW15655   4.090   3.359   2.074
 4919SOL    HW115656   4.113   3.444   2.121
 4919SOL    HW215657   4.102   3.372   1.975
 4920SOL     OW15658   6.029   0.756   5.224
 4920SOL    HW115659   5.936   0.792   5.237
 4920SOL    HW215660   6.095   0.826   5.249
 4921SOL     OW15661   0.276   6.414   0.979
 4921SOL    HW115662   0.313   6.355   0.908
 4921SOL    HW215663   0.241   6.498   0.938
 4922SOL     OW15664   3.215   1.860   5.129
 4922SOL    HW115665   3.236   1.903   5.041
 4922SOL    HW215666   3.180   1.929   5.192
 4923SOL     OW15667   3.516   1.865   3.254
 4923SOL    HW115668   3.484   1.944   3.202
 4923SOL    HW215669   3.490   1.780   3.207
 4924SOL     OW15670   2.776   1.523   5.906
 4924SOL    HW115671   2.843   1.542   5.978
 4924SOL    HW215672   2.685   1.552   5.936
 4925SOL     OW15673   4.693   6.472   2.812
 4925SOL    HW115674   4.681   6.560   2.859
 4925SOL    HW215675   4.608   6.448   2.765
 4926SOL     OW15676   5.655   1.692   1.855
 4926SOL    HW115677   5.673   1.594   1.851
 4926SOL    HW215678   5.561   1.707   1.886
 4927SOL     OW15679   2.873   2.039   6.366
 4927SOL    HW115680   2.879   2.019   6.464
 4927SOL    HW215681   2.912   2.129   6.348
 4928SOL     OW15682   1.443   1.998   1.425
 4928SOL    HW115683   1.361   2.054   1.428
 4928SOL    HW215684   1.430   1.923   1.360
 4929SOL     OW15685   0.214   0.605   3.908
 4929SOL    HW115686   0.164   0.685   3.875
 4929SOL    HW215687   0.162   0.522   3.888
 4930SOL     OW15688   5.773   0.115   1.778
 4930SOL    HW115689   5.762   0.025   1.819
 4930SOL    HW215690   5.753   0.110   1.680
 4931SOL     OW15691   6.512   6.230   2.008
 4931SOL    HW115692   6.427   6.262   1.967
 4931SOL    HW215693   6.588   6.245   1.945
 4932SOL     OW15694   2.848   3.421   2.952
 4932SOL    HW115695   2.889   3.330   2.962
 4932SOL    HW215696   2.877   3.462   2.866
 4933SOL     OW15697   2.761   6.363   4.689
 4933SOL    HW115698   2.711   6.299   4.747
 4933SOL    HW215699   2.725   6.357   4.596
 4934SOL     OW15700   3.520   5.942   3.041
 4934SOL    HW115701   3.433   5.907   3.075
 4934SOL    HW215702   3.542   6.028   3.087
 4935SOL     OW15703   1.146   1.833   6.636
 4935SOL    HW115704   1.087   1.767   6.590
 4935SOL    HW215705   1.090   1.897   6.689
 4936SOL     OW15706   2.139   3.792   1.438
 4936SOL    HW115707   2.196   3.874   1.432
 4936SOL    HW215708   2.191   3.719   1.484
 4937SOL     OW15709   4.921   3.308   4.887
 4937SOL    HW115710   4.861   3.376   4.927
 4937SOL    HW215711   4.910   3.308   4.787
 4938SOL     OW15712   4.167   5.378   5.671
 4938SOL    HW115713   4.078   5.362   5.715
 4938SOL    HW215714   4.202   5.292   5.636
 4939SOL     OW15715   4.524   2.986   5.543
 4939SOL    HW115716   4.498   2.954   5.634
 4939SOL    HW215717   4.443   3.011   5.491
 4940SOL     OW15718   2.002   6.577   5.011
 4940SOL    HW115719   1.996   6.478   4.994
 4940SOL    HW215720   1.926   6.623   4.966
 4941SOL     OW15721   4.679   1.641   6.980
 4941SOL    HW115722   4.699   1.569   0.027
 4941SOL    HW215723   4.753   1.649   6.913
 4942SOL     OW15724   5.014   3.610   5.366
 4942SOL    HW115725   4.998   3.550   5.444
 4942SOL    HW215726   4.997   3.560   5.281
 4943SOL     OW15727   3.924   2.640   0.796
 4943SOL    HW115728   3.992   2.603   0.732
 4943SOL    HW215729   3.940   2.601   0.887
 4944SOL     OW15730   2.325   4.337   3.300
 4944SOL    HW115731   2.232   4.339   3.335
 4944SOL    HW215732   2.341   4.250   3.252
 4945SOL     OW15733   7.002   0.025   4.422
 4945SOL    HW115734   0.072   0.072   4.416
 4945SOL    HW215735   6.990   6.984   4.341
 4946SOL     OW15736   1.793   3.377   2.108
 4946SOL    HW115737   1.709   3.414   2.147
 4946SOL    HW215738   1.827   3.303   2.167
 4947SOL     OW15739   1.198   0.403   0.566
 4947SOL    HW115740   1.204   0.484   0.624
 4947SOL    HW215741   1.152   0.426   0.481
 4948SOL     OW15742   2.699   1.328   2.628
 4948SOL    HW115743   2.700   1.346   2.530
 4948SOL    HW215744   2.781   1.276   2.653
 4949SOL     OW15745   5.520   0.129   4.926
 4949SOL    HW115746   5.538   0.217   4.883
 4949SOL    HW215747   5.436   0.134   4.979
 4950SOL     OW15748   2.891   5.913   5.355
 4950SOL    HW115749   2.897   5.963   5.268
 4950SOL    HW215750   2.822   5.842   5.348
 4951SOL     OW15751   4.692   1.501   4.668
 4951SOL    HW115752   4.601   1.480   4.705
 4951SOL    HW215753   4.754   1.524   4.743
 4952SOL     OW15754   6.921   6.472   5.119
 4952SOL    HW115755   6.851   6.542   5.107
 4952SOL    HW215756   6.891   6.387   5.076
 4953SOL     OW15757   2.075   5.513   2.115
 4953SOL    HW115758   2.163   5.524   2.162
 4953SOL    HW215759   2.039   5.604   2.092
 4954SOL     OW15760   5.598   5.732   7.004
 4954SOL    HW115761   5.521   5.781   0.026
 4954SOL    HW215762   5.592   5.635   0.012
 4955SOL     OW15763   1.327   6.727   1.385
 4955SOL    HW115764   1.245   6.780   1.410
 4955SOL    HW215765   1.362   6.681   1.466
 4956SOL     OW15766   4.219   6.655   4.600
 4956SOL    HW115767   4.220   6.682   4.697
 4956SOL    HW215768   4.126   6.660   4.565
 4957SOL     OW15769   1.088   0.856   4.002
 4957SOL    HW115770   1.120   0.941   3.958
 4957SOL    HW215771   1.167   0.803   4.032
 4958SOL     OW15772   0.631   5.982   6.825
 4958SOL    HW115773   0.596   5.966   6.733
 4958SOL    HW215774   0.731   5.979   6.824
 4959SOL     OW15775   0.958   0.730   0.915
 4959SOL    HW115776   0.953   0.826   0.886
 4959SOL    HW215777   0.870   0.686   0.899
 4960SOL     OW15778   3.960   5.959   4.719
 4960SOL    HW115779   4.013   6.030   4.673
 4960SOL    HW215780   3.890   5.924   4.658
 4961SOL     OW15781   4.835   0.242   4.831
 4961SOL    HW115782   4.748   0.284   4.804
 4961SOL    HW215783   4.843   0.244   4.930
 4962SOL     OW15784   6.343   2.507   1.248
 4962SOL    HW115785   6.333   2.494   1.347
 4962SOL    HW215786   6.294   2.434   1.200
 4963SOL     OW15787   0.601   4.919   1.792
 4963SOL    HW115788   0.634   4.927   1.886
 4963SOL    HW215789   0.603   5.009   1.748
 4964SOL     OW15790   3.231   6.314   3.546
 4964SOL    HW115791   3.169   6.376   3.497
 4964SOL    HW215792   3.177   6.245   3.595
 4965SOL     OW15793   6.559   0.240   4.211
 4965SOL    HW115794   6.493   0.173   4.174
 4965SOL    HW215795   6.555   0.239   4.311
 4966SOL     OW15796   3.295   5.561   5.383
 4966SOL    HW115797   3.381   5.573   5.432
 4966SOL    HW215798   3.276   5.642   5.328
 4967SOL     OW15799   3.683   2.292   6.425
 4967SOL    HW115800   3.766   2.281   6.371
 4967SOL    HW215801   3.630   2.207   6.424
 4968SOL     OW15802   5.457   3.081   4.761
 4968SOL    HW115803   5.474   3.007   4.695
 4968SOL    HW215804   5.480   3.049   4.853
 4969SOL     OW15805   1.368   1.147   1.577
 4969SOL    HW115806   1.374   1.130   1.479
 4969SOL    HW215807   1.402   1.068   1.627
 4970SOL     OW15808   1.163   2.007   5.040
 4970SOL    HW115809   1.235   1.976   4.978
 4970SOL    HW215810   1.118   1.928   5.081
 4971SOL     OW15811   6.288   6.554   2.946
 4971SOL    HW115812   6.379   6.514   2.946
 4971SOL    HW215813   6.220   6.482   2.954
 4972SOL     OW15814   1.857   3.567   0.468
 4972SOL    HW115815   1.946   3.524   0.454
 4972SOL    HW215816   1.807   3.569   0.381
 4973SOL     OW15817   5.825   5.946   2.358
 4973SOL    HW115818   5.853   5.996   2.277
 4973SOL    HW215819   5.829   5.847   2.339
 4974SOL     OW15820   5.726   6.271   2.065
 4974SOL    HW115821   5.797   6.335   2.094
 4974SOL    HW215822   5.755   6.177   2.086
 4975SOL     OW15823   6.045   6.089   0.539
 4975SOL    HW115824   6.092   6.133   0.462
 4975SOL    HW215825   5.948   6.114   0.538
 4976SOL     OW15826   3.817   0.781   5.050
 4976SOL    HW115827   3.777   0.701   5.005
 4976SOL    HW215828   3.909   0.797   5.015
 4977SOL     OW15829   3.788   3.335   1.045
 4977SOL    HW115830   3.748   3.419   1.083
 4977SOL    HW215831   3.727   3.258   1.063
 4978SOL     OW15832   5.629   3.123   5.614
 4978SOL    HW115833   5.681   3.130   5.699
 4978SOL    HW215834   5.535   3.155   5.629
 4979SOL     OW15835   0.755   0.235   5.743
 4979SOL    HW115836   0.848   0.256   5.772
 4979SOL    HW215837   0.750   0.234   5.643
 4980SOL     OW15838   3.984   5.592   2.193
 4980SOL    HW115839   4.003   5.523   2.263
 4980SOL    HW215840   3.908   5.649   2.223
 4981SOL     OW15841   4.215   6.587   5.346
 4981SOL    HW115842   4.189   6.628   5.258
 4981SOL    HW215843   4.254   6.657   5.405
 4982SOL     OW15844   2.159   2.496   0.276
 4982SOL    HW115845   2.248   2.511   0.232
 4982SOL    HW215846   2.145   2.564   0.347
 4983SOL     OW15847   5.286   2.429   4.195
 4983SOL    HW115848   5.229   2.409   4.275
 4983SOL    HW215849   5.234   2.487   4.132
 4984SOL     OW15850   4.932   3.742   4.413
 4984SOL    HW115851   4.840   3.705   4.413
 4984SOL    HW215852   4.979   3.715   4.329
 4985SOL     OW15853   5.195   5.208   2.265
 4985SOL    HW115854   5.122   5.163   2.317
 4985SOL    HW215855   5.168   5.302   2.244
 4986SOL     OW15856   5.380   4.422   2.793
 4986SOL    HW115857   5.455   4.366   2.760
 4986SOL    HW215858   5.317   4.442   2.717
 4987SOL     OW15859   0.133   3.157   1.747
 4987SOL    HW115860   0.075   3.238   1.754
 4987SOL    HW215861   0.194   3.167   1.668
 4988SOL     OW15862   0.114   1.466   4.091
 4988SOL    HW115863   0.033   1.445   4.037
 4988SOL    HW215864   0.192   1.413   4.055
 4989SOL     OW15865   6.899   1.379   0.759
 4989SOL    HW115866   6.806   1.414   0.768
 4989SOL    HW215867   6.919   1.316   0.834
 4990SOL     OW15868   0.721   2.506   5.513
 4990SOL    HW115869   0.751   2.450   5.591
 4990SOL    HW215870   0.772   2.481   5.432
 4991SOL     OW15871   0.956   3.078   4.043
 4991SOL    HW115872   0.928   3.064   3.948
 4991SOL    HW215873   1.000   3.167   4.052
 4992SOL     OW15874   3.374   0.833   5.099
 4992SOL    HW115875   3.366   0.827   4.999
 4992SOL    HW215876   3.363   0.928   5.127
 4993SOL     OW15877   2.508   6.278   4.020
 4993SOL    HW115878   2.524   6.341   4.096
 4993SOL    HW215879   2.506   6.185   4.054
 4994SOL     OW15880   0.459   0.090   3.023
 4994SOL    HW115881   0.364   0.112   3.046
 4994SOL    HW215882   0.520   0.128   3.092
 4995SOL     OW15883   6.309   2.456   6.051
 4995SOL    HW115884   6.252   2.512   5.991
 4995SOL    HW215885   6.377   2.514   6.096
 4996SOL     OW15886   0.594   1.998   2.746
 4996SOL    HW115887   0.646   1.939   2.684
 4996SOL    HW215888   0.497   1.975   2.740
 4997SOL     OW15889   6.774   2.799   3.294
 4997SOL    HW115890   6.765   2.894   3.326
 4997SOL    HW215891   6.858   2.790   3.240
 4998SOL     OW15892   1.294   5.682   4.669
 4998SOL    HW115893   1.276   5.649   4.576
 4998SOL    HW215894   1.332   5.774   4.665
 4999SOL     OW15895   5.684   5.493   1.039
 4999SOL    HW115896   5.730   5.422   0.986
 4999SOL    HW215897   5.741   5.575   1.041
 5000SOL     OW15898   0.604   0.639   4.561
 5000SOL    HW115899   0.569   0.636   4.467
 5000SOL    HW215900   0.527   0.648   4.624
 5001SOL     OW15901   3.293   4.319   5.546
 5001SOL    HW115902   3.229   4.292   5.474
 5001SOL    HW215903   3.268   4.409   5.581
 5002SOL     OW15904   2.519   1.255   2.072
 5002SOL    HW115905   2.452   1.329   2.063
 5002SOL    HW215906   2.549   1.226   1.982
 5003SOL     OW15907   6.613   6.134   2.510
 5003SOL    HW115908   6.516   6.154   2.524
 5003SOL    HW215909   6.668   6.186   2.575
 5004SOL     OW15910   2.765   6.311   6.716
 5004SOL    HW115911   2.799   6.235   6.771
 5004SOL    HW215912   2.832   6.333   6.645
 5005SOL     OW15913   4.362   2.793   0.270
 5005SOL    HW115914   4.365   2.815   0.367
 5005SOL    HW215915   4.282   2.735   0.251
 5006SOL     OW15916   5.092   6.488   4.957
 5006SOL    HW115917   5.183   6.462   4.924
 5006SOL    HW215918   5.047   6.407   4.997
 5007SOL     OW15919   4.468   1.160   5.207
 5007SOL    HW115920   4.497   1.206   5.123
 5007SOL    HW215921   4.369   1.162   5.214
 5008SOL     OW15922   5.848   0.969   3.615
 5008SOL    HW115923   5.883   0.897   3.555
 5008SOL    HW215924   5.885   0.957   3.707
 5009SOL     OW15925   0.890   6.636   2.572
 5009SOL    HW115926   0.851   6.612   2.661
 5009SOL    HW215927   0.982   6.672   2.584
 5010SOL     OW15928   3.766   3.809   4.037
 5010SOL    HW115929   3.714   3.802   3.952
 5010SOL    HW215930   3.801   3.902   4.047
 5011SOL     OW15931   1.030   2.641   2.287
 5011SOL    HW115932   1.005   2.550   2.255
 5011SOL    HW215933   0.979   2.711   2.236
 5012SOL     OW15934   6.829   2.627   6.203
 5012SOL    HW115935   6.843   2.646   6.300
 5012SOL    HW215936   6.796   2.533   6.192
 5013SOL     OW15937   4.444   1.697   5.893
 5013SOL    HW115938   4.416   1.734   5.805
 5013SOL    HW215939   4.386   1.736   5.965
 5014SOL     OW15940   6.069   6.234   0.776
 5014SOL    HW115941   6.014   6.195   0.850
 5014SOL    HW215942   6.066   6.173   0.697
 5015SOL     OW15943   4.600   2.359   3.416
 5015SOL    HW115944   4.682   2.367   3.358
 5015SOL    HW215945   4.575   2.450   3.450
 5016SOL     OW15946   2.318   0.655   2.889
 5016SOL    HW115947   2.399   0.671   2.833
 5016SOL    HW215948   2.335   0.579   2.952
 5017SOL     OW15949   3.101   2.143   0.738
 5017SOL    HW115950   3.068   2.054   0.707
 5017SOL    HW215951   3.025   2.193   0.781
 5018SOL     OW15952   6.192   5.077   3.618
 5018SOL    HW115953   6.106   5.119   3.587
 5018SOL    HW215954   6.212   4.997   3.562
 5019SOL     OW15955   1.750   4.182   0.064
 5019SOL    HW115956   1.722   4.096   0.106
 5019SOL    HW215957   1.803   4.236   0.129
 5020SOL     OW15958   4.744   4.862   6.795
 5020SOL    HW115959   4.700   4.872   6.705
 5020SOL    HW215960   4.700   4.922   6.861
 5021SOL     OW15961   2.003   4.610   5.537
 5021SOL    HW115962   1.903   4.618   5.535
 5021SOL    HW215963   2.034   4.602   5.632
 5022SOL     OW15964   1.459   6.119   0.664
 5022SOL    HW115965   1.413   6.137   0.577
 5022SOL    HW215966   1.400   6.061   0.720
 5023SOL     OW15967   6.147   3.313   1.256
 5023SOL    HW115968   6.053   3.319   1.289
 5023SOL    HW215969   6.149   3.325   1.156
 5024SOL     OW15970   6.124   3.435   4.010
 5024SOL    HW115971   6.147   3.387   4.095
 5024SOL    HW215972   6.144   3.533   4.021
 5025SOL     OW15973   5.118   1.810   3.312
 5025SOL    HW115974   5.209   1.788   3.277
 5025SOL    HW215975   5.121   1.819   3.411
 5026SOL     OW15976   6.629   5.930   4.483
 5026SOL    HW115977   6.583   6.001   4.536
 5026SOL    HW215978   6.563   5.858   4.459
 5027SOL     OW15979   0.617   6.860   3.587
 5027SOL    HW115980   0.616   6.922   3.508
 5027SOL    HW215981   0.615   6.765   3.555
 5028SOL     OW15982   0.380   0.346   3.228
 5028SOL    HW115983   0.343   0.277   3.166
 5028SOL    HW215984   0.479   0.333   3.237
 5029SOL     OW15985   6.983   1.943   1.192
 5029SOL    HW115986   6.965   1.895   1.278
 5029SOL    HW215987   0.027   2.020   1.209
 5030SOL     OW15988   6.965   0.542   6.811
 5030SOL    HW115989   0.007   0.621   6.806
 5030SOL    HW215990   7.006   0.473   6.871
 5031SOL     OW15991   5.788   0.379   4.298
 5031SOL    HW115992   5.861   0.331   4.248
 5031SOL    HW215993   5.730   0.429   4.233
 5032SOL     OW15994   1.484   5.035   0.930
 5032SOL    HW115995   1.522   5.111   0.878
 5032SOL    HW215996   1.387   5.026   0.911
 5033SOL     OW15997   2.534   4.091   5.846
 5033SOL    HW115998   2.493   4.117   5.759
 5033SOL    HW215999   2.606   4.157   5.870
 5034SOL     OW16000   6.505   3.001   1.611
 5034SOL    HW116001   6.540   3.094   1.599
 5034SOL    HW216002   6.407   3.001   1.591
 5035SOL     OW16003   5.763   5.383   0.398
 5035SOL    HW116004   5.701   5.310   0.424
 5035SOL    HW216005   5.802   5.425   0.480
 5036SOL     OW16006   1.308   0.008   1.549
 5036SOL    HW116007   1.217   6.987   1.558
 5036SOL    HW216008   1.359   7.015   1.634
 5037SOL     OW16009   4.535   1.913   3.684
 5037SOL    HW116010   4.599   1.854   3.733
 5037SOL    HW216011   4.586   1.981   3.631
 5038SOL     OW16012   1.311   6.141   5.689
 5038SOL    HW116013   1.369   6.178   5.617
 5038SOL    HW216014   1.366   6.090   5.755
 5039SOL     OW16015   2.349   2.836   5.289
 5039SOL    HW116016   2.428   2.779   5.267
 5039SOL    HW216017   2.362   2.928   5.250
 5040SOL     OW16018   3.319   3.960   5.414
 5040SOL    HW116019   3.309   3.913   5.326
 5040SOL    HW216020   3.398   4.021   5.411
 5041SOL     OW16021   1.013   3.446   1.474
 5041SOL    HW116022   1.082   3.518   1.462
 5041SOL    HW216023   0.924   3.488   1.494
 5042SOL     OW16024   5.455   2.758   6.621
 5042SOL    HW116025   5.424   2.780   6.713
 5042SOL    HW216026   5.499   2.838   6.580
 5043SOL     OW16027   3.681   0.420   3.575
 5043SOL    HW116028   3.662   0.489   3.645
 5043SOL    HW216029   3.640   0.448   3.489
 5044SOL     OW16030   5.879   5.208   3.077
 5044SOL    HW116031   5.814   5.132   3.079
 5044SOL    HW216032   5.840   5.283   3.023
 5045SOL     OW16033   6.333   2.308   6.663
 5045SOL    HW116034   6.423   2.346   6.682
 5045SOL    HW216035   6.269   2.382   6.643
 5046SOL     OW16036   3.336   3.062   5.226
 5046SOL    HW116037   3.379   3.142   5.184
 5046SOL    HW216038   3.383   2.979   5.195
 5047SOL     OW16039   0.224   1.003   2.523
 5047SOL    HW116040   0.311   1.052   2.535
 5047SOL    HW216041   0.181   1.034   2.438
 5048SOL     OW16042   6.723   2.639   1.638
 5048SOL    HW116043   6.625   2.624   1.647
 5048SOL    HW216044   6.756   2.595   1.554
 5049SOL     OW16045   0.837   2.286   1.942
 5049SOL    HW116046   0.836   2.207   1.880
 5049SOL    HW216047   0.886   2.263   2.026
 5050SOL     OW16048   0.607   3.087   1.593
 5050SOL    HW116049   0.637   3.155   1.660
 5050SOL    HW216050   0.569   3.007   1.640
 5051SOL     OW16051   2.792   4.724   0.587
 5051SOL    HW116052   2.783   4.803   0.527
 5051SOL    HW216053   2.764   4.749   0.680
 5052SOL     OW16054   5.553   4.557   1.251
 5052SOL    HW116055   5.466   4.567   1.300
 5052SOL    HW216056   5.627   4.592   1.309
 5053SOL     OW16057   2.474   3.766   0.939
 5053SOL    HW116058   2.386   3.803   0.968
 5053SOL    HW216059   2.544   3.837   0.946
 5054SOL     OW16060   3.795   5.712   5.433
 5054SOL    HW116061   3.889   5.740   5.410
 5054SOL    HW216062   3.745   5.694   5.348
 5055SOL     OW16063   0.835   1.431   5.377
 5055SOL    HW116064   0.778   1.353   5.352
 5055SOL    HW216065   0.836   1.442   5.476
 5056SOL     OW16066   0.573   3.371   5.764
 5056SOL    HW116067   0.604   3.277   5.750
 5056SOL    HW216068   0.650   3.428   5.794
 5057SOL     OW16069   6.795   5.851   3.384
 5057SOL    HW116070   6.722   5.835   3.451
 5057SOL    HW216071   6.788   5.782   3.311
 5058SOL     OW16072   4.724   4.675   5.848
 5058SOL    HW116073   4.781   4.743   5.895
 5058SOL    HW216074   4.763   4.584   5.864
 5059SOL     OW16075   3.370   1.942   4.371
 5059SOL    HW116076   3.321   2.029   4.373
 5059SOL    HW216077   3.305   1.868   4.357
 5060SOL     OW16078   0.621   2.734   5.303
 5060SOL    HW116079   0.603   2.762   5.209
 5060SOL    HW216080   0.614   2.634   5.309
 5061SOL     OW16081   3.750   2.929   4.863
 5061SOL    HW116082   3.803   2.848   4.886
 5061SOL    HW216083   3.702   2.962   4.944
 5062SOL     OW16084   4.657   0.877   3.027
 5062SOL    HW116085   4.702   0.963   3.002
 5062SOL    HW216086   4.559   0.884   3.007
 5063SOL     OW16087   1.111   6.901   2.542
 5063SOL    HW116088   1.085   6.854   2.626
 5063SOL    HW216089   1.207   6.930   2.548
 5064SOL     OW16090   4.717   5.431   0.479
 5064SOL    HW116091   4.790   5.398   0.538
 5064SOL    HW216092   4.747   5.428   0.384
 5065SOL     OW16093   2.531   0.247   3.299
 5065SOL    HW116094   2.512   0.177   3.369
 5065SOL    HW216095   2.502   0.336   3.333
 5066SOL     OW16096   2.360   4.272   1.597
 5066SOL    HW116097   2.391   4.261   1.691
 5066SOL    HW216098   2.414   4.342   1.551
 5067SOL     OW16099   4.167   3.067   1.572
 5067SOL    HW116100   4.103   3.003   1.614
 5067SOL    HW216101   4.218   3.115   1.644
 5068SOL     OW16102   3.149   6.130   0.492
 5068SOL    HW116103   3.055   6.145   0.521
 5068SOL    HW216104   3.150   6.085   0.403
 5069SOL     OW16105   3.213   4.587   6.159
 5069SOL    HW116106   3.295   4.566   6.106
 5069SOL    HW216107   3.231   4.571   6.256
 5070SOL     OW16108   6.264   3.328   3.724
 5070SOL    HW116109   6.333   3.263   3.753
 5070SOL    HW216110   6.209   3.356   3.803
 5071SOL     OW16111   3.437   1.185   3.854
 5071SOL    HW116112   3.426   1.089   3.829
 5071SOL    HW216113   3.422   1.242   3.773
 5072SOL     OW16114   1.596   0.962   1.066
 5072SOL    HW116115   1.512   0.917   1.034
 5072SOL    HW216116   1.574   1.019   1.145
 5073SOL     OW16117   2.574   6.595   2.328
 5073SOL    HW116118   2.480   6.574   2.354
 5073SOL    HW216119   2.581   6.692   2.305
 5074SOL     OW16120   3.685   2.116   1.661
 5074SOL    HW116121   3.682   2.024   1.700
 5074SOL    HW216122   3.650   2.181   1.728
 5075SOL     OW16123   1.451   3.148   6.798
 5075SOL    HW116124   1.467   3.115   6.891
 5075SOL    HW216125   1.523   3.212   6.773
 5076SOL     OW16126   5.406   0.682   0.655
 5076SOL    HW116127   5.427   0.730   0.569
 5076SOL    HW216128   5.327   0.622   0.640
 5077SOL     OW16129   0.761   5.043   3.496
 5077SOL    HW116130   0.838   4.989   3.462
 5077SOL    HW216131   0.690   4.982   3.532
 5078SOL     OW16132   6.837   1.196   3.681
 5078SOL    HW116133   6.822   1.142   3.764
 5078SOL    HW216134   6.823   1.139   3.601
 5079SOL     OW16135   1.536   2.428   6.023
 5079SOL    HW116136   1.513   2.340   6.064
 5079SOL    HW216137   1.485   2.500   6.069
 5080SOL     OW16138   6.110   5.073   5.841
 5080SOL    HW116139   6.033   5.109   5.894
 5080SOL    HW216140   6.077   4.999   5.782
 5081SOL     OW16141   3.376   5.839   6.021
 5081SOL    HW116142   3.352   5.807   6.113
 5081SOL    HW216143   3.322   5.790   5.953
 5082SOL     OW16144   5.371   6.519   1.447
 5082SOL    HW116145   5.329   6.442   1.398
 5082SOL    HW216146   5.389   6.593   1.382
 5083SOL     OW16147   2.401   0.462   3.140
 5083SOL    HW116148   2.369   0.411   3.220
 5083SOL    HW216149   2.486   0.509   3.162
 5084SOL     OW16150   0.898   4.878   5.406
 5084SOL    HW116151   0.937   4.898   5.496
 5084SOL    HW216152   0.860   4.785   5.407
 5085SOL     OW16153   0.779   3.751   6.355
 5085SOL    HW116154   0.731   3.818   6.299
 5085SOL    HW216155   0.820   3.797   6.433
 5086SOL     OW16156   1.803   4.603   1.983
 5086SOL    HW116157   1.800   4.688   2.036
 5086SOL    HW216158   1.866   4.614   1.906
 5087SOL     OW16159   6.377   5.309   2.948
 5087SOL    HW116160   6.281   5.297   2.972
 5087SOL    HW216161   6.418   5.377   3.010
 5088SOL     OW16162   4.300   6.071   1.968
 5088SOL    HW116163   4.350   6.103   2.048
 5088SOL    HW216164   4.346   6.102   1.885
 5089SOL     OW16165   5.725   4.514   4.560
 5089SOL    HW116166   5.767   4.510   4.469
 5089SOL    HW216167   5.687   4.424   4.583
 5090SOL     OW16168   2.315   0.567   4.467
 5090SOL    HW116169   2.236   0.597   4.413
 5090SOL    HW216170   2.288   0.556   4.563
 5091SOL     OW16171   6.336   6.818   0.293
 5091SOL    HW116172   6.370   6.777   0.378
 5091SOL    HW216173   6.405   6.810   0.222
 5092SOL     OW16174   3.503   3.794   5.072
 5092SOL    HW116175   3.413   3.829   5.098
 5092SOL    HW216176   3.508   3.696   5.092
 5093SOL     OW16177   2.099   1.629   2.557
 5093SOL    HW116178   2.171   1.696   2.571
 5093SOL    HW216179   2.019   1.653   2.612
 5094SOL     OW16180   2.045   5.694   6.699
 5094SOL    HW116181   1.958   5.723   6.657
 5094SOL    HW216182   2.120   5.711   6.635
 5095SOL     OW16183   0.384   1.248   2.913
 5095SOL    HW116184   0.394   1.164   2.859
 5095SOL    HW216185   0.449   1.247   2.989
 5096SOL     OW16186   5.101   2.639   6.050
 5096SOL    HW116187   5.040   2.562   6.067
 5096SOL    HW216188   5.124   2.643   5.953
 5097SOL     OW16189   0.211   5.969   6.303
 5097SOL    HW116190   0.178   6.062   6.315
 5097SOL    HW216191   0.144   5.917   6.250
 5098SOL     OW16192   3.809   1.990   1.952
 5098SOL    HW116193   3.841   1.971   2.045
 5098SOL    HW216194   3.739   2.061   1.955
 5099SOL     OW16195   0.714   5.999   1.824
 5099SOL    HW116196   0.766   5.959   1.899
 5099SOL    HW216197   0.692   6.095   1.846
 5100SOL     OW16198   5.023   4.235   2.404
 5100SOL    HW116199   5.096   4.200   2.463
 5100SOL    HW216200   5.060   4.254   2.313
 5101SOL     OW16201   4.158   6.927   5.314
 5101SOL    HW116202   4.213   7.003   5.282
 5101SOL    HW216203   4.209   6.874   5.382
 5102SOL     OW16204   5.161   5.008   4.334
 5102SOL    HW116205   5.169   5.045   4.242
 5102SOL    HW216206   5.250   5.012   4.380
 5103SOL     OW16207   1.057   0.316   5.592
 5103SOL    HW116208   1.148   0.275   5.593
 5103SOL    HW216209   1.029   0.337   5.686
 5104SOL     OW16210   3.587   4.677   0.958
 5104SOL    HW116211   3.571   4.618   1.037
 5104SOL    HW216212   3.506   4.678   0.900
 5105SOL     OW16213   3.638   2.981   6.736
 5105SOL    HW116214   3.617   3.003   6.831
 5105SOL    HW216215   3.675   3.062   6.690
 5106SOL     OW16216   4.170   2.860   1.068
 5106SOL    HW116217   4.089   2.880   1.013
 5106SOL    HW216218   4.216   2.779   1.031
 5107SOL     OW16219   4.765   3.076   1.128
 5107SOL    HW116220   4.795   2.990   1.170
 5107SOL    HW216221   4.678   3.061   1.081
 5108SOL     OW16222   4.257   3.571   6.568
 5108SOL    HW116223   4.188   3.542   6.633
 5108SOL    HW216224   4.231   3.658   6.526
 5109SOL     OW16225   1.683   2.564   0.678
 5109SOL    HW116226   1.721   2.501   0.611
 5109SOL    HW216227   1.738   2.562   0.761
 5110SOL     OW16228   6.241   0.488   6.261
 5110SOL    HW116229   6.216   0.459   6.168
 5110SOL    HW216230   6.165   0.538   6.302
 5111SOL     OW16231   1.475   5.638   5.128
 5111SOL    HW116232   1.534   5.558   5.120
 5111SOL    HW216233   1.452   5.654   5.224
 5112SOL     OW16234   7.007   0.263   3.205
 5112SOL    HW116235   7.006   0.353   3.163
 5112SOL    HW216236   6.928   0.210   3.173
 5113SOL     OW16237   1.821   5.021   0.857
 5113SOL    HW116238   1.758   5.097   0.869
 5113SOL    HW216239   1.915   5.053   0.868
 5114SOL     OW16240   4.262   6.727   0.709
 5114SOL    HW116241   4.261   6.822   0.739
 5114SOL    HW216242   4.340   6.711   0.649
 5115SOL     OW16243   1.665   3.932   1.066
 5115SOL    HW116244   1.718   4.012   1.038
 5115SOL    HW216245   1.597   3.959   1.134
 5116SOL     OW16246   2.351   6.418   6.618
 5116SOL    HW116247   2.440   6.411   6.574
 5116SOL    HW216248   2.360   6.471   6.703
 5117SOL     OW16249   1.569   2.908   4.403
 5117SOL    HW116250   1.539   2.997   4.369
 5117SOL    HW216251   1.632   2.922   4.479
 5118SOL     OW16252   6.493   6.761   0.090
 5118SOL    HW116253   6.568   6.828   0.082
 5118SOL    HW216254   6.531   6.669   0.089
 5119SOL     OW16255   5.220   2.087   0.396
 5119SOL    HW116256   5.227   2.161   0.463
 5119SOL    HW216257   5.299   2.089   0.335
 5120SOL     OW16258   5.456   6.888   4.835
 5120SOL    HW116259   5.477   6.984   4.857
 5120SOL    HW216260   5.415   6.844   4.915
 5121SOL     OW16261   2.837   4.060   6.685
 5121SOL    HW116262   2.935   4.046   6.701
 5121SOL    HW216263   2.802   4.126   6.752
 5122SOL     OW16264   4.304   5.162   3.678
 5122SOL    HW116265   4.263   5.216   3.751
 5122SOL    HW216266   4.315   5.067   3.708
 5123SOL     OW16267   4.516   2.494   2.109
 5123SOL    HW116268   4.432   2.481   2.056
 5123SOL    HW216269   4.594   2.460   2.056
 5124SOL     OW16270   2.070   6.592   3.854
 5124SOL    HW116271   2.146   6.583   3.917
 5124SOL    HW216272   1.994   6.534   3.884
 5125SOL     OW16273   0.810   1.941   3.798
 5125SOL    HW116274   0.723   1.898   3.776
 5125SOL    HW216275   0.820   1.948   3.897
 5126SOL     OW16276   1.840   6.777   1.420
 5126SOL    HW116277   1.787   6.837   1.360
 5126SOL    HW216278   1.918   6.739   1.369
 5127SOL     OW16279   1.801   5.465   0.765
 5127SOL    HW116280   1.880   5.417   0.803
 5127SOL    HW216281   1.812   5.473   0.666
 5128SOL     OW16282   6.368   5.982   1.648
 5128SOL    HW116283   6.288   5.991   1.707
 5128SOL    HW216284   6.391   5.885   1.636
 5129SOL     OW16285   4.677   6.606   1.354
 5129SOL    HW116286   4.733   6.556   1.287
 5129SOL    HW216287   4.699   6.573   1.446
 5130SOL     OW16288   5.964   4.814   3.570
 5130SOL    HW116289   5.892   4.841   3.506
 5130SOL    HW216290   5.935   4.836   3.663
 5131SOL     OW16291   1.672   2.657   3.565
 5131SOL    HW116292   1.654   2.605   3.649
 5131SOL    HW216293   1.768   2.684   3.563
 5132SOL     OW16294   3.396   5.254   6.507
 5132SOL    HW116295   3.487   5.217   6.487
 5132SOL    HW216296   3.347   5.270   6.422
 5133SOL     OW16297   3.860   6.282   6.467
 5133SOL    HW116298   3.877   6.192   6.506
 5133SOL    HW216299   3.825   6.343   6.539
 5134SOL     OW16300   0.518   3.871   1.131
 5134SOL    HW116301   0.420   3.883   1.112
 5134SOL    HW216302   0.529   3.808   1.208
 5135SOL     OW16303   7.008   1.631   4.415
 5135SOL    HW116304   0.037   1.711   4.379
 5135SOL    HW216305   6.911   1.652   4.427
 5136SOL     OW16306   5.004   0.791   4.303
 5136SOL    HW116307   4.991   0.693   4.319
 5136SOL    HW216308   5.101   0.812   4.294
 5137SOL     OW16309   4.537   4.009   6.292
 5137SOL    HW116310   4.530   4.011   6.193
 5137SOL    HW216311   4.533   4.102   6.328
 5138SOL     OW16312   2.628   3.652   6.308
 5138SOL    HW116313   2.702   3.593   6.341
 5138SOL    HW216314   2.614   3.636   6.210
 5139SOL     OW16315   1.119   6.814   4.400
 5139SOL    HW116316   1.153   6.887   4.458
 5139SOL    HW216317   1.030   6.839   4.363
 5140SOL     OW16318   3.075   2.818   0.446
 5140SOL    HW116319   2.996   2.793   0.502
 5140SOL    HW216320   3.138   2.874   0.499
 5141SOL     OW16321   5.667   3.437   0.493
 5141SOL    HW116322   5.618   3.458   0.408
 5141SOL    HW216323   5.731   3.362   0.478
 5142SOL     OW16324   5.832   3.441   4.861
 5142SOL    HW116325   5.773   3.494   4.801
 5142SOL    HW216326   5.901   3.393   4.807
 5143SOL     OW16327   7.010   5.049   4.026
 5143SOL    HW116328   6.958   5.036   4.111
 5143SOL    HW216329   7.013   5.147   4.004
 5144SOL     OW16330   1.468   0.615   6.158
 5144SOL    HW116331   1.516   0.567   6.231
 5144SOL    HW216332   1.512   0.593   6.070
 5145SOL     OW16333   2.436   5.234   5.916
 5145SOL    HW116334   2.401   5.324   5.892
 5145SOL    HW216335   2.439   5.224   6.015
 5146SOL     OW16336   3.627   4.078   6.666
 5146SOL    HW116337   3.565   4.029   6.605
 5146SOL    HW216338   3.721   4.060   6.639
 5147SOL     OW16339   6.747   4.048   0.545
 5147SOL    HW116340   6.761   3.994   0.462
 5147SOL    HW216341   6.666   4.106   0.534
 5148SOL     OW16342   0.289   5.873   1.606
 5148SOL    HW116343   0.250   5.877   1.698
 5148SOL    HW216344   0.339   5.958   1.587
 5149SOL     OW16345   5.948   1.383   3.570
 5149SOL    HW116346   6.030   1.425   3.610
 5149SOL    HW216347   5.902   1.328   3.640
 5150SOL     OW16348   1.457   6.024   3.783
 5150SOL    HW116349   1.510   6.102   3.750
 5150SOL    HW216350   1.403   5.986   3.707
 5151SOL     OW16351   4.807   1.103   6.236
 5151SOL    HW116352   4.891   1.149   6.265
 5151SOL    HW216353   4.746   1.170   6.193
 5152SOL     OW16354   1.018   4.539   6.982
 5152SOL    HW116355   0.973   4.624   6.953
 5152SOL    HW216356   0.965   4.460   6.950
 5153SOL     OW16357   1.541   2.116   0.761
 5153SOL    HW116358   1.638   2.131   0.746
 5153SOL    HW216359   1.491   2.201   0.743
 5154SOL     OW16360   1.633   3.229   5.670
 5154SOL    HW116361   1.589   3.309   5.628
 5154SOL    HW216362   1.653   3.161   5.599
 5155SOL     OW16363   3.881   6.370   1.893
 5155SOL    HW116364   3.944   6.316   1.949
 5155SOL    HW216365   3.796   6.320   1.880
 5156SOL     OW16366   6.675   2.486   5.226
 5156SOL    HW116367   6.774   2.475   5.218
 5156SOL    HW216368   6.633   2.400   5.255
 5157SOL     OW16369   5.330   2.922   3.570
 5157SOL    HW116370   5.407   2.979   3.596
 5157SOL    HW216371   5.348   2.879   3.482
 5158SOL     OW16372   4.016   0.854   1.056
 5158SOL    HW116373   4.036   0.880   1.150
 5158SOL    HW216374   4.063   0.917   0.994
 5159SOL     OW16375   0.887   3.421   4.000
 5159SOL    HW116376   0.959   3.370   4.046
 5159SOL    HW216377   0.905   3.423   3.902
 5160SOL     OW16378   1.785   3.682   4.901
 5160SOL    HW116379   1.687   3.674   4.917
 5160SOL    HW216380   1.815   3.610   4.839
 5161SOL     OW16381   0.948   3.319   5.656
 5161SOL    HW116382   0.993   3.239   5.694
 5161SOL    HW216383   0.976   3.331   5.561
 5162SOL     OW16384   6.821   6.238   4.029
 5162SOL    HW116385   6.736   6.290   4.039
 5162SOL    HW216386   6.818   6.187   3.943
 5163SOL     OW16387   5.868   4.767   0.646
 5163SOL    HW116388   5.912   4.857   0.652
 5163SOL    HW216389   5.789   4.773   0.586
 5164SOL     OW16390   6.195   3.421   4.998
 5164SOL    HW116391   6.111   3.461   5.034
 5164SOL    HW216392   6.180   3.324   4.978
 5165SOL     OW16393   6.142   4.405   4.493
 5165SOL    HW116394   6.170   4.375   4.584
 5165SOL    HW216395   6.122   4.326   4.436
 5166SOL     OW16396   1.537   4.518   2.091
 5166SOL    HW116397   1.612   4.487   2.033
 5166SOL    HW216398   1.557   4.609   2.126
 5167SOL     OW16399   0.024   6.574   6.005
 5167SOL    HW116400   6.987   6.630   6.068
 5167SOL    HW216401   0.119   6.572   6.037
 5168SOL     OW16402   4.120   2.185   2.944
 5168SOL    HW116403   4.171   2.255   2.994
 5168SOL    HW216404   4.182   2.111   2.919
 5169SOL     OW16405   3.383   3.739   6.181
 5169SOL    HW116406   3.348   3.772   6.269
 5169SOL    HW216407   3.330   3.781   6.107
 5170SOL     OW16408   6.394   4.581   4.479
 5170SOL    HW116409   6.322   4.512   4.483
 5170SOL    HW216410   6.403   4.625   4.569
 5171SOL     OW16411   2.063   4.991   4.483
 5171SOL    HW116412   2.098   5.076   4.522
 5171SOL    HW216413   2.037   4.928   4.557
 5172SOL     OW16414   0.551   4.635   2.368
 5172SOL    HW116415   0.632   4.590   2.407
 5172SOL    HW216416   0.517   4.703   2.432
 5173SOL     OW16417   5.224   3.095   6.234
 5173SOL    HW116418   5.280   3.031   6.287
 5173SOL    HW216419   5.231   3.187   6.274
 5174SOL     OW16420   1.560   4.713   5.867
 5174SOL    HW116421   1.633   4.724   5.800
 5174SOL    HW216422   1.472   4.709   5.820
 5175SOL     OW16423   1.436   4.413   0.364
 5175SOL    HW116424   1.355   4.465   0.389
 5175SOL    HW216425   1.421   4.316   0.381
 5176SOL     OW16426   3.813   3.691   0.932
 5176SOL    HW116427   3.884   3.627   0.962
 5176SOL    HW216428   3.835   3.783   0.966
 5177SOL     OW16429   4.640   6.372   6.048
 5177SOL    HW116430   4.681   6.344   5.961
 5177SOL    HW216431   4.561   6.313   6.068
 5178SOL     OW16432   2.993   2.792   1.544
 5178SOL    HW116433   3.039   2.728   1.482
 5178SOL    HW216434   2.907   2.752   1.576
 5179SOL     OW16435   3.444   6.366   5.763
 5179SOL    HW116436   3.385   6.338   5.839
 5179SOL    HW216437   3.536   6.383   5.797
 5180SOL     OW16438   3.307   1.919   0.483
 5180SOL    HW116439   3.308   2.012   0.521
 5180SOL    HW216440   3.328   1.853   0.555
 5181SOL     OW16441   4.393   7.000   2.841
 5181SOL    HW116442   4.341   0.064   2.864
 5181SOL    HW216443   4.331   6.930   2.808
 5182SOL     OW16444   5.820   4.284   2.040
 5182SOL    HW116445   5.914   4.275   2.010
 5182SOL    HW216446   5.790   4.199   2.083
 5183SOL     OW16447   4.328   6.708   2.147
 5183SOL    HW116448   4.324   6.785   2.083
 5183SOL    HW216449   4.419   6.703   2.189
 5184SOL     OW16450   1.061   1.079   3.171
 5184SOL    HW116451   1.129   1.103   3.101
 5184SOL    HW216452   1.103   1.018   3.237
 5185SOL     OW16453   3.606   6.957   2.447
 5185SOL    HW116454   3.587   6.983   2.352
 5185SOL    HW216455   3.705   6.947   2.459
 5186SOL     OW16456   6.778   4.271   1.198
 5186SOL    HW116457   6.767   4.173   1.213
 5186SOL    HW216458   6.819   4.287   1.108
 5187SOL     OW16459   6.121   1.935   3.337
 5187SOL    HW116460   6.078   1.931   3.427
 5187SOL    HW216461   6.142   1.843   3.305
 5188SOL     OW16462   0.749   4.550   6.183
 5188SOL    HW116463   0.746   4.526   6.086
 5188SOL    HW216464   0.741   4.466   6.238
 5189SOL     OW16465   4.729   4.981   6.361
 5189SOL    HW116466   4.795   4.913   6.328
 5189SOL    HW216467   4.667   4.938   6.427
 5190SOL     OW16468   1.047   2.343   3.864
 5190SOL    HW116469   1.122   2.331   3.800
 5190SOL    HW216470   0.960   2.336   3.815
 5191SOL     OW16471   3.527   1.479   1.929
 5191SOL    HW116472   3.567   1.426   1.855
 5191SOL    HW216473   3.586   1.557   1.950
 5192SOL     OW16474   5.552   5.969   2.376
 5192SOL    HW116475   5.643   6.003   2.352
 5192SOL    HW216476   5.550   5.870   2.363
 5193SOL     OW16477   4.953   3.993   4.126
 5193SOL    HW116478   4.928   4.079   4.083
 5193SOL    HW216479   4.871   3.941   4.148
 5194SOL     OW16480   5.652   0.736   6.136
 5194SOL    HW116481   5.691   0.720   6.227
 5194SOL    HW216482   5.605   0.653   6.106
 5195SOL     OW16483   6.398   6.634   5.309
 5195SOL    HW116484   6.343   6.552   5.327
 5195SOL    HW216485   6.419   6.680   5.395
 5196SOL     OW16486   0.665   4.236   1.901
 5196SOL    HW116487   0.640   4.218   1.806
 5196SOL    HW216488   0.764   4.248   1.907
 5197SOL     OW16489   2.566   6.203   4.814
 5197SOL    HW116490   2.592   6.112   4.845
 5197SOL    HW216491   2.486   6.197   4.754
 5198SOL     OW16492   3.681   6.366   5.119
 5198SOL    HW116493   3.600   6.422   5.101
 5198SOL    HW216494   3.714   6.384   5.211
 5199SOL     OW16495   2.138   5.607   1.591
 5199SOL    HW116496   2.171   5.687   1.541
 5199SOL    HW216497   2.200   5.590   1.668
 5200SOL     OW16498   0.385   1.315   4.979
 5200SOL    HW116499   0.484   1.314   4.999
 5200SOL    HW216500   0.354   1.222   4.962
 5201SOL     OW16501   5.152   4.709   3.650
 5201SOL    HW116502   5.156   4.692   3.552
 5201SOL    HW216503   5.201   4.637   3.699
 5202SOL     OW16504   3.974   2.995   6.180
 5202SOL    HW116505   3.953   3.018   6.275
 5202SOL    HW216506   3.945   3.071   6.121
 5203SOL     OW16507   1.839   0.579   0.610
 5203SOL    HW116508   1.798   0.646   0.549
 5203SOL    HW216509   1.936   0.567   0.587
 5204SOL     OW16510   3.301   1.086   6.786
 5204SOL    HW116511   3.323   1.179   6.815
 5204SOL    HW216512   3.301   1.026   6.866
 5205SOL     OW16513   0.034   5.816   1.094
 5205SOL    HW116514   0.072   5.902   1.060
 5205SOL    HW216515   6.970   5.793   1.043
 5206SOL     OW16516   0.686   4.595   5.166
 5206SOL    HW116517   0.660   4.667   5.231
 5206SOL    HW216518   0.691   4.507   5.213
 5207SOL     OW16519   0.361   0.986   4.944
 5207SOL    HW116520   0.460   0.994   4.928
 5207SOL    HW216521   0.344   0.917   5.014
 5208SOL     OW16522   4.473   2.395   0.832
 5208SOL    HW116523   4.404   2.323   0.843
 5208SOL    HW216524   4.564   2.356   0.850
 5209SOL     OW16525   4.468   5.847   2.934
 5209SOL    HW116526   4.567   5.859   2.938
 5209SOL    HW216527   4.443   5.761   2.977
 5210SOL     OW16528   5.189   4.318   0.505
 5210SOL    HW116529   5.286   4.295   0.518
 5210SOL    HW216530   5.141   4.311   0.593
 5211SOL     OW16531   4.638   2.611   4.058
 5211SOL    HW116532   4.628   2.629   4.156
 5211SOL    HW216533   4.548   2.610   4.015
 5212SOL     OW16534   0.737   3.300   1.026
 5212SOL    HW116535   0.797   3.221   1.031
 5212SOL    HW216536   0.666   3.284   0.957
 5213SOL     OW16537   4.105   3.493   2.403
 5213SOL    HW116538   4.074   3.547   2.481
 5213SOL    HW216539   4.114   3.397   2.431
 5214SOL     OW16540   5.680   3.730   6.146
 5214SOL    HW116541   5.682   3.688   6.055
 5214SOL    HW216542   5.688   3.829   6.137
 5215SOL     OW16543   0.040   3.963   4.887
 5215SOL    HW116544   6.999   3.920   4.956
 5215SOL    HW216545   7.004   3.982   4.805
 5216SOL     OW16546   5.625   4.860   0.512
 5216SOL    HW116547   5.622   4.888   0.608
 5216SOL    HW216548   5.533   4.867   0.473
 5217SOL     OW16549   4.039   5.927   3.676
 5217SOL    HW116550   4.024   5.832   3.647
 5217SOL    HW216551   4.076   5.927   3.769
 5218SOL     OW16552   0.692   0.438   0.767
 5218SOL    HW116553   0.710   0.509   0.835
 5218SOL    HW216554   0.777   0.395   0.739
 5219SOL     OW16555   2.306   2.394   4.902
 5219SOL    HW116556   2.329   2.478   4.854
 5219SOL    HW216557   2.379   2.371   4.966
 5220SOL     OW16558   1.656   4.283   3.495
 5220SOL    HW116559   1.737   4.272   3.437
 5220SOL    HW216560   1.681   4.264   3.590
 5221SOL     OW16561   6.516   0.542   1.489
 5221SOL    HW116562   6.522   0.445   1.512
 5221SOL    HW216563   6.420   0.570   1.484
 5222SOL     OW16564   4.751   4.824   1.693
 5222SOL    HW116565   4.824   4.822   1.626
 5222SOL    HW216566   4.669   4.779   1.657
 5223SOL     OW16567   0.397   3.351   1.302
 5223SOL    HW116568   0.402   3.297   1.218
 5223SOL    HW216569   0.489   3.366   1.338
 5224SOL     OW16570   0.634   2.003   4.341
 5224SOL    HW116571   0.578   1.932   4.300
 5224SOL    HW216572   0.651   1.981   4.437
 5225SOL     OW16573   0.600   1.573   4.967
 5225SOL    HW116574   0.538   1.500   4.936
 5225SOL    HW216575   0.630   1.553   5.060
 5226SOL     OW16576   6.879   6.440   3.741
 5226SOL    HW116577   6.815   6.374   3.703
 5226SOL    HW216578   6.919   6.404   3.825
 5227SOL     OW16579   0.206   2.573   4.814
 5227SOL    HW116580   0.204   2.555   4.912
 5227SOL    HW216581   0.116   2.607   4.784
 5228SOL     OW16582   1.901   2.837   5.815
 5228SOL    HW116583   1.899   2.784   5.899
 5228SOL    HW216584   1.837   2.799   5.749
 5229SOL     OW16585   4.530   0.974   6.186
 5229SOL    HW116586   4.448   1.027   6.206
 5229SOL    HW216587   4.609   1.034   6.182
 5230SOL     OW16588   0.049   0.291   2.094
 5230SOL    HW116589   6.987   0.241   2.127
 5230SOL    HW216590   0.068   0.367   2.156
 5231SOL     OW16591   6.205   1.754   2.200
 5231SOL    HW116592   6.287   1.760   2.257
 5231SOL    HW216593   6.124   1.770   2.257
 5232SOL     OW16594   1.998   3.229   5.651
 5232SOL    HW116595   2.016   3.137   5.618
 5232SOL    HW216596   1.926   3.271   5.596
 5233SOL     OW16597   2.968   0.603   2.806
 5233SOL    HW116598   2.927   0.626   2.718
 5233SOL    HW216599   3.039   0.534   2.792
 5234SOL     OW16600   2.009   2.401   1.268
 5234SOL    HW116601   1.926   2.419   1.320
 5234SOL    HW216602   2.008   2.307   1.234
 5235SOL     OW16603   2.550   1.551   1.222
 5235SOL    HW116604   2.623   1.598   1.272
 5235SOL    HW216605   2.578   1.535   1.128
 5236SOL     OW16606   3.454   5.588   2.088
 5236SOL    HW116607   3.372   5.569   2.142
 5236SOL    HW216608   3.466   5.687   2.079
 5237SOL     OW16609   1.767   2.382   4.197
 5237SOL    HW116610   1.818   2.454   4.150
 5237SOL    HW216611   1.790   2.383   4.294
 5238SOL     OW16612   1.193   6.207   2.621
 5238SOL    HW116613   1.158   6.176   2.533
 5238SOL    HW216614   1.206   6.306   2.618
 5239SOL     OW16615   2.695   3.864   1.098
 5239SOL    HW116616   2.709   3.772   1.137
 5239SOL    HW216617   2.750   3.930   1.148
 5240SOL     OW16618   2.477   3.655   5.721
 5240SOL    HW116619   2.576   3.665   5.707
 5240SOL    HW216620   2.442   3.586   5.658
 5241SOL     OW16621   0.710   5.759   2.356
 5241SOL    HW116622   0.656   5.784   2.275
 5241SOL    HW216623   0.751   5.841   2.395
 5242SOL     OW16624   5.008   0.805   0.141
 5242SOL    HW116625   4.945   0.736   0.176
 5242SOL    HW216626   4.956   0.878   0.097
 5243SOL     OW16627   1.822   6.649   2.038
 5243SOL    HW116628   1.895   6.714   2.020
 5243SOL    HW216629   1.827   6.573   1.972
 5244SOL     OW16630   4.398   3.277   0.336
 5244SOL    HW116631   4.436   3.243   0.250
 5244SOL    HW216632   4.377   3.200   0.397
 5245SOL     OW16633   3.600   3.996   1.129
 5245SOL    HW116634   3.672   3.979   1.197
 5245SOL    HW216635   3.540   4.069   1.161
 5246SOL     OW16636   5.652   3.072   1.180
 5246SOL    HW116637   5.588   3.087   1.254
 5246SOL    HW216638   5.733   3.024   1.215
 5247SOL     OW16639   4.137   1.787   6.051
 5247SOL    HW116640   4.126   1.697   6.091
 5247SOL    HW216641   4.224   1.827   6.082
 5248SOL     OW16642   6.362   1.683   3.514
 5248SOL    HW116643   6.436   1.750   3.525
 5248SOL    HW216644   6.304   1.710   3.437
 5249SOL     OW16645   0.674   4.897   6.442
 5249SOL    HW116646   0.605   4.908   6.371
 5249SOL    HW216647   0.688   4.984   6.489
 5250SOL     OW16648   2.174   5.940   1.062
 5250SOL    HW116649   2.217   5.996   0.992
 5250SOL    HW216650   2.213   5.961   1.151
 5251SOL     OW16651   0.628   4.638   0.941
 5251SOL    HW116652   0.655   4.553   0.896
 5251SOL    HW216653   0.529   4.651   0.930
 5252SOL     OW16654   4.032   0.037   2.762
 5252SOL    HW116655   4.059   7.000   2.683
 5252SOL    HW216656   4.113   0.066   2.811
 5253SOL     OW16657   5.986   4.623   4.424
 5253SOL    HW116658   6.031   4.542   4.460
 5253SOL    HW216659   5.913   4.596   4.361
 5254SOL     OW16660   5.990   0.332   2.767
 5254SOL    HW116661   6.047   0.252   2.788
 5254SOL    HW216662   6.024   0.377   2.685
 5255SOL     OW16663   6.413   1.322   4.920
 5255SOL    HW116664   6.413   1.315   4.821
 5255SOL    HW216665   6.506   1.305   4.955
 5256SOL     OW16666   5.778   0.849   3.051
 5256SOL    HW116667   5.740   0.939   3.032
 5256SOL    HW216668   5.784   0.836   3.150
 5257SOL     OW16669   4.485   0.888   5.921
 5257SOL    HW116670   4.415   0.822   5.946
 5257SOL    HW216671   4.520   0.933   6.004
 5258SOL     OW16672   4.724   2.103   2.237
 5258SOL    HW116673   4.660   2.027   2.228
 5258SOL    HW216674   4.762   2.103   2.330
 5259SOL     OW16675   5.100   5.321   2.953
 5259SOL    HW116676   5.014   5.370   2.966
 5259SOL    HW216677   5.083   5.237   2.901
 5260SOL     OW16678   2.537   0.727   0.651
 5260SOL    HW116679   2.507   0.818   0.622
 5260SOL    HW216680   2.520   0.662   0.577
 5261SOL     OW16681   6.450   4.588   0.056
 5261SOL    HW116682   6.470   4.659   0.123
 5261SOL    HW216683   6.510   4.509   0.072
 5262SOL     OW16684   2.702   0.935   2.572
 5262SOL    HW116685   2.721   1.016   2.628
 5262SOL    HW216686   2.779   0.918   2.511
 5263SOL     OW16687   1.942   0.810   3.607
 5263SOL    HW116688   1.870   0.767   3.662
 5263SOL    HW216689   1.900   0.873   3.541
 5264SOL     OW16690   0.029   2.364   1.702
 5264SOL    HW116691   0.032   2.273   1.662
 5264SOL    HW216692   0.121   2.392   1.727
 5265SOL     OW16693   5.868   3.821   4.579
 5265SOL    HW116694   5.832   3.903   4.535
 5265SOL    HW216695   5.966   3.813   4.561
 5266SOL     OW16696   2.479   0.156   0.846
 5266SOL    HW116697   2.544   0.227   0.875
 5266SOL    HW216698   2.482   0.081   0.911
 5267SOL     OW16699   4.493   2.181   4.486
 5267SOL    HW116700   4.539   2.203   4.401
 5267SOL    HW216701   4.558   2.136   4.548
 5268SOL     OW16702   5.745   0.716   6.431
 5268SOL    HW116703   5.704   0.673   6.512
 5268SOL    HW216704   5.740   0.815   6.440
 5269SOL     OW16705   0.416   6.557   2.795
 5269SOL    HW116706   0.419   6.609   2.710
 5269SOL    HW216707   0.335   6.498   2.795
 5270SOL     OW16708   6.869   2.272   6.674
 5270SOL    HW116709   6.912   2.191   6.636
 5270SOL    HW216710   6.939   2.339   6.698
 5271SOL     OW16711   6.188   5.698   3.766
 5271SOL    HW116712   6.159   5.793   3.764
 5271SOL    HW216713   6.259   5.682   3.697
 5272SOL     OW16714   4.495   0.337   6.969
 5272SOL    HW116715   4.533   0.280   0.023
 5272SOL    HW216716   4.567   0.393   6.929
 5273SOL     OW16717   1.124   3.094   2.333
 5273SOL    HW116718   1.200   3.144   2.375
 5273SOL    HW216719   1.128   3.106   2.234
 5274SOL     OW16720   4.551   6.016   2.414
 5274SOL    HW116721   4.517   6.093   2.468
 5274SOL    HW216722   4.649   6.028   2.398
 5275SOL     OW16723   3.913   0.974   6.695
 5275SOL    HW116724   3.974   0.905   6.734
 5275SOL    HW216725   3.864   1.021   6.769
 5276SOL     OW16726   3.197   6.515   2.547
 5276SOL    HW116727   3.225   6.448   2.616
 5276SOL    HW216728   3.273   6.576   2.527
 5277SOL     OW16729   1.983   1.744   2.214
 5277SOL    HW116730   1.912   1.713   2.277
 5277SOL    HW216731   1.947   1.745   2.121
 5278SOL     OW16732   4.598   5.149   1.660
 5278SOL    HW116733   4.548   5.141   1.746
 5278SOL    HW216734   4.583   5.067   1.604
 5279SOL     OW16735   2.683   4.915   1.649
 5279SOL    HW116736   2.597   4.886   1.690
 5279SOL    HW216737   2.743   4.835   1.638
 5280SOL     OW16738   3.997   5.783   4.909
 5280SOL    HW116739   3.973   5.847   4.836
 5280SOL    HW216740   3.958   5.693   4.889
 5281SOL     OW16741   0.749   1.783   1.573
 5281SOL    HW116742   0.783   1.711   1.634
 5281SOL    HW216743   0.650   1.790   1.582
 5282SOL     OW16744   3.450   1.763   3.814
 5282SOL    HW116745   3.539   1.718   3.825
 5282SOL    HW216746   3.384   1.721   3.877
 5283SOL     OW16747   5.295   5.502   6.932
 5283SOL    HW116748   5.392   5.493   6.957
 5283SOL    HW216749   5.274   5.598   6.912
 5284SOL     OW16750   5.952   2.891   2.867
 5284SOL    HW116751   5.968   2.973   2.813
 5284SOL    HW216752   5.862   2.897   2.911
 5285SOL     OW16753   3.139   5.227   3.307
 5285SOL    HW116754   3.226   5.274   3.297
 5285SOL    HW216755   3.093   5.221   3.218
 5286SOL     OW16756   2.012   4.355   1.376
 5286SOL    HW116757   2.046   4.263   1.356
 5286SOL    HW216758   2.052   4.420   1.312
 5287SOL     OW16759   1.888   1.853   0.774
 5287SOL    HW116760   1.851   1.761   0.791
 5287SOL    HW216761   1.943   1.882   0.852
 5288SOL     OW16762   3.760   6.957   0.875
 5288SOL    HW116763   3.770   0.038   0.885
 5288SOL    HW216764   3.681   6.926   0.927
 5289SOL     OW16765   1.879   5.574   1.525
 5289SOL    HW116766   1.973   5.592   1.554
 5289SOL    HW216767   1.868   5.476   1.507
 5290SOL     OW16768   4.502   6.179   0.861
 5290SOL    HW116769   4.430   6.150   0.798
 5290SOL    HW216770   4.466   6.177   0.955
 5291SOL     OW16771   1.917   5.283   6.304
 5291SOL    HW116772   1.996   5.340   6.329
 5291SOL    HW216773   1.934   5.188   6.332
 5292SOL     OW16774   4.436   2.903   5.779
 5292SOL    HW116775   4.497   2.904   5.859
 5292SOL    HW216776   4.352   2.952   5.802
 5293SOL     OW16777   0.937   0.384   4.561
 5293SOL    HW116778   0.984   0.415   4.478
 5293SOL    HW216779   0.839   0.401   4.552
 5294SOL     OW16780   6.152   2.599   5.866
 5294SOL    HW116781   6.158   2.698   5.881
 5294SOL    HW216782   6.133   2.581   5.770
 5295SOL     OW16783   6.499   1.166   2.033
 5295SOL    HW116784   6.407   1.164   1.995
 5295SOL    HW216785   6.554   1.093   1.992
 5296SOL     OW16786   0.645   4.674   1.622
 5296SOL    HW116787   0.659   4.588   1.671
 5296SOL    HW216788   0.635   4.749   1.687
 5297SOL     OW16789   1.929   2.075   1.637
 5297SOL    HW116790   1.989   2.155   1.639
 5297SOL    HW216791   1.839   2.101   1.604
 5298SOL     OW16792   0.762   5.554   1.650
 5298SOL    HW116793   0.847   5.580   1.695
 5298SOL    HW216794   0.697   5.519   1.719
 5299SOL     OW16795   2.980   0.445   2.226
 5299SOL    HW116796   2.890   0.436   2.268
 5299SOL    HW216797   2.991   0.376   2.154
 5300SOL     OW16798   6.442   5.678   3.089
 5300SOL    HW116799   6.468   5.719   3.176
 5300SOL    HW216800   6.509   5.608   3.064
 5301SOL     OW16801   3.893   1.766   6.876
 5301SOL    HW116802   3.797   1.747   6.894
 5301SOL    HW216803   3.908   1.864   6.872
 5302SOL     OW16804   5.933   4.103   2.907
 5302SOL    HW116805   5.933   4.110   3.007
 5302SOL    HW216806   5.881   4.023   2.879
 5303SOL     OW16807   6.954   4.403   3.272
 5303SOL    HW116808   6.942   4.498   3.301
 5303SOL    HW216809   6.913   4.390   3.182
 5304SOL     OW16810   5.341   1.450   5.582
 5304SOL    HW116811   5.292   1.371   5.544
 5304SOL    HW216812   5.399   1.419   5.658
 5305SOL     OW16813   2.455   1.243   3.550
 5305SOL    HW116814   2.453   1.336   3.512
 5305SOL    HW216815   2.549   1.219   3.575
 5306SOL     OW16816   2.714   0.360   5.402
 5306SOL    HW116817   2.746   0.267   5.419
 5306SOL    HW216818   2.679   0.400   5.486
 5307SOL     OW16819   5.135   6.609   0.104
 5307SOL    HW116820   5.200   6.678   0.137
 5307SOL    HW216821   5.056   6.606   0.166
 5308SOL     OW16822   0.092   1.513   2.472
 5308SOL    HW116823   0.165   1.534   2.407
 5308SOL    HW216824   0.058   1.598   2.513
 5309SOL     OW16825   3.382   4.195   3.607
 5309SOL    HW116826   3.358   4.147   3.691
 5309SOL    HW216827   3.301   4.205   3.550
 5310SOL     OW16828   4.683   2.239   0.953
 5310SOL    HW116829   4.683   2.276   1.046
 5310SOL    HW216830   4.777   2.238   0.917
 5311SOL     OW16831   1.047   5.430   0.077
 5311SOL    HW116832   1.064   5.394   7.004
 5311SOL    HW216833   1.128   5.480   0.109
 5312SOL     OW16834   0.364   3.864   3.194
 5312SOL    HW116835   0.453   3.847   3.235
 5312SOL    HW216836   0.317   3.936   3.245
 5313SOL     OW16837   1.223   5.539   0.743
 5313SOL    HW116838   1.125   5.524   0.748
 5313SOL    HW216839   1.271   5.466   0.792
 5314SOL     OW16840   3.857   5.147   0.975
 5314SOL    HW116841   3.799   5.148   1.057
 5314SOL    HW216842   3.820   5.081   0.909
 5315SOL     OW16843   5.405   2.583   2.053
 5315SOL    HW116844   5.422   2.541   2.142
 5315SOL    HW216845   5.374   2.514   1.989
 5316SOL     OW16846   6.349   4.736   3.838
 5316SOL    HW116847   6.277   4.709   3.774
 5316SOL    HW216848   6.313   4.736   3.931
 5317SOL     OW16849   5.742   6.611   2.496
 5317SOL    HW116850   5.839   6.626   2.478
 5317SOL    HW216851   5.694   6.595   2.410
 5318SOL     OW16852   0.646   2.493   4.466
 5318SOL    HW116853   0.553   2.528   4.472
 5318SOL    HW216854   0.652   2.424   4.394
 5319SOL     OW16855   4.932   0.372   0.756
 5319SOL    HW116856   4.862   0.392   0.824
 5319SOL    HW216857   5.021   0.401   0.791
 5320SOL     OW16858   5.800   3.104   5.853
 5320SOL    HW116859   5.882   3.160   5.866
 5320SOL    HW216860   5.824   3.021   5.802
 5321SOL     OW16861   2.090   5.595   6.126
 5321SOL    HW116862   2.119   5.506   6.160
 5321SOL    HW216863   2.081   5.593   6.027
 5322SOL     OW16864   3.157   5.970   0.260
 5322SOL    HW116865   3.149   6.016   0.171
 5322SOL    HW216866   3.175   5.873   0.247
 5323SOL     OW16867   5.295   3.074   0.694
 5323SOL    HW116868   5.354   3.153   0.714
 5323SOL    HW216869   5.204   3.107   0.669
 5324SOL     OW16870   3.673   3.518   1.729
 5324SOL    HW116871   3.633   3.600   1.689
 5324SOL    HW216872   3.613   3.439   1.711
 5325SOL     OW16873   5.098   5.729   3.135
 5325SOL    HW116874   5.162   5.778   3.076
 5325SOL    HW216875   5.006   5.731   3.094
 5326SOL     OW16876   6.732   6.228   1.819
 5326SOL    HW116877   6.825   6.246   1.850
 5326SOL    HW216878   6.723   6.131   1.796
 5327SOL     OW16879   6.747   0.802   3.539
 5327SOL    HW116880   6.755   0.761   3.629
 5327SOL    HW216881   6.764   0.733   3.469
 5328SOL     OW16882   3.817   4.582   0.812
 5328SOL    HW116883   3.752   4.612   0.881
 5328SOL    HW216884   3.768   4.558   0.728
 5329SOL     OW16885   0.012   4.707   0.044
 5329SOL    HW116886   6.944   4.662   0.066
 5329SOL    HW216887   0.028   4.783   0.108
 5330SOL     OW16888   4.879   4.598   1.082
 5330SOL    HW116889   4.809   4.649   1.131
 5330SOL    HW216890   4.914   4.525   1.140
 5331SOL     OW16891   4.544   3.662   6.899
 5331SOL    HW116892   4.632   3.666   6.851
 5331SOL    HW216893   4.526   3.750   6.942
 5332SOL     OW16894   6.129   3.254   0.152
 5332SOL    HW116895   6.038   3.214   0.163
 5332SOL    HW216896   6.136   3.294   0.061
 5333SOL     OW16897   1.613   1.648   3.880
 5333SOL    HW116898   1.587   1.675   3.972
 5333SOL    HW216899   1.700   1.597   3.883
 5334SOL     OW16900   4.508   5.186   2.155
 5334SOL    HW116901   4.549   5.124   2.222
 5334SOL    HW216902   4.541   5.279   2.172
 5335SOL     OW16903   0.025   4.409   1.319
 5335SOL    HW116904   6.954   4.377   1.287
 5335SOL    HW216905   0.049   4.493   1.270
 5336SOL     OW16906   1.413   3.651   4.067
 5336SOL    HW116907   1.433   3.588   4.142
 5336SOL    HW216908   1.380   3.738   4.104
 5337SOL     OW16909   6.593   4.471   1.037
 5337SOL    HW116910   6.582   4.437   1.131
 5337SOL    HW216911   6.663   4.542   1.035
 5338SOL     OW16912   6.955   3.187   0.943
 5338SOL    HW116913   6.955   3.282   0.911
 5338SOL    HW216914   6.956   3.125   0.864
 5339SOL     OW16915   5.592   3.426   3.073
 5339SOL    HW116916   5.661   3.481   3.027
 5339SOL    HW216917   5.636   3.347   3.115
 5340SOL     OW16918   5.528   2.461   2.289
 5340SOL    HW116919   5.613   2.469   2.237
 5340SOL    HW216920   5.520   2.368   2.326
 5341SOL     OW16921   3.917   5.579   4.191
 5341SOL    HW116922   3.870   5.492   4.181
 5341SOL    HW216923   3.959   5.604   4.104
 5342SOL     OW16924   6.043   6.763   4.124
 5342SOL    HW116925   6.119   6.705   4.093
 5342SOL    HW216926   5.958   6.729   4.085
 5343SOL     OW16927   3.634   3.481   6.829
 5343SOL    HW116928   3.621   3.502   6.926
 5343SOL    HW216929   3.585   3.549   6.773
 5344SOL     OW16930   1.657   1.922   6.194
 5344SOL    HW116931   1.756   1.928   6.196
 5344SOL    HW216932   1.627   1.894   6.102
 5345SOL     OW16933   4.939   2.587   6.904
 5345SOL    HW116934   4.987   2.656   6.958
 5345SOL    HW216935   4.841   2.601   6.913
 5346SOL     OW16936   3.122   5.735   3.495
 5346SOL    HW116937   3.199   5.688   3.452
 5346SOL    HW216938   3.071   5.787   3.426
 5347SOL     OW16939   5.902   1.507   4.070
 5347SOL    HW116940   5.809   1.470   4.068
 5347SOL    HW216941   5.952   1.475   3.990
 5348SOL     OW16942   5.561   1.961   2.772
 5348SOL    HW116943   5.605   1.956   2.683
 5348SOL    HW216944   5.625   1.999   2.839
 5349SOL     OW16945   0.472   3.865   2.523
 5349SOL    HW116946   0.535   3.942   2.528
 5349SOL    HW216947   0.465   3.822   2.613
 5350SOL     OW16948   1.316   6.152   0.114
 5350SOL    HW116949   1.376   6.095   0.058
 5350SOL    HW216950   1.331   6.249   0.091
 5351SOL     OW16951   6.730   6.175   2.251
 5351SOL    HW116952   6.668   6.138   2.321
 5351SOL    HW216953   6.678   6.194   2.168
 5352SOL     OW16954   1.287   3.389   5.081
 5352SOL    HW116955   1.262   3.303   5.125
 5352SOL    HW216956   1.328   3.369   4.991
 5353SOL     OW16957   3.702   5.207   3.548
 5353SOL    HW116958   3.791   5.249   3.566
 5353SOL    HW216959   3.680   5.143   3.622
 5354SOL     OW16960   4.867   5.578   0.769
 5354SOL    HW116961   4.907   5.487   0.767
 5354SOL    HW216962   4.924   5.639   0.825
 5355SOL     OW16963   4.876   4.429   5.095
 5355SOL    HW116964   4.903   4.519   5.130
 5355SOL    HW216965   4.933   4.406   5.016
 5356SOL     OW16966   0.621   4.988   1.364
 5356SOL    HW116967   0.657   5.029   1.280
 5356SOL    HW216968   0.550   4.922   1.341
 5357SOL     OW16969   5.485   3.307   2.469
 5357SOL    HW116970   5.528   3.274   2.385
 5357SOL    HW216971   5.390   3.276   2.471
 5358SOL     OW16972   4.090   2.236   6.941
 5358SOL    HW116973   4.057   2.288   6.862
 5358SOL    HW216974   4.056   2.279   0.007
 5359SOL     OW16975   2.910   2.022   6.780
 5359SOL    HW116976   3.004   1.992   6.763
 5359SOL    HW216977   2.911   2.115   6.816
 5360SOL     OW16978   5.250   4.081   3.334
 5360SOL    HW116979   5.162   4.125   3.316
 5360SOL    HW216980   5.261   4.069   3.433
 5361SOL     OW16981   2.442   5.494   2.441
 5361SOL    HW116982   2.460   5.540   2.528
 5361SOL    HW216983   2.527   5.456   2.404
 5362SOL     OW16984   5.860   0.698   1.842
 5362SOL    HW116985   5.784   0.643   1.806
 5362SOL    HW216986   5.824   0.766   1.906
 5363SOL     OW16987   5.648   5.448   3.368
 5363SOL    HW116988   5.626   5.450   3.270
 5363SOL    HW216989   5.575   5.493   3.419
 5364SOL     OW16990   4.576   1.519   2.574
 5364SOL    HW116991   4.588   1.618   2.567
 5364SOL    HW216992   4.655   1.479   2.619
 5365SOL     OW16993   3.488   2.941   3.578
 5365SOL    HW116994   3.401   2.934   3.530
 5365SOL    HW216995   3.492   3.029   3.625
 5366SOL     OW16996   6.499   6.430   2.579
 5366SOL    HW116997   6.415   6.457   2.531
 5366SOL    HW216998   6.575   6.487   2.548
 5367SOL     OW16999   6.630   5.752   1.481
 5367SOL    HW117000   6.594   5.777   1.391
 5367SOL    HW217001   6.722   5.713   1.470
 5368SOL     OW17002   6.601   5.943   3.824
 5368SOL    HW117003   6.524   5.989   3.869
 5368SOL    HW217004   6.627   5.862   3.877
 5369SOL     OW17005   2.619   5.803   2.519
 5369SOL    HW117006   2.700   5.827   2.464
 5369SOL    HW217007   2.540   5.794   2.458
 5370SOL     OW17008   1.459   3.761   1.293
 5370SOL    HW117009   1.416   3.735   1.207
 5370SOL    HW217010   1.557   3.772   1.279
 5371SOL     OW17011   5.654   5.500   4.317
 5371SOL    HW117012   5.724   5.539   4.377
 5371SOL    HW217013   5.576   5.469   4.372
 5372SOL     OW17014   1.020   6.897   3.205
 5372SOL    HW117015   1.107   6.865   3.245
 5372SOL    HW217016   0.957   6.820   3.198
 5373SOL     OW17017   3.753   1.200   6.750
 5373SOL    HW117018   3.813   1.257   6.695
 5373SOL    HW217019   3.728   1.118   6.698
 5374SOL     OW17020   1.931   5.048   2.480
 5374SOL    HW117021   1.978   4.997   2.553
 5374SOL    HW217022   1.912   4.986   2.404
 5375SOL     OW17023   1.733   4.385   4.449
 5375SOL    HW117024   1.767   4.306   4.500
 5375SOL    HW217025   1.811   4.436   4.411
 5376SOL     OW17026   0.622   0.154   6.462
 5376SOL    HW117027   0.628   0.246   6.424
 5376SOL    HW217028   0.649   0.087   6.392
 5377SOL     OW17029   2.376   0.961   3.459
 5377SOL    HW117030   2.378   1.061   3.450
 5377SOL    HW217031   2.470   0.927   3.462
 5378SOL     OW17032   4.841   1.189   2.523
 5378SOL    HW117033   4.775   1.241   2.469
 5378SOL    HW217034   4.795   1.113   2.569
 5379SOL     OW17035   1.472   2.150   6.403
 5379SOL    HW117036   1.510   2.196   6.483
 5379SOL    HW217037   1.513   2.058   6.396
 5380SOL     OW17038   4.246   6.486   1.090
 5380SOL    HW117039   4.212   6.533   1.009
 5380SOL    HW217040   4.346   6.482   1.087
 5381SOL     OW17041   4.640   0.039   3.621
 5381SOL    HW117042   4.649   6.963   3.653
 5381SOL    HW217043   4.593   0.041   3.533
 5382SOL     OW17044   4.066   1.686   1.715
 5382SOL    HW117045   4.114   1.608   1.755
 5382SOL    HW217046   4.035   1.662   1.623
 5383SOL     OW17047   1.890   2.679   4.697
 5383SOL    HW117048   1.926   2.595   4.738
 5383SOL    HW217049   1.790   2.675   4.695
 5384SOL     OW17050   5.889   5.332   3.959
 5384SOL    HW117051   5.950   5.255   3.941
 5384SOL    HW217052   5.893   5.396   3.882
 5385SOL     OW17053   3.914   2.685   5.617
 5385SOL    HW117054   3.834   2.672   5.677
 5385SOL    HW217055   3.906   2.773   5.570
 5386SOL     OW17056   5.906   4.465   3.770
 5386SOL    HW117057   5.995   4.489   3.730
 5386SOL    HW217058   5.833   4.494   3.708
 5387SOL     OW17059   1.869   1.070   3.438
 5387SOL    HW117060   1.955   1.116   3.416
 5387SOL    HW217061   1.813   1.063   3.356
 5388SOL     OW17062   0.695   6.378   2.127
 5388SOL    HW117063   0.723   6.304   2.188
 5388SOL    HW217064   0.611   6.420   2.162
 5389SOL     OW17065   4.702   1.854   4.037
 5389SOL    HW117066   4.693   1.779   4.103
 5389SOL    HW217067   4.703   1.816   3.944
 5390SOL     OW17068   0.417   2.728   2.777
 5390SOL    HW117069   0.424   2.690   2.869
 5390SOL    HW217070   0.509   2.751   2.744
 5391SOL     OW17071   2.745   3.673   0.247
 5391SOL    HW117072   2.657   3.681   0.294
 5391SOL    HW217073   2.770   3.762   0.209
 5392SOL     OW17074   5.324   1.918   3.741
 5392SOL    HW117075   5.336   1.851   3.667
 5392SOL    HW217076   5.414   1.940   3.779
 5393SOL     OW17077   4.002   1.753   5.006
 5393SOL    HW117078   4.044   1.803   4.931
 5393SOL    HW217079   3.946   1.815   5.061
 5394SOL     OW17080   1.683   1.970   1.254
 5394SOL    HW117081   1.629   1.970   1.338
 5394SOL    HW217082   1.639   2.029   1.187
 5395SOL     OW17083   6.481   1.721   0.910
 5395SOL    HW117084   6.572   1.690   0.936
 5395SOL    HW217085   6.430   1.745   0.992
 5396SOL     OW17086   5.427   4.520   1.793
 5396SOL    HW117087   5.466   4.452   1.731
 5396SOL    HW217088   5.353   4.479   1.846
 5397SOL     OW17089   0.457   1.315   2.456
 5397SOL    HW117090   0.522   1.250   2.495
 5397SOL    HW217091   0.418   1.371   2.529
 5398SOL     OW17092   5.552   1.438   2.480
 5398SOL    HW117093   5.612   1.360   2.466
 5398SOL    HW217094   5.459   1.406   2.501
 5399SOL     OW17095   1.912   1.195   6.828
 5399SOL    HW117096   1.928   1.117   6.889
 5399SOL    HW217097   1.937   1.280   6.875
 5400SOL     OW17098   4.409   3.548   1.695
 5400SOL    HW117099   4.488   3.597   1.657
 5400SOL    HW217100   4.325   3.594   1.668
 5401SOL     OW17101   5.662   3.339   1.084
 5401SOL    HW117102   5.621   3.359   0.995
 5401SOL    HW217103   5.622   3.256   1.122
 5402SOL     OW17104   1.067   6.333   1.854
 5402SOL    HW117105   1.000   6.309   1.784
 5402SOL    HW217106   1.158   6.340   1.813
 5403SOL     OW17107   4.561   3.217   0.131
 5403SOL    HW117108   4.607   3.181   0.050
 5403SOL    HW217109   4.544   3.315   0.119
 5404SOL     OW17110   6.571   1.134   0.516
 5404SOL    HW117111   6.560   1.233   0.509
 5404SOL    HW217112   6.605   1.111   0.607
 5405SOL     OW17113   6.529   5.308   6.909
 5405SOL    HW117114   6.528   5.231   6.972
 5405SOL    HW217115   6.494   5.278   6.820
 5406SOL     OW17116   2.557   0.615   5.644
 5406SOL    HW117117   2.593   0.548   5.709
 5406SOL    HW217118   2.631   0.648   5.586
 5407SOL     OW17119   2.117   0.300   2.985
 5407SOL    HW117120   2.075   0.342   3.065
 5407SOL    HW217121   2.213   0.281   3.005
 5408SOL     OW17122   3.555   2.150   4.197
 5408SOL    HW117123   3.510   2.105   4.274
 5408SOL    HW217124   3.488   2.166   4.124
 5409SOL     OW17125   0.816   2.738   1.273
 5409SOL    HW117126   0.717   2.720   1.272
 5409SOL    HW217127   0.840   2.785   1.358
 5410SOL     OW17128   0.907   2.244   0.770
 5410SOL    HW117129   0.852   2.199   0.841
 5410SOL    HW217130   0.884   2.205   0.680
 5411SOL     OW17131   3.085   5.291   6.857
 5411SOL    HW117132   3.144   5.213   6.835
 5411SOL    HW217133   3.074   5.298   6.956
 5412SOL     OW17134   0.244   2.002   6.123
 5412SOL    HW117135   0.259   2.092   6.082
 5412SOL    HW217136   0.198   1.944   6.056
 5413SOL     OW17137   6.532   6.118   4.677
 5413SOL    HW117138   6.464   6.191   4.670
 5413SOL    HW217139   6.558   6.107   4.773
 5414SOL     OW17140   5.496   3.974   5.594
 5414SOL    HW117141   5.569   3.907   5.603
 5414SOL    HW217142   5.414   3.940   5.640
 5415SOL     OW17143   4.590   0.830   0.264
 5415SOL    HW117144   4.640   0.862   0.345
 5415SOL    HW217145   4.655   0.792   0.198
 5416SOL     OW17146   3.431   6.147   6.438
 5416SOL    HW117147   3.513   6.187   6.395
 5416SOL    HW217148   3.405   6.065   6.388
 5417SOL     OW17149   4.124   6.789   4.241
 5417SOL    HW117150   4.082   6.856   4.181
 5417SOL    HW217151   4.148   6.707   4.187
 5418SOL     OW17152   6.466   3.115   4.321
 5418SOL    HW117153   6.516   3.033   4.349
 5418SOL    HW217154   6.423   3.157   4.401
 5419SOL     OW17155   5.069   6.614   6.531
 5419SOL    HW117156   5.088   6.537   6.591
 5419SOL    HW217157   5.084   6.587   6.436
 5420SOL     OW17158   0.952   1.068   1.835
 5420SOL    HW117159   0.953   1.114   1.924
 5420SOL    HW217160   1.035   1.012   1.825
 5421SOL     OW17161   4.139   4.796   2.156
 5421SOL    HW117162   4.199   4.875   2.141
 5421SOL    HW217163   4.194   4.715   2.177
 5422SOL     OW17164   3.249   5.241   3.785
 5422SOL    HW117165   3.260   5.190   3.870
 5422SOL    HW217166   3.298   5.328   3.792
 5423SOL     OW17167   5.240   6.141   1.639
 5423SOL    HW117168   5.323   6.117   1.689
 5423SOL    HW217169   5.264   6.181   1.551
 5424SOL     OW17170   4.164   4.059   5.491
 5424SOL    HW117171   4.182   4.038   5.588
 5424SOL    HW217172   4.195   3.982   5.435
 5425SOL     OW17173   1.560   4.179   5.687
 5425SOL    HW117174   1.592   4.186   5.592
 5425SOL    HW217175   1.484   4.243   5.701
 5426SOL     OW17176   6.010   5.112   1.365
 5426SOL    HW117177   6.102   5.127   1.328
 5426SOL    HW217178   6.009   5.132   1.463
 5427SOL     OW17179   4.733   2.384   6.265
 5427SOL    HW117180   4.680   2.459   6.303
 5427SOL    HW217181   4.677   2.301   6.265
 5428SOL     OW17182   6.030   5.744   2.667
 5428SOL    HW117183   6.063   5.783   2.753
 5428SOL    HW217184   6.001   5.650   2.682
 5429SOL     OW17185   3.666   0.597   4.895
 5429SOL    HW117186   3.696   0.543   4.973
 5429SOL    HW217187   3.583   0.557   4.856
 5430SOL     OW17188   2.611   3.962   5.542
 5430SOL    HW117189   2.637   3.942   5.637
 5430SOL    HW217190   2.575   3.880   5.500
 5431SOL     OW17191   3.343   4.321   0.058
 5431SOL    HW117192   3.364   4.276   0.145
 5431SOL    HW217193   3.369   4.260   7.001
 5432SOL     OW17194   0.030   5.460   0.045
 5432SOL    HW117195   0.039   5.531   0.115
 5432SOL    HW217196   6.951   5.443   0.028
 5433SOL     OW17197   1.983   0.545   1.685
 5433SOL    HW117198   2.013   0.637   1.711
 5433SOL    HW217199   1.884   0.545   1.670
 5434SOL     OW17200   5.801   0.205   5.328
 5434SOL    HW117201   5.842   0.149   5.256
 5434SOL    HW217202   5.794   0.300   5.296
 5435SOL     OW17203   6.844   4.751   0.558
 5435SOL    HW117204   6.811   4.772   0.651
 5435SOL    HW217205   6.924   4.807   0.538
 5436SOL     OW17206   1.225   4.904   2.640
 5436SOL    HW117207   1.266   4.840   2.575
 5436SOL    HW217208   1.187   4.982   2.590
 5437SOL     OW17209   3.636   5.482   1.434
 5437SOL    HW117210   3.652   5.579   1.449
 5437SOL    HW217211   3.539   5.465   1.417
 5438SOL     OW17212   4.144   6.079   2.586
 5438SOL    HW117213   4.173   6.070   2.491
 5438SOL    HW217214   4.216   6.125   2.638
 5439SOL     OW17215   1.214   4.905   2.032
 5439SOL    HW117216   1.157   4.976   1.991
 5439SOL    HW217217   1.181   4.815   2.004
 5440SOL     OW17218   6.219   6.629   3.405
 5440SOL    HW117219   6.202   6.627   3.503
 5440SOL    HW217220   6.249   6.539   3.374
 5441SOL     OW17221   5.988   3.251   3.893
 5441SOL    HW117222   6.036   3.329   3.933
 5441SOL    HW217223   6.037   3.167   3.914
 5442SOL     OW17224   4.156   0.273   5.809
 5442SOL    HW117225   4.237   0.321   5.777
 5442SOL    HW217226   4.139   0.298   5.905
 5443SOL     OW17227   4.398   0.952   3.566
 5443SOL    HW117228   4.487   0.910   3.546
 5443SOL    HW217229   4.353   0.901   3.639
 5444SOL     OW17230   6.375   1.060   4.770
 5444SOL    HW117231   6.388   1.032   4.865
 5444SOL    HW217232   6.293   1.017   4.733
 5445SOL     OW17233   5.836   5.846   4.033
 5445SOL    HW117234   5.841   5.934   3.987
 5445SOL    HW217235   5.781   5.854   4.116
 5446SOL     OW17236   0.108   4.530   6.005
 5446SOL    HW117237   0.203   4.519   6.035
 5446SOL    HW217238   0.057   4.446   6.025
 5447SOL     OW17239   1.195   2.302   0.846
 5447SOL    HW117240   1.129   2.268   0.779
 5447SOL    HW217241   1.287   2.298   0.808
 5448SOL     OW17242   4.016   5.249   3.076
 5448SOL    HW117243   4.091   5.198   3.117
 5448SOL    HW217244   3.935   5.242   3.135
 5449SOL     OW17245   3.269   1.512   1.845
 5449SOL    HW117246   3.214   1.573   1.902
 5449SOL    HW217247   3.360   1.502   1.884
 5450SOL     OW17248   3.825   5.877   1.672
 5450SOL    HW117249   3.870   5.790   1.650
 5450SOL    HW217250   3.851   5.946   1.604
 5451SOL     OW17251   0.079   6.948   2.696
 5451SOL    HW117252   0.001   6.909   2.648
 5451SOL    HW217253   0.049   0.009   2.750
 5452SOL     OW17254   2.430   4.262   1.844
 5452SOL    HW117255   2.336   4.269   1.877
 5452SOL    HW217256   2.491   4.310   1.908
 5453SOL     OW17257   5.755   3.846   2.776
 5453SOL    HW117258   5.700   3.865   2.695
 5453SOL    HW217259   5.705   3.876   2.858
 5454SOL     OW17260   5.607   4.692   2.268
 5454SOL    HW117261   5.645   4.625   2.204
 5454SOL    HW217262   5.513   4.665   2.291
 5455SOL     OW17263   1.583   1.930   3.925
 5455SOL    HW117264   1.664   1.946   3.981
 5455SOL    HW217265   1.605   1.864   3.853
 5456SOL     OW17266   5.777   1.452   0.861
 5456SOL    HW117267   5.790   1.550   0.849
 5456SOL    HW217268   5.839   1.402   0.800
 5457SOL     OW17269   5.535   1.452   6.772
 5457SOL    HW117270   5.494   1.421   6.858
 5457SOL    HW217271   5.486   1.532   6.737
 5458SOL     OW17272   6.245   3.831   6.989
 5458SOL    HW117273   6.308   3.767   6.944
 5458SOL    HW217274   6.293   3.917   7.006
 5459SOL     OW17275   1.879   3.408   5.431
 5459SOL    HW117276   1.866   3.363   5.343
 5459SOL    HW217277   1.960   3.466   5.427
 5460SOL     OW17278   1.242   1.119   1.291
 5460SOL    HW117279   1.236   1.219   1.293
 5460SOL    HW217280   1.208   1.085   1.203
 5461SOL     OW17281   6.636   1.243   5.072
 5461SOL    HW117282   6.598   1.151   5.069
 5461SOL    HW217283   6.725   1.244   5.027
 5462SOL     OW17284   4.897   4.465   5.862
 5462SOL    HW117285   4.864   4.370   5.865
 5462SOL    HW217286   4.996   4.465   5.849
 5463SOL     OW17287   1.393   3.172   0.223
 5463SOL    HW117288   1.341   3.154   0.307
 5463SOL    HW217289   1.343   3.134   0.145
 5464SOL     OW17290   0.748   6.043   5.914
 5464SOL    HW117291   0.769   6.003   5.824
 5464SOL    HW217292   0.829   6.036   5.973
 5465SOL     OW17293   6.269   6.289   3.518
 5465SOL    HW117294   6.180   6.291   3.472
 5465SOL    HW217295   6.298   6.195   3.533
 5466SOL     OW17296   6.015   2.507   5.344
 5466SOL    HW117297   6.081   2.469   5.410
 5466SOL    HW217298   5.942   2.441   5.329
 5467SOL     OW17299   4.835   2.876   4.405
 5467SOL    HW117300   4.818   2.918   4.494
 5467SOL    HW217301   4.864   2.946   4.340
 5468SOL     OW17302   0.174   1.911   1.431
 5468SOL    HW117303   0.195   1.826   1.479
 5468SOL    HW217304   0.199   1.901   1.334
 5469SOL     OW17305   3.177   0.435   5.303
 5469SOL    HW117306   3.174   0.535   5.307
 5469SOL    HW217307   3.180   0.398   5.396
 5470SOL     OW17308   3.668   5.689   3.281
 5470SOL    HW117309   3.721   5.616   3.240
 5470SOL    HW217310   3.652   5.668   3.378
 5471SOL     OW17311   4.713   1.009   3.380
 5471SOL    HW117312   4.703   1.063   3.296
 5471SOL    HW217313   4.694   0.913   3.360
 5472SOL     OW17314   2.518   2.153   6.640
 5472SOL    HW117315   2.454   2.141   6.565
 5472SOL    HW217316   2.500   2.240   6.686
 5473SOL     OW17317   2.694   4.224   1.521
 5473SOL    HW117318   2.670   4.136   1.563
 5473SOL    HW217319   2.787   4.249   1.550
 5474SOL     OW17320   1.282   5.754   3.356
 5474SOL    HW117321   1.332   5.689   3.298
 5474SOL    HW217322   1.243   5.705   3.434
 5475SOL     OW17323   6.871   1.674   5.325
 5475SOL    HW117324   6.914   1.584   5.330
 5475SOL    HW217325   6.869   1.705   5.230
 5476SOL     OW17326   2.813   6.819   5.673
 5476SOL    HW117327   2.899   6.828   5.723
 5476SOL    HW217328   2.774   6.909   5.657
 5477SOL     OW17329   1.696   4.571   4.143
 5477SOL    HW117330   1.657   4.552   4.053
 5477SOL    HW217331   1.630   4.545   4.214
 5478SOL     OW17332   5.714   4.282   5.273
 5478SOL    HW117333   5.781   4.258   5.344
 5478SOL    HW217334   5.622   4.275   5.311
 5479SOL     OW17335   3.558   1.221   4.905
 5479SOL    HW117336   3.533   1.312   4.872
 5479SOL    HW217337   3.525   1.210   4.999
 5480SOL     OW17338   0.384   3.859   4.376
 5480SOL    HW117339   0.420   3.765   4.375
 5480SOL    HW217340   0.359   3.885   4.282
 5481SOL     OW17341   4.488   0.953   6.744
 5481SOL    HW117342   4.517   0.910   6.659
 5481SOL    HW217343   4.481   0.885   6.816
 5482SOL     OW17344   4.732   3.193   0.733
 5482SOL    HW117345   4.782   3.132   0.794
 5482SOL    HW217346   4.702   3.142   0.652
 5483SOL     OW17347   0.271   3.162   5.473
 5483SOL    HW117348   0.278   3.130   5.568
 5483SOL    HW217349   0.362   3.183   5.438
 5484SOL     OW17350   5.882   6.124   4.006
 5484SOL    HW117351   5.968   6.143   4.054
 5484SOL    HW217352   5.888   6.157   3.912
 5485SOL     OW17353   3.548   6.991   5.641
 5485SOL    HW117354   3.475   0.042   5.646
 5485SOL    HW217355   3.625   0.011   5.589
 5486SOL     OW17356   0.705   0.729   3.494
 5486SOL    HW117357   0.615   0.753   3.531
 5486SOL    HW217358   0.771   0.720   3.569
 5487SOL     OW17359   5.829   4.758   0.261
 5487SOL    HW117360   5.860   4.693   0.192
 5487SOL    HW217361   5.752   4.719   0.311
 5488SOL     OW17362   5.056   2.011   6.518
 5488SOL    HW117363   5.039   2.038   6.613
 5488SOL    HW217364   5.018   2.080   6.456
 5489SOL     OW17365   1.575   4.643   2.903
 5489SOL    HW117366   1.596   4.558   2.950
 5489SOL    HW217367   1.642   4.713   2.930
 5490SOL     OW17368   2.228   1.615   1.019
 5490SOL    HW117369   2.175   1.623   0.934
 5490SOL    HW217370   2.325   1.626   0.998
 5491SOL     OW17371   0.959   4.776   0.918
 5491SOL    HW117372   0.960   4.847   0.847
 5491SOL    HW217373   0.954   4.820   1.008
 5492SOL     OW17374   0.852   1.037   6.365
 5492SOL    HW117375   0.789   1.110   6.391
 5492SOL    HW217376   0.815   0.988   6.286
 5493SOL     OW17377   3.747   3.868   6.853
 5493SOL    HW117378   3.776   3.871   6.949
 5493SOL    HW217379   3.776   3.951   6.807
 5494SOL     OW17380   5.475   3.231   1.373
 5494SOL    HW117381   5.413   3.305   1.397
 5494SOL    HW217382   5.556   3.234   1.432
 5495SOL     OW17383   3.677   3.384   2.636
 5495SOL    HW117384   3.639   3.292   2.644
 5495SOL    HW217385   3.648   3.438   2.715
 5496SOL     OW17386   3.708   6.236   1.434
 5496SOL    HW117387   3.700   6.221   1.336
 5496SOL    HW217388   3.618   6.236   1.476
 5497SOL     OW17389   6.901   0.857   1.898
 5497SOL    HW117390   6.923   0.951   1.926
 5497SOL    HW217391   6.975   0.822   1.840
 5498SOL     OW17392   4.478   1.512   5.580
 5498SOL    HW117393   4.533   1.514   5.663
 5498SOL    HW217394   4.436   1.422   5.569
 5499SOL     OW17395   0.056   1.603   3.036
 5499SOL    HW117396   6.976   1.602   3.015
 5499SOL    HW217397   0.107   1.568   2.958
 5500SOL     OW17398   1.910   5.961   1.186
 5500SOL    HW117399   1.963   5.961   1.102
 5500SOL    HW217400   1.898   5.867   1.218
 5501SOL     OW17401   3.115   0.839   2.136
 5501SOL    HW117402   3.071   0.752   2.113
 5501SOL    HW217403   3.088   0.866   2.228
 5502SOL     OW17404   5.761   3.787   5.671
 5502SOL    HW117405   5.766   3.732   5.754
 5502SOL    HW217406   5.800   3.735   5.595
 5503SOL     OW17407   1.384   5.427   3.349
 5503SOL    HW117408   1.423   5.340   3.379
 5503SOL    HW217409   1.427   5.455   3.263
 5504SOL     OW17410   3.091   1.671   4.740
 5504SOL    HW117411   3.013   1.691   4.799
 5504SOL    HW217412   3.066   1.600   4.675
 5505SOL     OW17413   3.153   5.496   6.062
 5505SOL    HW117414   3.137   5.581   6.011
 5505SOL    HW217415   3.099   5.496   6.146
 5506SOL     OW17416   6.125   0.637   5.736
 5506SOL    HW117417   6.041   0.592   5.706
 5506SOL    HW217418   6.109   0.678   5.826
 5507SOL     OW17419   2.239   6.282   3.934
 5507SOL    HW117420   2.324   6.247   3.972
 5507SOL    HW217421   2.203   6.354   3.993
 5508SOL     OW17422   3.089   0.692   6.375
 5508SOL    HW117423   3.012   0.659   6.429
 5508SOL    HW217424   3.064   0.777   6.329
 5509SOL     OW17425   6.108   6.567   6.456
 5509SOL    HW117426   6.106   6.469   6.439
 5509SOL    HW217427   6.194   6.605   6.421
 5510SOL     OW17428   5.746   0.157   6.178
 5510SOL    HW117429   5.842   0.139   6.156
 5510SOL    HW217430   5.742   0.226   6.250
 5511SOL     OW17431   0.828   0.843   2.385
 5511SOL    HW117432   0.898   0.875   2.321
 5511SOL    HW217433   0.871   0.789   2.457
 5512SOL     OW17434   0.973   0.762   6.674
 5512SOL    HW117435   0.902   0.705   6.715
 5512SOL    HW217436   1.045   0.779   6.741
 5513SOL     OW17437   4.720   4.200   4.462
 5513SOL    HW117438   4.631   4.182   4.504
 5513SOL    HW217439   4.793   4.174   4.526
 5514SOL     OW17440   5.107   4.711   2.084
 5514SOL    HW117441   5.074   4.798   2.047
 5514SOL    HW217442   5.030   4.659   2.121
 5515SOL     OW17443   6.526   2.695   1.979
 5515SOL    HW117444   6.553   2.774   1.924
 5515SOL    HW217445   6.593   2.681   2.052
 5516SOL     OW17446   1.195   3.625   6.896
 5516SOL    HW117447   1.137   3.691   6.944
 5516SOL    HW217448   1.190   3.642   6.798
 5517SOL     OW17449   2.596   1.614   1.621
 5517SOL    HW117450   2.513   1.626   1.567
 5517SOL    HW217451   2.650   1.697   1.619
 5518SOL     OW17452   6.036   4.813   5.175
 5518SOL    HW117453   6.022   4.714   5.177
 5518SOL    HW217454   6.027   4.846   5.081
 5519SOL     OW17455   5.471   3.821   3.820
 5519SOL    HW117456   5.391   3.799   3.762
 5519SOL    HW217457   5.453   3.905   3.871
 5520SOL     OW17458   0.937   4.222   1.950
 5520SOL    HW117459   0.912   4.271   2.034
 5520SOL    HW217460   1.026   4.178   1.963
 5521SOL     OW17461   5.872   5.326   1.648
 5521SOL    HW117462   5.952   5.376   1.615
 5521SOL    HW217463   5.789   5.377   1.623
 5522SOL     OW17464   2.565   3.413   1.734
 5522SOL    HW117465   2.608   3.492   1.777
 5522SOL    HW217466   2.471   3.403   1.768
 5523SOL     OW17467   3.111   0.440   2.649
 5523SOL    HW117468   3.132   0.472   2.557
 5523SOL    HW217469   3.186   0.383   2.683
 5524SOL     OW17470   0.031   4.850   6.202
 5524SOL    HW117471   0.013   4.892   6.291
 5524SOL    HW217472   0.060   4.755   6.216
 5525SOL     OW17473   6.521   5.511   5.612
 5525SOL    HW117474   6.580   5.592   5.609
 5525SOL    HW217475   6.446   5.522   5.546
 5526SOL     OW17476   6.540   3.279   4.070
 5526SOL    HW117477   6.559   3.195   4.120
 5526SOL    HW217478   6.558   3.358   4.129
 5527SOL     OW17479   1.687   2.944   1.560
 5527SOL    HW117480   1.738   2.888   1.495
 5527SOL    HW217481   1.591   2.947   1.533
 5528SOL     OW17482   0.415   2.932   4.517
 5528SOL    HW117483   0.486   2.958   4.582
 5528SOL    HW217484   0.435   2.971   4.428
 5529SOL     OW17485   2.338   1.086   4.916
 5529SOL    HW117486   2.256   1.113   4.867
 5529SOL    HW217487   2.325   0.994   4.955
 5530SOL     OW17488   0.598   2.139   0.088
 5530SOL    HW117489   0.658   2.117   0.165
 5530SOL    HW217490   0.653   2.154   0.006
 5531SOL     OW17491   3.575   2.692   5.534
 5531SOL    HW117492   3.585   2.707   5.632
 5531SOL    HW217493   3.591   2.778   5.485
 5532SOL     OW17494   2.454   1.365   0.657
 5532SOL    HW117495   2.456   1.454   0.611
 5532SOL    HW217496   2.535   1.355   0.714
 5533SOL     OW17497   3.960   1.042   1.831
 5533SOL    HW117498   3.930   1.119   1.888
 5533SOL    HW217499   3.924   0.957   1.869
 5534SOL     OW17500   0.440   3.951   6.472
 5534SOL    HW117501   0.371   3.880   6.461
 5534SOL    HW217502   0.431   3.993   6.563
 5535SOL     OW17503   6.659   3.042   2.857
 5535SOL    HW117504   6.719   2.963   2.843
 5535SOL    HW217505   6.663   3.101   2.777
 5536SOL     OW17506   2.455   1.222   4.176
 5536SOL    HW117507   2.544   1.179   4.189
 5536SOL    HW217508   2.391   1.189   4.245
 5537SOL     OW17509   4.391   0.085   5.177
 5537SOL    HW117510   4.337   0.168   5.161
 5537SOL    HW217511   4.462   0.077   5.106
 5538SOL     OW17512   3.870   1.616   6.409
 5538SOL    HW117513   3.785   1.588   6.454
 5538SOL    HW217514   3.904   1.540   6.353
 5539SOL     OW17515   2.465   0.095   2.061
 5539SOL    HW117516   2.559   0.126   2.046
 5539SOL    HW217517   2.449   0.012   2.007
 5540SOL     OW17518   4.920   1.971   6.832
 5540SOL    HW117519   4.856   1.971   6.908
 5540SOL    HW217520   4.945   2.065   6.808
 5541SOL     OW17521   4.551   3.852   6.529
 5541SOL    HW117522   4.472   3.857   6.591
 5541SOL    HW217523   4.525   3.890   6.440
 5542SOL     OW17524   5.691   3.989   6.192
 5542SOL    HW117525   5.707   4.088   6.200
 5542SOL    HW217526   5.754   3.941   6.253
 5543SOL     OW17527   1.874   0.122   1.119
 5543SOL    HW117528   1.967   0.105   1.150
 5543SOL    HW217529   1.838   0.205   1.162
 5544SOL     OW17530   4.727   5.298   6.169
 5544SOL    HW117531   4.708   5.281   6.072
 5544SOL    HW217532   4.825   5.287   6.186
 5545SOL     OW17533   4.472   0.971   2.690
 5545SOL    HW117534   4.416   1.054   2.685
 5545SOL    HW217535   4.429   0.898   2.637
 5546SOL     OW17536   0.120   6.539   4.905
 5546SOL    HW117537   0.152   6.562   4.997
 5546SOL    HW217538   0.108   6.440   4.897
 5547SOL     OW17539   5.259   1.529   5.962
 5547SOL    HW117540   5.345   1.493   5.926
 5547SOL    HW217541   5.271   1.624   5.991
 5548SOL     OW17542   0.075   3.787   5.425
 5548SOL    HW117543   0.118   3.697   5.425
 5548SOL    HW217544   0.068   3.820   5.331
 5549SOL     OW17545   4.014   3.752   1.659
 5549SOL    HW117546   4.109   3.739   1.628
 5549SOL    HW217547   4.005   3.718   1.752
 5550SOL     OW17548   1.644   4.438   3.089
 5550SOL    HW117549   1.649   4.344   3.056
 5550SOL    HW217550   1.729   4.462   3.135
 5551SOL     OW17551   2.095   5.387   3.313
 5551SOL    HW117552   2.190   5.411   3.291
 5551SOL    HW217553   2.089   5.363   3.410
 5552SOL     OW17554   6.918   6.729   6.177
 5552SOL    HW117555   6.933   6.800   6.246
 5552SOL    HW217556   6.820   6.721   6.159
 5553SOL     OW17557   5.061   0.753   6.576
 5553SOL    HW117558   5.038   0.674   6.520
 5553SOL    HW217559   5.032   0.836   6.530
 5554SOL     OW17560   5.348   3.246   0.390
 5554SOL    HW117561   5.263   3.282   0.428
 5554SOL    HW217562   5.426   3.282   0.443
 5555SOL     OW17563   1.334   4.237   2.553
 5555SOL    HW117564   1.319   4.277   2.643
 5555SOL    HW217565   1.368   4.308   2.491
 5556SOL     OW17566   6.264   1.110   3.998
 5556SOL    HW117567   6.192   1.125   3.930
 5556SOL    HW217568   6.322   1.191   4.004
 5557SOL     OW17569   3.113   5.758   1.888
 5557SOL    HW117570   3.074   5.850   1.881
 5557SOL    HW217571   3.178   5.744   1.813
 5558SOL     OW17572   3.649   4.171   0.153
 5558SOL    HW117573   3.571   4.199   0.208
 5558SOL    HW217574   3.616   4.123   0.071
 5559SOL     OW17575   1.223   0.453   3.204
 5559SOL    HW117576   1.295   0.459   3.134
 5559SOL    HW217577   1.134   0.460   3.160
 5560SOL     OW17578   0.096   5.655   3.008
 5560SOL    HW117579   0.018   5.703   2.967
 5560SOL    HW217580   0.132   5.709   3.084
 5561SOL     OW17581   2.672   1.349   4.708
 5561SOL    HW117582   2.621   1.367   4.792
 5561SOL    HW217583   2.625   1.279   4.655
 5562SOL     OW17584   4.267   4.370   0.356
 5562SOL    HW117585   4.355   4.398   0.320
 5562SOL    HW217586   4.268   4.374   0.456
 5563SOL     OW17587   3.147   4.940   2.983
 5563SOL    HW117588   3.205   4.979   2.911
 5563SOL    HW217589   3.205   4.902   3.055
 5564SOL     OW17590   5.219   6.855   5.912
 5564SOL    HW117591   5.143   6.800   5.878
 5564SOL    HW217592   5.290   6.795   5.950
 5565SOL     OW17593   3.608   3.371   0.733
 5565SOL    HW117594   3.686   3.402   0.680
 5565SOL    HW217595   3.630   3.377   0.831
 5566SOL     OW17596   0.829   4.069   0.544
 5566SOL    HW117597   0.922   4.051   0.577
 5566SOL    HW217598   0.819   4.167   0.524
 5567SOL     OW17599   6.740   3.509   1.833
 5567SOL    HW117600   6.806   3.581   1.854
 5567SOL    HW217601   6.782   3.419   1.850
 5568SOL     OW17602   4.117   6.473   2.989
 5568SOL    HW117603   4.077   6.510   3.073
 5568SOL    HW217604   4.086   6.527   2.911
 5569SOL     OW17605   2.721   1.997   3.742
 5569SOL    HW117606   2.731   2.088   3.701
 5569SOL    HW217607   2.624   1.980   3.762
 5570SOL     OW17608   6.187   3.475   3.253
 5570SOL    HW117609   6.099   3.521   3.268
 5570SOL    HW217610   6.185   3.429   3.164
 5571SOL     OW17611   6.456   5.108   2.188
 5571SOL    HW117612   6.388   5.091   2.260
 5571SOL    HW217613   6.410   5.132   2.103
 5572SOL     OW17614   1.390   4.074   5.026
 5572SOL    HW117615   1.348   4.018   4.954
 5572SOL    HW217616   1.322   4.093   5.097
 5573SOL     OW17617   1.452   5.074   5.463
 5573SOL    HW117618   1.462   4.975   5.467
 5573SOL    HW217619   1.542   5.116   5.452
 5574SOL     OW17620   0.702   2.676   6.536
 5574SOL    HW117621   0.790   2.718   6.514
 5574SOL    HW217622   0.652   2.735   6.599
 5575SOL     OW17623   0.752   0.218   1.760
 5575SOL    HW117624   0.677   0.283   1.747
 5575SOL    HW217625   0.722   0.144   1.819
 5576SOL     OW17626   1.823   4.192   3.270
 5576SOL    HW117627   1.846   4.097   3.290
 5576SOL    HW217628   1.764   4.197   3.190
 5577SOL     OW17629   1.514   3.431   0.201
 5577SOL    HW117630   1.509   3.454   0.104
 5577SOL    HW217631   1.432   3.380   0.228
 5578SOL     OW17632   3.579   3.320   2.955
 5578SOL    HW117633   3.492   3.350   2.916
 5578SOL    HW217634   3.605   3.381   3.030
 5579SOL     OW17635   0.087   3.258   1.149
 5579SOL    HW117636   0.112   3.168   1.187
 5579SOL    HW217637   0.029   3.245   1.069
 5580SOL     OW17638   5.266   1.853   5.699
 5580SOL    HW117639   5.339   1.900   5.749
 5580SOL    HW217640   5.194   1.827   5.762
 5581SOL     OW17641   1.248   2.198   1.458
 5581SOL    HW117642   1.246   2.276   1.396
 5581SOL    HW217643   1.188   2.216   1.536
 5582SOL     OW17644   2.548   3.849   6.682
 5582SOL    HW117645   2.484   3.792   6.630
 5582SOL    HW217646   2.577   3.800   6.764
 5583SOL     OW17647   4.387   0.530   2.493
 5583SOL    HW117648   4.377   0.526   2.394
 5583SOL    HW217649   4.414   0.440   2.527
 5584SOL     OW17650   6.175   4.151   4.389
 5584SOL    HW117651   6.255   4.164   4.331
 5584SOL    HW217652   6.104   4.102   4.337
 5585SOL     OW17653   4.716   4.609   3.031
 5585SOL    HW117654   4.754   4.529   2.985
 5585SOL    HW217655   4.791   4.663   3.070
 5586SOL     OW17656   6.646   3.682   5.688
 5586SOL    HW117657   6.653   3.583   5.700
 5586SOL    HW217658   6.594   3.703   5.605
 5587SOL     OW17659   4.838   0.715   6.789
 5587SOL    HW117660   4.814   0.729   6.693
 5587SOL    HW217661   4.932   0.683   6.795
 5588SOL     OW17662   2.379   6.838   2.764
 5588SOL    HW117663   2.344   6.889   2.843
 5588SOL    HW217664   2.337   6.747   2.763
 5589SOL     OW17665   5.905   4.449   6.564
 5589SOL    HW117666   5.974   4.487   6.503
 5589SOL    HW217667   5.951   4.398   6.637
 5590SOL     OW17668   5.585   6.228   3.668
 5590SOL    HW117669   5.495   6.244   3.627
 5590SOL    HW217670   5.572   6.203   3.764
 5591SOL     OW17671   0.461   1.826   1.616
 5591SOL    HW117672   0.381   1.782   1.574
 5591SOL    HW217673   0.448   1.925   1.614
 5592SOL     OW17674   1.638   4.910   3.223
 5592SOL    HW117675   1.596   4.920   3.133
 5592SOL    HW217676   1.694   4.990   3.243
 5593SOL     OW17677   0.378   2.883   6.582
 5593SOL    HW117678   0.293   2.882   6.635
 5593SOL    HW217679   0.358   2.856   6.487
 5594SOL     OW17680   4.978   0.801   5.020
 5594SOL    HW117681   4.987   0.722   5.080
 5594SOL    HW217682   5.068   0.832   4.991
 5595SOL     OW17683   1.350   2.303   5.348
 5595SOL    HW117684   1.352   2.269   5.254
 5595SOL    HW217685   1.313   2.232   5.408
 5596SOL     OW17686   3.918   6.737   2.900
 5596SOL    HW117687   3.878   6.697   2.817
 5596SOL    HW217688   3.882   6.829   2.914
 5597SOL     OW17689   5.076   2.379   4.415
 5597SOL    HW117690   5.015   2.455   4.390
 5597SOL    HW217691   5.021   2.301   4.447
 5598SOL     OW17692   4.922   3.074   4.163
 5598SOL    HW117693   4.847   3.036   4.108
 5598SOL    HW217694   4.976   3.137   4.106
 5599SOL     OW17695   1.248   0.421   4.514
 5599SOL    HW117696   1.213   0.384   4.600
 5599SOL    HW217697   1.218   0.516   4.505
 5600SOL     OW17698   0.851   2.194   2.777
 5600SOL    HW117699   0.882   2.140   2.855
 5600SOL    HW217700   0.751   2.193   2.773
 5601SOL     OW17701   2.587   0.326   6.057
 5601SOL    HW117702   2.521   0.253   6.042
 5601SOL    HW217703   2.673   0.286   6.090
 5602SOL     OW17704   0.548   1.576   0.894
 5602SOL    HW117705   0.539   1.597   0.991
 5602SOL    HW217706   0.589   1.485   0.884
 5603SOL     OW17707   5.340   2.273   0.005
 5603SOL    HW117708   5.360   2.262   0.103
 5603SOL    HW217709   5.249   2.313   7.012
 5604SOL     OW17710   6.916   1.832   5.842
 5604SOL    HW117711   6.907   1.876   5.752
 5604SOL    HW217712   6.830   1.840   5.891
 5605SOL     OW17713   0.748   1.346   4.636
 5605SOL    HW117714   0.671   1.409   4.629
 5605SOL    HW217715   0.822   1.376   4.576
 5606SOL     OW17716   6.040   6.562   1.267
 5606SOL    HW117717   6.128   6.560   1.314
 5606SOL    HW217718   5.990   6.644   1.292
 5607SOL     OW17719   5.352   0.617   2.355
 5607SOL    HW117720   5.366   0.704   2.307
 5607SOL    HW217721   5.357   0.633   2.454
 5608SOL     OW17722   4.471   0.415   4.532
 5608SOL    HW117723   4.428   0.354   4.599
 5608SOL    HW217724   4.425   0.503   4.532
 5609SOL     OW17725   2.342   5.299   0.603
 5609SOL    HW117726   2.320   5.213   0.649
 5609SOL    HW217727   2.350   5.372   0.671
 5610SOL     OW17728   5.004   6.922   0.696
 5610SOL    HW117729   4.932   6.862   0.731
 5610SOL    HW217730   4.970   7.015   0.691
 5611SOL     OW17731   2.088   4.419   2.576
 5611SOL    HW117732   2.085   4.335   2.631
 5611SOL    HW217733   2.174   4.466   2.593
 5612SOL     OW17734   3.895   2.290   6.266
 5612SOL    HW117735   3.933   2.264   6.178
 5612SOL    HW217736   3.875   2.389   6.266
 5613SOL     OW17737   4.761   4.103   2.674
 5613SOL    HW117738   4.765   4.017   2.623
 5613SOL    HW217739   4.770   4.083   2.772
 5614SOL     OW17740   4.326   2.331   3.667
 5614SOL    HW117741   4.367   2.251   3.710
 5614SOL    HW217742   4.396   2.401   3.653
 5615SOL     OW17743   0.396   0.530   6.369
 5615SOL    HW117744   0.492   0.506   6.354
 5615SOL    HW217745   0.376   0.531   6.467
 5616SOL     OW17746   2.353   0.654   5.427
 5616SOL    HW117747   2.431   0.627   5.483
 5616SOL    HW217748   2.373   0.741   5.382
 5617SOL     OW17749   2.596   6.998   6.216
 5617SOL    HW117750   2.682   6.965   6.177
 5617SOL    HW217751   2.552   0.042   6.151
 5618SOL     OW17752   6.715   3.556   4.287
 5618SOL    HW117753   6.732   3.508   4.373
 5618SOL    HW217754   6.749   3.650   4.294
 5619SOL     OW17755   2.839   3.731   6.589
 5619SOL    HW117756   2.834   3.787   6.506
 5619SOL    HW217757   2.826   3.790   6.669
 5620SOL     OW17758   3.445   3.173   0.628
 5620SOL    HW117759   3.519   3.105   0.622
 5620SOL    HW217760   3.482   3.259   0.664
 5621SOL     OW17761   1.273   1.935   5.977
 5621SOL    HW117762   1.258   1.842   6.010
 5621SOL    HW217763   1.312   1.932   5.885
 5622SOL     OW17764   4.432   6.761   5.752
 5622SOL    HW117765   4.530   6.764   5.768
 5622SOL    HW217766   4.390   6.846   5.787
 5623SOL     OW17767   1.939   6.465   6.252
 5623SOL    HW117768   1.866   6.408   6.288
 5623SOL    HW217769   1.989   6.508   6.328
 5624SOL     OW17770   1.079   4.547   3.190
 5624SOL    HW117771   1.120   4.500   3.112
 5624SOL    HW217772   1.146   4.555   3.263
 5625SOL     OW17773   6.064   2.372   4.313
 5625SOL    HW117774   6.011   2.445   4.355
 5625SOL    HW217775   6.072   2.296   4.378
 5626SOL     OW17776   2.793   6.564   4.848
 5626SOL    HW117777   2.795   6.473   4.807
 5626SOL    HW217778   2.831   6.560   4.940
 5627SOL     OW17779   1.083   5.736   0.993
 5627SOL    HW117780   1.171   5.773   0.965
 5627SOL    HW217781   1.051   5.670   0.925
 5628SOL     OW17782   1.469   2.171   6.113
 5628SOL    HW117783   1.489   2.155   6.210
 5628SOL    HW217784   1.413   2.096   6.078
 5629SOL     OW17785   3.497   3.869   1.578
 5629SOL    HW117786   3.458   3.777   1.584
 5629SOL    HW217787   3.593   3.866   1.608
 5630SOL     OW17788   1.229   5.054   0.840
 5630SOL    HW117789   1.193   5.078   0.749
 5630SOL    HW217790   1.165   5.085   0.910
 5631SOL     OW17791   4.257   1.853   6.658
 5631SOL    HW117792   4.327   1.781   6.665
 5631SOL    HW217793   4.171   1.813   6.627
 5632SOL     OW17794   4.139   3.471   6.249
 5632SOL    HW117795   4.166   3.566   6.231
 5632SOL    HW217796   4.040   3.466   6.260
 5633SOL     OW17797   6.478   2.088   3.518
 5633SOL    HW117798   6.386   2.095   3.478
 5633SOL    HW217799   6.534   2.164   3.486
 5634SOL     OW17800   3.185   5.785   5.630
 5634SOL    HW117801   3.126   5.727   5.574
 5634SOL    HW217802   3.215   5.864   5.577
 5635SOL     OW17803   2.039   3.267   4.863
 5635SOL    HW117804   2.103   3.269   4.786
 5635SOL    HW217805   2.001   3.175   4.872
 5636SOL     OW17806   3.488   6.020   2.574
 5636SOL    HW117807   3.529   6.109   2.554
 5636SOL    HW217808   3.388   6.029   2.572
 5637SOL     OW17809   5.462   6.851   3.707
 5637SOL    HW117810   5.442   6.949   3.705
 5637SOL    HW217811   5.415   6.809   3.785
 5638SOL     OW17812   5.417   3.492   0.953
 5638SOL    HW117813   5.346   3.482   0.883
 5638SOL    HW217814   5.468   3.577   0.937
 5639SOL     OW17815   0.186   1.417   0.463
 5639SOL    HW117816   0.095   1.429   0.423
 5639SOL    HW217817   0.187   1.453   0.556
 5640SOL     OW17818   2.620   0.423   4.264
 5640SOL    HW117819   2.623   0.370   4.179
 5640SOL    HW217820   2.570   0.372   4.333
 5641SOL     OW17821   0.195   4.630   6.328
 5641SOL    HW117822   0.214   4.541   6.287
 5641SOL    HW217823   0.227   4.631   6.423
 5642SOL     OW17824   2.197   6.809   0.080
 5642SOL    HW117825   2.118   6.859   0.045
 5642SOL    HW217826   2.255   6.781   0.003
 5643SOL     OW17827   5.524   1.660   4.676
 5643SOL    HW117828   5.450   1.611   4.630
 5643SOL    HW217829   5.524   1.638   4.773
 5644SOL     OW17830   2.914   6.634   5.082
 5644SOL    HW117831   2.995   6.692   5.093
 5644SOL    HW217832   2.895   6.586   5.167
 5645SOL     OW17833   6.303   3.744   3.421
 5645SOL    HW117834   6.218   3.716   3.376
 5645SOL    HW217835   6.324   3.679   3.494
 5646SOL     OW17836   2.122   4.747   3.214
 5646SOL    HW117837   2.025   4.731   3.232
 5646SOL    HW217838   2.161   4.666   3.170
 5647SOL     OW17839   5.051   6.311   1.776
 5647SOL    HW117840   4.967   6.292   1.725
 5647SOL    HW217841   5.129   6.271   1.728
 5648SOL     OW17842   2.571   5.725   3.003
 5648SOL    HW117843   2.530   5.635   3.018
 5648SOL    HW217844   2.518   5.774   2.934
 5649SOL     OW17845   0.893   6.438   4.239
 5649SOL    HW117846   0.992   6.444   4.247
 5649SOL    HW217847   0.852   6.431   4.330
 5650SOL     OW17848   0.270   4.689   0.709
 5650SOL    HW117849   0.199   4.620   0.694
 5650SOL    HW217850   0.280   4.707   0.807
 5651SOL     OW17851   1.757   0.186   0.864
 5651SOL    HW117852   1.731   0.280   0.885
 5651SOL    HW217853   1.789   0.141   0.947
 5652SOL     OW17854   0.047   5.307   2.152
 5652SOL    HW117855   0.009   5.330   2.242
 5652SOL    HW217856   0.123   5.243   2.163
 5653SOL     OW17857   0.622   6.174   0.942
 5653SOL    HW117858   0.671   6.166   0.855
 5653SOL    HW217859   0.601   6.270   0.959
 5654SOL     OW17860   1.160   6.258   5.059
 5654SOL    HW117861   1.077   6.244   5.006
 5654SOL    HW217862   1.137   6.280   5.154
 5655SOL     OW17863   6.417   3.121   3.848
 5655SOL    HW117864   6.441   3.167   3.933
 5655SOL    HW217865   6.427   3.022   3.860
 5656SOL     OW17866   0.110   3.276   6.737
 5656SOL    HW117867   0.053   3.236   6.665
 5656SOL    HW217868   0.170   3.345   6.697
 5657SOL     OW17869   4.367   4.560   4.325
 5657SOL    HW117870   4.356   4.522   4.416
 5657SOL    HW217871   4.364   4.660   4.330
 5658SOL     OW17872   1.878   2.749   6.061
 5658SOL    HW117873   1.802   2.813   6.077
 5658SOL    HW217874   1.899   2.700   6.145
 5659SOL     OW17875   3.541   3.926   6.458
 5659SOL    HW117876   3.455   3.886   6.427
 5659SOL    HW217877   3.566   4.001   6.397
 5660SOL     OW17878   4.820   6.743   6.754
 5660SOL    HW117879   4.769   6.660   6.733
 5660SOL    HW217880   4.864   6.778   6.671
 5661SOL     OW17881   0.744   5.775   5.977
 5661SOL    HW117882   0.730   5.861   5.928
 5661SOL    HW217883   0.723   5.788   6.074
 5662SOL     OW17884   2.348   6.533   2.983
 5662SOL    HW117885   2.440   6.571   2.980
 5662SOL    HW217886   2.302   6.550   2.896
 5663SOL     OW17887   1.339   2.718   1.256
 5663SOL    HW117888   1.365   2.812   1.238
 5663SOL    HW217889   1.377   2.658   1.185
 5664SOL     OW17890   5.353   4.101   4.298
 5664SOL    HW117891   5.376   4.123   4.203
 5664SOL    HW217892   5.254   4.113   4.311
 5665SOL     OW17893   1.560   6.816   0.457
 5665SOL    HW117894   1.521   6.736   0.411
 5665SOL    HW217895   1.629   6.785   0.523
 5666SOL     OW17896   5.808   1.152   4.032
 5666SOL    HW117897   5.833   1.196   3.945
 5666SOL    HW217898   5.891   1.125   4.081
 5667SOL     OW17899   1.712   4.777   4.600
 5667SOL    HW117900   1.741   4.786   4.504
 5667SOL    HW217901   1.774   4.715   4.648
 5668SOL     OW17902   6.200   2.608   2.487
 5668SOL    HW117903   6.221   2.681   2.423
 5668SOL    HW217904   6.171   2.647   2.574
 5669SOL     OW17905   5.989   3.996   6.832
 5669SOL    HW117906   6.036   3.953   6.909
 5669SOL    HW217907   5.896   4.021   6.860
 5670SOL     OW17908   1.247   3.379   2.588
 5670SOL    HW117909   1.250   3.430   2.502
 5670SOL    HW217910   1.171   3.411   2.644
 5671SOL     OW17911   6.379   6.137   4.008
 5671SOL    HW117912   6.432   6.097   4.083
 5671SOL    HW217913   6.431   6.213   3.968
 5672SOL     OW17914   4.907   3.808   5.103
 5672SOL    HW117915   4.851   3.890   5.116
 5672SOL    HW217916   4.853   3.727   5.127
 5673SOL     OW17917   0.808   6.876   1.581
 5673SOL    HW117918   0.733   6.861   1.517
 5673SOL    HW217919   0.852   6.963   1.561
 5674SOL     OW17920   1.859   4.601   4.714
 5674SOL    HW117921   1.842   4.535   4.787
 5674SOL    HW217922   1.958   4.611   4.700
 5675SOL     OW17923   3.152   1.041   0.299
 5675SOL    HW117924   3.084   1.062   0.229
 5675SOL    HW217925   3.139   1.102   0.378
 5676SOL     OW17926   2.891   2.472   1.601
 5676SOL    HW117927   2.981   2.488   1.560
 5676SOL    HW217928   2.901   2.461   1.700
 5677SOL     OW17929   6.851   0.853   0.794
 5677SOL    HW117930   6.832   0.935   0.740
 5677SOL    HW217931   6.773   0.791   0.787
 5678SOL     OW17932   3.715   1.765   2.249
 5678SOL    HW117933   3.689   1.861   2.256
 5678SOL    HW217934   3.693   1.719   2.335
 5679SOL     OW17935   5.938   2.621   4.965
 5679SOL    HW117936   5.913   2.681   4.889
 5679SOL    HW217937   5.966   2.532   4.929
 5680SOL     OW17938   1.520   5.274   5.883
 5680SOL    HW117939   1.605   5.323   5.900
 5680SOL    HW217940   1.449   5.338   5.854
 5681SOL     OW17941   0.851   3.840   2.848
 5681SOL    HW117942   0.798   3.875   2.925
 5681SOL    HW217943   0.834   3.742   2.837
 5682SOL     OW17944   2.551   4.958   2.559
 5682SOL    HW117945   2.592   4.879   2.514
 5682SOL    HW217946   2.624   5.018   2.594
 5683SOL     OW17947   3.986   2.734   6.498
 5683SOL    HW117948   4.072   2.705   6.456
 5683SOL    HW217949   3.977   2.691   6.588
 5684SOL     OW17950   2.250   3.258   6.006
 5684SOL    HW117951   2.254   3.358   6.010
 5684SOL    HW217952   2.197   3.224   6.084
 5685SOL     OW17953   1.928   2.537   4.078
 5685SOL    HW117954   1.960   2.569   3.988
 5685SOL    HW217955   1.997   2.559   4.147
 5686SOL     OW17956   3.210   0.773   5.924
 5686SOL    HW117957   3.249   0.850   5.873
 5686SOL    HW217958   3.276   0.742   5.993
 5687SOL     OW17959   0.801   5.995   5.260
 5687SOL    HW117960   0.884   6.010   5.314
 5687SOL    HW217961   0.752   5.916   5.295
 5688SOL     OW17962   2.162   3.682   3.293
 5688SOL    HW117963   2.140   3.623   3.370
 5688SOL    HW217964   2.120   3.646   3.210
 5689SOL     OW17965   1.403   0.814   0.975
 5689SOL    HW117966   1.396   0.826   0.876
 5689SOL    HW217967   1.387   0.718   0.998
 5690SOL     OW17968   0.648   5.347   0.096
 5690SOL    HW117969   0.578   5.291   0.052
 5690SOL    HW217970   0.657   5.434   0.047
 5691SOL     OW17971   3.647   1.131   2.342
 5691SOL    HW117972   3.576   1.100   2.406
 5691SOL    HW217973   3.624   1.222   2.309
 5692SOL     OW17974   5.140   5.424   0.855
 5692SOL    HW117975   5.069   5.431   0.925
 5692SOL    HW217976   5.229   5.419   0.899
 5693SOL     OW17977   3.908   0.612   0.379
 5693SOL    HW117978   3.816   0.584   0.351
 5693SOL    HW217979   3.927   0.577   0.471
 5694SOL     OW17980   0.626   0.488   2.879
 5694SOL    HW117981   0.568   0.528   2.950
 5694SOL    HW217982   0.661   0.561   2.820
 5695SOL     OW17983   1.392   0.832   1.858
 5695SOL    HW117984   1.423   0.839   1.763
 5695SOL    HW217985   1.294   0.815   1.860
 5696SOL     OW17986   1.548   0.487   4.101
 5696SOL    HW117987   1.515   0.426   4.028
 5696SOL    HW217988   1.648   0.479   4.108
 5697SOL     OW17989   6.245   2.683   1.506
 5697SOL    HW117990   6.233   2.773   1.463
 5697SOL    HW217991   6.155   2.643   1.523
 5698SOL     OW17992   1.349   3.605   3.130
 5698SOL    HW117993   1.265   3.628   3.082
 5698SOL    HW217994   1.328   3.587   3.226
 5699SOL     OW17995   1.988   2.804   3.318
 5699SOL    HW117996   1.943   2.783   3.405
 5699SOL    HW217997   2.087   2.807   3.332
 5700SOL     OW17998   0.234   0.622   1.985
 5700SOL    HW117999   0.270   0.601   2.076
 5700SOL    HW218000   0.255   0.717   1.962
 5701SOL     OW18001   6.268   0.957   0.830
 5701SOL    HW118002   6.310   1.047   0.828
 5701SOL    HW218003   6.196   0.952   0.761
 5702SOL     OW18004   1.621   6.916   4.349
 5702SOL    HW118005   1.583   6.842   4.294
 5702SOL    HW218006   1.568   7.000   4.333
 5703SOL     OW18007   0.292   3.694   6.173
 5703SOL    HW118008   0.227   3.622   6.149
 5703SOL    HW218009   0.280   3.773   6.113
 5704SOL     OW18010   5.631   3.942   3.615
 5704SOL    HW118011   5.679   4.027   3.637
 5704SOL    HW218012   5.571   3.917   3.692
 5705SOL     OW18013   6.077   6.386   5.965
 5705SOL    HW118014   6.157   6.382   6.025
 5705SOL    HW218015   6.096   6.448   5.888
 5706SOL     OW18016   5.931   2.832   0.140
 5706SOL    HW118017   5.947   2.813   0.237
 5706SOL    HW218018   5.858   2.774   0.106
 5707SOL     OW18019   4.955   6.926   1.449
 5707SOL    HW118020   4.901   6.867   1.390
 5707SOL    HW218021   4.903   7.009   1.470
 5708SOL     OW18022   4.663   5.431   3.510
 5708SOL    HW118023   4.602   5.360   3.545
 5708SOL    HW218024   4.690   5.492   3.585
 5709SOL     OW18025   1.740   1.078   1.996
 5709SOL    HW118026   1.719   1.118   1.907
 5709SOL    HW218027   1.674   1.006   2.017
 5710SOL     OW18028   2.997   2.575   0.804
 5710SOL    HW118029   2.963   2.630   0.728
 5710SOL    HW218030   3.094   2.595   0.818
 5711SOL     OW18031   5.077   0.501   1.407
 5711SOL    HW118032   5.048   0.590   1.442
 5711SOL    HW218033   5.055   0.495   1.310
 5712SOL     OW18034   0.169   6.148   1.314
 5712SOL    HW118035   0.268   6.153   1.331
 5712SOL    HW218036   0.137   6.054   1.328
 5713SOL     OW18037   2.505   5.869   0.579
 5713SOL    HW118038   2.549   5.832   0.497
 5713SOL    HW218039   2.558   5.844   0.660
 5714SOL     OW18040   6.202   5.919   1.418
 5714SOL    HW118041   6.202   6.016   1.393
 5714SOL    HW218042   6.234   5.910   1.513
 5715SOL     OW18043   1.050   6.592   1.270
 5715SOL    HW118044   1.001   6.575   1.356
 5715SOL    HW218045   1.147   6.576   1.284
 5716SOL     OW18046   0.870   5.064   6.098
 5716SOL    HW118047   0.871   4.985   6.159
 5716SOL    HW218048   0.955   5.116   6.110
 5717SOL     OW18049   2.207   5.103   2.791
 5717SOL    HW118050   2.169   5.030   2.735
 5717SOL    HW218051   2.235   5.066   2.880
 5718SOL     OW18052   0.932   2.810   0.556
 5718SOL    HW118053   0.946   2.714   0.531
 5718SOL    HW218054   1.013   2.843   0.605
 5719SOL     OW18055   3.038   3.381   1.361
 5719SOL    HW118056   2.997   3.360   1.272
 5719SOL    HW218057   2.971   3.369   1.433
 5720SOL     OW18058   2.268   5.654   5.842
 5720SOL    HW118059   2.299   5.745   5.870
 5720SOL    HW218060   2.346   5.600   5.814
 5721SOL     OW18061   5.190   4.098   6.641
 5721SOL    HW118062   5.177   4.191   6.609
 5721SOL    HW218063   5.136   4.035   6.584
 5722SOL     OW18064   0.899   1.061   5.452
 5722SOL    HW118065   0.952   0.977   5.447
 5722SOL    HW218066   0.900   1.095   5.546
 5723SOL     OW18067   4.059   3.672   0.158
 5723SOL    HW118068   4.107   3.750   0.118
 5723SOL    HW218069   4.124   3.597   0.175
 5724SOL     OW18070   5.788   2.314   3.043
 5724SOL    HW118071   5.862   2.360   3.093
 5724SOL    HW218072   5.704   2.317   3.098
 5725SOL     OW18073   5.486   5.051   2.927
 5725SOL    HW118074   5.482   5.147   2.952
 5725SOL    HW218075   5.398   5.022   2.889
 5726SOL     OW18076   4.864   3.715   3.085
 5726SOL    HW118077   4.765   3.732   3.078
 5726SOL    HW218078   4.889   3.701   3.180
 5727SOL     OW18079   1.099   2.602   4.371
 5727SOL    HW118080   1.088   2.701   4.364
 5727SOL    HW218081   1.113   2.563   4.280
 5728SOL     OW18082   4.703   5.844   5.348
 5728SOL    HW118083   4.638   5.797   5.408
 5728SOL    HW218084   4.730   5.931   5.389
 5729SOL     OW18085   2.057   2.251   6.050
 5729SOL    HW118086   1.981   2.300   6.093
 5729SOL    HW218087   2.058   2.270   5.952
 5730SOL     OW18088   6.928   4.163   5.702
 5730SOL    HW118089   6.876   4.241   5.738
 5730SOL    HW218090   6.960   4.107   5.778
 5731SOL     OW18091   0.265   6.570   1.532
 5731SOL    HW118092   0.296   6.644   1.592
 5731SOL    HW218093   0.173   6.590   1.499
 5732SOL     OW18094   1.131   6.564   4.524
 5732SOL    HW118095   1.099   6.652   4.491
 5732SOL    HW218096   1.149   6.503   4.447
 5733SOL     OW18097   3.877   6.993   5.052
 5733SOL    HW118098   3.778   6.994   5.066
 5733SOL    HW218099   3.896   6.984   4.954
 5734SOL     OW18100   1.590   6.441   3.604
 5734SOL    HW118101   1.529   6.495   3.547
 5734SOL    HW218102   1.641   6.502   3.665
 5735SOL     OW18103   3.045   1.058   1.589
 5735SOL    HW118104   3.120   1.012   1.541
 5735SOL    HW218105   3.073   1.151   1.612
 5736SOL     OW18106   0.940   5.574   6.455
 5736SOL    HW118107   0.910   5.516   6.530
 5736SOL    HW218108   0.895   5.545   6.370
 5737SOL     OW18109   4.790   4.673   6.432
 5737SOL    HW118110   4.760   4.650   6.339
 5737SOL    HW218111   4.889   4.687   6.431
 5738SOL     OW18112   1.455   3.562   6.957
 5738SOL    HW118113   1.361   3.574   6.925
 5738SOL    HW218114   1.512   3.527   6.883
 5739SOL     OW18115   1.431   1.105   0.849
 5739SOL    HW118116   1.484   1.188   0.832
 5739SOL    HW218117   1.487   1.025   0.828
 5740SOL     OW18118   3.988   5.691   6.519
 5740SOL    HW118119   3.904   5.727   6.561
 5740SOL    HW218120   3.997   5.728   6.427
 5741SOL     OW18121   6.877   5.676   4.784
 5741SOL    HW118122   6.939   5.601   4.806
 5741SOL    HW218123   6.907   5.759   4.831
 5742SOL     OW18124   6.629   6.651   2.746
 5742SOL    HW118125   6.673   6.584   2.687
 5742SOL    HW218126   6.545   6.683   2.703
 5743SOL     OW18127   2.087   6.794   4.691
 5743SOL    HW118128   2.138   6.765   4.773
 5743SOL    HW218129   1.994   6.759   4.695
 5744SOL     OW18130   5.496   0.554   7.018
 5744SOL    HW118131   5.562   0.586   6.950
 5744SOL    HW218132   5.543   0.506   0.073
 5745SOL     OW18133   1.901   2.447   4.827
 5745SOL    HW118134   1.871   2.428   4.734
 5745SOL    HW218135   1.873   2.372   4.887
 5746SOL     OW18136   4.536   2.152   6.678
 5746SOL    HW118137   4.475   2.074   6.668
 5746SOL    HW218138   4.513   2.202   6.761
 5747SOL     OW18139   0.512   5.606   3.110
 5747SOL    HW118140   0.517   5.568   3.017
 5747SOL    HW218141   0.521   5.706   3.104
 5748SOL     OW18142   1.957   6.197   2.121
 5748SOL    HW118143   1.893   6.172   2.194
 5748SOL    HW218144   1.953   6.128   2.048
 5749SOL     OW18145   2.319   2.556   3.159
 5749SOL    HW118146   2.270   2.474   3.189
 5749SOL    HW218147   2.302   2.571   3.062
 5750SOL     OW18148   5.943   5.453   3.284
 5750SOL    HW118149   6.004   5.408   3.349
 5750SOL    HW218150   5.866   5.493   3.333
 5751SOL     OW18151   2.364   3.507   5.532
 5751SOL    HW118152   2.318   3.455   5.604
 5751SOL    HW218153   2.355   3.460   5.445
 5752SOL     OW18154   7.001   6.868   6.444
 5752SOL    HW118155   7.013   6.958   6.404
 5752SOL    HW218156   6.964   6.877   6.537
 5753SOL     OW18157   3.590   2.529   0.157
 5753SOL    HW118158   3.568   2.454   0.094
 5753SOL    HW218159   3.573   2.616   0.110
 5754SOL     OW18160   6.411   4.918   1.772
 5754SOL    HW118161   6.397   4.908   1.673
 5754SOL    HW218162   6.471   4.845   1.805
 5755SOL     OW18163   2.708   4.260   6.928
 5755SOL    HW118164   2.693   4.163   6.949
 5755SOL    HW218165   2.620   4.306   6.916
 5756SOL     OW18166   6.892   5.009   3.664
 5756SOL    HW118167   6.978   4.959   3.664
 5756SOL    HW218168   6.834   4.975   3.738
 5757SOL     OW18169   6.821   5.247   0.629
 5757SOL    HW118170   6.749   5.206   0.573
 5757SOL    HW218171   6.886   5.295   0.571
 5758SOL     OW18172   1.825   2.732   5.443
 5758SOL    HW118173   1.898   2.763   5.382
 5758SOL    HW218174   1.766   2.667   5.394
 5759SOL     OW18175   5.228   1.801   6.472
 5759SOL    HW118176   5.209   1.899   6.485
 5759SOL    HW218177   5.314   1.789   6.423
 5760SOL     OW18178   1.395   5.405   2.230
 5760SOL    HW118179   1.372   5.461   2.150
 5760SOL    HW218180   1.485   5.433   2.265
 5761SOL     OW18181   4.520   6.959   4.510
 5761SOL    HW118182   4.619   6.952   4.495
 5761SOL    HW218183   4.483   6.868   4.528
 5762SOL     OW18184   5.602   6.432   1.528
 5762SOL    HW118185   5.604   6.420   1.628
 5762SOL    HW218186   5.516   6.475   1.501
 5763SOL     OW18187   1.389   0.556   1.239
 5763SOL    HW118188   1.337   0.641   1.229
 5763SOL    HW218189   1.336   0.481   1.201
 5764SOL     OW18190   5.016   3.927   5.684
 5764SOL    HW118191   5.002   3.838   5.727
 5764SOL    HW218192   4.990   3.922   5.588
 5765SOL     OW18193   5.625   4.056   6.657
 5765SOL    HW118194   5.531   4.027   6.672
 5765SOL    HW218195   5.679   4.039   6.739
 5766SOL     OW18196   2.842   2.154   2.547
 5766SOL    HW118197   2.753   2.120   2.514
 5766SOL    HW218198   2.904   2.165   2.470
 5767SOL     OW18199   0.088   0.102   1.197
 5767SOL    HW118200   0.169   0.141   1.154
 5767SOL    HW218201   0.114   0.024   1.254
 5768SOL     OW18202   6.705   1.677   2.424
 5768SOL    HW118203   6.689   1.670   2.522
 5768SOL    HW218204   6.689   1.771   2.394
 5769SOL     OW18205   2.307   5.931   4.269
 5769SOL    HW118206   2.219   5.978   4.278
 5769SOL    HW218207   2.348   5.920   4.359
 5770SOL     OW18208   6.527   0.298   1.674
 5770SOL    HW118209   6.491   0.206   1.657
 5770SOL    HW218210   6.509   0.324   1.769
 5771SOL     OW18211   1.519   1.522   1.214
 5771SOL    HW118212   1.528   1.612   1.171
 5771SOL    HW218213   1.588   1.461   1.176
 5772SOL     OW18214   5.292   3.542   0.219
 5772SOL    HW118215   5.209   3.528   0.164
 5772SOL    HW218216   5.273   3.518   0.314
 5773SOL     OW18217   5.448   5.552   4.510
 5773SOL    HW118218   5.421   5.499   4.590
 5773SOL    HW218219   5.477   5.644   4.538
 5774SOL     OW18220   1.813   5.472   3.777
 5774SOL    HW118221   1.730   5.506   3.732
 5774SOL    HW218222   1.872   5.550   3.801
 5775SOL     OW18223   0.405   6.656   5.879
 5775SOL    HW118224   0.486   6.603   5.903
 5775SOL    HW218225   0.433   6.745   5.843
 5776SOL     OW18226   4.836   6.839   6.150
 5776SOL    HW118227   4.917   6.897   6.157
 5776SOL    HW218228   4.856   6.762   6.089
 5777SOL     OW18229   6.883   0.784   4.240
 5777SOL    HW118230   6.799   0.809   4.192
 5777SOL    HW218231   6.960   0.792   4.177
 5778SOL     OW18232   1.213   6.841   3.740
 5778SOL    HW118233   1.213   6.742   3.725
 5778SOL    HW218234   1.256   6.861   3.828
 5779SOL     OW18235   3.775   1.203   2.017
 5779SOL    HW118236   3.764   1.297   2.047
 5779SOL    HW218237   3.686   1.156   2.019
 5780SOL     OW18238   6.409   3.863   1.919
 5780SOL    HW118239   6.458   3.861   1.832
 5780SOL    HW218240   6.396   3.769   1.952
 5781SOL     OW18241   1.588   5.058   4.979
 5781SOL    HW118242   1.575   5.013   5.067
 5781SOL    HW218243   1.551   5.001   4.906
 5782SOL     OW18244   3.090   1.650   2.560
 5782SOL    HW118245   3.089   1.659   2.659
 5782SOL    HW218246   3.025   1.579   2.532
 5783SOL     OW18247   1.044   0.344   1.352
 5783SOL    HW118248   1.078   0.367   1.443
 5783SOL    HW218249   1.116   0.359   1.285
 5784SOL     OW18250   1.203   6.451   0.591
 5784SOL    HW118251   1.267   6.474   0.664
 5784SOL    HW218252   1.220   6.508   0.511
 5785SOL     OW18253   1.597   2.111   7.016
 5785SOL    HW118254   1.662   2.036   7.000
 5785SOL    HW218255   1.504   2.079   6.996
 5786SOL     OW18256   1.155   3.299   1.699
 5786SOL    HW118257   1.197   3.371   1.754
 5786SOL    HW218258   1.098   3.340   1.628
 5787SOL     OW18259   6.384   2.852   4.941
 5787SOL    HW118260   6.290   2.827   4.965
 5787SOL    HW218261   6.422   2.783   4.879
 5788SOL     OW18262   2.843   1.561   2.359
 5788SOL    HW118263   2.758   1.522   2.325
 5788SOL    HW218264   2.898   1.489   2.401
 5789SOL     OW18265   4.115   4.200   6.481
 5789SOL    HW118266   4.035   4.254   6.455
 5789SOL    HW218267   4.164   4.172   6.399
 5790SOL     OW18268   5.729   5.290   4.177
 5790SOL    HW118269   5.702   5.372   4.227
 5790SOL    HW218270   5.778   5.316   4.094
 5791SOL     OW18271   4.011   1.418   2.732
 5791SOL    HW118272   4.098   1.383   2.697
 5791SOL    HW218273   4.022   1.444   2.828
 5792SOL     OW18274   4.835   3.151   2.688
 5792SOL    HW118275   4.810   3.078   2.751
 5792SOL    HW218276   4.825   3.119   2.594
 5793SOL     OW18277   5.122   2.149   5.681
 5793SOL    HW118278   5.170   2.068   5.646
 5793SOL    HW218279   5.080   2.198   5.606
 5794SOL     OW18280   4.441   0.652   6.901
 5794SOL    HW118281   4.425   0.625   6.806
 5794SOL    HW218282   4.383   0.599   6.962
 5795SOL     OW18283   1.865   5.737   1.979
 5795SOL    HW118284   1.825   5.730   2.070
 5795SOL    HW218285   1.838   5.658   1.924
 5796SOL     OW18286   4.537   2.720   6.439
 5796SOL    HW118287   4.558   2.622   6.446
 5796SOL    HW218288   4.622   2.772   6.436
 5797SOL     OW18289   5.001   2.660   0.758
 5797SOL    HW118290   5.059   2.656   0.840
 5797SOL    HW218291   4.920   2.715   0.778
 5798SOL     OW18292   1.708   3.769   5.579
 5798SOL    HW118293   1.791   3.803   5.622
 5798SOL    HW218294   1.631   3.829   5.602
 5799SOL     OW18295   2.285   6.685   3.391
 5799SOL    HW118296   2.204   6.677   3.451
 5799SOL    HW218297   2.343   6.604   3.404
 5800SOL     OW18298   0.929   0.020   0.761
 5800SOL    HW118299   0.921   0.104   0.814
 5800SOL    HW218300   0.990   6.974   0.808
 5801SOL     OW18301   2.058   1.953   2.773
 5801SOL    HW118302   2.156   1.952   2.796
 5801SOL    HW218303   2.044   2.007   2.690
 5802SOL     OW18304   0.276   1.620   1.853
 5802SOL    HW118305   0.197   1.592   1.908
 5802SOL    HW218306   0.282   1.720   1.854
 5803SOL     OW18307   0.365   5.300   4.233
 5803SOL    HW118308   0.408   5.313   4.144
 5803SOL    HW218309   0.409   5.223   4.280
 5804SOL     OW18310   5.811   1.769   3.947
 5804SOL    HW118311   5.880   1.841   3.937
 5804SOL    HW218312   5.857   1.681   3.954
 5805SOL     OW18313   2.293   2.585   1.855
 5805SOL    HW118314   2.286   2.665   1.914
 5805SOL    HW218315   2.281   2.502   1.909
 5806SOL     OW18316   0.302   4.228   2.304
 5806SOL    HW118317   0.297   4.169   2.385
 5806SOL    HW218318   0.319   4.322   2.334
 5807SOL     OW18319   0.913   0.338   0.660
 5807SOL    HW118320   0.962   0.353   0.575
 5807SOL    HW218321   0.974   0.296   0.727
 5808SOL     OW18322   6.634   7.001   5.420
 5808SOL    HW118323   6.712   6.972   5.475
 5808SOL    HW218324   6.666   0.012   5.330
 5809SOL     OW18325   0.446   2.475   5.487
 5809SOL    HW118326   0.430   2.508   5.394
 5809SOL    HW218327   0.538   2.499   5.516
 5810SOL     OW18328   3.958   6.728   5.606
 5810SOL    HW118329   4.009   6.692   5.684
 5810SOL    HW218330   3.969   6.827   5.601
 5811SOL     OW18331   3.193   3.791   5.963
 5811SOL    HW118332   3.145   3.844   5.893
 5811SOL    HW218333   3.127   3.742   6.019
 5812SOL     OW18334   5.453   2.735   0.409
 5812SOL    HW118335   5.379   2.696   0.355
 5812SOL    HW218336   5.420   2.756   0.501
 5813SOL     OW18337   5.358   6.587   0.775
 5813SOL    HW118338   5.380   6.548   0.685
 5813SOL    HW218339   5.346   6.514   0.841
 5814SOL     OW18340   4.734   1.895   1.583
 5814SOL    HW118341   4.775   1.809   1.615
 5814SOL    HW218342   4.636   1.894   1.604
 5815SOL     OW18343   6.134   1.383   4.489
 5815SOL    HW118344   6.153   1.435   4.406
 5815SOL    HW218345   6.096   1.294   4.464
 5816SOL     OW18346   0.843   3.929   2.602
 5816SOL    HW118347   0.851   3.888   2.693
 5816SOL    HW218348   0.931   3.969   2.575
 5817SOL     OW18349   6.035   3.719   3.316
 5817SOL    HW118350   5.978   3.777   3.374
 5817SOL    HW218351   5.981   3.686   3.238
 5818SOL     OW18352   2.505   6.808   5.526
 5818SOL    HW118353   2.420   6.766   5.558
 5818SOL    HW218354   2.489   6.905   5.508
 5819SOL     OW18355   4.490   5.164   0.115
 5819SOL    HW118356   4.452   5.083   0.159
 5819SOL    HW218357   4.541   5.137   0.033
 5820SOL     OW18358   5.846   5.682   2.303
 5820SOL    HW118359   5.776   5.682   2.232
 5820SOL    HW218360   5.826   5.612   2.371
 5821SOL     OW18361   6.992   0.517   0.991
 5821SOL    HW118362   7.007   0.571   0.908
 5821SOL    HW218363   6.902   0.540   1.030
 5822SOL     OW18364   1.799   3.259   2.517
 5822SOL    HW118365   1.778   3.206   2.435
 5822SOL    HW218366   1.817   3.196   2.593
 5823SOL     OW18367   2.055   5.627   4.157
 5823SOL    HW118368   2.028   5.723   4.165
 5823SOL    HW218369   1.974   5.569   4.166
 5824SOL     OW18370   1.011   0.280   1.830
 5824SOL    HW118371   1.035   0.233   1.914
 5824SOL    HW218372   0.919   0.256   1.802
 5825SOL     OW18373   5.978   0.234   4.164
 5825SOL    HW118374   5.999   0.142   4.196
 5825SOL    HW218375   6.050   0.266   4.103
 5826SOL     OW18376   0.433   0.229   4.812
 5826SOL    HW118377   0.361   0.225   4.881
 5826SOL    HW218378   0.508   0.285   4.846
 5827SOL     OW18379   2.430   4.566   4.742
 5827SOL    HW118380   2.473   4.580   4.653
 5827SOL    HW218381   2.384   4.478   4.744
 5828SOL     OW18382   3.984   6.747   4.479
 5828SOL    HW118383   3.894   6.709   4.460
 5828SOL    HW218384   4.027   6.776   4.394
 5829SOL     OW18385   2.031   1.065   4.169
 5829SOL    HW118386   1.956   1.072   4.103
 5829SOL    HW218387   2.107   1.014   4.129
 5830SOL     OW18388   3.513   5.579   4.918
 5830SOL    HW118389   3.455   5.585   4.837
 5830SOL    HW218390   3.557   5.490   4.922
 5831SOL     OW18391   1.641   2.570   5.335
 5831SOL    HW118392   1.627   2.542   5.240
 5831SOL    HW218393   1.555   2.560   5.385
 5832SOL     OW18394   2.916   4.860   1.277
 5832SOL    HW118395   2.987   4.929   1.284
 5832SOL    HW218396   2.836   4.899   1.230
 5833SOL     OW18397   3.637   4.212   6.364
 5833SOL    HW118398   3.694   4.196   6.283
 5833SOL    HW218399   3.546   4.241   6.334
 5834SOL     OW18400   5.401   2.944   6.352
 5834SOL    HW118401   5.462   2.971   6.426
 5834SOL    HW218402   5.452   2.890   6.285
 5835SOL     OW18403   5.154   0.966   2.298
 5835SOL    HW118404   5.114   0.943   2.386
 5835SOL    HW218405   5.250   0.942   2.297
 5836SOL     OW18406   4.745   6.941   3.156
 5836SOL    HW118407   4.748   0.022   3.170
 5836SOL    HW218408   4.683   6.901   3.223
 5837SOL     OW18409   3.365   4.774   0.184
 5837SOL    HW118410   3.375   4.785   0.085
 5837SOL    HW218411   3.273   4.804   0.211
 5838SOL     OW18412   2.991   1.884   0.712
 5838SOL    HW118413   2.895   1.913   0.707
 5838SOL    HW218414   2.996   1.792   0.750
 5839SOL     OW18415   2.075   1.871   0.992
 5839SOL    HW118416   2.067   1.929   1.073
 5839SOL    HW218417   2.105   1.780   1.019
 5840SOL     OW18418   1.116   3.357   3.235
 5840SOL    HW118419   1.039   3.411   3.269
 5840SOL    HW218420   1.202   3.393   3.272
 5841SOL     OW18421   5.114   2.652   0.529
 5841SOL    HW118422   5.203   2.688   0.558
 5841SOL    HW218423   5.052   2.650   0.608
 5842SOL     OW18424   2.426   1.855   0.973
 5842SOL    HW118425   2.412   1.877   1.070
 5842SOL    HW218426   2.367   1.914   0.918
 5843SOL     OW18427   1.816   3.538   1.617
 5843SOL    HW118428   1.756   3.495   1.549
 5843SOL    HW218429   1.779   3.522   1.709
 5844SOL     OW18430   0.596   6.942   5.290
 5844SOL    HW118431   0.504   6.950   5.329
 5844SOL    HW218432   0.655   6.892   5.354
 5845SOL     OW18433   1.090   6.638   1.872
 5845SOL    HW118434   1.184   6.653   1.904
 5845SOL    HW218435   1.081   6.545   1.837
 5846SOL     OW18436   6.881   3.947   5.438
 5846SOL    HW118437   6.961   3.887   5.439
 5846SOL    HW218438   6.910   4.039   5.413
 5847SOL     OW18439   2.510   3.750   0.670
 5847SOL    HW118440   2.460   3.734   0.755
 5847SOL    HW218441   2.558   3.838   0.676
 5848SOL     OW18442   2.041   5.034   2.131
 5848SOL    HW118443   2.044   5.110   2.195
 5848SOL    HW218444   1.946   5.013   2.107
 5849SOL     OW18445   3.430   5.647   5.650
 5849SOL    HW118446   3.336   5.681   5.657
 5849SOL    HW218447   3.432   5.549   5.669
 5850SOL     OW18448   1.190   1.384   2.206
 5850SOL    HW118449   1.125   1.435   2.149
 5850SOL    HW218450   1.223   1.443   2.280
 5851SOL     OW18451   5.818   4.069   4.501
 5851SOL    HW118452   5.751   4.129   4.545
 5851SOL    HW218453   5.845   4.109   4.413
 5852SOL     OW18454   4.611   4.251   2.452
 5852SOL    HW118455   4.584   4.212   2.540
 5852SOL    HW218456   4.677   4.324   2.467
 5853SOL     OW18457   3.368   5.058   5.403
 5853SOL    HW118458   3.380   5.065   5.502
 5853SOL    HW218459   3.458   5.047   5.360
 5854SOL     OW18460   2.605   4.434   5.658
 5854SOL    HW118461   2.607   4.452   5.560
 5854SOL    HW218462   2.647   4.510   5.707
 5855SOL     OW18463   2.059   3.489   3.489
 5855SOL    HW118464   2.100   3.423   3.426
 5855SOL    HW218465   1.961   3.471   3.497
 5856SOL     OW18466   1.384   6.791   3.241
 5856SOL    HW118467   1.310   6.768   3.304
 5856SOL    HW218468   1.418   6.883   3.263
 5857SOL     OW18469   6.961   4.351   6.099
 5857SOL    HW118470   6.872   4.396   6.104
 5857SOL    HW218471   6.965   4.278   6.168
 5858SOL     OW18472   1.952   0.517   3.888
 5858SOL    HW118473   1.889   0.575   3.835
 5858SOL    HW218474   1.925   0.519   3.984
 5859SOL     OW18475   6.000   0.512   2.004
 5859SOL    HW118476   5.952   0.580   1.949
 5859SOL    HW218477   5.967   0.421   1.980
 5860SOL     OW18478   0.326   4.098   3.338
 5860SOL    HW118479   0.399   4.074   3.403
 5860SOL    HW218480   0.241   4.053   3.367
 5861SOL     OW18481   5.440   0.856   5.822
 5861SOL    HW118482   5.370   0.808   5.769
 5861SOL    HW218483   5.447   0.816   5.913
 5862SOL     OW18484   0.278   5.527   2.446
 5862SOL    HW118485   0.196   5.552   2.395
 5862SOL    HW218486   0.297   5.598   2.514
 5863SOL     OW18487   3.863   0.576   5.417
 5863SOL    HW118488   3.903   0.520   5.490
 5863SOL    HW218489   3.769   0.547   5.400
 5864SOL     OW18490   3.267   4.041   2.251
 5864SOL    HW118491   3.310   4.028   2.162
 5864SOL    HW218492   3.255   4.139   2.268
 5865SOL     OW18493   6.022   0.916   5.579
 5865SOL    HW118494   6.036   1.004   5.535
 5865SOL    HW218495   6.110   0.878   5.608
 5866SOL     OW18496   3.608   2.975   3.337
 5866SOL    HW118497   3.569   2.904   3.279
 5866SOL    HW218498   3.586   2.955   3.433
 5867SOL     OW18499   3.630   2.024   2.268
 5867SOL    HW118500   3.626   2.095   2.197
 5867SOL    HW218501   3.620   2.066   2.358
 5868SOL     OW18502   1.502   1.359   5.871
 5868SOL    HW118503   1.495   1.441   5.929
 5868SOL    HW218504   1.583   1.307   5.897
 5869SOL     OW18505   0.588   5.943   3.808
 5869SOL    HW118506   0.530   5.862   3.816
 5869SOL    HW218507   0.683   5.918   3.827
 5870SOL     OW18508   4.169   4.833   4.309
 5870SOL    HW118509   4.137   4.758   4.251
 5870SOL    HW218510   4.146   4.920   4.265
 5871SOL     OW18511   3.190   3.637   4.042
 5871SOL    HW118512   3.119   3.707   4.042
 5871SOL    HW218513   3.228   3.628   4.134
 5872SOL     OW18514   4.362   5.714   2.004
 5872SOL    HW118515   4.439   5.778   2.011
 5872SOL    HW218516   4.286   5.759   1.956
 5873SOL     OW18517   3.636   5.156   1.905
 5873SOL    HW118518   3.687   5.239   1.882
 5873SOL    HW218519   3.564   5.178   1.970
 5874SOL     OW18520   3.196   4.582   5.584
 5874SOL    HW118521   3.134   4.598   5.507
 5874SOL    HW218522   3.175   4.646   5.658
 5875SOL     OW18523   2.765   1.122   0.509
 5875SOL    HW118524   2.793   1.156   0.599
 5875SOL    HW218525   2.798   1.029   0.498
 5876SOL     OW18526   3.249   3.380   1.718
 5876SOL    HW118527   3.326   3.423   1.670
 5876SOL    HW218528   3.229   3.292   1.676
 5877SOL     OW18529   5.729   4.735   6.863
 5877SOL    HW118530   5.635   4.736   6.896
 5877SOL    HW218531   5.791   4.710   6.938
 5878SOL     OW18532   2.332   4.288   2.406
 5878SOL    HW118533   2.311   4.298   2.309
 5878SOL    HW218534   2.313   4.194   2.435
 5879SOL     OW18535   6.964   3.851   5.741
 5879SOL    HW118536   7.005   3.901   5.817
 5879SOL    HW218537   6.925   3.915   5.675
 5880SOL     OW18538   1.641   5.912   1.072
 5880SOL    HW118539   1.731   5.917   1.115
 5880SOL    HW218540   1.647   5.855   0.990
 5881SOL     OW18541   0.006   5.380   4.290
 5881SOL    HW118542   0.028   5.353   4.197
 5881SOL    HW218543   0.070   5.452   4.319
 5882SOL     OW18544   4.934   1.052   1.318
 5882SOL    HW118545   4.870   0.977   1.298
 5882SOL    HW218546   4.884   1.129   1.357
 5883SOL     OW18547   0.149   3.369   5.853
 5883SOL    HW118548   0.112   3.458   5.827
 5883SOL    HW218549   0.098   3.297   5.805
 5884SOL     OW18550   0.898   1.491   3.029
 5884SOL    HW118551   0.856   1.480   2.939
 5884SOL    HW218552   0.996   1.471   3.023
 5885SOL     OW18553   6.429   6.306   1.363
 5885SOL    HW118554   6.472   6.395   1.375
 5885SOL    HW218555   6.496   6.233   1.380
 5886SOL     OW18556   1.284   1.665   6.112
 5886SOL    HW118557   1.212   1.693   6.175
 5886SOL    HW218558   1.250   1.595   6.050
 5887SOL     OW18559   3.836   0.278   4.806
 5887SOL    HW118560   3.804   0.341   4.735
 5887SOL    HW218561   3.927   0.245   4.782
 5888SOL     OW18562   2.232   0.362   3.653
 5888SOL    HW118563   2.138   0.340   3.679
 5888SOL    HW218564   2.293   0.290   3.687
 5889SOL     OW18565   2.686   0.903   1.079
 5889SOL    HW118566   2.730   0.978   1.127
 5889SOL    HW218567   2.595   0.932   1.049
 5890SOL     OW18568   2.833   5.305   5.961
 5890SOL    HW118569   2.843   5.228   5.898
 5890SOL    HW218570   2.819   5.272   6.054
 5891SOL     OW18571   3.283   3.571   0.054
 5891SOL    HW118572   3.269   3.654   0.108
 5891SOL    HW218573   3.330   3.594   6.987
 5892SOL     OW18574   0.621   6.883   1.391
 5892SOL    HW118575   0.643   6.950   1.319
 5892SOL    HW218576   0.552   6.819   1.357
 5893SOL     OW18577   1.201   1.504   3.896
 5893SOL    HW118578   1.210   1.476   3.800
 5893SOL    HW218579   1.212   1.603   3.904
 5894SOL     OW18580   0.736   3.629   3.152
 5894SOL    HW118581   0.772   3.548   3.105
 5894SOL    HW218582   0.648   3.654   3.113
 5895SOL     OW18583   5.707   3.650   3.810
 5895SOL    HW118584   5.627   3.709   3.826
 5895SOL    HW218585   5.707   3.575   3.875
 5896SOL     OW18586   3.585   2.734   6.996
 5896SOL    HW118587   3.526   2.696   6.925
 5896SOL    HW218588   3.677   2.748   6.958
 5897SOL     OW18589   4.106   0.062   1.051
 5897SOL    HW118590   4.013   0.098   1.059
 5897SOL    HW218591   4.169   0.136   1.028
 5898SOL     OW18592   2.055   0.529   2.637
 5898SOL    HW118593   2.024   0.560   2.548
 5898SOL    HW218594   2.094   0.437   2.629
 5899SOL     OW18595   5.886   6.993   4.601
 5899SOL    HW118596   5.820   6.923   4.630
 5899SOL    HW218597   5.894   6.991   4.501
 5900SOL     OW18598   5.011   4.907   2.719
 5900SOL    HW118599   5.080   4.852   2.672
 5900SOL    HW218600   4.920   4.882   2.685
 5901SOL     OW18601   2.687   6.565   5.724
 5901SOL    HW118602   2.740   6.516   5.794
 5901SOL    HW218603   2.723   6.658   5.714
 5902SOL     OW18604   6.376   2.042   6.992
 5902SOL    HW118605   6.401   1.965   0.032
 5902SOL    HW218606   6.429   2.123   0.001
 5903SOL     OW18607   6.384   3.302   6.631
 5903SOL    HW118608   6.415   3.307   6.536
 5903SOL    HW218609   6.310   3.367   6.646
 5904SOL     OW18610   0.002   3.443   2.382
 5904SOL    HW118611   6.982   3.385   2.310
 5904SOL    HW218612   6.958   3.519   2.400
 5905SOL     OW18613   6.984   5.992   2.105
 5905SOL    HW118614   6.887   5.981   2.084
 5905SOL    HW218615   6.994   6.027   2.198
 5906SOL     OW18616   5.574   0.964   3.649
 5906SOL    HW118617   5.672   0.984   3.643
 5906SOL    HW218618   5.548   0.903   3.574
 5907SOL     OW18619   1.013   5.798   2.210
 5907SOL    HW118620   1.005   5.809   2.309
 5907SOL    HW218621   1.073   5.869   2.173
 5908SOL     OW18622   6.890   2.896   4.989
 5908SOL    HW118623   6.808   2.866   5.039
 5908SOL    HW218624   6.964   2.913   5.054
 5909SOL     OW18625   0.310   5.968   0.666
 5909SOL    HW118626   0.307   5.989   0.763
 5909SOL    HW218627   0.361   6.038   0.617
 5910SOL     OW18628   2.009   2.638   3.090
 5910SOL    HW118629   2.000   2.686   3.178
 5910SOL    HW218630   2.093   2.667   3.045
 5911SOL     OW18631   6.613   5.891   6.141
 5911SOL    HW118632   6.575   5.799   6.148
 5911SOL    HW218633   6.661   5.901   6.054
 5912SOL     OW18634   6.917   1.511   3.914
 5912SOL    HW118635   6.855   1.573   3.866
 5912SOL    HW218636   6.970   1.458   3.848
 5913SOL     OW18637   5.411   2.405   6.777
 5913SOL    HW118638   5.386   2.347   6.855
 5913SOL    HW218639   5.337   2.402   6.710
 5914SOL     OW18640   0.722   6.515   6.950
 5914SOL    HW118641   0.634   6.560   6.967
 5914SOL    HW218642   0.738   6.445   0.002
 5915SOL     OW18643   4.264   1.078   6.150
 5915SOL    HW118644   4.257   0.980   6.168
 5915SOL    HW218645   4.285   1.093   6.053
 5916SOL     OW18646   1.248   6.493   2.712
 5916SOL    HW118647   1.196   6.555   2.772
 5916SOL    HW218648   1.217   6.504   2.618
 5917SOL     OW18649   3.187   4.524   6.992
 5917SOL    HW118650   3.249   4.602   7.000
 5917SOL    HW218651   3.229   4.444   0.015
 5918SOL     OW18652   3.087   6.599   6.000
 5918SOL    HW118653   3.105   6.571   6.095
 5918SOL    HW218654   2.990   6.584   5.979
 5919SOL     OW18655   3.282   3.035   3.440
 5919SOL    HW118656   3.350   3.101   3.472
 5919SOL    HW218657   3.190   3.071   3.458
 5920SOL     OW18658   0.051   0.319   5.752
 5920SOL    HW118659   7.014   0.366   5.820
 5920SOL    HW218660   7.009   0.284   5.680
 5921SOL     OW18661   3.267   4.902   6.595
 5921SOL    HW118662   3.203   4.825   6.593
 5921SOL    HW218663   3.232   4.976   6.537
 5922SOL     OW18664   5.285   3.654   3.154
 5922SOL    HW118665   5.330   3.734   3.114
 5922SOL    HW218666   5.227   3.610   3.085
 5923SOL     OW18667   0.188   0.924   1.490
 5923SOL    HW118668   0.286   0.921   1.513
 5923SOL    HW218669   0.160   0.838   1.449
 5924SOL     OW18670   6.233   0.399   2.997
 5924SOL    HW118671   6.160   0.380   2.932
 5924SOL    HW218672   6.317   0.422   2.947
 5925SOL     OW18673   4.672   5.789   1.266
 5925SOL    HW118674   4.725   5.735   1.201
 5925SOL    HW218675   4.709   5.881   1.272
 5926SOL     OW18676   3.842   5.177   3.300
 5926SOL    HW118677   3.794   5.206   3.383
 5926SOL    HW218678   3.832   5.078   3.288
 5927SOL     OW18679   0.902   4.562   1.888
 5927SOL    HW118680   0.904   4.499   1.810
 5927SOL    HW218681   0.812   4.604   1.895
 5928SOL     OW18682   3.775   0.298   0.416
 5928SOL    HW118683   3.719   0.244   0.479
 5928SOL    HW218684   3.721   0.372   0.378
 5929SOL     OW18685   0.754   0.932   6.151
 5929SOL    HW118686   0.658   0.957   6.157
 5929SOL    HW218687   0.763   0.847   6.098
 5930SOL     OW18688   1.518   3.704   2.075
 5930SOL    HW118689   1.428   3.745   2.091
 5930SOL    HW218690   1.535   3.634   2.145
 5931SOL     OW18691   5.675   5.782   3.013
 5931SOL    HW118692   5.703   5.857   2.952
 5931SOL    HW218693   5.752   5.720   3.027
 5932SOL     OW18694   2.650   1.233   6.842
 5932SOL    HW118695   2.730   1.277   6.801
 5932SOL    HW218696   2.608   1.172   6.776
 5933SOL     OW18697   6.101   5.978   3.726
 5933SOL    HW118698   6.168   5.989   3.653
 5933SOL    HW218699   6.054   6.064   3.742
 5934SOL     OW18700   2.745   3.677   5.651
 5934SOL    HW118701   2.830   3.659   5.700
 5934SOL    HW218702   2.764   3.695   5.555
 5935SOL     OW18703   6.718   6.666   5.032
 5935SOL    HW118704   6.735   6.651   4.934
 5935SOL    HW218705   6.650   6.600   5.064
 5936SOL     OW18706   2.893   3.247   2.081
 5936SOL    HW118707   2.983   3.278   2.112
 5936SOL    HW218708   2.824   3.270   2.150
 5937SOL     OW18709   6.793   3.039   1.465
 5937SOL    HW118710   6.817   2.990   1.549
 5937SOL    HW218711   6.720   3.105   1.484
 5938SOL     OW18712   6.816   5.055   5.122
 5938SOL    HW118713   6.753   5.070   5.199
 5938SOL    HW218714   6.768   5.072   5.036
 5939SOL     OW18715   3.393   0.477   4.493
 5939SOL    HW118716   3.483   0.510   4.462
 5939SOL    HW218717   3.323   0.544   4.469
 5940SOL     OW18718   4.976   5.873   2.584
 5940SOL    HW118719   5.062   5.921   2.569
 5940SOL    HW218720   4.940   5.840   2.497
 5941SOL     OW18721   0.121   2.124   1.595
 5941SOL    HW118722   0.100   2.069   1.675
 5941SOL    HW218723   0.150   2.065   1.520
 5942SOL     OW18724   5.891   3.508   5.757
 5942SOL    HW118725   5.867   3.460   5.673
 5942SOL    HW218726   5.988   3.532   5.754
 5943SOL     OW18727   3.475   3.874   0.879
 5943SOL    HW118728   3.522   3.807   0.822
 5943SOL    HW218729   3.529   3.892   0.961
 5944SOL     OW18730   0.904   3.516   6.623
 5944SOL    HW118731   0.888   3.536   6.720
 5944SOL    HW218732   0.838   3.447   6.593
 5945SOL     OW18733   0.086   5.493   5.370
 5945SOL    HW118734   0.163   5.444   5.329
 5945SOL    HW218735   0.063   5.453   5.459
 5946SOL     OW18736   3.705   4.537   0.558
 5946SOL    HW118737   3.675   4.455   0.607
 5946SOL    HW218738   3.718   4.515   0.462
 5947SOL     OW18739   3.185   3.025   4.975
 5947SOL    HW118740   3.164   2.963   5.051
 5947SOL    HW218741   3.223   3.110   5.011
 5948SOL     OW18742   4.839   4.012   2.096
 5948SOL    HW118743   4.796   4.027   2.185
 5948SOL    HW218744   4.814   4.086   2.034
 5949SOL     OW18745   6.900   5.016   2.119
 5949SOL    HW118746   6.912   5.058   2.209
 5949SOL    HW218747   6.956   4.934   2.113
 5950SOL     OW18748   5.040   1.751   5.828
 5950SOL    HW118749   5.016   1.696   5.748
 5950SOL    HW218750   4.959   1.799   5.861
 5951SOL     OW18751   1.201   4.783   6.055
 5951SOL    HW118752   1.135   4.782   6.129
 5951SOL    HW218753   1.292   4.804   6.091
 5952SOL     OW18754   3.913   5.080   1.383
 5952SOL    HW118755   3.876   4.991   1.355
 5952SOL    HW218756   4.000   5.096   1.335
 5953SOL     OW18757   6.301   2.374   5.381
 5953SOL    HW118758   6.346   2.386   5.470
 5953SOL    HW218759   6.229   2.305   5.390
 5954SOL     OW18760   0.647   6.164   4.752
 5954SOL    HW118761   0.638   6.142   4.655
 5954SOL    HW218762   0.635   6.262   4.765
 5955SOL     OW18763   6.070   3.936   0.656
 5955SOL    HW118764   6.123   3.921   0.739
 5955SOL    HW218765   6.132   3.947   0.578
 5956SOL     OW18766   4.662   2.263   4.276
 5956SOL    HW118767   4.745   2.308   4.309
 5956SOL    HW218768   4.608   2.328   4.222
 5957SOL     OW18769   1.186   1.058   2.442
 5957SOL    HW118770   1.244   0.977   2.435
 5957SOL    HW218771   1.242   1.140   2.434
 5958SOL     OW18772   3.408   6.827   2.883
 5958SOL    HW118773   3.403   6.874   2.971
 5958SOL    HW218774   3.316   6.813   2.847
 5959SOL     OW18775   4.615   2.270   4.820
 5959SOL    HW118776   4.619   2.227   4.910
 5959SOL    HW218777   4.674   2.221   4.756
 5960SOL     OW18778   4.403   6.839   6.027
 5960SOL    HW118779   4.309   6.863   6.004
 5960SOL    HW218780   4.465   6.911   5.996
 5961SOL     OW18781   3.099   1.603   3.042
 5961SOL    HW118782   3.161   1.598   3.120
 5961SOL    HW218783   3.149   1.638   2.962
 5962SOL     OW18784   5.744   5.965   0.423
 5962SOL    HW118785   5.699   6.018   0.351
 5962SOL    HW218786   5.733   6.012   0.511
 5963SOL     OW18787   3.788   4.864   0.287
 5963SOL    HW118788   3.691   4.888   0.285
 5963SOL    HW218789   3.815   4.841   0.380
 5964SOL     OW18790   2.061   6.785   2.535
 5964SOL    HW118791   2.093   6.874   2.501
 5964SOL    HW218792   2.114   6.712   2.493
 5965SOL     OW18793   1.818   6.332   0.014
 5965SOL    HW118794   1.916   6.314   0.022
 5965SOL    HW218795   1.774   6.320   0.103
 5966SOL     OW18796   2.382   0.808   5.724
 5966SOL    HW118797   2.454   0.743   5.700
 5966SOL    HW218798   2.413   0.901   5.704
 5967SOL     OW18799   2.203   1.860   4.811
 5967SOL    HW118800   2.187   1.782   4.871
 5967SOL    HW218801   2.277   1.916   4.847
 5968SOL     OW18802   5.557   2.371   0.737
 5968SOL    HW118803   5.586   2.456   0.693
 5968SOL    HW218804   5.637   2.314   0.757
 5969SOL     OW18805   5.514   0.740   6.790
 5969SOL    HW118806   5.502   0.653   6.742
 5969SOL    HW218807   5.567   0.803   6.732
 5970SOL     OW18808   0.191   2.964   0.759
 5970SOL    HW118809   0.261   2.954   0.829
 5970SOL    HW218810   0.104   2.928   0.793
 5971SOL     OW18811   6.752   0.061   3.488
 5971SOL    HW118812   6.751   6.987   3.448
 5971SOL    HW218813   6.731   0.055   3.585
 5972SOL     OW18814   5.325   5.160   0.767
 5972SOL    HW118815   5.275   5.074   0.776
 5972SOL    HW218816   5.261   5.236   0.779
 5973SOL     OW18817   1.883   3.042   2.967
 5973SOL    HW118818   1.817   2.993   3.023
 5973SOL    HW218819   1.915   3.123   3.016
 5974SOL     OW18820   4.688   1.305   6.099
 5974SOL    HW118821   4.655   1.260   6.016
 5974SOL    HW218822   4.614   1.359   6.139
 5975SOL     OW18823   5.933   4.620   0.025
 5975SOL    HW118824   5.955   4.524   0.044
 5975SOL    HW218825   5.994   4.655   6.972
 5976SOL     OW18826   3.241   3.782   5.616
 5976SOL    HW118827   3.177   3.843   5.663
 5976SOL    HW218828   3.293   3.834   5.549
 5977SOL     OW18829   6.759   5.047   0.202
 5977SOL    HW118830   6.830   5.107   0.166
 5977SOL    HW218831   6.761   4.959   0.154
 5978SOL     OW18832   3.172   5.224   0.141
 5978SOL    HW118833   3.270   5.243   0.130
 5978SOL    HW218834   3.153   5.131   0.108
 5979SOL     OW18835   6.310   0.755   1.557
 5979SOL    HW118836   6.217   0.792   1.556
 5979SOL    HW218837   6.376   0.829   1.545
 5980SOL     OW18838   3.775   3.176   1.656
 5980SOL    HW118839   3.780   3.116   1.736
 5980SOL    HW218840   3.682   3.209   1.646
 5981SOL     OW18841   3.551   1.877   0.068
 5981SOL    HW118842   3.618   1.951   0.067
 5981SOL    HW218843   3.469   1.905   0.019
 5982SOL     OW18844   6.081   2.221   1.685
 5982SOL    HW118845   6.041   2.171   1.761
 5982SOL    HW218846   6.178   2.238   1.703
 5983SOL     OW18847   0.086   0.839   4.074
 5983SOL    HW118848   0.066   0.802   3.983
 5983SOL    HW218849   0.106   0.936   4.066
 5984SOL     OW18850   6.297   6.677   2.679
 5984SOL    HW118851   6.320   6.623   2.760
 5984SOL    HW218852   6.201   6.707   2.686
 5985SOL     OW18853   6.237   2.190   2.778
 5985SOL    HW118854   6.168   2.205   2.849
 5985SOL    HW218855   6.209   2.113   2.720
 5986SOL     OW18856   4.261   3.700   5.511
 5986SOL    HW118857   4.309   3.623   5.470
 5986SOL    HW218858   4.328   3.769   5.541
 5987SOL     OW18859   6.463   0.768   5.217
 5987SOL    HW118860   6.377   0.808   5.249
 5987SOL    HW218861   6.523   0.753   5.296
 5988SOL     OW18862   2.204   1.930   0.305
 5988SOL    HW118863   2.299   1.955   0.322
 5988SOL    HW218864   2.177   1.856   0.367
 5989SOL     OW18865   0.532   5.795   6.999
 5989SOL    HW118866   0.557   5.857   6.925
 5989SOL    HW218867   0.489   5.847   0.055
 5990SOL     OW18868   3.988   4.799   1.499
 5990SOL    HW118869   3.956   4.757   1.414
 5990SOL    HW218870   3.924   4.778   1.573
 5991SOL     OW18871   5.768   6.213   1.184
 5991SOL    HW118872   5.864   6.186   1.174
 5991SOL    HW218873   5.732   6.239   1.095
 5992SOL     OW18874   3.589   0.038   2.199
 5992SOL    HW118875   3.649   6.994   2.149
 5992SOL    HW218876   3.572   0.120   2.144
 5993SOL     OW18877   6.028   2.263   0.252
 5993SOL    HW118878   6.043   2.308   0.163
 5993SOL    HW218879   6.046   2.165   0.243
 5994SOL     OW18880   0.029   2.700   0.486
 5994SOL    HW118881   0.125   2.714   0.507
 5994SOL    HW218882   6.991   2.719   0.567
 5995SOL     OW18883   4.939   3.565   1.623
 5995SOL    HW118884   4.982   3.552   1.712
 5995SOL    HW218885   4.857   3.622   1.634
 5996SOL     OW18886   2.909   5.471   1.528
 5996SOL    HW118887   2.922   5.378   1.492
 5996SOL    HW218888   2.946   5.475   1.621
 5997SOL     OW18889   7.011   6.882   3.408
 5997SOL    HW118890   0.047   6.851   3.330
 5997SOL    HW218891   0.040   6.858   3.493
 5998SOL     OW18892   6.847   0.676   1.582
 5998SOL    HW118893   6.879   0.581   1.593
 5998SOL    HW218894   6.806   0.687   1.491
 5999SOL     OW18895   3.996   3.160   1.142
 5999SOL    HW118896   3.923   3.118   1.087
 5999SOL    HW218897   3.970   3.158   1.238
 6000SOL     OW18898   6.740   4.828   0.036
 6000SOL    HW118899   6.743   4.883   6.971
 6000SOL    HW218900   6.739   4.731   0.013
 6001SOL     OW18901   5.295   6.124   5.144
 6001SOL    HW118902   5.358   6.182   5.092
 6001SOL    HW218903   5.219   6.096   5.086
 6002SOL     OW18904   6.468   6.488   4.724
 6002SOL    HW118905   6.377   6.522   4.702
 6002SOL    HW218906   6.460   6.411   4.788
 6003SOL     OW18907   6.918   2.911   4.168
 6003SOL    HW118908   7.008   2.882   4.202
 6003SOL    HW218909   6.885   2.845   4.101
 6004SOL     OW18910   5.370   2.742   3.787
 6004SOL    HW118911   5.376   2.813   3.717
 6004SOL    HW218912   5.458   2.734   3.834
 6005SOL     OW18913   4.154   4.687   5.934
 6005SOL    HW118914   4.195   4.774   5.964
 6005SOL    HW218915   4.154   4.682   5.834
 6006SOL     OW18916   3.503   6.094   6.037
 6006SOL    HW118917   3.466   6.004   6.013
 6006SOL    HW218918   3.438   6.164   6.009
 6007SOL     OW18919   1.117   4.998   5.570
 6007SOL    HW118920   1.162   4.955   5.648
 6007SOL    HW218921   1.099   5.095   5.591
 6008SOL     OW18922   2.536   5.094   5.579
 6008SOL    HW118923   2.529   5.121   5.675
 6008SOL    HW218924   2.543   4.994   5.573
 6009SOL     OW18925   4.136   5.490   3.656
 6009SOL    HW118926   4.154   5.462   3.750
 6009SOL    HW218927   4.208   5.553   3.625
 6010SOL     OW18928   0.005   4.616   4.909
 6010SOL    HW118929   0.054   4.670   4.978
 6010SOL    HW218930   0.011   4.519   4.932
 6011SOL     OW18931   6.132   1.192   2.363
 6011SOL    HW118932   6.155   1.260   2.293
 6011SOL    HW218933   6.213   1.172   2.417
 6012SOL     OW18934   6.912   0.427   6.016
 6012SOL    HW118935   6.934   0.396   6.108
 6012SOL    HW218936   6.888   0.524   6.019
 6013SOL     OW18937   5.654   1.018   2.858
 6013SOL    HW118938   5.619   0.935   2.815
 6013SOL    HW218939   5.750   1.031   2.832
 6014SOL     OW18940   3.779   3.122   4.006
 6014SOL    HW118941   3.727   3.207   4.009
 6014SOL    HW218942   3.848   3.127   3.933
 6015SOL     OW18943   6.181   1.937   4.657
 6015SOL    HW118944   6.146   2.004   4.592
 6015SOL    HW218945   6.242   1.873   4.609
 6016SOL     OW18946   5.293   1.500   4.631
 6016SOL    HW118947   5.315   1.480   4.726
 6016SOL    HW218948   5.195   1.522   4.623
 6017SOL     OW18949   0.264   3.060   4.892
 6017SOL    HW118950   0.310   2.974   4.914
 6017SOL    HW218951   0.219   3.096   4.974
 6018SOL     OW18952   3.698   1.379   5.767
 6018SOL    HW118953   3.787   1.405   5.803
 6018SOL    HW218954   3.704   1.287   5.728
 6019SOL     OW18955   0.284   3.721   6.448
 6019SOL    HW118956   0.192   3.755   6.465
 6019SOL    HW218957   0.299   3.712   6.349
 6020SOL     OW18958   0.495   4.447   0.409
 6020SOL    HW118959   0.446   4.405   0.486
 6020SOL    HW218960   0.556   4.518   0.444
 6021SOL     OW18961   3.773   0.547   3.277
 6021SOL    HW118962   3.835   0.561   3.200
 6021SOL    HW218963   3.797   0.462   3.323
 6022SOL     OW18964   6.594   1.700   2.044
 6022SOL    HW118965   6.567   1.748   2.127
 6022SOL    HW218966   6.665   1.633   2.066
 6023SOL     OW18967   4.751   0.838   1.195
 6023SOL    HW118968   4.778   0.751   1.235
 6023SOL    HW218969   4.750   0.830   1.095
 6024SOL     OW18970   0.240   5.121   0.346
 6024SOL    HW118971   0.211   5.183   0.274
 6024SOL    HW218972   0.332   5.147   0.377
 6025SOL     OW18973   2.410   1.490   4.233
 6025SOL    HW118974   2.414   1.396   4.200
 6025SOL    HW218975   2.398   1.552   4.155
 6026SOL     OW18976   5.947   4.055   4.265
 6026SOL    HW118977   5.951   3.957   4.247
 6026SOL    HW218978   5.964   4.105   4.180
 6027SOL     OW18979   6.121   3.312   5.685
 6027SOL    HW118980   6.101   3.269   5.597
 6027SOL    HW218981   6.117   3.411   5.676
 6028SOL     OW18982   5.067   4.643   6.517
 6028SOL    HW118983   5.163   4.658   6.491
 6028SOL    HW218984   5.058   4.553   6.559
 6029SOL     OW18985   2.649   0.868   3.393
 6029SOL    HW118986   2.703   0.907   3.319
 6029SOL    HW218987   2.646   0.769   3.385
 6030SOL     OW18988   5.203   3.644   4.653
 6030SOL    HW118989   5.188   3.711   4.580
 6030SOL    HW218990   5.115   3.608   4.683
 6031SOL     OW18991   0.450   5.851   5.166
 6031SOL    HW118992   0.463   5.945   5.134
 6031SOL    HW218993   0.528   5.823   5.221
 6032SOL     OW18994   2.962   6.421   3.716
 6032SOL    HW118995   2.929   6.342   3.664
 6032SOL    HW218996   2.999   6.391   3.803
 6033SOL     OW18997   2.478   1.716   2.841
 6033SOL    HW118998   2.479   1.652   2.919
 6033SOL    HW218999   2.550   1.690   2.777
 6034SOL     OW19000   1.665   0.280   6.758
 6034SOL    HW119001   1.607   0.361   6.757
 6034SOL    HW219002   1.690   0.258   6.852
 6035SOL     OW19003   1.323   0.998   2.734
 6035SOL    HW119004   1.387   1.005   2.657
 6035SOL    HW219005   1.363   0.941   2.805
 6036SOL     OW19006   6.021   3.362   0.601
 6036SOL    HW119007   6.015   3.460   0.618
 6036SOL    HW219008   5.940   3.331   0.552
 6037SOL     OW19009   4.190   1.859   0.514
 6037SOL    HW119010   4.237   1.848   0.601
 6037SOL    HW219011   4.095   1.829   0.523
 6038SOL     OW19012   0.581   2.108   6.321
 6038SOL    HW119013   0.558   2.184   6.260
 6038SOL    HW219014   0.515   2.105   6.396
 6039SOL     OW19015   3.340   4.087   3.853
 6039SOL    HW119016   3.360   4.101   3.950
 6039SOL    HW219017   3.392   4.008   3.820
 6040SOL     OW19018   1.267   1.598   6.787
 6040SOL    HW119019   1.210   1.654   6.726
 6040SOL    HW219020   1.232   1.504   6.788
 6041SOL     OW19021   3.071   2.509   5.688
 6041SOL    HW119022   3.123   2.480   5.769
 6041SOL    HW219023   3.127   2.572   5.634
 6042SOL     OW19024   2.812   6.217   3.639
 6042SOL    HW119025   2.729   6.250   3.684
 6042SOL    HW219026   2.788   6.142   3.577
 6043SOL     OW19027   1.836   0.821   4.067
 6043SOL    HW119028   1.749   0.854   4.031
 6043SOL    HW219029   1.909   0.839   4.000
 6044SOL     OW19030   1.521   2.239   1.777
 6044SOL    HW119031   1.567   2.177   1.714
 6044SOL    HW219032   1.576   2.322   1.788
 6045SOL     OW19033   5.172   2.615   3.082
 6045SOL    HW119034   5.183   2.712   3.059
 6045SOL    HW219035   5.089   2.579   3.040
 6046SOL     OW19036   3.495   3.162   2.056
 6046SOL    HW119037   3.405   3.128   2.028
 6046SOL    HW219038   3.547   3.189   1.975
 6047SOL     OW19039   5.789   1.724   0.859
 6047SOL    HW119040   5.870   1.772   0.893
 6047SOL    HW219041   5.718   1.790   0.834
 6048SOL     OW19042   5.685   5.714   4.817
 6048SOL    HW119043   5.767   5.687   4.868
 6048SOL    HW219044   5.640   5.790   4.863
 6049SOL     OW19045   4.947   4.661   5.194
 6049SOL    HW119046   4.970   4.705   5.281
 6049SOL    HW219047   4.946   4.729   5.122
 6050SOL     OW19048   3.192   5.388   1.291
 6050SOL    HW119049   3.266   5.329   1.258
 6050SOL    HW219050   3.138   5.419   1.213
 6051SOL     OW19051   0.723   1.473   3.266
 6051SOL    HW119052   0.706   1.568   3.291
 6051SOL    HW219053   0.801   1.469   3.203
 6052SOL     OW19054   5.725   6.352   0.473
 6052SOL    HW119055   5.681   6.322   0.388
 6052SOL    HW219056   5.793   6.422   0.452
 6053SOL     OW19057   4.456   2.111   6.126
 6053SOL    HW119058   4.476   2.191   6.070
 6053SOL    HW219059   4.505   2.117   6.213
 6054SOL     OW19060   4.479   4.592   1.235
 6054SOL    HW119061   4.553   4.658   1.223
 6054SOL    HW219062   4.419   4.594   1.156
 6055SOL     OW19063   3.514   4.894   0.385
 6055SOL    HW119064   3.462   4.841   0.318
 6055SOL    HW219065   3.527   4.839   0.468
 6056SOL     OW19066   6.079   4.292   5.223
 6056SOL    HW119067   6.164   4.343   5.227
 6056SOL    HW219068   6.060   4.266   5.128
 6057SOL     OW19069   5.082   0.343   2.887
 6057SOL    HW119070   5.150   0.384   2.826
 6057SOL    HW219071   5.091   0.244   2.886
 6058SOL     OW19072   5.680   2.475   6.744
 6058SOL    HW119073   5.580   2.470   6.739
 6058SOL    HW219074   5.719   2.386   6.719
 6059SOL     OW19075   5.217   4.456   5.891
 6059SOL    HW119076   5.193   4.409   5.806
 6059SOL    HW219077   5.199   4.395   5.969
 6060SOL     OW19078   2.981   3.258   6.777
 6060SOL    HW119079   2.886   3.285   6.794
 6060SOL    HW219080   3.039   3.293   6.851
 6061SOL     OW19081   4.451   4.984   0.643
 6061SOL    HW119082   4.491   4.894   0.663
 6061SOL    HW219083   4.503   5.029   0.571
 6062SOL     OW19084   2.776   2.428   0.705
 6062SOL    HW119085   2.682   2.440   0.738
 6062SOL    HW219086   2.838   2.483   0.761
 6063SOL     OW19087   3.689   4.843   5.982
 6063SOL    HW119088   3.746   4.913   5.939
 6063SOL    HW219089   3.594   4.854   5.952
 6064SOL     OW19090   7.007   0.234   0.989
 6064SOL    HW119091   0.017   0.190   1.074
 6064SOL    HW219092   7.012   0.333   1.000
 6065SOL     OW19093   1.006   5.276   2.297
 6065SOL    HW119094   0.981   5.372   2.286
 6065SOL    HW219095   1.066   5.248   2.222
 6066SOL     OW19096   5.044   0.192   3.599
 6066SOL    HW119097   4.997   0.116   3.644
 6066SOL    HW219098   5.070   0.164   3.506
 6067SOL     OW19099   6.219   0.067   5.934
 6067SOL    HW119100   6.246   0.049   5.839
 6067SOL    HW219101   6.276   0.141   5.971
 6068SOL     OW19102   4.886   1.348   5.429
 6068SOL    HW119103   4.899   1.375   5.525
 6068SOL    HW219104   4.826   1.268   5.425
 6069SOL     OW19105   0.019   2.733   5.716
 6069SOL    HW119106   0.106   2.687   5.697
 6069SOL    HW219107   0.036   2.829   5.738
 6070SOL     OW19108   3.492   1.757   1.195
 6070SOL    HW119109   3.590   1.740   1.183
 6070SOL    HW219110   3.472   1.767   1.293
 6071SOL     OW19111   5.737   6.330   4.872
 6071SOL    HW119112   5.754   6.428   4.873
 6071SOL    HW219113   5.766   6.290   4.959
 6072SOL     OW19114   0.153   2.490   1.222
 6072SOL    HW119115   0.217   2.475   1.146
 6072SOL    HW219116   0.193   2.457   1.307
 6073SOL     OW19117   4.729   2.430   0.559
 6073SOL    HW119118   4.724   2.347   0.615
 6073SOL    HW219119   4.687   2.412   0.470
 6074SOL     OW19120   1.343   6.260   2.351
 6074SOL    HW119121   1.322   6.357   2.350
 6074SOL    HW219122   1.259   6.207   2.365
 6075SOL     OW19123   4.454   6.521   6.385
 6075SOL    HW119124   4.468   6.563   6.475
 6075SOL    HW219125   4.360   6.538   6.355
 6076SOL     OW19126   2.721   4.865   4.088
 6076SOL    HW119127   2.722   4.859   3.988
 6076SOL    HW219128   2.708   4.773   4.127
 6077SOL     OW19129   6.218   6.587   1.585
 6077SOL    HW119130   6.218   6.487   1.597
 6077SOL    HW219131   6.311   6.622   1.600
 6078SOL     OW19132   4.857   4.117   0.136
 6078SOL    HW119133   4.914   4.160   0.206
 6078SOL    HW219134   4.800   4.046   0.178
 6079SOL     OW19135   4.190   4.253   5.887
 6079SOL    HW119136   4.258   4.321   5.915
 6079SOL    HW219137   4.109   4.299   5.849
 6080SOL     OW19138   1.245   4.749   0.752
 6080SOL    HW119139   1.177   4.700   0.807
 6080SOL    HW219140   1.305   4.801   0.813
 6081SOL     OW19141   0.510   3.850   4.767
 6081SOL    HW119142   0.586   3.866   4.704
 6081SOL    HW219143   0.482   3.936   4.808
 6082SOL     OW19144   4.474   0.842   1.003
 6082SOL    HW119145   4.547   0.780   0.976
 6082SOL    HW219146   4.410   0.853   0.927
 6083SOL     OW19147   5.110   6.122   6.666
 6083SOL    HW119148   5.165   6.122   6.750
 6083SOL    HW219149   5.121   6.034   6.619
 6084SOL     OW19150   0.547   6.928   2.488
 6084SOL    HW119151   0.641   6.898   2.473
 6084SOL    HW219152   0.547   7.006   2.551
 6085SOL     OW19153   6.882   6.138   0.410
 6085SOL    HW119154   6.839   6.212   0.463
 6085SOL    HW219155   6.979   6.159   0.398
 6086SOL     OW19156   3.862   3.554   6.716
 6086SOL    HW119157   3.782   3.523   6.766
 6086SOL    HW219158   3.892   3.484   6.652
 6087SOL     OW19159   5.040   6.864   0.426
 6087SOL    HW119160   5.032   6.880   0.525
 6087SOL    HW219161   4.950   6.875   0.384
 6088SOL     OW19162   5.217   6.619   4.344
 6088SOL    HW119163   5.287   6.632   4.274
 6088SOL    HW219164   5.237   6.676   4.424
 6089SOL     OW19165   6.337   2.340   2.512
 6089SOL    HW119166   6.280   2.422   2.506
 6089SOL    HW219167   6.358   2.321   2.608
 6090SOL     OW19168   3.645   5.801   4.115
 6090SOL    HW119169   3.666   5.818   4.019
 6090SOL    HW219170   3.661   5.705   4.137
 6091SOL     OW19171   2.382   1.442   1.392
 6091SOL    HW119172   2.339   1.491   1.468
 6091SOL    HW219173   2.442   1.505   1.342
 6092SOL     OW19174   4.201   6.398   1.625
 6092SOL    HW119175   4.160   6.449   1.701
 6092SOL    HW219176   4.300   6.414   1.624
 6093SOL     OW19177   2.525   1.583   2.290
 6093SOL    HW119178   2.569   1.502   2.253
 6093SOL    HW219179   2.442   1.556   2.339
 6094SOL     OW19180   0.613   6.794   4.364
 6094SOL    HW119181   0.534   6.815   4.421
 6094SOL    HW219182   0.619   6.695   4.350
 6095SOL     OW19183   4.350   6.066   0.339
 6095SOL    HW119184   4.339   6.161   0.310
 6095SOL    HW219185   4.435   6.030   0.300
 6096SOL     OW19186   5.964   6.790   2.090
 6096SOL    HW119187   5.986   6.871   2.143
 6096SOL    HW219188   5.890   6.811   2.026
 6097SOL     OW19189   1.644   5.812   2.539
 6097SOL    HW119190   1.685   5.729   2.577
 6097SOL    HW219191   1.588   5.857   2.609
 6098SOL     OW19192   6.788   0.992   4.706
 6098SOL    HW119193   6.752   1.083   4.687
 6098SOL    HW219194   6.879   1.000   4.746
 6099SOL     OW19195   5.139   5.663   5.981
 6099SOL    HW119196   5.201   5.610   6.038
 6099SOL    HW219197   5.171   5.661   5.886
 6100SOL     OW19198   6.745   5.723   4.212
 6100SOL    HW119199   6.790   5.811   4.228
 6100SOL    HW219200   6.789   5.653   4.269
 6101SOL     OW19201   5.958   2.450   1.117
 6101SOL    HW119202   5.950   2.525   1.182
 6101SOL    HW219203   5.888   2.381   1.136
 6102SOL     OW19204   4.167   6.200   2.266
 6102SOL    HW119205   4.203   6.107   2.270
 6102SOL    HW219206   4.093   6.205   2.200
 6103SOL     OW19207   6.313   1.138   1.323
 6103SOL    HW119208   6.364   1.214   1.283
 6103SOL    HW219209   6.215   1.157   1.318
 6104SOL     OW19210   6.152   0.926   4.664
 6104SOL    HW119211   6.117   0.848   4.612
 6104SOL    HW219212   6.088   0.949   4.737
 6105SOL     OW19213   2.819   6.268   5.693
 6105SOL    HW119214   2.859   6.182   5.663
 6105SOL    HW219215   2.888   6.340   5.690
 6106SOL     OW19216   0.586   3.710   6.930
 6106SOL    HW119217   0.521   3.716   6.854
 6106SOL    HW219218   0.570   3.785   6.993
 6107SOL     OW19219   4.646   4.523   4.473
 6107SOL    HW119220   4.699   4.438   4.479
 6107SOL    HW219221   4.618   4.539   4.379
 6108SOL     OW19222   1.430   0.833   1.571
 6108SOL    HW119223   1.410   0.787   1.485
 6108SOL    HW219224   1.527   0.858   1.575
 6109SOL     OW19225   5.149   6.591   3.261
 6109SOL    HW119226   5.223   6.600   3.194
 6109SOL    HW219227   5.188   6.578   3.352
 6110SOL     OW19228   0.622   2.039   5.184
 6110SOL    HW119229   0.612   2.138   5.195
 6110SOL    HW219230   0.613   2.016   5.087
 6111SOL     OW19231   1.305   3.684   1.683
 6111SOL    HW119232   1.399   3.667   1.713
 6111SOL    HW219233   1.245   3.688   1.763
 6112SOL     OW19234   4.039   0.232   2.289
 6112SOL    HW119235   3.960   0.201   2.340
 6112SOL    HW219236   4.122   0.195   2.330
 6113SOL     OW19237   2.245   5.396   0.052
 6113SOL    HW119238   2.153   5.369   0.026
 6113SOL    HW219239   2.262   5.371   0.148
 6114SOL     OW19240   4.480   1.684   1.198
 6114SOL    HW119241   4.468   1.780   1.222
 6114SOL    HW219242   4.489   1.629   1.282
 6115SOL     OW19243   1.173   1.559   4.999
 6115SOL    HW119244   1.137   1.560   5.092
 6115SOL    HW219245   1.098   1.542   4.934
 6116SOL     OW19246   4.092   2.208   4.694
 6116SOL    HW119247   4.062   2.180   4.603
 6116SOL    HW219248   4.038   2.161   4.764
 6117SOL     OW19249   1.610   1.954   3.097
 6117SOL    HW119250   1.700   1.927   3.062
 6117SOL    HW219251   1.564   2.011   3.030
 6118SOL     OW19252   5.867   0.834   0.462
 6118SOL    HW119253   5.949   0.777   0.462
 6118SOL    HW219254   5.794   0.787   0.412
 6119SOL     OW19255   0.222   2.329   0.834
 6119SOL    HW119256   0.183   2.421   0.835
 6119SOL    HW219257   0.159   2.266   0.790
 6120SOL     OW19258   2.295   6.649   5.626
 6120SOL    HW119259   2.334   6.557   5.622
 6120SOL    HW219260   2.269   6.670   5.720
 6121SOL     OW19261   0.883   3.529   5.155
 6121SOL    HW119262   0.951   3.525   5.228
 6121SOL    HW219263   0.921   3.489   5.072
 6122SOL     OW19264   5.381   6.101   5.406
 6122SOL    HW119265   5.367   6.079   5.310
 6122SOL    HW219266   5.324   6.179   5.432
 6123SOL     OW19267   6.008   1.250   5.244
 6123SOL    HW119268   5.925   1.205   5.211
 6123SOL    HW219269   6.076   1.254   5.171
 6124SOL     OW19270   2.305   0.228   4.870
 6124SOL    HW119271   2.216   0.267   4.847
 6124SOL    HW219272   2.292   0.138   4.912
 6125SOL     OW19273   2.090   3.523   6.997
 6125SOL    HW119274   2.155   3.531   6.922
 6125SOL    HW219275   2.049   3.612   7.017
 6126SOL     OW19276   0.221   2.483   4.523
 6126SOL    HW119277   0.203   2.518   4.616
 6126SOL    HW219278   0.260   2.556   4.468
 6127SOL     OW19279   4.334   1.582   2.105
 6127SOL    HW119280   4.289   1.657   2.057
 6127SOL    HW219281   4.266   1.520   2.142
 6128SOL     OW19282   5.859   5.728   1.104
 6128SOL    HW119283   5.942   5.732   1.049
 6128SOL    HW219284   5.882   5.707   1.198
 6129SOL     OW19285   1.838   4.584   3.278
 6129SOL    HW119286   1.839   4.655   3.207
 6129SOL    HW219287   1.765   4.603   3.343
 6130SOL     OW19288   4.975   2.918   1.451
 6130SOL    HW119289   5.046   2.989   1.450
 6130SOL    HW219290   4.895   2.952   1.501
 6131SOL     OW19291   0.505   1.935   2.378
 6131SOL    HW119292   0.458   1.924   2.291
 6131SOL    HW219293   0.552   2.024   2.380
 6132SOL     OW19294   3.462   1.359   6.770
 6132SOL    HW119295   3.543   1.312   6.735
 6132SOL    HW219296   3.415   1.404   6.694
 6133SOL     OW19297   1.540   2.700   4.003
 6133SOL    HW119298   1.608   2.771   4.021
 6133SOL    HW219299   1.496   2.672   4.089
 6134SOL     OW19300   5.353   5.838   6.329
 6134SOL    HW119301   5.297   5.850   6.247
 6134SOL    HW219302   5.449   5.830   6.303
 6135SOL     OW19303   5.450   0.200   0.143
 6135SOL    HW119304   5.497   0.287   0.160
 6135SOL    HW219305   5.360   0.218   0.102
 6136SOL     OW19306   1.055   2.897   1.634
 6136SOL    HW119307   1.133   2.839   1.654
 6136SOL    HW219308   0.989   2.847   1.577
 6137SOL     OW19309   0.307   4.734   3.509
 6137SOL    HW119310   0.359   4.802   3.561
 6137SOL    HW219311   0.282   4.772   3.420
 6138SOL     OW19312   3.522   0.417   2.133
 6138SOL    HW119313   3.533   0.396   2.230
 6138SOL    HW219314   3.531   0.333   2.079
 6139SOL     OW19315   0.847   6.969   5.567
 6139SOL    HW119316   0.860   0.030   5.508
 6139SOL    HW219317   0.909   6.976   5.646
 6140SOL     OW19318   1.942   0.383   3.171
 6140SOL    HW119319   1.983   0.366   3.261
 6140SOL    HW219320   1.919   0.480   3.163
 6141SOL     OW19321   0.430   0.626   5.358
 6141SOL    HW119322   0.496   0.555   5.381
 6141SOL    HW219323   0.398   0.671   5.442
 6142SOL     OW19324   0.491   1.096   0.829
 6142SOL    HW119325   0.514   1.182   0.782
 6142SOL    HW219326   0.554   1.083   0.906
 6143SOL     OW19327   6.335   3.898   6.215
 6143SOL    HW119328   6.323   3.983   6.164
 6143SOL    HW219329   6.335   3.821   6.152
 6144SOL     OW19330   4.511   4.432   2.773
 6144SOL    HW119331   4.439   4.382   2.821
 6144SOL    HW219332   4.562   4.488   2.839
 6145SOL     OW19333   4.874   3.372   3.974
 6145SOL    HW119334   4.944   3.300   3.967
 6145SOL    HW219335   4.871   3.424   3.889
 6146SOL     OW19336   3.809   0.432   4.582
 6146SOL    HW119337   3.772   0.495   4.513
 6146SOL    HW219338   3.905   0.411   4.560
 6147SOL     OW19339   2.145   2.970   4.327
 6147SOL    HW119340   2.051   2.943   4.308
 6147SOL    HW219341   2.160   3.064   4.295
 6148SOL     OW19342   4.257   5.110   0.375
 6148SOL    HW119343   4.339   5.167   0.377
 6148SOL    HW219344   4.279   5.023   0.331
 6149SOL     OW19345   2.973   0.695   2.403
 6149SOL    HW119346   3.006   0.605   2.372
 6149SOL    HW219347   2.903   0.682   2.473
 6150SOL     OW19348   6.256   3.987   6.450
 6150SOL    HW119349   6.260   3.955   6.355
 6150SOL    HW219350   6.199   4.070   6.454
 6151SOL     OW19351   4.980   4.430   4.209
 6151SOL    HW119352   5.009   4.435   4.305
 6151SOL    HW219353   4.915   4.355   4.198
 6152SOL     OW19354   0.983   5.443   4.121
 6152SOL    HW119355   0.976   5.536   4.155
 6152SOL    HW219356   0.924   5.383   4.175
 6153SOL     OW19357   4.715   5.209   0.793
 6153SOL    HW119358   4.631   5.261   0.776
 6153SOL    HW219359   4.753   5.235   0.882
 6154SOL     OW19360   5.280   2.851   2.003
 6154SOL    HW119361   5.325   2.763   2.013
 6154SOL    HW219362   5.252   2.863   1.907
 6155SOL     OW19363   2.497   1.550   3.560
 6155SOL    HW119364   2.583   1.560   3.510
 6155SOL    HW219365   2.512   1.565   3.658
 6156SOL     OW19366   5.814   4.318   1.249
 6156SOL    HW119367   5.786   4.344   1.157
 6156SOL    HW219368   5.887   4.379   1.280
 6157SOL     OW19369   0.742   2.416   2.936
 6157SOL    HW119370   0.811   2.343   2.941
 6157SOL    HW219371   0.659   2.380   2.894
 6158SOL     OW19372   2.828   2.715   5.648
 6158SOL    HW119373   2.906   2.660   5.619
 6158SOL    HW219374   2.744   2.663   5.635
 6159SOL     OW19375   5.495   2.581   7.018
 6159SOL    HW119376   5.488   2.511   6.947
 6159SOL    HW219377   5.542   2.661   6.981
 6160SOL     OW19378   0.371   6.985   6.777
 6160SOL    HW119379   0.343   6.889   6.775
 6160SOL    HW219380   0.291   0.026   6.766
 6161SOL     OW19381   5.151   2.911   6.558
 6161SOL    HW119382   5.217   2.846   6.597
 6161SOL    HW219383   5.105   2.870   6.480
 6162SOL     OW19384   6.222   6.206   2.180
 6162SOL    HW119385   6.320   6.208   2.161
 6162SOL    HW219386   6.202   6.132   2.244
 6163SOL     OW19387   5.812   5.954   2.872
 6163SOL    HW119388   5.854   6.035   2.914
 6163SOL    HW219389   5.769   5.981   2.785
 6164SOL     OW19390   3.924   3.999   4.385
 6164SOL    HW119391   3.931   4.051   4.299
 6164SOL    HW219392   3.976   3.914   4.377
 6165SOL     OW19393   4.129   2.659   0.258
 6165SOL    HW119394   4.092   2.573   0.293
 6165SOL    HW219395   4.061   2.731   0.269
 6166SOL     OW19396   0.334   2.065   7.008
 6166SOL    HW119397   0.433   2.064   0.003
 6166SOL    HW219398   0.305   2.156   6.979
 6167SOL     OW19399   1.571   4.520   3.353
 6167SOL    HW119400   1.565   4.449   3.422
 6167SOL    HW219401   1.580   4.478   3.262
 6168SOL     OW19402   0.104   2.933   3.911
 6168SOL    HW119403   0.176   2.901   3.850
 6168SOL    HW219404   0.035   2.861   3.922
 6169SOL     OW19405   1.257   0.276   6.875
 6169SOL    HW119406   1.332   0.267   6.941
 6169SOL    HW219407   1.271   0.215   6.798
 6170SOL     OW19408   3.710   4.571   0.296
 6170SOL    HW119409   3.677   4.536   0.208
 6170SOL    HW219410   3.705   4.671   0.296
 6171SOL     OW19411   0.904   4.694   2.465
 6171SOL    HW119412   0.915   4.670   2.368
 6171SOL    HW219413   0.907   4.793   2.475
 6172SOL     OW19414   0.983   0.444   3.059
 6172SOL    HW119415   0.950   0.353   3.032
 6172SOL    HW219416   0.960   0.510   2.988
 6173SOL     OW19417   0.996   4.952   3.345
 6173SOL    HW119418   1.036   5.042   3.333
 6173SOL    HW219419   0.990   4.905   3.257
 6174SOL     OW19420   5.788   4.652   2.507
 6174SOL    HW119421   5.763   4.622   2.415
 6174SOL    HW219422   5.869   4.711   2.501
 6175SOL     OW19423   5.673   6.564   2.226
 6175SOL    HW119424   5.762   6.532   2.194
 6175SOL    HW219425   5.600   6.510   2.183
 6176SOL     OW19426   5.971   3.309   6.448
 6176SOL    HW119427   5.885   3.351   6.479
 6176SOL    HW219428   6.048   3.356   6.490
 6177SOL     OW19429   5.006   1.323   1.934
 6177SOL    HW119430   5.025   1.281   2.022
 6177SOL    HW219431   5.053   1.273   1.862
 6178SOL     OW19432   5.046   4.856   1.004
 6178SOL    HW119433   5.114   4.845   1.076
 6178SOL    HW219434   4.993   4.772   0.994
 6179SOL     OW19435   0.212   3.283   4.394
 6179SOL    HW119436   0.119   3.246   4.406
 6179SOL    HW219437   0.209   3.382   4.401
 6180SOL     OW19438   3.581   6.571   0.754
 6180SOL    HW119439   3.670   6.563   0.711
 6180SOL    HW219440   3.591   6.608   0.846
 6181SOL     OW19441   5.205   6.131   0.189
 6181SOL    HW119442   5.179   6.168   0.278
 6181SOL    HW219443   5.124   6.122   0.131
 6182SOL     OW19444   5.461   5.208   4.874
 6182SOL    HW119445   5.546   5.190   4.825
 6182SOL    HW219446   5.458   5.153   4.957
 6183SOL     OW19447   2.053   0.660   2.884
 6183SOL    HW119448   2.148   0.655   2.916
 6183SOL    HW219449   2.038   0.592   2.814
 6184SOL     OW19450   1.318   6.682   6.906
 6184SOL    HW119451   1.343   6.778   6.914
 6184SOL    HW219452   1.397   6.629   6.876
 6185SOL     OW19453   0.508   3.939   0.068
 6185SOL    HW119454   0.422   3.894   0.044
 6185SOL    HW219455   0.498   3.984   0.157
 6186SOL     OW19456   5.802   7.003   3.800
 6186SOL    HW119457   5.901   7.015   3.803
 6186SOL    HW219458   5.775   6.967   3.710
 6187SOL     OW19459   4.870   4.951   3.651
 6187SOL    HW119460   4.822   4.980   3.568
 6187SOL    HW219461   4.872   4.851   3.655
 6188SOL     OW19462   2.352   6.376   1.526
 6188SOL    HW119463   2.257   6.357   1.499
 6188SOL    HW219464   2.385   6.303   1.586
 6189SOL     OW19465   5.182   4.813   2.506
 6189SOL    HW119466   5.216   4.725   2.473
 6189SOL    HW219467   5.256   4.880   2.504
 6190SOL     OW19468   4.834   3.057   6.165
 6190SOL    HW119469   4.835   3.150   6.128
 6190SOL    HW219470   4.892   2.998   6.109
 6191SOL     OW19471   5.352   2.425   0.929
 6191SOL    HW119472   5.283   2.364   0.890
 6191SOL    HW219473   5.432   2.426   0.869
 6192SOL     OW19474   2.929   3.895   0.345
 6192SOL    HW119475   2.961   3.876   0.438
 6192SOL    HW219476   2.896   3.989   0.339
 6193SOL     OW19477   5.115   6.982   2.095
 6193SOL    HW119478   5.053   0.042   2.104
 6193SOL    HW219479   5.157   6.982   2.004
 6194SOL     OW19480   2.395   0.503   1.081
 6194SOL    HW119481   2.312   0.448   1.079
 6194SOL    HW219482   2.397   0.563   1.001
 6195SOL     OW19483   3.987   5.764   6.250
 6195SOL    HW119484   3.896   5.767   6.208
 6195SOL    HW219485   4.049   5.712   6.190
 6196SOL     OW19486   0.677   2.539   6.083
 6196SOL    HW119487   0.648   2.621   6.132
 6196SOL    HW219488   0.760   2.558   6.032
 6197SOL     OW19489   2.527   4.071   0.973
 6197SOL    HW119490   2.489   4.125   1.048
 6197SOL    HW219491   2.607   4.021   1.005
 6198SOL     OW19492   3.478   5.563   3.108
 6198SOL    HW119493   3.412   5.626   3.067
 6198SOL    HW219494   3.545   5.615   3.162
 6199SOL     OW19495   0.987   0.283   0.949
 6199SOL    HW119496   1.018   0.373   0.981
 6199SOL    HW219497   0.942   0.234   1.024
 6200SOL     OW19498   2.443   1.012   6.357
 6200SOL    HW119499   2.413   1.095   6.311
 6200SOL    HW219500   2.364   0.953   6.376
 6201SOL     OW19501   2.009   4.227   6.166
 6201SOL    HW119502   2.059   4.308   6.197
 6201SOL    HW219503   2.015   4.219   6.067
 6202SOL     OW19504   3.964   1.729   1.422
 6202SOL    HW119505   3.997   1.754   1.331
 6202SOL    HW219506   3.866   1.711   1.418
 6203SOL     OW19507   4.974   0.670   3.641
 6203SOL    HW119508   4.895   0.645   3.585
 6203SOL    HW219509   5.010   0.588   3.687
 6204SOL     OW19510   0.921   5.408   5.306
 6204SOL    HW119511   0.931   5.309   5.318
 6204SOL    HW219512   0.999   5.454   5.348
 6205SOL     OW19513   5.590   5.459   6.992
 6205SOL    HW119514   5.653   5.413   6.929
 6205SOL    HW219515   5.586   5.408   0.060
 6206SOL     OW19516   0.251   0.636   2.306
 6206SOL    HW119517   0.262   0.537   2.300
 6206SOL    HW219518   0.301   0.671   2.385
 6207SOL     OW19519   1.146   4.089   5.185
 6207SOL    HW119520   1.150   4.186   5.208
 6207SOL    HW219521   1.055   4.067   5.150
 6208SOL     OW19522   6.246   0.313   5.609
 6208SOL    HW119523   6.179   0.372   5.654
 6208SOL    HW219524   6.266   0.235   5.669
 6209SOL     OW19525   4.800   5.891   0.316
 6209SOL    HW119526   4.877   5.832   0.295
 6209SOL    HW219527   4.739   5.845   0.381
 6210SOL     OW19528   5.455   3.700   2.875
 6210SOL    HW119529   5.391   3.752   2.818
 6210SOL    HW219530   5.412   3.615   2.904
 6211SOL     OW19531   2.578   6.879   6.471
 6211SOL    HW119532   2.615   6.901   6.381
 6211SOL    HW219533   2.618   6.793   6.503
 6212SOL     OW19534   6.780   6.149   3.764
 6212SOL    HW119535   6.818   6.160   3.672
 6212SOL    HW219536   6.724   6.066   3.767
 6213SOL     OW19537   5.841   0.684   6.724
 6213SOL    HW119538   5.887   0.603   6.687
 6213SOL    HW219539   5.887   0.766   6.691
 6214SOL     OW19540   6.117   5.165   2.803
 6214SOL    HW119541   6.040   5.102   2.805
 6214SOL    HW219542   6.121   5.215   2.889
 6215SOL     OW19543   3.138   1.591   6.890
 6215SOL    HW119544   3.118   1.639   6.976
 6215SOL    HW219545   3.192   1.510   6.910
 6216SOL     OW19546   6.368   2.304   1.497
 6216SOL    HW119547   6.293   2.255   1.453
 6216SOL    HW219548   6.364   2.289   1.596
 6217SOL     OW19549   4.728   3.005   1.599
 6217SOL    HW119550   4.665   3.010   1.676
 6217SOL    HW219551   4.693   3.060   1.523
 6218SOL     OW19552   3.015   5.121   4.675
 6218SOL    HW119553   3.060   5.143   4.762
 6218SOL    HW219554   2.996   5.023   4.671
 6219SOL     OW19555   1.601   2.477   5.054
 6219SOL    HW119556   1.692   2.440   5.071
 6219SOL    HW219557   1.547   2.410   5.003
 6220SOL     OW19558   1.683   4.799   5.601
 6220SOL    HW119559   1.652   4.880   5.649
 6220SOL    HW219560   1.614   4.772   5.533
 6221SOL     OW19561   4.691   5.058   5.050
 6221SOL    HW119562   4.611   5.115   5.033
 6221SOL    HW219563   4.700   4.990   4.976
 6222SOL     OW19564   0.513   0.528   1.248
 6222SOL    HW119565   0.519   0.429   1.237
 6222SOL    HW219566   0.606   0.567   1.247
 6223SOL     OW19567   5.740   3.521   4.211
 6223SOL    HW119568   5.663   3.567   4.254
 6223SOL    HW219569   5.825   3.551   4.254
 6224SOL     OW19570   1.968   1.382   5.941
 6224SOL    HW119571   2.004   1.312   6.003
 6224SOL    HW219572   2.023   1.384   5.858
 6225SOL     OW19573   3.674   3.308   1.382
 6225SOL    HW119574   3.768   3.278   1.393
 6225SOL    HW219575   3.672   3.393   1.329
 6226SOL     OW19576   5.846   1.229   3.773
 6226SOL    HW119577   5.856   1.130   3.765
 6226SOL    HW219578   5.749   1.253   3.766
 6227SOL     OW19579   2.964   4.560   5.921
 6227SOL    HW119580   2.986   4.471   5.882
 6227SOL    HW219581   2.990   4.562   6.018
 6228SOL     OW19582   6.758   1.655   2.971
 6228SOL    HW119583   6.795   1.732   3.024
 6228SOL    HW219584   6.747   1.576   3.030
 6229SOL     OW19585   2.620   1.609   3.081
 6229SOL    HW119586   2.591   1.513   3.081
 6229SOL    HW219587   2.573   1.658   3.155
 6230SOL     OW19588   2.293   1.369   4.459
 6230SOL    HW119589   2.212   1.322   4.425
 6230SOL    HW219590   2.325   1.435   4.391
 6231SOL     OW19591   6.807   4.614   1.013
 6231SOL    HW119592   6.887   4.558   0.991
 6231SOL    HW219593   6.819   4.705   0.973
 6232SOL     OW19594   6.943   1.369   0.260
 6232SOL    HW119595   6.886   1.440   0.301
 6232SOL    HW219596   6.966   1.394   0.166
 6233SOL     OW19597   5.400   1.988   6.903
 6233SOL    HW119598   5.416   2.070   6.958
 6233SOL    HW219599   5.444   1.999   6.814
 6234SOL     OW19600   1.491   1.535   4.654
 6234SOL    HW119601   1.584   1.501   4.646
 6234SOL    HW219602   1.431   1.483   4.594
 6235SOL     OW19603   2.086   6.677   3.200
 6235SOL    HW119604   2.174   6.661   3.244
 6235SOL    HW219605   2.094   6.752   3.135
 6236SOL     OW19606   0.146   4.823   1.222
 6236SOL    HW119607   0.081   4.846   1.150
 6236SOL    HW219608   0.098   4.812   1.309
 6237SOL     OW19609   4.684   5.856   0.759
 6237SOL    HW119610   4.614   5.823   0.822
 6237SOL    HW219611   4.684   5.800   0.677
 6238SOL     OW19612   4.557   5.846   2.108
 6238SOL    HW119613   4.515   5.796   2.184
 6238SOL    HW219614   4.637   5.895   2.141
 6239SOL     OW19615   2.622   6.452   2.566
 6239SOL    HW119616   2.531   6.428   2.599
 6239SOL    HW219617   2.614   6.504   2.481
 6240SOL     OW19618   2.639   2.348   1.273
 6240SOL    HW119619   2.619   2.252   1.254
 6240SOL    HW219620   2.566   2.386   1.330
 6241SOL     OW19621   3.067   0.956   2.409
 6241SOL    HW119622   3.161   0.920   2.413
 6241SOL    HW219623   3.002   0.881   2.416
 6242SOL     OW19624   5.101   0.988   3.681
 6242SOL    HW119625   5.080   0.966   3.586
 6242SOL    HW219626   5.177   1.054   3.684
 6243SOL     OW19627   5.887   6.540   3.430
 6243SOL    HW119628   5.905   6.588   3.344
 6243SOL    HW219629   5.949   6.573   3.501
 6244SOL     OW19630   2.478   2.494   2.191
 6244SOL    HW119631   2.558   2.497   2.131
 6244SOL    HW219632   2.507   2.506   2.286
 6245SOL     OW19633   2.826   4.210   0.975
 6245SOL    HW119634   2.873   4.268   1.042
 6245SOL    HW219635   2.786   4.131   1.021
 6246SOL     OW19636   2.784   2.862   6.803
 6246SOL    HW119637   2.810   2.802   6.727
 6246SOL    HW219638   2.854   2.857   6.874
 6247SOL     OW19639   0.254   0.136   3.804
 6247SOL    HW119640   0.313   0.204   3.848
 6247SOL    HW219641   0.228   0.169   3.713
 6248SOL     OW19642   0.843   4.074   0.913
 6248SOL    HW119643   0.756   4.117   0.891
 6248SOL    HW219644   0.917   4.122   0.865
 6249SOL     OW19645   0.057   4.897   0.526
 6249SOL    HW119646   0.108   4.943   0.598
 6249SOL    HW219647   0.106   4.905   0.440
 6250SOL     OW19648   6.831   6.604   0.778
 6250SOL    HW119649   6.892   6.677   0.749
 6250SOL    HW219650   6.807   6.616   0.875
 6251SOL     OW19651   4.121   0.302   1.386
 6251SOL    HW119652   4.174   0.376   1.345
 6251SOL    HW219653   4.067   0.338   1.462
 6252SOL     OW19654   2.341   5.779   5.133
 6252SOL    HW119655   2.440   5.766   5.129
 6252SOL    HW219656   2.299   5.698   5.175
 6253SOL     OW19657   2.390   3.990   1.772
 6253SOL    HW119658   2.292   3.979   1.786
 6253SOL    HW219659   2.421   4.073   1.818
 6254SOL     OW19660   5.929   0.072   6.881
 6254SOL    HW119661   5.928   0.025   6.793
 6254SOL    HW219662   6.019   0.113   6.896
 6255SOL     OW19663   1.480   1.403   1.754
 6255SOL    HW119664   1.484   1.427   1.851
 6255SOL    HW219665   1.473   1.304   1.744
 6256SOL     OW19666   4.232   5.445   2.318
 6256SOL    HW119667   4.231   5.515   2.389
 6256SOL    HW219668   4.238   5.355   2.360
 6257SOL     OW19669   5.310   2.373   1.203
 6257SOL    HW119670   5.352   2.375   1.113
 6257SOL    HW219671   5.229   2.432   1.203
 6258SOL     OW19672   4.421   1.173   3.086
 6258SOL    HW119673   4.378   1.154   2.998
 6258SOL    HW219674   4.378   1.116   3.156
 6259SOL     OW19675   3.064   1.960   1.322
 6259SOL    HW119676   3.122   2.008   1.256
 6259SOL    HW219677   3.031   2.024   1.391
 6260SOL     OW19678   3.648   3.963   0.333
 6260SOL    HW119679   3.723   3.899   0.350
 6260SOL    HW219680   3.674   4.026   0.260
 6261SOL     OW19681   4.103   0.056   6.657
 6261SOL    HW119682   4.172   0.122   6.686
 6261SOL    HW219683   4.037   0.103   6.597
 6262SOL     OW19684   1.716   4.462   0.386
 6262SOL    HW119685   1.620   4.441   0.365
 6262SOL    HW219686   1.737   4.555   0.355
 6263SOL     OW19687   0.443   5.940   6.582
 6263SOL    HW119688   0.369   5.982   6.636
 6263SOL    HW219689   0.403   5.884   6.509
 6264SOL     OW19690   2.270   1.198   1.010
 6264SOL    HW119691   2.327   1.124   1.045
 6264SOL    HW219692   2.257   1.267   1.081
 6265SOL     OW19693   3.427   4.465   1.479
 6265SOL    HW119694   3.462   4.556   1.503
 6265SOL    HW219695   3.348   4.443   1.536
 6266SOL     OW19696   3.858   0.832   4.166
 6266SOL    HW119697   3.853   0.851   4.068
 6266SOL    HW219698   3.772   0.791   4.196
 6267SOL     OW19699   3.071   0.317   0.262
 6267SOL    HW119700   3.123   0.344   0.181
 6267SOL    HW219701   3.067   0.218   0.269
 6268SOL     OW19702   2.766   5.140   3.062
 6268SOL    HW119703   2.729   5.088   3.140
 6268SOL    HW219704   2.694   5.152   2.994
 6269SOL     OW19705   5.813   6.018   2.084
 6269SOL    HW119706   5.886   6.067   2.036
 6269SOL    HW219707   5.777   5.946   2.025
 6270SOL     OW19708   1.958   0.810   5.948
 6270SOL    HW119709   1.999   0.806   5.857
 6270SOL    HW219710   1.870   0.857   5.943
 6271SOL     OW19711   7.000   2.806   5.440
 6271SOL    HW119712   6.941   2.883   5.416
 6271SOL    HW219713   7.000   2.794   5.539
 6272SOL     OW19714   0.889   3.649   4.158
 6272SOL    HW119715   0.841   3.726   4.116
 6272SOL    HW219716   0.922   3.588   4.086
 6273SOL     OW19717   1.592   0.834   2.049
 6273SOL    HW119718   1.530   0.818   1.973
 6273SOL    HW219719   1.593   0.755   2.110
 6274SOL     OW19720   2.915   5.860   6.654
 6274SOL    HW119721   2.865   5.908   6.727
 6274SOL    HW219722   2.902   5.762   6.663
 6275SOL     OW19723   3.160   6.918   5.514
 6275SOL    HW119724   3.161   6.829   5.560
 6275SOL    HW219725   3.090   6.917   5.442
 6276SOL     OW19726   1.143   5.239   3.421
 6276SOL    HW119727   1.169   5.151   3.460
 6276SOL    HW219728   1.225   5.288   3.390
 6277SOL     OW19729   4.802   2.756   2.616
 6277SOL    HW119730   4.757   2.752   2.527
 6277SOL    HW219731   4.897   2.727   2.608
 6278SOL     OW19732   5.082   6.911   3.739
 6278SOL    HW119733   5.090   6.848   3.662
 6278SOL    HW219734   4.986   6.931   3.757
 6279SOL     OW19735   4.016   1.730   0.883
 6279SOL    HW119736   4.021   1.743   0.982
 6279SOL    HW219737   3.997   1.634   0.862
 6280SOL     OW19738   0.010   3.008   5.799
 6280SOL    HW119739   7.004   3.092   5.750
 6280SOL    HW219740   0.068   3.030   5.877
 6281SOL     OW19741   2.541   0.334   5.207
 6281SOL    HW119742   2.600   0.356   5.285
 6281SOL    HW219743   2.583   0.261   5.154
 6282SOL     OW19744   1.132   6.784   5.281
 6282SOL    HW119745   1.207   6.799   5.216
 6282SOL    HW219746   1.062   6.854   5.268
 6283SOL     OW19747   6.808   2.307   4.970
 6283SOL    HW119748   6.847   2.321   5.061
 6283SOL    HW219749   6.834   2.383   4.910
 6284SOL     OW19750   1.735   5.343   5.358
 6284SOL    HW119751   1.724   5.343   5.259
 6284SOL    HW219752   1.751   5.249   5.390
 6285SOL     OW19753   1.118   3.304   4.118
 6285SOL    HW119754   1.182   3.276   4.047
 6285SOL    HW219755   1.169   3.343   4.195
 6286SOL     OW19756   5.917   1.302   3.310
 6286SOL    HW119757   5.957   1.220   3.270
 6286SOL    HW219758   5.945   1.309   3.406
 6287SOL     OW19759   4.531   4.560   1.854
 6287SOL    HW119760   4.444   4.600   1.883
 6287SOL    HW219761   4.548   4.475   1.905
 6288SOL     OW19762   5.531   4.298   1.311
 6288SOL    HW119763   5.620   4.256   1.295
 6288SOL    HW219764   5.541   4.397   1.313
 6289SOL     OW19765   1.942   2.751   3.591
 6289SOL    HW119766   1.921   2.821   3.660
 6289SOL    HW219767   1.996   2.678   3.633
 6290SOL     OW19768   5.193   3.857   4.010
 6290SOL    HW119769   5.111   3.913   4.023
 6290SOL    HW219770   5.266   3.913   3.969
 6291SOL     OW19771   3.718   3.290   3.648
 6291SOL    HW119772   3.759   3.199   3.644
 6291SOL    HW219773   3.738   3.340   3.563
 6292SOL     OW19774   0.905   2.717   3.263
 6292SOL    HW119775   0.918   2.631   3.214
 6292SOL    HW219776   0.985   2.735   3.320
 6293SOL     OW19777   5.349   6.791   0.129
 6293SOL    HW119778   5.316   6.861   0.193
 6293SOL    HW219779   5.446   6.773   0.145
 6294SOL     OW19780   3.184   5.433   2.456
 6294SOL    HW119781   3.132   5.466   2.534
 6294SOL    HW219782   3.271   5.483   2.450
 6295SOL     OW19783   5.579   5.485   5.145
 6295SOL    HW119784   5.621   5.395   5.160
 6295SOL    HW219785   5.564   5.499   5.047
 6296SOL     OW19786   6.368   0.717   3.600
 6296SOL    HW119787   6.402   0.729   3.507
 6296SOL    HW219788   6.363   0.620   3.622
 6297SOL     OW19789   5.125   6.277   6.143
 6297SOL    HW119790   5.213   6.257   6.187
 6297SOL    HW219791   5.115   6.218   6.062
 6298SOL     OW19792   1.187   3.613   5.830
 6298SOL    HW119793   1.233   3.528   5.856
 6298SOL    HW219794   1.214   3.686   5.891
 6299SOL     OW19795   5.896   2.296   6.432
 6299SOL    HW119796   5.900   2.246   6.518
 6299SOL    HW219797   5.865   2.390   6.449
 6300SOL     OW19798   5.058   0.560   4.502
 6300SOL    HW119799   5.134   0.625   4.494
 6300SOL    HW219800   5.091   0.475   4.541
 6301SOL     OW19801   2.971   6.755   0.849
 6301SOL    HW119802   3.062   6.773   0.813
 6301SOL    HW219803   2.950   6.658   0.838
 6302SOL     OW19804   1.620   1.136   3.772
 6302SOL    HW119805   1.581   1.189   3.698
 6302SOL    HW219806   1.596   1.178   3.860
 6303SOL     OW19807   2.314   0.197   5.291
 6303SOL    HW119808   2.374   0.247   5.229
 6303SOL    HW219809   2.291   0.254   5.370
 6304SOL     OW19810   3.571   0.143   0.879
 6304SOL    HW119811   3.625   0.200   0.941
 6304SOL    HW219812   3.536   0.064   0.930
 6305SOL     OW19813   6.487   6.778   1.381
 6305SOL    HW119814   6.431   6.855   1.352
 6305SOL    HW219815   6.575   6.811   1.416
 6306SOL     OW19816   6.984   3.380   3.864
 6306SOL    HW119817   0.031   3.351   3.934
 6306SOL    HW219818   6.906   3.424   3.907
 6307SOL     OW19819   2.839   5.123   5.299
 6307SOL    HW119820   2.829   5.127   5.200
 6307SOL    HW219821   2.936   5.116   5.323
 6308SOL     OW19822   1.815   1.757   5.308
 6308SOL    HW119823   1.866   1.787   5.388
 6308SOL    HW219824   1.740   1.820   5.291
 6309SOL     OW19825   4.788   2.419   3.699
 6309SOL    HW119826   4.823   2.458   3.614
 6309SOL    HW219827   4.854   2.433   3.773
 6310SOL     OW19828   1.967   4.552   4.391
 6310SOL    HW119829   1.931   4.621   4.329
 6310SOL    HW219830   2.023   4.596   4.461
 6311SOL     OW19831   6.854   0.417   4.876
 6311SOL    HW119832   6.940   0.394   4.831
 6311SOL    HW219833   6.850   0.516   4.890
 6312SOL     OW19834   4.482   5.237   6.535
 6312SOL    HW119835   4.399   5.272   6.579
 6312SOL    HW219836   4.562   5.276   6.580
 6313SOL     OW19837   1.795   5.977   3.602
 6313SOL    HW119838   1.752   5.900   3.650
 6313SOL    HW219839   1.787   5.964   3.503
 6314SOL     OW19840   3.031   6.056   2.189
 6314SOL    HW119841   2.995   6.113   2.262
 6314SOL    HW219842   2.975   6.066   2.107
 6315SOL     OW19843   4.245   2.931   7.010
 6315SOL    HW119844   4.158   2.963   0.028
 6315SOL    HW219845   4.292   2.877   0.062
 6316SOL     OW19846   5.133   2.219   6.000
 6316SOL    HW119847   5.133   2.174   5.911
 6316SOL    HW219848   5.100   2.155   6.070
 6317SOL     OW19849   5.058   6.751   2.870
 6317SOL    HW119850   4.979   6.759   2.808
 6317SOL    HW219851   5.057   6.827   2.935
 6318SOL     OW19852   2.259   2.029   5.987
 6318SOL    HW119853   2.179   2.013   5.929
 6318SOL    HW219854   2.298   2.119   5.966
 6319SOL     OW19855   0.651   3.220   3.432
 6319SOL    HW119856   0.566   3.184   3.397
 6319SOL    HW219857   0.692   3.155   3.496
 6320SOL     OW19858   6.013   4.086   3.187
 6320SOL    HW119859   5.933   4.056   3.239
 6320SOL    HW219860   6.085   4.115   3.250
 6321SOL     OW19861   2.778   5.351   0.649
 6321SOL    HW119862   2.866   5.324   0.687
 6321SOL    HW219863   2.792   5.414   0.572
 6322SOL     OW19864   1.367   1.399   6.519
 6322SOL    HW119865   1.461   1.392   6.552
 6322SOL    HW219866   1.306   1.355   6.584
 6323SOL     OW19867   3.375   2.303   1.748
 6323SOL    HW119868   3.468   2.297   1.782
 6323SOL    HW219869   3.372   2.273   1.652
 6324SOL     OW19870   4.567   0.476   5.666
 6324SOL    HW119871   4.621   0.391   5.673
 6324SOL    HW219872   4.621   0.545   5.617
 6325SOL     OW19873   0.784   3.203   2.144
 6325SOL    HW119874   0.848   3.250   2.083
 6325SOL    HW219875   0.833   3.171   2.225
 6326SOL     OW19876   5.480   5.969   1.039
 6326SOL    HW119877   5.500   5.973   1.136
 6326SOL    HW219878   5.397   5.915   1.024
 6327SOL     OW19879   6.249   6.311   5.004
 6327SOL    HW119880   6.265   6.316   4.905
 6327SOL    HW219881   6.195   6.229   5.025
 6328SOL     OW19882   1.495   4.452   6.859
 6328SOL    HW119883   1.478   4.453   6.957
 6328SOL    HW219884   1.560   4.524   6.836
 6329SOL     OW19885   1.261   1.493   3.202
 6329SOL    HW119886   1.226   1.481   3.109
 6329SOL    HW219887   1.346   1.546   3.199
 6330SOL     OW19888   4.750   0.914   0.514
 6330SOL    HW119889   4.652   0.917   0.531
 6330SOL    HW219890   4.776   0.989   0.454
 6331SOL     OW19891   6.380   2.188   1.004
 6331SOL    HW119892   6.412   2.283   1.006
 6331SOL    HW219893   6.402   2.148   0.915
 6332SOL     OW19894   6.072   5.473   1.609
 6332SOL    HW119895   6.059   5.572   1.612
 6332SOL    HW219896   6.153   5.451   1.556
 6333SOL     OW19897   3.327   5.547   3.789
 6333SOL    HW119898   3.373   5.633   3.808
 6333SOL    HW219899   3.235   5.549   3.828
 6334SOL     OW19900   2.615   6.985   2.742
 6334SOL    HW119901   2.524   6.953   2.769
 6334SOL    HW219902   2.660   6.913   2.689
 6335SOL     OW19903   6.090   1.341   7.016
 6335SOL    HW119904   6.168   1.403   7.015
 6335SOL    HW219905   6.006   1.392   0.020
 6336SOL     OW19906   6.895   2.587   4.296
 6336SOL    HW119907   6.810   2.585   4.348
 6336SOL    HW219908   6.948   2.667   4.322
 6337SOL     OW19909   5.390   3.196   5.722
 6337SOL    HW119910   5.376   3.251   5.804
 6337SOL    HW219911   5.308   3.201   5.664
 6338SOL     OW19912   2.518   1.785   2.103
 6338SOL    HW119913   2.469   1.867   2.131
 6338SOL    HW219914   2.520   1.720   2.179
 6339SOL     OW19915   0.674   2.518   3.578
 6339SOL    HW119916   0.640   2.431   3.615
 6339SOL    HW219917   0.772   2.510   3.560
 6340SOL     OW19918   2.663   5.488   3.863
 6340SOL    HW119919   2.607   5.464   3.784
 6340SOL    HW219920   2.757   5.456   3.848
 6341SOL     OW19921   6.716   5.063   3.441
 6341SOL    HW119922   6.791   5.063   3.508
 6341SOL    HW219923   6.636   5.019   3.480
 6342SOL     OW19924   2.222   2.353   2.335
 6342SOL    HW119925   2.274   2.322   2.415
 6342SOL    HW219926   2.285   2.371   2.260
 6343SOL     OW19927   4.349   3.035   6.461
 6343SOL    HW119928   4.286   3.113   6.464
 6343SOL    HW219929   4.352   2.999   6.368
 6344SOL     OW19930   6.912   3.355   5.005
 6344SOL    HW119931   6.854   3.294   4.952
 6344SOL    HW219932   6.907   3.448   4.968
 6345SOL     OW19933   4.004   1.675   2.605
 6345SOL    HW119934   3.962   1.594   2.644
 6345SOL    HW219935   4.066   1.648   2.531
 6346SOL     OW19936   6.940   3.175   3.214
 6346SOL    HW119937   6.888   3.139   3.292
 6346SOL    HW219938   6.950   3.274   3.224
 6347SOL     OW19939   2.982   0.245   1.506
 6347SOL    HW119940   2.896   0.273   1.550
 6347SOL    HW219941   3.025   0.173   1.560
 6348SOL     OW19942   0.786   3.735   4.870
 6348SOL    HW119943   0.854   3.678   4.916
 6348SOL    HW219944   0.721   3.676   4.821
 6349SOL     OW19945   3.039   0.514   1.796
 6349SOL    HW119946   3.069   0.588   1.856
 6349SOL    HW219947   3.105   0.502   1.722
 6350SOL     OW19948   1.486   5.549   3.130
 6350SOL    HW119949   1.559   5.481   3.139
 6350SOL    HW219950   1.472   5.570   3.033
 6351SOL     OW19951   6.804   2.344   2.445
 6351SOL    HW119952   6.870   2.269   2.436
 6351SOL    HW219953   6.712   2.311   2.425
 6352SOL     OW19954   1.306   5.326   3.692
 6352SOL    HW119955   1.258   5.401   3.647
 6352SOL    HW219956   1.269   5.238   3.661
 6353SOL     OW19957   0.367   0.506   6.652
 6353SOL    HW119958   0.413   0.562   6.720
 6353SOL    HW219959   0.278   0.546   6.630
 6354SOL     OW19960   0.832   0.079   2.463
 6354SOL    HW119961   0.846   0.076   2.562
 6354SOL    HW219962   0.844   7.006   2.424
 6355SOL     OW19963   1.593   3.863   4.279
 6355SOL    HW119964   1.624   3.892   4.188
 6355SOL    HW219965   1.574   3.944   4.334
 6356SOL     OW19966   5.218   4.761   1.217
 6356SOL    HW119967   5.245   4.713   1.134
 6356SOL    HW219968   5.257   4.713   1.296
 6357SOL     OW19969   4.063   3.104   0.401
 6357SOL    HW119970   4.036   3.185   0.349
 6357SOL    HW219971   4.161   3.088   0.388
 6358SOL     OW19972   6.834   2.396   3.911
 6358SOL    HW119973   6.746   2.443   3.915
 6358SOL    HW219974   6.894   2.432   3.983
 6359SOL     OW19975   6.921   0.620   5.664
 6359SOL    HW119976   6.924   0.618   5.564
 6359SOL    HW219977   7.013   0.638   5.700
 6360SOL     OW19978   2.689   4.632   4.230
 6360SOL    HW119979   2.594   4.660   4.240
 6360SOL    HW219980   2.732   4.624   4.321
 6361SOL     OW19981   4.687   5.815   6.627
 6361SOL    HW119982   4.635   5.845   6.547
 6361SOL    HW219983   4.785   5.824   6.609
 6362SOL     OW19984   6.048   4.258   6.740
 6362SOL    HW119985   6.043   4.166   6.780
 6362SOL    HW219986   6.144   4.285   6.731
 6363SOL     OW19987   2.078   6.078   4.289
 6363SOL    HW119988   2.006   6.056   4.356
 6363SOL    HW219989   2.078   6.176   4.271
 6364SOL     OW19990   3.025   2.145   5.679
 6364SOL    HW119991   3.104   2.179   5.628
 6364SOL    HW219992   3.005   2.051   5.651
 6365SOL     OW19993   4.764   0.183   3.218
 6365SOL    HW119994   4.817   0.267   3.224
 6365SOL    HW219995   4.671   0.200   3.250
 6366SOL     OW19996   0.925   5.038   5.151
 6366SOL    HW119997   0.962   5.130   5.140
 6366SOL    HW219998   0.912   5.019   5.248
 6367SOL     OW19999   5.089   0.580   3.128
 6367SOL    HW120000   5.106   0.525   3.210
 6367SOL    HW220001   4.994   0.567   3.099
 6368SOL     OW20002   2.982   0.073   4.046
 6368SOL    HW120003   3.035   0.136   4.103
 6368SOL    HW220004   2.962   7.008   4.098
 6369SOL     OW20005   2.942   5.345   4.520
 6369SOL    HW120006   2.995   5.430   4.523
 6369SOL    HW220007   2.987   5.276   4.575
 6370SOL     OW20008   7.009   2.120   2.003
 6370SOL    HW120009   0.032   2.078   1.922
 6370SOL    HW220010   6.913   2.140   1.985
 6371SOL     OW20011   4.678   2.723   3.001
 6371SOL    HW120012   4.614   2.680   2.938
 6371SOL    HW220013   4.668   2.682   3.092
 6372SOL     OW20014   3.201   6.209   1.792
 6372SOL    HW120015   3.264   6.257   1.731
 6372SOL    HW220016   3.131   6.273   1.825
 6373SOL     OW20017   5.342   4.440   5.152
 6373SOL    HW120018   5.298   4.365   5.200
 6373SOL    HW220019   5.393   4.496   5.217
 6374SOL     OW20020   3.016   3.322   3.643
 6374SOL    HW120021   3.082   3.282   3.706
 6374SOL    HW220022   3.031   3.420   3.635
 6375SOL     OW20023   0.832   1.201   3.096
 6375SOL    HW120024   0.918   1.161   3.128
 6375SOL    HW220025   0.846   1.297   3.071
 6376SOL     OW20026   0.363   1.335   4.459
 6376SOL    HW120027   0.267   1.341   4.431
 6376SOL    HW220028   0.378   1.392   4.541
 6377SOL     OW20029   6.863   0.682   5.381
 6377SOL    HW120030   6.856   0.780   5.362
 6377SOL    HW220031   6.866   0.632   5.294
 6378SOL     OW20032   4.891   4.059   3.445
 6378SOL    HW120033   4.945   4.063   3.529
 6378SOL    HW220034   4.868   4.151   3.415
 6379SOL     OW20035   2.288   4.858   4.032
 6379SOL    HW120036   2.311   4.818   4.120
 6379SOL    HW220037   2.318   4.954   4.030
 6380SOL     OW20038   0.919   1.148   5.706
 6380SOL    HW120039   0.827   1.177   5.733
 6380SOL    HW220040   0.957   1.088   5.776
 6381SOL     OW20041   3.361   3.262   2.483
 6381SOL    HW120042   3.390   3.323   2.409
 6381SOL    HW220043   3.308   3.186   2.444
 6382SOL     OW20044   1.358   2.578   6.213
 6382SOL    HW120045   1.341   2.502   6.275
 6382SOL    HW220046   1.271   2.621   6.189
 6383SOL     OW20047   2.162   2.258   4.139
 6383SOL    HW120048   2.077   2.245   4.087
 6383SOL    HW220049   2.145   2.320   4.215
 6384SOL     OW20050   6.012   4.805   2.472
 6384SOL    HW120051   5.999   4.904   2.476
 6384SOL    HW220052   6.095   4.784   2.421
 6385SOL     OW20053   6.401   5.064   3.796
 6385SOL    HW120054   6.469   5.025   3.734
 6385SOL    HW220055   6.311   5.065   3.752
 6386SOL     OW20056   2.711   4.945   1.143
 6386SOL    HW120057   2.645   4.878   1.108
 6386SOL    HW220058   2.709   5.026   1.085
 6387SOL     OW20059   0.280   2.244   6.003
 6387SOL    HW120060   0.221   2.325   6.004
 6387SOL    HW220061   0.373   2.271   6.030
 6388SOL     OW20062   3.630   4.911   1.325
 6388SOL    HW120063   3.694   4.836   1.346
 6388SOL    HW220064   3.536   4.878   1.335
 6389SOL     OW20065   0.813   6.110   2.832
 6389SOL    HW120066   0.753   6.125   2.911
 6389SOL    HW220067   0.904   6.083   2.864
 6390SOL     OW20068   0.171   2.465   3.209
 6390SOL    HW120069   0.114   2.445   3.289
 6390SOL    HW220070   0.120   2.523   3.146
 6391SOL     OW20071   3.343   1.489   0.333
 6391SOL    HW120072   3.372   1.475   0.428
 6391SOL    HW220073   3.361   1.583   0.307
 6392SOL     OW20074   2.108   6.957   4.135
 6392SOL    HW120075   2.058   6.918   4.058
 6392SOL    HW220076   2.043   6.977   4.209
 6393SOL     OW20077   5.494   6.346   1.211
 6393SOL    HW120078   5.503   6.314   1.117
 6393SOL    HW220079   5.523   6.441   1.218
 6394SOL     OW20080   2.252   4.865   0.686
 6394SOL    HW120081   2.188   4.792   0.661
 6394SOL    HW220082   2.336   4.825   0.723
 6395SOL     OW20083   6.178   1.450   1.003
 6395SOL    HW120084   6.245   1.478   1.071
 6395SOL    HW220085   6.086   1.472   1.036
 6396SOL     OW20086   4.943   2.429   6.065
 6396SOL    HW120087   4.883   2.387   6.133
 6396SOL    HW220088   5.016   2.365   6.040
 6397SOL     OW20089   0.124   2.404   6.690
 6397SOL    HW120090   0.154   2.372   6.780
 6397SOL    HW220091   0.127   2.504   6.688
 6398SOL     OW20092   3.155   0.649   1.534
 6398SOL    HW120093   3.183   0.740   1.565
 6398SOL    HW220094   3.073   0.656   1.477
 6399SOL     OW20095   1.531   5.716   6.958
 6399SOL    HW120096   1.629   5.712   6.937
 6399SOL    HW220097   1.502   5.631   7.002
 6400SOL     OW20098   2.284   5.276   3.547
 6400SOL    HW120099   2.354   5.326   3.598
 6400SOL    HW220100   2.249   5.201   3.603
 6401SOL     OW20101   0.336   4.492   3.665
 6401SOL    HW120102   0.284   4.578   3.664
 6401SOL    HW220103   0.330   4.448   3.575
 6402SOL     OW20104   2.878   0.786   3.206
 6402SOL    HW120105   2.836   0.850   3.142
 6402SOL    HW220106   2.977   0.786   3.193
 6403SOL     OW20107   0.848   4.593   0.243
 6403SOL    HW120108   0.895   4.543   0.315
 6403SOL    HW220109   0.841   4.536   0.161
 6404SOL     OW20110   4.203   1.792   3.333
 6404SOL    HW120111   4.224   1.866   3.397
 6404SOL    HW220112   4.139   1.824   3.264
 6405SOL     OW20113   1.792   2.115   2.728
 6405SOL    HW120114   1.775   2.018   2.747
 6405SOL    HW220115   1.785   2.132   2.630
 6406SOL     OW20116   1.889   1.244   3.664
 6406SOL    HW120117   1.988   1.252   3.654
 6406SOL    HW220118   1.852   1.191   3.588
 6407SOL     OW20119   3.147   0.010   4.554
 6407SOL    HW120120   3.177   0.105   4.547
 6407SOL    HW220121   3.220   6.968   4.524
 6408SOL     OW20122   5.880   1.799   0.035
 6408SOL    HW120123   5.863   1.783   0.133
 6408SOL    HW220124   5.860   1.715   7.002
 6409SOL     OW20125   6.249   3.468   2.582
 6409SOL    HW120126   6.231   3.408   2.659
 6409SOL    HW220127   6.315   3.425   2.520
 6410SOL     OW20128   1.890   1.626   0.391
 6410SOL    HW120129   1.842   1.691   0.332
 6410SOL    HW220130   1.915   1.545   0.337
 6411SOL     OW20131   0.936   1.801   3.277
 6411SOL    HW120132   0.992   1.719   3.286
 6411SOL    HW220133   0.840   1.778   3.294
 6412SOL     OW20134   6.797   3.016   5.340
 6412SOL    HW120135   6.729   3.089   5.345
 6412SOL    HW220136   6.766   2.944   5.278
 6413SOL     OW20137   6.046   4.934   1.884
 6413SOL    HW120138   6.115   4.867   1.912
 6413SOL    HW220139   6.028   4.997   1.960
 6414SOL     OW20140   5.772   0.644   1.037
 6414SOL    HW120141   5.765   0.671   0.941
 6414SOL    HW220142   5.856   0.680   1.076
 6415SOL     OW20143   2.528   2.167   2.335
 6415SOL    HW120144   2.466   2.123   2.269
 6415SOL    HW220145   2.609   2.201   2.287
 6416SOL     OW20146   0.743   6.785   6.880
 6416SOL    HW120147   0.658   6.828   6.909
 6416SOL    HW220148   0.739   6.687   6.898
 6417SOL     OW20149   0.540   6.918   3.256
 6417SOL    HW120150   0.458   6.934   3.201
 6417SOL    HW220151   0.572   6.824   3.242
 6418SOL     OW20152   6.115   5.387   2.486
 6418SOL    HW120153   6.120   5.418   2.391
 6418SOL    HW220154   6.048   5.442   2.535
 6419SOL     OW20155   3.273   5.400   1.879
 6419SOL    HW120156   3.252   5.374   1.974
 6419SOL    HW220157   3.300   5.319   1.828
 6420SOL     OW20158   2.934   3.243   6.474
 6420SOL    HW120159   2.875   3.163   6.484
 6420SOL    HW220160   2.960   3.277   6.564
 6421SOL     OW20161   5.656   0.949   1.044
 6421SOL    HW120162   5.754   0.964   1.055
 6421SOL    HW220163   5.634   0.943   0.946
 6422SOL     OW20164   6.548   0.617   3.105
 6422SOL    HW120165   6.641   0.630   3.071
 6422SOL    HW220166   6.485   0.611   3.027
 6423SOL     OW20167   4.576   3.755   1.066
 6423SOL    HW120168   4.553   3.664   1.100
 6423SOL    HW220169   4.494   3.799   1.030
 6424SOL     OW20170   6.702   4.484   6.073
 6424SOL    HW120171   6.656   4.417   6.015
 6424SOL    HW220172   6.690   4.575   6.034
 6425SOL     OW20173   6.824   4.829   2.841
 6425SOL    HW120174   6.885   4.890   2.892
 6425SOL    HW220175   6.849   4.830   2.744
 6426SOL     OW20176   1.326   3.241   3.939
 6426SOL    HW120177   1.318   3.323   3.883
 6426SOL    HW220178   1.292   3.162   3.888
 6427SOL     OW20179   1.187   3.536   6.625
 6427SOL    HW120180   1.187   3.622   6.574
 6427SOL    HW220181   1.095   3.498   6.626
 6428SOL     OW20182   6.797   3.613   2.309
 6428SOL    HW120183   6.725   3.597   2.241
 6428SOL    HW220184   6.867   3.673   2.269
 6429SOL     OW20185   1.795   0.969   4.746
 6429SOL    HW120186   1.820   0.928   4.834
 6429SOL    HW220187   1.705   1.012   4.754
 6430SOL     OW20188   4.858   1.040   2.026
 6430SOL    HW120189   4.842   1.066   1.931
 6430SOL    HW220190   4.771   1.021   2.071
 6431SOL     OW20191   5.075   6.931   3.081
 6431SOL    HW120192   5.121   6.876   3.151
 6431SOL    HW220193   5.003   6.985   3.123
 6432SOL     OW20194   4.258   3.731   0.494
 6432SOL    HW120195   4.194   3.781   0.436
 6432SOL    HW220196   4.215   3.647   0.527
 6433SOL     OW20197   3.311   4.562   1.019
 6433SOL    HW120198   3.246   4.489   0.994
 6433SOL    HW220199   3.338   4.550   1.114
 6434SOL     OW20200   0.882   3.840   1.005
 6434SOL    HW120201   0.863   3.930   0.966
 6434SOL    HW220202   0.919   3.780   0.934
 6435SOL     OW20203   3.734   5.249   0.423
 6435SOL    HW120204   3.815   5.191   0.413
 6435SOL    HW220205   3.654   5.191   0.440
 6436SOL     OW20206   1.791   3.399   3.441
 6436SOL    HW120207   1.699   3.426   3.411
 6436SOL    HW220208   1.788   3.307   3.480
 6437SOL     OW20209   1.452   0.231   0.028
 6437SOL    HW120210   1.405   0.153   0.070
 6437SOL    HW220211   1.550   0.211   0.021
 6438SOL     OW20212   0.841   4.188   4.985
 6438SOL    HW120213   0.899   4.252   5.035
 6438SOL    HW220214   0.769   4.240   4.937
 6439SOL     OW20215   1.355   0.235   0.713
 6439SOL    HW120216   1.340   0.136   0.710
 6439SOL    HW220217   1.280   0.281   0.664
 6440SOL     OW20218   1.908   1.763   1.952
 6440SOL    HW120219   1.846   1.685   1.948
 6440SOL    HW220220   1.861   1.844   1.917
 6441SOL     OW20221   1.548   0.958   2.579
 6441SOL    HW120222   1.588   0.999   2.661
 6441SOL    HW220223   1.621   0.924   2.520
 6442SOL     OW20224   2.454   1.724   4.637
 6442SOL    HW120225   2.452   1.767   4.727
 6442SOL    HW220226   2.547   1.723   4.602
 6443SOL     OW20227   2.872   2.733   0.603
 6443SOL    HW120228   2.851   2.808   0.665
 6443SOL    HW220229   2.787   2.693   0.569
 6444SOL     OW20230   0.293   2.021   2.747
 6444SOL    HW120231   0.225   2.079   2.793
 6444SOL    HW220232   0.251   1.934   2.721
 6445SOL     OW20233   4.305   2.656   5.336
 6445SOL    HW120234   4.241   2.604   5.279
 6445SOL    HW220235   4.269   2.664   5.429
 6446SOL     OW20236   0.141   1.422   6.357
 6446SOL    HW120237   0.232   1.405   6.317
 6446SOL    HW220238   0.144   1.405   6.455
 6447SOL     OW20239   1.752   6.414   2.516
 6447SOL    HW120240   1.777   6.469   2.436
 6447SOL    HW220241   1.652   6.405   2.520
 6448SOL     OW20242   6.406   3.197   2.514
 6448SOL    HW120243   6.465   3.222   2.591
 6448SOL    HW220244   6.385   3.099   2.520
 6449SOL     OW20245   3.790   4.147   1.743
 6449SOL    HW120246   3.727   4.225   1.737
 6449SOL    HW220247   3.873   4.168   1.690
 6450SOL     OW20248   6.195   2.961   1.680
 6450SOL    HW120249   6.141   3.033   1.636
 6450SOL    HW220250   6.175   2.873   1.636
 6451SOL     OW20251   3.351   6.243   5.362
 6451SOL    HW120252   3.351   6.330   5.412
 6451SOL    HW220253   3.443   6.205   5.361
 6452SOL     OW20254   3.357   6.943   4.870
 6452SOL    HW120255   3.258   6.953   4.875
 6452SOL    HW220256   3.399   0.014   4.851
 6453SOL     OW20257   1.331   6.160   0.423
 6453SOL    HW120258   1.284   6.085   0.377
 6453SOL    HW220259   1.393   6.205   0.358
 6454SOL     OW20260   2.632   1.635   4.272
 6454SOL    HW120261   2.632   1.697   4.194
 6454SOL    HW220262   2.540   1.599   4.287
 6455SOL     OW20263   0.450   2.647   4.718
 6455SOL    HW120264   0.507   2.729   4.711
 6455SOL    HW220265   0.355   2.671   4.699
 6456SOL     OW20266   1.313   0.018   3.578
 6456SOL    HW120267   1.287   6.958   3.635
 6456SOL    HW220268   1.271   0.101   3.614
 6457SOL     OW20269   5.991   2.113   1.944
 6457SOL    HW120270   5.906   2.158   1.973
 6457SOL    HW220271   5.977   2.014   1.942
 6458SOL     OW20272   1.506   5.870   3.075
 6458SOL    HW120273   1.458   5.810   3.011
 6458SOL    HW220274   1.605   5.861   3.060
 6459SOL     OW20275   5.933   5.234   0.253
 6459SOL    HW120276   5.912   5.145   0.293
 6459SOL    HW220277   5.867   5.301   0.287
 6460SOL     OW20278   4.320   4.635   0.396
 6460SOL    HW120279   4.241   4.610   0.340
 6460SOL    HW220280   4.402   4.639   0.340
 6461SOL     OW20281   2.892   5.633   5.566
 6461SOL    HW120282   2.856   5.675   5.649
 6461SOL    HW220283   2.953   5.557   5.590
 6462SOL     OW20284   2.172   3.085   5.179
 6462SOL    HW120285   2.264   3.047   5.183
 6462SOL    HW220286   2.176   3.176   5.137
 6463SOL     OW20287   2.309   4.789   6.373
 6463SOL    HW120288   2.290   4.818   6.467
 6463SOL    HW220289   2.395   4.738   6.371
 6464SOL     OW20290   0.442   5.090   3.599
 6464SOL    HW120291   0.407   5.105   3.507
 6464SOL    HW220292   0.496   5.005   3.602
 6465SOL     OW20293   5.994   1.976   3.894
 6465SOL    HW120294   5.923   2.046   3.890
 6465SOL    HW220295   6.034   1.975   3.986
 6466SOL     OW20296   6.866   2.519   4.813
 6466SOL    HW120297   6.908   2.604   4.783
 6466SOL    HW220298   6.881   2.448   4.743
 6467SOL     OW20299   2.173   1.129   6.517
 6467SOL    HW120300   2.258   1.171   6.484
 6467SOL    HW220301   2.175   1.122   6.617
 6468SOL     OW20302   4.356   6.152   1.581
 6468SOL    HW120303   4.430   6.216   1.604
 6468SOL    HW220304   4.269   6.190   1.611
 6469SOL     OW20305   6.267   1.186   5.146
 6469SOL    HW120306   6.308   1.218   5.061
 6469SOL    HW220307   6.317   1.224   5.223
 6470SOL     OW20308   0.001   6.326   5.929
 6470SOL    HW120309   7.018   6.426   5.938
 6470SOL    HW220310   6.963   6.299   5.851
 6471SOL     OW20311   6.772   5.283   6.146
 6471SOL    HW120312   6.753   5.346   6.221
 6471SOL    HW220313   6.702   5.212   6.142
 6472SOL     OW20314   1.095   5.972   1.354
 6472SOL    HW120315   1.015   6.000   1.301
 6472SOL    HW220316   1.173   5.959   1.293
 6473SOL     OW20317   2.307   1.033   5.953
 6473SOL    HW120318   2.220   1.081   5.953
 6473SOL    HW220319   2.340   1.024   5.859
 6474SOL     OW20320   1.302   3.530   6.215
 6474SOL    HW120321   1.290   3.485   6.127
 6474SOL    HW220322   1.218   3.579   6.239
 6475SOL     OW20323   5.173   6.097   3.622
 6475SOL    HW120324   5.192   6.050   3.708
 6475SOL    HW220325   5.235   6.064   3.551
 6476SOL     OW20326   4.329   4.614   3.163
 6476SOL    HW120327   4.282   4.614   3.075
 6476SOL    HW220328   4.339   4.708   3.196
 6477SOL     OW20329   6.292   5.438   6.095
 6477SOL    HW120330   6.198   5.445   6.061
 6477SOL    HW220331   6.312   5.516   6.153
 6478SOL     OW20332   3.875   5.930   1.977
 6478SOL    HW120333   3.885   5.837   1.939
 6478SOL    HW220334   3.784   5.965   1.956
 6479SOL     OW20335   4.261   5.022   2.178
 6479SOL    HW120336   4.346   5.066   2.205
 6479SOL    HW220337   4.185   5.086   2.189
 6480SOL     OW20338   3.711   2.927   5.934
 6480SOL    HW120339   3.636   2.988   5.909
 6480SOL    HW220340   3.712   2.915   6.034
 6481SOL     OW20341   3.408   1.837   1.453
 6481SOL    HW120342   3.310   1.820   1.446
 6481SOL    HW220343   3.436   1.835   1.550
 6482SOL     OW20344   6.746   0.455   6.960
 6482SOL    HW120345   6.696   0.396   6.897
 6482SOL    HW220346   6.806   0.515   6.907
 6483SOL     OW20347   2.215   6.614   2.745
 6483SOL    HW120348   2.121   6.625   2.776
 6483SOL    HW220349   2.217   6.613   2.645
 6484SOL     OW20350   4.383   0.280   2.609
 6484SOL    HW120351   4.332   0.218   2.549
 6484SOL    HW220352   4.468   0.236   2.639
 6485SOL     OW20353   1.459   3.341   3.594
 6485SOL    HW120354   1.501   3.354   3.684
 6485SOL    HW220355   1.484   3.251   3.559
 6486SOL     OW20356   0.782   4.593   4.512
 6486SOL    HW120357   0.882   4.586   4.516
 6486SOL    HW220358   0.741   4.511   4.553
 6487SOL     OW20359   6.894   5.987   4.239
 6487SOL    HW120360   6.889   6.061   4.173
 6487SOL    HW220361   6.889   6.024   4.332
 6488SOL     OW20362   2.955   6.043   5.570
 6488SOL    HW120363   2.903   5.967   5.610
 6488SOL    HW220364   2.948   6.039   5.470
 6489SOL     OW20365   2.013   2.268   6.794
 6489SOL    HW120366   2.046   2.308   6.879
 6489SOL    HW220367   2.008   2.168   6.804
 6490SOL     OW20368   3.904   2.870   0.370
 6490SOL    HW120369   3.942   2.953   0.411
 6490SOL    HW220370   3.823   2.841   0.421
 6491SOL     OW20371   4.746   1.019   6.528
 6491SOL    HW120372   4.693   1.100   6.504
 6491SOL    HW220373   4.836   1.023   6.485
 6492SOL     OW20374   6.228   6.728   0.026
 6492SOL    HW120375   6.323   6.747   0.049
 6492SOL    HW220376   6.168   6.775   0.090
 6493SOL     OW20377   1.917   6.493   5.975
 6493SOL    HW120378   1.841   6.556   5.965
 6493SOL    HW220379   1.946   6.491   6.070
 6494SOL     OW20380   0.792   0.182   3.562
 6494SOL    HW120381   0.709   0.160   3.512
 6494SOL    HW220382   0.849   0.101   3.570
 6495SOL     OW20383   4.823   5.732   3.102
 6495SOL    HW120384   4.778   5.816   3.070
 6495SOL    HW220385   4.774   5.697   3.181
 6496SOL     OW20386   7.009   6.311   1.597
 6496SOL    HW120387   6.951   6.393   1.603
 6496SOL    HW220388   0.082   6.333   1.630
 6497SOL     OW20389   2.032   3.695   1.207
 6497SOL    HW120390   2.065   3.739   1.291
 6497SOL    HW220391   2.076   3.606   1.198
 6498SOL     OW20392   2.420   4.706   4.252
 6498SOL    HW120393   2.331   4.669   4.279
 6498SOL    HW220394   2.436   4.792   4.302
 6499SOL     OW20395   4.954   0.574   5.178
 6499SOL    HW120396   4.915   0.640   5.243
 6499SOL    HW220397   4.882   0.539   5.119
 6500SOL     OW20398   6.318   4.401   3.810
 6500SOL    HW120399   6.251   4.466   3.775
 6500SOL    HW220400   6.403   4.449   3.830
 6501SOL     OW20401   6.552   3.825   1.452
 6501SOL    HW120402   6.489   3.821   1.529
 6501SOL    HW220403   6.607   3.741   1.449
 6502SOL     OW20404   0.574   4.371   3.836
 6502SOL    HW120405   0.514   4.383   3.915
 6502SOL    HW220406   0.531   4.410   3.755
 6503SOL     OW20407   5.588   6.082   3.163
 6503SOL    HW120408   5.526   6.159   3.178
 6503SOL    HW220409   5.545   6.017   3.101
 6504SOL     OW20410   4.780   0.403   6.860
 6504SOL    HW120411   4.864   0.415   6.913
 6504SOL    HW220412   4.767   0.306   6.839
 6505SOL     OW20413   6.292   4.632   0.759
 6505SOL    HW120414   6.295   4.579   0.844
 6505SOL    HW220415   6.380   4.625   0.712
 6506SOL     OW20416   1.052   2.737   1.132
 6506SOL    HW120417   0.978   2.707   1.192
 6506SOL    HW220418   1.139   2.726   1.179
 6507SOL     OW20419   1.420   5.986   1.459
 6507SOL    HW120420   1.395   6.004   1.363
 6507SOL    HW220421   1.432   5.888   1.472
 6508SOL     OW20422   2.053   2.541   3.722
 6508SOL    HW120423   2.014   2.450   3.710
 6508SOL    HW220424   2.146   2.542   3.685
 6509SOL     OW20425   1.401   2.339   4.883
 6509SOL    HW120426   1.359   2.258   4.843
 6509SOL    HW220427   1.385   2.418   4.824
 6510SOL     OW20428   6.734   5.341   6.696
 6510SOL    HW120429   6.826   5.301   6.699
 6510SOL    HW220430   6.726   5.410   6.768
 6511SOL     OW20431   6.689   0.385   5.349
 6511SOL    HW120432   6.600   0.374   5.391
 6511SOL    HW220433   6.689   0.344   5.258
 6512SOL     OW20434   4.375   6.581   2.798
 6512SOL    HW120435   4.395   6.518   2.873
 6512SOL    HW220436   4.328   6.661   2.833
 6513SOL     OW20437   3.737   6.948   4.175
 6513SOL    HW120438   3.641   6.935   4.196
 6513SOL    HW220439   3.790   6.954   4.259
 6514SOL     OW20440   4.969   0.025   4.256
 6514SOL    HW120441   5.013   6.989   4.185
 6514SOL    HW220442   5.038   0.081   4.303
 6515SOL     OW20443   6.785   5.469   4.357
 6515SOL    HW120444   6.791   5.511   4.447
 6515SOL    HW220445   6.872   5.423   4.336
 6516SOL     OW20446   0.378   1.677   6.730
 6516SOL    HW120447   0.409   1.585   6.754
 6516SOL    HW220448   0.359   1.729   6.813
 6517SOL     OW20449   0.232   1.927   0.380
 6517SOL    HW120450   0.223   2.014   0.429
 6517SOL    HW220451   0.209   1.852   0.442
 6518SOL     OW20452   1.023   6.061   0.879
 6518SOL    HW120453   1.016   6.147   0.930
 6518SOL    HW220454   1.067   6.078   0.791
 6519SOL     OW20455   2.275   1.894   4.499
 6519SOL    HW120456   2.305   1.826   4.566
 6519SOL    HW220457   2.248   1.978   4.547
 6520SOL     OW20458   6.105   5.757   2.222
 6520SOL    HW120459   6.011   5.751   2.257
 6520SOL    HW220460   6.167   5.710   2.285
 6521SOL     OW20461   1.338   1.393   4.469
 6521SOL    HW120462   1.274   1.334   4.418
 6521SOL    HW220463   1.390   1.449   4.404
 6522SOL     OW20464   2.169   5.700   6.984
 6522SOL    HW120465   2.235   5.640   0.010
 6522SOL    HW220466   2.121   5.649   6.912
 6523SOL     OW20467   2.566   1.033   6.618
 6523SOL    HW120468   2.504   0.960   6.586
 6523SOL    HW220469   2.582   1.097   6.544
 6524SOL     OW20470   3.687   3.704   3.776
 6524SOL    HW120471   3.658   3.701   3.680
 6524SOL    HW220472   3.734   3.620   3.800
 6525SOL     OW20473   1.013   2.501   3.066
 6525SOL    HW120474   0.978   2.412   3.098
 6525SOL    HW220475   1.005   2.506   2.966
 6526SOL     OW20476   0.961   6.243   4.873
 6526SOL    HW120477   0.949   6.251   4.774
 6526SOL    HW220478   0.923   6.156   4.904
 6527SOL     OW20479   1.414   0.335   5.327
 6527SOL    HW120480   1.402   0.426   5.367
 6527SOL    HW220481   1.455   0.343   5.236
 6528SOL     OW20482   0.132   1.130   4.031
 6528SOL    HW120483   0.223   1.122   4.073
 6528SOL    HW220484   0.140   1.174   3.942
 6529SOL     OW20485   5.976   1.533   2.375
 6529SOL    HW120486   5.960   1.478   2.457
 6529SOL    HW220487   5.901   1.519   2.310
 6530SOL     OW20488   6.720   2.866   0.367
 6530SOL    HW120489   6.687   2.926   0.294
 6530SOL    HW220490   6.710   2.912   0.455
 6531SOL     OW20491   5.690   2.262   4.110
 6531SOL    HW120492   5.695   2.358   4.137
 6531SOL    HW220493   5.594   2.236   4.100
 6532SOL     OW20494   6.420   1.569   6.446
 6532SOL    HW120495   6.384   1.498   6.387
 6532SOL    HW220496   6.508   1.601   6.410
 6533SOL     OW20497   5.184   6.307   1.122
 6533SOL    HW120498   5.200   6.284   1.218
 6533SOL    HW220499   5.134   6.232   1.078
 6534SOL     OW20500   2.386   3.437   1.418
 6534SOL    HW120501   2.342   3.467   1.503
 6534SOL    HW220502   2.318   3.436   1.344
 6535SOL     OW20503   0.279   3.455   5.060
 6535SOL    HW120504   0.204   3.505   5.102
 6535SOL    HW220505   0.323   3.513   4.990
 6536SOL     OW20506   6.009   1.981   0.254
 6536SOL    HW120507   6.007   1.938   0.163
 6536SOL    HW220508   5.920   2.021   0.274
 6537SOL     OW20509   6.827   6.812   6.677
 6537SOL    HW120510   6.787   6.903   6.690
 6537SOL    HW220511   6.817   6.759   6.761
 6538SOL     OW20512   3.325   3.837   0.200
 6538SOL    HW120513   3.339   3.900   0.276
 6538SOL    HW220514   3.236   3.854   0.158
 6539SOL     OW20515   2.328   1.537   6.496
 6539SOL    HW120516   2.288   1.520   6.586
 6539SOL    HW220517   2.330   1.636   6.478
 6540SOL     OW20518   3.861   1.765   4.368
 6540SOL    HW120519   3.845   1.666   4.369
 6540SOL    HW220520   3.937   1.786   4.307
 6541SOL     OW20521   3.011   2.426   5.348
 6541SOL    HW120522   2.917   2.394   5.350
 6541SOL    HW220523   3.062   2.376   5.277
 6542SOL     OW20524   5.781   4.781   3.382
 6542SOL    HW120525   5.802   4.757   3.287
 6542SOL    HW220526   5.696   4.737   3.411
 6543SOL     OW20527   6.300   5.772   0.079
 6543SOL    HW120528   6.358   5.696   0.052
 6543SOL    HW220529   6.205   5.752   0.054
 6544SOL     OW20530   6.511   6.518   4.248
 6544SOL    HW120531   6.593   6.572   4.234
 6544SOL    HW220532   6.526   6.452   4.322
 6545SOL     OW20533   5.487   1.360   5.996
 6545SOL    HW120534   5.441   1.400   6.075
 6545SOL    HW220535   5.570   1.312   6.026
 6546SOL     OW20536   3.722   4.877   6.265
 6546SOL    HW120537   3.699   4.879   6.168
 6546SOL    HW220538   3.821   4.872   6.276
 6547SOL     OW20539   4.983   2.484   6.395
 6547SOL    HW120540   4.954   2.527   6.480
 6547SOL    HW220541   4.903   2.454   6.343
 6548SOL     OW20542   6.588   4.714   5.959
 6548SOL    HW120543   6.592   4.671   5.869
 6548SOL    HW220544   6.508   4.680   6.009
 6549SOL     OW20545   3.893   2.436   1.028
 6549SOL    HW120546   3.805   2.477   1.002
 6549SOL    HW220547   3.877   2.345   1.065
 6550SOL     OW20548   0.382   5.819   3.422
 6550SOL    HW120549   0.435   5.903   3.410
 6550SOL    HW220550   0.444   5.744   3.445
 6551SOL     OW20551   2.291   4.540   1.778
 6551SOL    HW120552   2.380   4.501   1.802
 6551SOL    HW220553   2.279   4.538   1.679
 6552SOL     OW20554   2.814   5.109   5.745
 6552SOL    HW120555   2.827   5.187   5.684
 6552SOL    HW220556   2.716   5.097   5.764
 6553SOL     OW20557   0.540   3.449   1.796
 6553SOL    HW120558   0.482   3.413   1.868
 6553SOL    HW220559   0.593   3.374   1.755
 6554SOL     OW20560   6.551   1.796   5.860
 6554SOL    HW120561   6.491   1.760   5.789
 6554SOL    HW220562   6.497   1.842   5.930
 6555SOL     OW20563   1.987   0.973   1.990
 6555SOL    HW120564   1.909   1.032   1.967
 6555SOL    HW220565   1.995   0.966   2.089
 6556SOL     OW20566   4.629   4.773   5.075
 6556SOL    HW120567   4.714   4.763   5.024
 6556SOL    HW220568   4.577   4.851   5.039
 6557SOL     OW20569   6.320   5.789   0.746
 6557SOL    HW120570   6.228   5.809   0.713
 6557SOL    HW220571   6.329   5.690   0.761
 6558SOL     OW20572   6.542   6.227   0.927
 6558SOL    HW120573   6.597   6.164   0.982
 6558SOL    HW220574   6.559   6.210   0.830
 6559SOL     OW20575   4.861   3.739   1.052
 6559SOL    HW120576   4.888   3.648   1.021
 6559SOL    HW220577   4.762   3.748   1.046
 6560SOL     OW20578   4.086   3.367   1.339
 6560SOL    HW120579   4.023   3.351   1.416
 6560SOL    HW220580   4.043   3.336   1.255
 6561SOL     OW20581   3.924   3.920   2.450
 6561SOL    HW120582   4.022   3.922   2.430
 6561SOL    HW220583   3.880   4.000   2.410
 6562SOL     OW20584   6.580   5.082   6.060
 6562SOL    HW120585   6.629   5.015   6.116
 6562SOL    HW220586   6.608   5.073   5.965
 6563SOL     OW20587   0.336   5.882   0.180
 6563SOL    HW120588   0.247   5.871   0.225
 6563SOL    HW220589   0.386   5.956   0.224
 6564SOL     OW20590   1.199   3.751   1.925
 6564SOL    HW120591   1.112   3.766   1.972
 6564SOL    HW220592   1.244   3.839   1.910
 6565SOL     OW20593   5.677   2.547   5.027
 6565SOL    HW120594   5.775   2.561   5.018
 6565SOL    HW220595   5.653   2.454   4.999
 6566SOL     OW20596   3.426   7.010   1.378
 6566SOL    HW120597   3.482   0.055   1.324
 6566SOL    HW220598   3.475   6.986   1.462
 6567SOL     OW20599   4.712   3.038   0.497
 6567SOL    HW120600   4.733   2.948   0.535
 6567SOL    HW220601   4.642   3.030   0.426
 6568SOL     OW20602   4.333   4.781   1.871
 6568SOL    HW120603   4.329   4.880   1.886
 6568SOL    HW220604   4.243   4.748   1.844
 6569SOL     OW20605   2.191   5.083   0.855
 6569SOL    HW120606   2.202   5.021   0.777
 6569SOL    HW220607   2.260   5.062   0.925
 6570SOL     OW20608   4.957   0.837   2.175
 6570SOL    HW120609   5.041   0.868   2.220
 6570SOL    HW220610   4.921   0.912   2.119
 6571SOL     OW20611   1.984   5.666   3.841
 6571SOL    HW120612   2.068   5.614   3.825
 6571SOL    HW220613   1.982   5.745   3.780
 6572SOL     OW20614   6.540   3.653   5.165
 6572SOL    HW120615   6.573   3.730   5.219
 6572SOL    HW220616   6.457   3.616   5.206
 6573SOL     OW20617   3.580   0.970   2.731
 6573SOL    HW120618   3.667   0.922   2.716
 6573SOL    HW220619   3.594   1.045   2.795
 6574SOL     OW20620   2.377   5.838   2.162
 6574SOL    HW120621   2.319   5.919   2.175
 6574SOL    HW220622   2.321   5.755   2.166
 6575SOL     OW20623   0.893   1.186   1.592
 6575SOL    HW120624   0.928   1.099   1.557
 6575SOL    HW220625   0.916   1.194   1.689
 6576SOL     OW20626   1.559   5.492   0.079
 6576SOL    HW120627   1.640   5.443   0.047
 6576SOL    HW220628   1.505   5.431   0.137
 6577SOL     OW20629   0.764   1.618   3.603
 6577SOL    HW120630   0.736   1.567   3.684
 6577SOL    HW220631   0.837   1.568   3.556
 6578SOL     OW20632   5.910   5.118   3.645
 6578SOL    HW120633   5.914   5.074   3.555
 6578SOL    HW220634   5.844   5.193   3.642
 6579SOL     OW20635   0.350   4.049   3.679
 6579SOL    HW120636   0.289   3.970   3.690
 6579SOL    HW220637   0.302   4.132   3.705
 6580SOL     OW20638   5.635   0.511   0.695
 6580SOL    HW120639   5.607   0.498   0.790
 6580SOL    HW220640   5.560   0.553   0.643
 6581SOL     OW20641   4.222   1.319   6.250
 6581SOL    HW120642   4.220   1.308   6.350
 6581SOL    HW220643   4.224   1.229   6.207
 6582SOL     OW20644   0.632   6.839   2.895
 6582SOL    HW120645   0.533   6.838   2.885
 6582SOL    HW220646   0.660   6.776   2.967
 6583SOL     OW20647   5.416   1.396   6.244
 6583SOL    HW120648   5.486   1.415   6.313
 6583SOL    HW220649   5.387   1.300   6.252
 6584SOL     OW20650   5.773   1.455   5.896
 6584SOL    HW120651   5.810   1.492   5.812
 6584SOL    HW220652   5.713   1.523   5.940
 6585SOL     OW20653   0.331   1.787   6.995
 6585SOL    HW120654   0.400   1.755   0.042
 6585SOL    HW220655   0.308   1.882   7.015
 6586SOL     OW20656   6.334   1.731   6.173
 6586SOL    HW120657   6.427   1.696   6.160
 6586SOL    HW220658   6.333   1.795   6.250
 6587SOL     OW20659   2.292   5.654   4.288
 6587SOL    HW120660   2.217   5.613   4.237
 6587SOL    HW220661   2.294   5.752   4.272
 6588SOL     OW20662   1.521   3.090   0.607
 6588SOL    HW120663   1.594   3.137   0.558
 6588SOL    HW220664   1.551   2.998   0.631
 6589SOL     OW20665   4.798   0.499   6.048
 6589SOL    HW120666   4.762   0.585   6.010
 6589SOL    HW220667   4.884   0.476   6.004
 6590SOL     OW20668   0.087   1.359   4.430
 6590SOL    HW120669   0.061   1.455   4.440
 6590SOL    HW220670   0.050   1.323   4.345
 6591SOL     OW20671   5.644   6.929   2.455
 6591SOL    HW120672   5.634   6.840   2.500
 6591SOL    HW220673   5.553   6.970   2.445
 6592SOL     OW20674   4.178   0.342   4.922
 6592SOL    HW120675   4.193   0.426   4.976
 6592SOL    HW220676   4.168   0.265   4.985
 6593SOL     OW20677   3.054   2.208   3.928
 6593SOL    HW120678   2.987   2.209   3.853
 6593SOL    HW220679   3.009   2.236   4.013
 6594SOL     OW20680   5.232   0.263   6.638
 6594SOL    HW120681   5.253   0.308   6.725
 6594SOL    HW220682   5.135   0.242   6.634
 6595SOL     OW20683   1.766   3.289   0.561
 6595SOL    HW120684   1.863   3.267   0.571
 6595SOL    HW220685   1.735   3.339   0.641
 6596SOL     OW20686   4.902   0.162   5.958
 6596SOL    HW120687   4.959   0.090   5.920
 6596SOL    HW220688   4.897   0.153   6.057
 6597SOL     OW20689   0.226   6.794   4.281
 6597SOL    HW120690   0.234   6.866   4.213
 6597SOL    HW220691   0.287   6.814   4.358
 6598SOL     OW20692   1.387   5.803   4.932
 6598SOL    HW120693   1.408   5.742   5.009
 6598SOL    HW220694   1.419   5.760   4.848
 6599SOL     OW20695   4.192   5.133   5.986
 6599SOL    HW120696   4.155   5.089   5.904
 6599SOL    HW220697   4.238   5.065   6.043
 6600SOL     OW20698   4.754   4.943   4.715
 6600SOL    HW120699   4.844   4.959   4.754
 6600SOL    HW220700   4.764   4.904   4.623
 6601SOL     OW20701   0.285   1.166   0.539
 6601SOL    HW120702   0.229   1.119   0.607
 6601SOL    HW220703   0.237   1.248   0.507
 6602SOL     OW20704   0.239   2.332   1.460
 6602SOL    HW120705   0.172   2.276   1.509
 6602SOL    HW220706   0.331   2.314   1.496
 6603SOL     OW20707   1.442   3.847   3.202
 6603SOL    HW120708   1.412   3.764   3.154
 6603SOL    HW220709   1.537   3.836   3.232
 6604SOL     OW20710   2.614   5.737   2.090
 6604SOL    HW120711   2.535   5.795   2.109
 6604SOL    HW220712   2.600   5.646   2.130
 6605SOL     OW20713   5.331   5.434   0.381
 6605SOL    HW120714   5.312   5.444   0.478
 6605SOL    HW220715   5.362   5.521   0.343
 6606SOL     OW20716   4.827   0.788   2.529
 6606SOL    HW120717   4.805   0.882   2.555
 6606SOL    HW220718   4.785   0.768   2.441
 6607SOL     OW20719   2.007   1.190   2.365
 6607SOL    HW120720   1.964   1.247   2.295
 6607SOL    HW220721   2.106   1.191   2.352
 6608SOL     OW20722   5.227   3.235   3.166
 6608SOL    HW120723   5.151   3.291   3.201
 6608SOL    HW220724   5.296   3.224   3.237
 6609SOL     OW20725   5.462   0.884   7.016
 6609SOL    HW120726   5.474   0.983   7.001
 6609SOL    HW220727   5.458   0.838   6.927
 6610SOL     OW20728   2.130   0.548   0.556
 6610SOL    HW120729   2.218   0.582   0.591
 6610SOL    HW220730   2.147   0.477   0.488
 6611SOL     OW20731   6.457   2.201   2.949
 6611SOL    HW120732   6.368   2.192   2.904
 6611SOL    HW220733   6.507   2.115   2.941
 6612SOL     OW20734   1.163   5.710   6.825
 6612SOL    HW120735   1.196   5.738   6.915
 6612SOL    HW220736   1.065   5.727   6.819
 6613SOL     OW20737   5.256   5.025   2.773
 6613SOL    HW120738   5.251   5.118   2.735
 6613SOL    HW220739   5.164   4.986   2.779
 6614SOL     OW20740   5.006   5.293   6.289
 6614SOL    HW120741   4.971   5.228   6.357
 6614SOL    HW220742   5.038   5.376   6.336
 6615SOL     OW20743   0.540   3.151   5.229
 6615SOL    HW120744   0.553   3.250   5.225
 6615SOL    HW220745   0.586   3.114   5.310
 6616SOL     OW20746   4.544   1.469   5.303
 6616SOL    HW120747   4.454   1.448   5.265
 6616SOL    HW220748   4.541   1.463   5.402
 6617SOL     OW20749   3.250   6.351   3.919
 6617SOL    HW120750   3.224   6.269   3.867
 6617SOL    HW220751   3.317   6.404   3.867
 6618SOL     OW20752   0.810   4.325   2.193
 6618SOL    HW120753   0.857   4.311   2.281
 6618SOL    HW220754   0.712   4.325   2.208
 6619SOL     OW20755   4.411   7.015   3.431
 6619SOL    HW120756   4.344   6.958   3.479
 6619SOL    HW220757   4.437   6.970   3.345
 6620SOL     OW20758   1.375   3.081   6.308
 6620SOL    HW120759   1.366   3.048   6.214
 6620SOL    HW220760   1.462   3.050   6.346
 6621SOL     OW20761   2.797   4.139   0.304
 6621SOL    HW120762   2.853   4.221   0.294
 6621SOL    HW220763   2.774   4.126   0.401
 6622SOL     OW20764   6.563   6.448   0.389
 6622SOL    HW120765   6.552   6.485   0.297
 6622SOL    HW220766   6.507   6.366   0.399
 6623SOL     OW20767   3.345   2.863   2.491
 6623SOL    HW120768   3.355   2.822   2.400
 6623SOL    HW220769   3.436   2.877   2.531
 6624SOL     OW20770   3.278   5.653   5.080
 6624SOL    HW120771   3.185   5.621   5.062
 6624SOL    HW220772   3.343   5.595   5.032
 6625SOL     OW20773   6.411   1.008   6.220
 6625SOL    HW120774   6.435   1.101   6.248
 6625SOL    HW220775   6.409   0.949   6.300
 6626SOL     OW20776   3.174   5.563   3.218
 6626SOL    HW120777   3.131   5.494   3.275
 6626SOL    HW220778   3.116   5.582   3.139
 6627SOL     OW20779   1.899   0.904   6.281
 6627SOL    HW120780   1.984   0.907   6.229
 6627SOL    HW220781   1.915   0.860   6.369
 6628SOL     OW20782   4.374   4.842   2.782
 6628SOL    HW120783   4.469   4.837   2.812
 6628SOL    HW220784   4.369   4.817   2.685
 6629SOL     OW20785   2.967   6.013   1.837
 6629SOL    HW120786   2.929   5.986   1.748
 6629SOL    HW220787   3.055   6.060   1.822
 6630SOL     OW20788   3.642   1.207   0.429
 6630SOL    HW120789   3.732   1.164   0.434
 6630SOL    HW220790   3.654   1.306   0.422
 6631SOL     OW20791   4.745   0.226   2.342
 6631SOL    HW120792   4.657   0.235   2.296
 6631SOL    HW220793   4.800   0.309   2.327
 6632SOL     OW20794   6.809   1.526   0.464
 6632SOL    HW120795   6.805   1.496   0.560
 6632SOL    HW220796   6.783   1.622   0.459
 6633SOL     OW20797   1.145   5.957   0.075
 6633SOL    HW120798   1.106   5.962   7.001
 6633SOL    HW220799   1.206   6.035   0.089
 6634SOL     OW20800   6.448   3.294   5.861
 6634SOL    HW120801   6.400   3.354   5.924
 6634SOL    HW220802   6.464   3.205   5.904
 6635SOL     OW20803   4.150   5.034   3.416
 6635SOL    HW120804   4.075   5.094   3.389
 6635SOL    HW220805   4.220   5.087   3.464
 6636SOL     OW20806   1.213   3.155   5.216
 6636SOL    HW120807   1.137   3.133   5.154
 6636SOL    HW220808   1.273   3.076   5.225
 6637SOL     OW20809   1.555   0.606   0.629
 6637SOL    HW120810   1.539   0.578   0.534
 6637SOL    HW220811   1.653   0.607   0.648
 6638SOL     OW20812   1.750   5.488   5.101
 6638SOL    HW120813   1.789   5.414   5.047
 6638SOL    HW220814   1.821   5.530   5.158
 6639SOL     OW20815   5.580   4.718   6.367
 6639SOL    HW120816   5.508   4.777   6.330
 6639SOL    HW220817   5.586   4.730   6.466
 6640SOL     OW20818   6.811   2.331   3.657
 6640SOL    HW120819   6.823   2.369   3.749
 6640SOL    HW220820   6.847   2.238   3.654
 6641SOL     OW20821   3.160   4.048   6.467
 6641SOL    HW120822   3.159   4.090   6.558
 6641SOL    HW220823   3.089   4.090   6.410
 6642SOL     OW20824   1.576   4.652   0.104
 6642SOL    HW120825   1.534   4.561   0.092
 6642SOL    HW220826   1.521   4.720   0.055
 6643SOL     OW20827   6.309   4.205   6.055
 6643SOL    HW120828   6.313   4.220   6.153
 6643SOL    HW220829   6.230   4.148   6.032
 6644SOL     OW20830   2.704   4.863   1.938
 6644SOL    HW120831   2.741   4.770   1.938
 6644SOL    HW220832   2.766   4.922   1.887
 6645SOL     OW20833   6.985   5.194   6.642
 6645SOL    HW120834   0.022   5.224   6.564
 6645SOL    HW220835   0.003   5.235   6.726
 6646SOL     OW20836   3.944   5.205   4.458
 6646SOL    HW120837   3.951   5.304   4.449
 6646SOL    HW220838   3.873   5.182   4.524
 6647SOL     OW20839   3.335   0.243   2.389
 6647SOL    HW120840   3.275   0.171   2.424
 6647SOL    HW220841   3.289   0.332   2.397
 6648SOL     OW20842   4.000   5.613   2.924
 6648SOL    HW120843   4.027   5.532   2.872
 6648SOL    HW220844   4.044   5.694   2.884
 6649SOL     OW20845   4.978   1.769   6.164
 6649SOL    HW120846   4.893   1.736   6.122
 6649SOL    HW220847   5.033   1.692   6.194
 6650SOL     OW20848   4.334   0.986   3.264
 6650SOL    HW120849   4.382   1.013   3.347
 6650SOL    HW220850   4.274   0.909   3.283
 6651SOL     OW20851   1.253   1.951   0.386
 6651SOL    HW120852   1.214   1.965   0.294
 6651SOL    HW220853   1.336   2.005   0.395
 6652SOL     OW20854   6.855   5.035   1.110
 6652SOL    HW120855   6.932   4.992   1.062
 6652SOL    HW220856   6.825   5.115   1.059
 6653SOL     OW20857   3.175   3.795   2.754
 6653SOL    HW120858   3.165   3.835   2.845
 6653SOL    HW220859   3.095   3.819   2.698
 6654SOL     OW20860   1.921   2.825   1.055
 6654SOL    HW120861   1.843   2.866   1.008
 6654SOL    HW220862   1.962   2.755   0.997
 6655SOL     OW20863   2.745   6.307   1.947
 6655SOL    HW120864   2.742   6.231   2.011
 6655SOL    HW220865   2.676   6.375   1.974
 6656SOL     OW20866   7.005   1.128   1.941
 6656SOL    HW120867   6.972   1.184   1.864
 6656SOL    HW220868   0.041   1.185   2.003
 6657SOL     OW20869   4.153   0.028   6.111
 6657SOL    HW120870   4.059   0.057   6.127
 6657SOL    HW220871   4.206   0.104   6.073
 6658SOL     OW20872   5.633   0.628   5.008
 6658SOL    HW120873   5.601   0.718   4.981
 6658SOL    HW220874   5.555   0.571   5.034
 6659SOL     OW20875   3.053   3.028   7.007
 6659SOL    HW120876   3.141   3.067   0.017
 6659SOL    HW220877   3.064   2.979   6.921
 6660SOL     OW20878   6.820   6.503   2.173
 6660SOL    HW120879   6.738   6.530   2.123
 6660SOL    HW220880   6.810   6.409   2.206
 6661SOL     OW20881   6.163   5.301   3.364
 6661SOL    HW120882   6.169   5.215   3.313
 6661SOL    HW220883   6.255   5.334   3.384
 6662SOL     OW20884   2.365   0.737   0.235
 6662SOL    HW120885   2.350   0.681   0.154
 6662SOL    HW220886   2.447   0.793   0.222
 6663SOL     OW20887   6.912   5.587   2.525
 6663SOL    HW120888   6.982   5.613   2.459
 6663SOL    HW220889   6.952   5.589   2.617
 6664SOL     OW20890   1.188   0.050   2.292
 6664SOL    HW120891   1.273   0.075   2.339
 6664SOL    HW220892   1.117   0.032   2.359
 6665SOL     OW20893   1.413   6.429   3.333
 6665SOL    HW120894   1.473   6.350   3.320
 6665SOL    HW220895   1.438   6.502   3.269
 6666SOL     OW20896   6.196   1.542   4.997
 6666SOL    HW120897   6.233   1.455   4.962
 6666SOL    HW220898   6.133   1.581   4.930
 6667SOL     OW20899   6.233   5.405   4.391
 6667SOL    HW120900   6.261   5.314   4.420
 6667SOL    HW220901   6.161   5.397   4.321
 6668SOL     OW20902   0.419   4.903   2.306
 6668SOL    HW120903   0.355   4.826   2.320
 6668SOL    HW220904   0.442   4.944   2.394
 6669SOL     OW20905   2.549   5.125   3.667
 6669SOL    HW120906   2.600   5.165   3.591
 6669SOL    HW220907   2.460   5.092   3.633
 6670SOL     OW20908   3.700   5.148   6.958
 6670SOL    HW120909   3.741   5.057   6.957
 6670SOL    HW220910   3.603   5.140   6.980
 6671SOL     OW20911   6.529   4.458   6.302
 6671SOL    HW120912   6.602   4.461   6.234
 6671SOL    HW220913   6.446   4.500   6.265
 6672SOL     OW20914   1.497   0.625   5.843
 6672SOL    HW120915   1.580   0.673   5.817
 6672SOL    HW220916   1.421   0.656   5.786
 6673SOL     OW20917   4.643   4.920   2.209
 6673SOL    HW120918   4.705   4.999   2.212
 6673SOL    HW220919   4.621   4.899   2.114
 6674SOL     OW20920   0.766   5.640   5.575
 6674SOL    HW120921   0.865   5.631   5.571
 6674SOL    HW220922   0.729   5.573   5.640
 6675SOL     OW20923   5.402   4.327   0.180
 6675SOL    HW120924   5.354   4.277   0.108
 6675SOL    HW220925   5.338   4.390   0.225
 6676SOL     OW20926   0.688   3.397   5.436
 6676SOL    HW120927   0.670   3.425   5.342
 6676SOL    HW220928   0.784   3.371   5.446
 6677SOL     OW20929   0.432   3.485   0.458
 6677SOL    HW120930   0.473   3.408   0.409
 6677SOL    HW220931   0.409   3.558   0.394
 6678SOL     OW20932   1.250   2.446   6.635
 6678SOL    HW120933   1.186   2.523   6.630
 6678SOL    HW220934   1.238   2.387   6.556
 6679SOL     OW20935   1.389   2.565   5.443
 6679SOL    HW120936   1.384   2.474   5.401
 6679SOL    HW220937   1.356   2.561   5.537
 6680SOL     OW20938   4.039   6.332   6.279
 6680SOL    HW120939   4.131   6.336   6.318
 6680SOL    HW220940   3.973   6.312   6.351
 6681SOL     OW20941   5.621   5.284   0.168
 6681SOL    HW120942   5.571   5.198   0.165
 6681SOL    HW220943   5.613   5.323   0.260
 6682SOL     OW20944   0.281   5.290   2.709
 6682SOL    HW120945   0.336   5.354   2.762
 6682SOL    HW220946   0.250   5.334   2.625
 6683SOL     OW20947   4.924   1.572   5.295
 6683SOL    HW120948   4.853   1.640   5.312
 6683SOL    HW220949   4.888   1.481   5.315
 6684SOL     OW20950   1.775   6.833   2.541
 6684SOL    HW120951   1.864   6.788   2.535
 6684SOL    HW220952   1.712   6.776   2.593
 6685SOL     OW20953   5.401   2.127   6.455
 6685SOL    HW120954   5.478   2.136   6.392
 6685SOL    HW220955   5.323   2.179   6.420
 6686SOL     OW20956   6.024   3.786   4.195
 6686SOL    HW120957   6.080   3.746   4.123
 6686SOL    HW220958   6.024   3.725   4.275
 6687SOL     OW20959   1.197   1.916   0.813
 6687SOL    HW120960   1.163   1.823   0.799
 6687SOL    HW220961   1.156   1.954   0.896
 6688SOL     OW20962   0.173   4.772   2.896
 6688SOL    HW120963   0.237   4.848   2.904
 6688SOL    HW220964   0.156   4.733   2.987
 6689SOL     OW20965   5.037   3.864   0.461
 6689SOL    HW120966   5.042   3.784   0.520
 6689SOL    HW220967   5.068   3.841   0.369
 6690SOL     OW20968   2.350   2.581   1.199
 6690SOL    HW120969   2.371   2.524   1.278
 6690SOL    HW220970   2.434   2.607   1.152
 6691SOL     OW20971   2.287   6.092   1.259
 6691SOL    HW120972   2.379   6.105   1.297
 6691SOL    HW220973   2.246   6.181   1.241
 6692SOL     OW20974   3.058   4.277   5.317
 6692SOL    HW120975   3.004   4.209   5.367
 6692SOL    HW220976   2.998   4.347   5.281
 6693SOL     OW20977   4.508   3.850   5.493
 6693SOL    HW120978   4.548   3.941   5.483
 6693SOL    HW220979   4.572   3.781   5.460
 6694SOL     OW20980   5.016   6.517   0.768
 6694SOL    HW120981   5.105   6.504   0.725
 6694SOL    HW220982   4.989   6.613   0.758
 6695SOL     OW20983   0.480   1.424   6.780
 6695SOL    HW120984   0.548   1.389   6.716
 6695SOL    HW220985   0.456   1.354   6.846
 6696SOL     OW20986   2.306   2.781   1.666
 6696SOL    HW120987   2.261   2.716   1.727
 6696SOL    HW220988   2.270   2.771   1.573
 6697SOL     OW20989   4.358   1.478   2.782
 6697SOL    HW120990   4.441   1.531   2.766
 6697SOL    HW220991   4.346   1.463   2.880
 6698SOL     OW20992   4.254   2.759   6.740
 6698SOL    HW120993   4.199   2.768   6.823
 6698SOL    HW220994   4.229   2.832   6.676
 6699SOL     OW20995   3.857   4.920   7.001
 6699SOL    HW120996   3.860   4.838   6.944
 6699SOL    HW220997   3.858   4.894   0.080
 6700SOL     OW20998   0.621   5.668   1.461
 6700SOL    HW120999   0.671   5.681   1.375
 6700SOL    HW221000   0.675   5.611   1.523
 6701SOL     OW21001   0.168   1.791   0.625
 6701SOL    HW121002   0.247   1.761   0.678
 6701SOL    HW221003   0.085   1.749   0.662
 6702SOL     OW21004   2.736   1.849   0.852
 6702SOL    HW121005   2.701   1.909   0.780
 6702SOL    HW221006   2.659   1.809   0.901
 6703SOL     OW21007   6.995   1.274   5.991
 6703SOL    HW121008   6.946   1.344   6.042
 6703SOL    HW221009   0.073   1.272   6.019
 6704SOL     OW21010   4.701   2.365   2.291
 6704SOL    HW121011   4.702   2.270   2.260
 6704SOL    HW221012   4.624   2.413   2.249
 6705SOL     OW21013   6.496   2.408   1.872
 6705SOL    HW121014   6.535   2.454   1.953
 6705SOL    HW221015   6.465   2.476   1.807
 6706SOL     OW21016   1.024   3.653   0.264
 6706SOL    HW121017   0.967   3.591   0.318
 6706SOL    HW221018   0.967   3.723   0.221
 6707SOL     OW21019   6.385   5.513   4.140
 6707SOL    HW121020   6.343   5.507   4.231
 6707SOL    HW221021   6.377   5.607   4.106
 6708SOL     OW21022   1.647   5.233   2.027
 6708SOL    HW121023   1.571   5.220   1.964
 6708SOL    HW221024   1.688   5.324   2.013
 6709SOL     OW21025   3.553   6.945   1.611
 6709SOL    HW121026   3.541   6.932   1.710
 6709SOL    HW221027   3.650   6.949   1.590
 6710SOL     OW21028   2.629   2.667   6.241
 6710SOL    HW121029   2.636   2.767   6.242
 6710SOL    HW221030   2.545   2.639   6.286
 6711SOL     OW21031   5.084   3.878   6.487
 6711SOL    HW121032   5.159   3.828   6.531
 6711SOL    HW221033   5.077   3.849   6.391
 6712SOL     OW21034   4.142   5.382   0.796
 6712SOL    HW121035   4.088   5.400   0.713
 6712SOL    HW221036   4.088   5.402   0.877
 6713SOL     OW21037   2.073   2.555   1.661
 6713SOL    HW121038   2.135   2.599   1.726
 6713SOL    HW221039   1.980   2.590   1.675
 6714SOL     OW21040   5.157   0.202   4.371
 6714SOL    HW121041   5.120   0.246   4.453
 6714SOL    HW221042   5.253   0.179   4.385
 6715SOL     OW21043   0.277   2.205   1.064
 6715SOL    HW121044   0.357   2.252   1.101
 6715SOL    HW221045   0.257   2.239   0.972
 6716SOL     OW21046   1.618   6.199   1.039
 6716SOL    HW121047   1.636   6.105   1.066
 6716SOL    HW221048   1.626   6.259   1.119
 6717SOL     OW21049   3.609   2.922   0.660
 6717SOL    HW121050   3.621   2.843   0.599
 6717SOL    HW221051   3.697   2.967   0.673
 6718SOL     OW21052   3.650   6.883   6.979
 6718SOL    HW121053   3.746   6.892   7.007
 6718SOL    HW221054   3.628   6.787   6.967
 6719SOL     OW21055   0.305   6.227   5.526
 6719SOL    HW121056   0.305   6.258   5.621
 6719SOL    HW221057   0.399   6.213   5.495
 6720SOL     OW21058   2.270   5.524   1.809
 6720SOL    HW121059   2.194   5.460   1.821
 6720SOL    HW221060   2.300   5.557   1.898
 6721SOL     OW21061   4.991   6.331   3.946
 6721SOL    HW121062   4.916   6.311   3.882
 6721SOL    HW221063   5.012   6.249   3.999
 6722SOL     OW21064   4.272   3.494   6.838
 6722SOL    HW121065   4.370   3.518   6.835
 6722SOL    HW221066   4.262   3.395   6.831
 6723SOL     OW21067   2.575   6.836   3.745
 6723SOL    HW121068   2.475   6.836   3.742
 6723SOL    HW221069   2.611   6.802   3.658
 6724SOL     OW21070   3.017   4.655   5.399
 6724SOL    HW121071   3.006   4.572   5.344
 6724SOL    HW221072   2.927   4.689   5.425
 6725SOL     OW21073   0.895   4.978   2.587
 6725SOL    HW121074   0.975   5.034   2.569
 6725SOL    HW221075   0.812   5.027   2.561
 6726SOL     OW21076   2.348   2.851   4.175
 6726SOL    HW121077   2.322   2.898   4.259
 6726SOL    HW221078   2.382   2.760   4.197
 6727SOL     OW21079   4.530   3.315   5.951
 6727SOL    HW121080   4.506   3.307   6.048
 6727SOL    HW221081   4.448   3.297   5.895
 6728SOL     OW21082   3.996   1.769   4.128
 6728SOL    HW121083   3.990   1.859   4.085
 6728SOL    HW221084   3.953   1.701   4.068
 6729SOL     OW21085   6.484   0.713   2.803
 6729SOL    HW121086   6.507   0.774   2.727
 6729SOL    HW221087   6.551   0.640   2.809
 6730SOL     OW21088   2.790   0.610   0.319
 6730SOL    HW121089   2.802   0.560   0.233
 6730SOL    HW221090   2.703   0.582   0.362
 6731SOL     OW21091   2.628   4.400   1.306
 6731SOL    HW121092   2.528   4.405   1.304
 6731SOL    HW221093   2.657   4.341   1.380
 6732SOL     OW21094   2.662   6.456   0.914
 6732SOL    HW121095   2.640   6.517   0.838
 6732SOL    HW221096   2.606   6.479   0.993
 6733SOL     OW21097   4.423   5.865   5.148
 6733SOL    HW121098   4.523   5.857   5.147
 6733SOL    HW221099   4.396   5.940   5.088
 6734SOL     OW21100   1.393   2.973   5.632
 6734SOL    HW121101   1.353   3.056   5.593
 6734SOL    HW221102   1.471   2.944   5.577
 6735SOL     OW21103   6.800   5.143   5.515
 6735SOL    HW121104   6.883   5.087   5.519
 6735SOL    HW221105   6.820   5.235   5.550
 6736SOL     OW21106   2.699   2.794   1.673
 6736SOL    HW121107   2.660   2.702   1.682
 6736SOL    HW221108   2.626   2.862   1.686
 6737SOL     OW21109   2.667   1.709   2.609
 6737SOL    HW121110   2.742   1.742   2.667
 6737SOL    HW221111   2.691   1.620   2.571
 6738SOL     OW21112   2.863   1.142   2.724
 6738SOL    HW121113   2.818   1.162   2.811
 6738SOL    HW221114   2.956   1.109   2.741
 6739SOL     OW21115   3.833   6.415   4.881
 6739SOL    HW121116   3.771   6.439   4.956
 6739SOL    HW221117   3.843   6.316   4.876
 6740SOL     OW21118   1.937   1.706   3.980
 6740SOL    HW121119   1.994   1.665   3.909
 6740SOL    HW221120   1.920   1.640   4.053
 6741SOL     OW21121   6.836   0.687   6.044
 6741SOL    HW121122   6.769   0.724   6.109
 6741SOL    HW221123   6.823   0.731   5.955
 6742SOL     OW21124   6.271   5.932   5.428
 6742SOL    HW121125   6.219   6.017   5.419
 6742SOL    HW221126   6.346   5.931   5.362
 6743SOL     OW21127   3.999   3.293   1.591
 6743SOL    HW121128   4.064   3.218   1.578
 6743SOL    HW221129   3.914   3.257   1.630
 6744SOL     OW21130   4.512   4.887   5.969
 6744SOL    HW121131   4.550   4.813   5.913
 6744SOL    HW221132   4.478   4.959   5.908
 6745SOL     OW21133   1.322   4.900   3.378
 6745SOL    HW121134   1.391   4.843   3.423
 6745SOL    HW221135   1.231   4.861   3.396
 6746SOL     OW21136   0.103   2.171   1.251
 6746SOL    HW121137   0.154   2.160   1.166
 6746SOL    HW221138   0.165   2.200   1.324
 6747SOL     OW21139   5.042   5.815   4.963
 6747SOL    HW121140   4.992   5.850   5.042
 6747SOL    HW221141   4.978   5.780   4.896
 6748SOL     OW21142   1.001   0.658   2.551
 6748SOL    HW121143   1.074   0.687   2.613
 6748SOL    HW221144   1.039   0.594   2.484
 6749SOL     OW21145   4.637   0.152   0.131
 6749SOL    HW121146   4.611   0.065   0.090
 6749SOL    HW221147   4.736   0.162   0.128
 6750SOL     OW21148   2.543   2.536   4.826
 6750SOL    HW121149   2.496   2.601   4.885
 6750SOL    HW221150   2.632   2.513   4.866
 6751SOL     OW21151   2.714   2.407   4.468
 6751SOL    HW121152   2.629   2.403   4.520
 6751SOL    HW221153   2.783   2.348   4.511
 6752SOL     OW21154   5.479   3.286   0.722
 6752SOL    HW121155   5.505   3.374   0.761
 6752SOL    HW221156   5.541   3.262   0.648
 6753SOL     OW21157   4.570   2.447   6.473
 6753SOL    HW121158   4.629   2.393   6.534
 6753SOL    HW221159   4.481   2.459   6.516
 6754SOL     OW21160   5.943   1.324   6.400
 6754SOL    HW121161   5.984   1.357   6.315
 6754SOL    HW221162   5.942   1.397   6.467
 6755SOL     OW21163   4.884   2.121   3.795
 6755SOL    HW121164   4.844   2.132   3.886
 6755SOL    HW221165   4.878   2.025   3.768
 6756SOL     OW21166   4.865   5.247   3.989
 6756SOL    HW121167   4.916   5.165   3.964
 6756SOL    HW221168   4.845   5.245   4.087
 6757SOL     OW21169   6.283   6.349   1.894
 6757SOL    HW121170   6.287   6.305   1.804
 6757SOL    HW221171   6.189   6.379   1.913
 6758SOL     OW21172   5.162   2.571   1.751
 6758SOL    HW121173   5.133   2.591   1.657
 6758SOL    HW221174   5.256   2.537   1.751
 6759SOL     OW21175   0.753   5.224   2.983
 6759SOL    HW121176   0.814   5.235   3.062
 6759SOL    HW221177   0.658   5.234   3.013
 6760SOL     OW21178   6.636   3.833   3.725
 6760SOL    HW121179   6.625   3.875   3.635
 6760SOL    HW221180   6.679   3.899   3.787
 6761SOL     OW21181   4.719   2.511   5.420
 6761SOL    HW121182   4.629   2.474   5.446
 6761SOL    HW221183   4.789   2.473   5.480
 6762SOL     OW21184   6.104   4.775   3.129
 6762SOL    HW121185   6.151   4.856   3.162
 6762SOL    HW221186   6.127   4.759   3.033
 6763SOL     OW21187   6.569   6.592   5.784
 6763SOL    HW121188   6.567   6.665   5.716
 6763SOL    HW221189   6.479   6.548   5.789
 6764SOL     OW21190   2.923   4.363   6.798
 6764SOL    HW121191   2.877   4.387   6.713
 6764SOL    HW221192   2.860   4.314   6.858
 6765SOL     OW21193   6.149   3.994   1.978
 6765SOL    HW121194   6.248   3.977   1.971
 6765SOL    HW221195   6.123   3.997   2.074
 6766SOL     OW21196   2.050   0.425   5.955
 6766SOL    HW121197   1.995   0.379   5.885
 6766SOL    HW221198   2.137   0.453   5.915
 6767SOL     OW21199   6.894   2.868   6.623
 6767SOL    HW121200   6.854   2.858   6.531
 6767SOL    HW221201   6.841   2.935   6.675
 6768SOL     OW21202   6.469   0.440   3.890
 6768SOL    HW121203   6.474   0.505   3.967
 6768SOL    HW221204   6.514   0.355   3.916
 6769SOL     OW21205   2.042   3.048   5.426
 6769SOL    HW121206   1.961   3.025   5.373
 6769SOL    HW221207   2.119   3.063   5.364
 6770SOL     OW21208   0.271   1.806   3.154
 6770SOL    HW121209   0.184   1.757   3.164
 6770SOL    HW221210   0.254   1.905   3.159
 6771SOL     OW21211   3.906   2.224   3.381
 6771SOL    HW121212   4.000   2.243   3.410
 6771SOL    HW221213   3.903   2.215   3.281
 6772SOL     OW21214   0.013   1.561   1.985
 6772SOL    HW121215   6.941   1.523   2.008
 6772SOL    HW221216   0.013   1.659   2.003
 6773SOL     OW21217   0.988   6.577   1.557
 6773SOL    HW121218   0.924   6.510   1.595
 6773SOL    HW221219   0.976   6.664   1.605
 6774SOL     OW21220   2.068   2.494   5.493
 6774SOL    HW121221   2.093   2.531   5.583
 6774SOL    HW221222   2.070   2.567   5.425
 6775SOL     OW21223   0.548   2.223   4.709
 6775SOL    HW121224   0.468   2.203   4.652
 6775SOL    HW221225   0.631   2.215   4.654
 6776SOL     OW21226   3.290   4.108   2.772
 6776SOL    HW121227   3.293   4.206   2.793
 6776SOL    HW221228   3.237   4.094   2.688
 6777SOL     OW21229   5.937   5.073   6.780
 6777SOL    HW121230   5.849   5.041   6.746
 6777SOL    HW221231   5.922   5.136   6.856
 6778SOL     OW21232   6.617   4.673   2.867
 6778SOL    HW121233   6.637   4.623   2.951
 6778SOL    HW221234   6.685   4.746   2.854
 6779SOL     OW21235   5.309   3.472   5.720
 6779SOL    HW121236   5.234   3.486   5.785
 6779SOL    HW221237   5.395   3.462   5.770
 6780SOL     OW21238   3.090   2.210   3.237
 6780SOL    HW121239   3.062   2.274   3.308
 6780SOL    HW221240   3.108   2.120   3.277
 6781SOL     OW21241   0.087   1.755   3.387
 6781SOL    HW121242   0.052   1.727   3.477
 6781SOL    HW221243   0.121   1.849   3.393
 6782SOL     OW21244   6.968   1.401   2.815
 6782SOL    HW121245   0.037   1.446   2.795
 6782SOL    HW221246   6.916   1.391   2.730
 6783SOL     OW21247   1.773   5.061   5.374
 6783SOL    HW121248   1.816   5.037   5.461
 6783SOL    HW221249   1.799   4.993   5.305
 6784SOL     OW21250   2.224   3.562   1.638
 6784SOL    HW121251   2.147   3.619   1.668
 6784SOL    HW221252   2.256   3.506   1.715
 6785SOL     OW21253   5.173   6.034   4.881
 6785SOL    HW121254   5.115   6.062   4.804
 6785SOL    HW221255   5.127   5.962   4.933
 6786SOL     OW21256   5.981   1.920   6.488
 6786SOL    HW121257   6.051   1.848   6.489
 6786SOL    HW221258   6.020   2.004   6.526
 6787SOL     OW21259   3.949   2.278   6.002
 6787SOL    HW121260   3.945   2.378   6.000
 6787SOL    HW221261   4.044   2.248   5.998
 6788SOL     OW21262   6.676   3.998   3.017
 6788SOL    HW121263   6.613   3.924   3.039
 6788SOL    HW221264   6.707   3.988   2.922
 6789SOL     OW21265   6.198   3.984   3.567
 6789SOL    HW121266   6.264   4.059   3.575
 6789SOL    HW221267   6.243   3.904   3.528
 6790SOL     OW21268   0.582   5.148   6.053
 6790SOL    HW121269   0.673   5.137   6.092
 6790SOL    HW221270   0.516   5.096   6.107
 6791SOL     OW21271   3.496   0.493   3.372
 6791SOL    HW121272   3.513   0.568   3.307
 6791SOL    HW221273   3.439   0.526   3.447
 6792SOL     OW21274   4.166   0.035   4.880
 6792SOL    HW121275   4.143   0.035   4.977
 6792SOL    HW221276   4.087   0.003   4.828
 6793SOL     OW21277   1.659   3.961   0.261
 6793SOL    HW121278   1.678   3.902   0.339
 6793SOL    HW221279   1.581   3.926   0.210
 6794SOL     OW21280   4.925   1.650   5.594
 6794SOL    HW121281   5.014   1.652   5.549
 6794SOL    HW221282   4.853   1.662   5.525
 6795SOL     OW21283   1.160   1.027   1.045
 6795SOL    HW121284   1.246   1.006   0.998
 6795SOL    HW221285   1.085   1.024   0.980
 6796SOL     OW21286   5.930   1.009   2.402
 6796SOL    HW121287   5.950   0.969   2.491
 6796SOL    HW221288   5.998   1.079   2.380
 6797SOL     OW21289   0.955   2.530   1.506
 6797SOL    HW121290   0.945   2.436   1.473
 6797SOL    HW221291   0.908   2.539   1.593
 6798SOL     OW21292   5.834   6.999   1.413
 6798SOL    HW121293   5.794   6.908   1.407
 6798SOL    HW221294   5.845   0.019   1.321
 6799SOL     OW21295   6.427   1.034   3.283
 6799SOL    HW121296   6.446   0.942   3.316
 6799SOL    HW221297   6.447   1.100   3.355
 6800SOL     OW21298   6.625   2.160   1.488
 6800SOL    HW121299   6.708   2.173   1.434
 6800SOL    HW221300   6.562   2.236   1.471
 6801SOL     OW21301   1.161   5.757   5.913
 6801SOL    HW121302   1.189   5.779   6.006
 6801SOL    HW221303   1.141   5.842   5.864
 6802SOL     OW21304   3.339   4.830   1.794
 6802SOL    HW121305   3.246   4.809   1.825
 6802SOL    HW221306   3.397   4.749   1.805
 6803SOL     OW21307   5.560   4.953   5.664
 6803SOL    HW121308   5.507   5.037   5.656
 6803SOL    HW221309   5.505   4.883   5.710
 6804SOL     OW21310   3.349   5.055   2.828
 6804SOL    HW121311   3.379   5.151   2.826
 6804SOL    HW221312   3.389   5.010   2.908
 6805SOL     OW21313   0.063   4.321   4.975
 6805SOL    HW121314   0.014   4.234   4.980
 6805SOL    HW221315   0.117   4.324   4.892
 6806SOL     OW21316   6.981   1.794   2.104
 6806SOL    HW121317   0.015   1.880   2.108
 6806SOL    HW221318   6.989   1.746   2.191
 6807SOL     OW21319   3.086   4.161   1.789
 6807SOL    HW121320   3.039   4.096   1.849
 6807SOL    HW221321   3.179   4.129   1.773
 6808SOL     OW21322   3.347   1.342   4.117
 6808SOL    HW121323   3.320   1.392   4.199
 6808SOL    HW221324   3.300   1.380   4.038
 6809SOL     OW21325   5.674   3.480   0.768
 6809SOL    HW121326   5.765   3.472   0.808
 6809SOL    HW221327   5.680   3.471   0.669
 6810SOL     OW21328   2.598   0.591   4.476
 6810SOL    HW121329   2.631   0.552   4.390
 6810SOL    HW221330   2.499   0.581   4.482
 6811SOL     OW21331   6.391   1.200   0.830
 6811SOL    HW121332   6.391   1.282   0.887
 6811SOL    HW221333   6.428   1.222   0.740
 6812SOL     OW21334   3.793   4.312   5.440
 6812SOL    HW121335   3.838   4.246   5.501
 6812SOL    HW221336   3.782   4.272   5.349
 6813SOL     OW21337   6.304   3.862   1.628
 6813SOL    HW121338   6.212   3.890   1.654
 6813SOL    HW221339   6.311   3.762   1.634
 6814SOL     OW21340   5.267   1.428   6.657
 6814SOL    HW121341   5.296   1.508   6.710
 6814SOL    HW221342   5.343   1.398   6.599
 6815SOL     OW21343   1.572   5.019   5.721
 6815SOL    HW121344   1.479   5.031   5.686
 6815SOL    HW221345   1.588   5.085   5.794
 6816SOL     OW21346   0.706   0.897   2.999
 6816SOL    HW121347   0.629   0.853   3.045
 6816SOL    HW221348   0.684   0.994   2.984
 6817SOL     OW21349   4.057   2.116   1.896
 6817SOL    HW121350   3.964   2.081   1.880
 6817SOL    HW221351   4.059   2.214   1.878
 6818SOL     OW21352   1.595   0.062   5.432
 6818SOL    HW121353   1.691   0.034   5.425
 6818SOL    HW221354   1.570   0.117   5.352
 6819SOL     OW21355   4.860   4.498   1.861
 6819SOL    HW121356   4.896   4.577   1.812
 6819SOL    HW221357   4.765   4.481   1.832
 6820SOL     OW21358   3.087   5.779   2.178
 6820SOL    HW121359   3.113   5.764   2.083
 6820SOL    HW221360   3.064   5.876   2.192
 6821SOL     OW21361   3.894   2.694   5.313
 6821SOL    HW121362   3.976   2.650   5.277
 6821SOL    HW221363   3.867   2.649   5.398
 6822SOL     OW21364   6.469   2.640   6.187
 6822SOL    HW121365   6.551   2.690   6.161
 6822SOL    HW221366   6.461   2.638   6.287
 6823SOL     OW21367   5.728   2.485   5.919
 6823SOL    HW121368   5.642   2.508   5.966
 6823SOL    HW221369   5.713   2.406   5.860
 6824SOL     OW21370   1.080   0.169   6.030
 6824SOL    HW121371   1.154   0.221   6.072
 6824SOL    HW221372   1.044   0.102   6.095
 6825SOL     OW21373   5.605   4.615   0.718
 6825SOL    HW121374   5.587   4.565   0.803
 6825SOL    HW221375   5.703   4.612   0.699
 6826SOL     OW21376   6.631   4.666   4.143
 6826SOL    HW121377   6.561   4.678   4.213
 6826SOL    HW221378   6.591   4.622   4.062
 6827SOL     OW21379   4.250   5.778   4.700
 6827SOL    HW121380   4.162   5.732   4.710
 6827SOL    HW221381   4.301   5.772   4.786
 6828SOL     OW21382   2.776   2.334   2.770
 6828SOL    HW121383   2.828   2.286   2.699
 6828SOL    HW221384   2.810   2.309   2.860
 6829SOL     OW21385   3.846   6.727   3.953
 6829SOL    HW121386   3.778   6.747   4.023
 6829SOL    HW221387   3.885   6.812   3.918
 6830SOL     OW21388   4.838   6.397   3.052
 6830SOL    HW121389   4.793   6.433   2.970
 6830SOL    HW221390   4.844   6.470   3.121
 6831SOL     OW21391   1.523   1.590   6.019
 6831SOL    HW121392   1.585   1.568   6.094
 6831SOL    HW221393   1.436   1.623   6.056
 6832SOL     OW21394   3.099   2.437   0.223
 6832SOL    HW121395   3.005   2.403   0.230
 6832SOL    HW221396   3.133   2.459   0.314
 6833SOL     OW21397   3.394   5.088   6.128
 6833SOL    HW121398   3.380   5.009   6.187
 6833SOL    HW221399   3.491   5.097   6.106
 6834SOL     OW21400   5.703   6.266   0.918
 6834SOL    HW121401   5.698   6.366   0.908
 6834SOL    HW221402   5.618   6.226   0.886
 6835SOL     OW21403   2.599   2.042   5.234
 6835SOL    HW121404   2.668   1.998   5.292
 6835SOL    HW221405   2.509   2.031   5.276
 6836SOL     OW21406   2.321   4.170   6.059
 6836SOL    HW121407   2.279   4.079   6.056
 6836SOL    HW221408   2.329   4.206   5.966
 6837SOL     OW21409   0.640   0.713   1.505
 6837SOL    HW121410   0.572   0.641   1.518
 6837SOL    HW221411   0.724   0.689   1.554
 6838SOL     OW21412   2.986   3.752   4.992
 6838SOL    HW121413   2.978   3.849   4.968
 6838SOL    HW221414   2.963   3.696   4.912
 6839SOL     OW21415   5.891   3.181   4.728
 6839SOL    HW121416   5.827   3.180   4.651
 6839SOL    HW221417   5.904   3.088   4.763
 6840SOL     OW21418   2.538   6.777   4.882
 6840SOL    HW121419   2.560   6.684   4.851
 6840SOL    HW221420   2.607   6.807   4.948
 6841SOL     OW21421   4.391   6.169   1.116
 6841SOL    HW121422   4.352   6.237   1.179
 6841SOL    HW221423   4.365   6.078   1.146
 6842SOL     OW21424   0.381   3.567   5.797
 6842SOL    HW121425   0.445   3.491   5.787
 6842SOL    HW221426   0.301   3.537   5.848
 6843SOL     OW21427   3.904   2.170   2.279
 6843SOL    HW121428   3.826   2.233   2.286
 6843SOL    HW221429   3.969   2.189   2.352
 6844SOL     OW21430   4.133   4.889   3.915
 6844SOL    HW121431   4.213   4.894   3.855
 6844SOL    HW221432   4.146   4.817   3.983
 6845SOL     OW21433   4.608   4.842   1.940
 6845SOL    HW121434   4.529   4.785   1.918
 6845SOL    HW221435   4.672   4.840   1.863
 6846SOL     OW21436   2.997   3.224   2.634
 6846SOL    HW121437   2.972   3.233   2.731
 6846SOL    HW221438   3.027   3.130   2.617
 6847SOL     OW21439   5.996   3.537   1.584
 6847SOL    HW121440   5.909   3.488   1.578
 6847SOL    HW221441   6.008   3.571   1.678
 6848SOL     OW21442   0.677   6.633   3.439
 6848SOL    HW121443   0.608   6.577   3.484
 6848SOL    HW221444   0.663   6.631   3.340
 6849SOL     OW21445   3.557   6.632   3.926
 6849SOL    HW121446   3.638   6.678   3.890
 6849SOL    HW221447   3.495   6.608   3.851
 6850SOL     OW21448   5.399   2.907   2.326
 6850SOL    HW121449   5.320   2.966   2.310
 6850SOL    HW221450   5.369   2.817   2.357
 6851SOL     OW21451   1.136   5.510   5.437
 6851SOL    HW121452   1.235   5.514   5.419
 6851SOL    HW221453   1.103   5.602   5.461
 6852SOL     OW21454   6.944   4.368   2.377
 6852SOL    HW121455   6.975   4.274   2.393
 6852SOL    HW221456   6.875   4.392   2.445
 6853SOL     OW21457   1.158   3.708   5.576
 6853SOL    HW121458   1.186   3.652   5.654
 6853SOL    HW221459   1.084   3.661   5.527
 6854SOL     OW21460   6.327   1.959   6.316
 6854SOL    HW121461   6.419   2.000   6.314
 6854SOL    HW221462   6.289   1.967   6.408
 6855SOL     OW21463   2.746   6.244   1.366
 6855SOL    HW121464   2.830   6.262   1.316
 6855SOL    HW221465   2.672   6.299   1.327
 6856SOL     OW21466   6.419   3.614   4.913
 6856SOL    HW121467   6.339   3.567   4.951
 6856SOL    HW221468   6.473   3.653   4.987
 6857SOL     OW21469   4.018   1.687   5.443
 6857SOL    HW121470   4.050   1.762   5.500
 6857SOL    HW221471   3.925   1.707   5.412
 6858SOL     OW21472   4.046   3.343   4.689
 6858SOL    HW121473   4.042   3.394   4.775
 6858SOL    HW221474   3.989   3.261   4.695
 6859SOL     OW21475   3.951   0.441   0.592
 6859SOL    HW121476   3.906   0.460   0.679
 6859SOL    HW221477   3.889   0.393   0.531
 6860SOL     OW21478   5.188   3.233   6.508
 6860SOL    HW121479   5.258   3.218   6.578
 6860SOL    HW221480   5.162   3.146   6.467
 6861SOL     OW21481   6.515   5.171   0.148
 6861SOL    HW121482   6.598   5.115   0.150
 6861SOL    HW221483   6.473   5.173   0.239
 6862SOL     OW21484   3.324   5.800   4.002
 6862SOL    HW121485   3.340   5.760   4.092
 6862SOL    HW221486   3.226   5.802   3.984
 6863SOL     OW21487   5.700   2.722   3.924
 6863SOL    HW121488   5.771   2.785   3.956
 6863SOL    HW221489   5.736   2.668   3.848
 6864SOL     OW21490   3.798   5.981   5.146
 6864SOL    HW121491   3.829   5.889   5.167
 6864SOL    HW221492   3.704   5.993   5.177
 6865SOL     OW21493   6.539   4.925   3.588
 6865SOL    HW121494   6.597   4.877   3.654
 6865SOL    HW221495   6.468   4.863   3.555
 6866SOL     OW21496   0.065   2.906   2.366
 6866SOL    HW121497   0.126   2.973   2.408
 6866SOL    HW221498   0.008   2.951   2.298
 6867SOL     OW21499   2.378   4.334   2.661
 6867SOL    HW121500   2.431   4.417   2.681
 6867SOL    HW221501   2.364   4.326   2.563
 6868SOL     OW21502   2.065   5.448   4.989
 6868SOL    HW121503   2.046   5.543   5.016
 6868SOL    HW221504   2.017   5.428   4.904
 6869SOL     OW21505   5.857   3.578   5.456
 6869SOL    HW121506   5.940   3.546   5.412
 6869SOL    HW221507   5.820   3.656   5.406
 6870SOL     OW21508   5.562   3.613   2.490
 6870SOL    HW121509   5.474   3.626   2.534
 6870SOL    HW221510   5.569   3.521   2.453
 6871SOL     OW21511   5.223   5.551   1.155
 6871SOL    HW121512   5.215   5.451   1.150
 6871SOL    HW221513   5.219   5.580   1.250
 6872SOL     OW21514   2.241   3.149   6.467
 6872SOL    HW121515   2.209   3.185   6.379
 6872SOL    HW221516   2.197   3.198   6.542
 6873SOL     OW21517   5.687   3.626   5.910
 6873SOL    HW121518   5.762   3.582   5.860
 6873SOL    HW221519   5.607   3.566   5.908
 6874SOL     OW21520   0.741   2.662   5.004
 6874SOL    HW121521   0.687   2.742   5.031
 6874SOL    HW221522   0.705   2.624   4.919
 6875SOL     OW21523   2.467   1.903   3.896
 6875SOL    HW121524   2.463   1.983   3.956
 6875SOL    HW221525   2.377   1.860   3.891
 6876SOL     OW21526   4.081   6.198   0.059
 6876SOL    HW121527   4.117   6.113   0.020
 6876SOL    HW221528   4.155   6.249   0.102
 6877SOL     OW21529   2.365   4.215   6.812
 6877SOL    HW121530   2.431   4.201   6.738
 6877SOL    HW221531   2.296   4.281   6.784
 6878SOL     OW21532   1.365   1.453   5.507
 6878SOL    HW121533   1.270   1.463   5.534
 6878SOL    HW221534   1.409   1.543   5.503
 6879SOL     OW21535   1.467   2.640   6.592
 6879SOL    HW121536   1.479   2.629   6.493
 6879SOL    HW221537   1.372   2.621   6.616
 6880SOL     OW21538   2.235   4.247   5.023
 6880SOL    HW121539   2.284   4.172   5.069
 6880SOL    HW221540   2.166   4.208   4.961
 6881SOL     OW21541   0.067   3.886   1.837
 6881SOL    HW121542   0.043   3.921   1.746
 6881SOL    HW221543   0.137   3.945   1.877
 6882SOL     OW21544   2.034   0.239   5.484
 6882SOL    HW121545   2.094   0.309   5.445
 6882SOL    HW221546   2.082   0.193   5.559
 6883SOL     OW21547   3.981   0.046   1.367
 6883SOL    HW121548   4.043   0.122   1.389
 6883SOL    HW221549   4.007   0.006   1.279
 6884SOL     OW21550   1.820   5.052   3.942
 6884SOL    HW121551   1.863   4.962   3.934
 6884SOL    HW221552   1.781   5.062   4.034
 6885SOL     OW21553   3.066   5.604   4.516
 6885SOL    HW121554   2.989   5.663   4.538
 6885SOL    HW221555   3.146   5.660   4.494
 6886SOL     OW21556   5.559   1.280   2.782
 6886SOL    HW121557   5.609   1.273   2.696
 6886SOL    HW221558   5.582   1.202   2.840
 6887SOL     OW21559   6.041   0.723   4.521
 6887SOL    HW121560   6.034   0.778   4.438
 6887SOL    HW221561   5.950   0.708   4.559
 6888SOL     OW21562   5.374   6.723   5.071
 6888SOL    HW121563   5.473   6.709   5.082
 6888SOL    HW221564   5.326   6.637   5.086
 6889SOL     OW21565   1.634   4.162   5.943
 6889SOL    HW121566   1.641   4.261   5.954
 6889SOL    HW221567   1.612   4.140   5.848
 6890SOL     OW21568   2.170   0.061   1.524
 6890SOL    HW121569   2.144   6.985   1.547
 6890SOL    HW221570   2.147   0.121   1.600
 6891SOL     OW21571   1.258   4.558   3.777
 6891SOL    HW121572   1.280   4.464   3.802
 6891SOL    HW221573   1.188   4.593   3.839
 6892SOL     OW21574   3.317   0.687   3.889
 6892SOL    HW121575   3.289   0.702   3.984
 6892SOL    HW221576   3.370   0.765   3.857
 6893SOL     OW21577   4.484   5.616   3.076
 6893SOL    HW121578   4.554   5.604   3.146
 6893SOL    HW221579   4.411   5.549   3.091
 6894SOL     OW21580   6.674   4.884   6.622
 6894SOL    HW121581   6.754   4.825   6.611
 6894SOL    HW221582   6.591   4.828   6.612
 6895SOL     OW21583   3.323   5.124   6.759
 6895SOL    HW121584   3.294   5.034   6.726
 6895SOL    HW221585   3.358   5.178   6.682
 6896SOL     OW21586   3.827   0.287   3.380
 6896SOL    HW121587   3.790   0.347   3.451
 6896SOL    HW221588   3.799   0.193   3.399
 6897SOL     OW21589   3.246   3.513   0.492
 6897SOL    HW121590   3.221   3.610   0.488
 6897SOL    HW221591   3.183   3.460   0.436
 6898SOL     OW21592   4.302   2.426   1.962
 6898SOL    HW121593   4.268   2.437   1.869
 6898SOL    HW221594   4.317   2.329   1.981
 6899SOL     OW21595   4.865   5.994   6.831
 6899SOL    HW121596   4.889   5.898   6.819
 6899SOL    HW221597   4.862   6.039   6.742
 6900SOL     OW21598   4.982   0.268   6.374
 6900SOL    HW121599   5.058   0.302   6.319
 6900SOL    HW221600   4.897   0.274   6.321
 6901SOL     OW21601   1.548   0.122   6.565
 6901SOL    HW121602   1.589   0.186   6.630
 6901SOL    HW221603   1.599   0.036   6.566
 6902SOL     OW21604   0.027   6.059   0.961
 6902SOL    HW121605   0.014   6.090   0.867
 6902SOL    HW221606   0.081   6.126   1.011
 6903SOL     OW21607   4.456   4.557   0.894
 6903SOL    HW121608   4.541   4.596   0.930
 6903SOL    HW221609   4.428   4.609   0.813
 6904SOL     OW21610   6.734   1.464   3.180
 6904SOL    HW121611   6.829   1.438   3.201
 6904SOL    HW221612   6.692   1.503   3.262
 6905SOL     OW21613   6.035   6.207   1.132
 6905SOL    HW121614   6.004   6.141   1.064
 6905SOL    HW221615   6.120   6.250   1.102
 6906SOL     OW21616   4.204   0.738   3.327
 6906SOL    HW121617   4.280   0.681   3.298
 6906SOL    HW221618   4.149   0.690   3.395
 6907SOL     OW21619   3.683   1.348   1.734
 6907SOL    HW121620   3.780   1.325   1.730
 6907SOL    HW221621   3.654   1.388   1.647
 6908SOL     OW21622   1.810   6.878   5.767
 6908SOL    HW121623   1.880   6.950   5.762
 6908SOL    HW221624   1.805   6.830   5.680
 6909SOL     OW21625   4.393   3.881   6.748
 6909SOL    HW121626   4.327   3.955   6.738
 6909SOL    HW221627   4.410   3.865   6.846
 6910SOL     OW21628   6.426   1.317   1.660
 6910SOL    HW121629   6.496   1.318   1.731
 6910SOL    HW221630   6.341   1.280   1.696
 6911SOL     OW21631   3.793   1.333   4.617
 6911SOL    HW121632   3.827   1.374   4.702
 6911SOL    HW221633   3.731   1.397   4.572
 6912SOL     OW21634   5.367   4.883   0.414
 6912SOL    HW121635   5.297   4.845   0.476
 6912SOL    HW221636   5.349   4.980   0.399
 6913SOL     OW21637   5.474   5.104   4.535
 6913SOL    HW121638   5.521   5.104   4.623
 6913SOL    HW221639   5.389   5.157   4.543
 6914SOL     OW21640   6.060   5.291   1.014
 6914SOL    HW121641   6.126   5.363   1.034
 6914SOL    HW221642   5.989   5.291   1.085
 6915SOL     OW21643   0.459   5.274   3.001
 6915SOL    HW121644   0.437   5.362   2.961
 6915SOL    HW221645   0.422   5.269   3.094
 6916SOL     OW21646   6.114   2.440   0.049
 6916SOL    HW121647   6.029   2.476   0.011
 6916SOL    HW221648   6.192   2.477   7.016
 6917SOL     OW21649   4.921   5.821   5.888
 6917SOL    HW121650   5.001   5.772   5.925
 6917SOL    HW221651   4.838   5.774   5.917
 6918SOL     OW21652   0.054   3.356   3.592
 6918SOL    HW121653   7.002   3.402   3.538
 6918SOL    HW221654   0.030   3.359   3.689
 6919SOL     OW21655   2.205   5.983   3.180
 6919SOL    HW121656   2.170   6.055   3.121
 6919SOL    HW221657   2.305   5.981   3.175
 6920SOL     OW21658   4.719   6.137   4.246
 6920SOL    HW121659   4.669   6.223   4.252
 6920SOL    HW221660   4.784   6.131   4.321
 6921SOL     OW21661   0.407   1.193   3.759
 6921SOL    HW121662   0.499   1.231   3.760
 6921SOL    HW221663   0.348   1.246   3.821
 6922SOL     OW21664   2.506   6.540   0.412
 6922SOL    HW121665   2.534   6.588   0.329
 6922SOL    HW221666   2.406   6.532   0.414
 6923SOL     OW21667   4.830   0.496   4.041
 6923SOL    HW121668   4.800   0.469   4.133
 6923SOL    HW221669   4.801   0.590   4.022
 6924SOL     OW21670   0.268   5.291   1.677
 6924SOL    HW121671   0.315   5.230   1.741
 6924SOL    HW221672   0.332   5.361   1.645
 6925SOL     OW21673   4.434   5.819   3.383
 6925SOL    HW121674   4.347   5.864   3.359
 6925SOL    HW221675   4.510   5.876   3.354
 6926SOL     OW21676   3.315   3.148   4.512
 6926SOL    HW121677   3.389   3.082   4.532
 6926SOL    HW221678   3.247   3.143   4.585
 6927SOL     OW21679   4.473   3.922   5.838
 6927SOL    HW121680   4.521   3.947   5.923
 6927SOL    HW221681   4.391   3.978   5.828
 6928SOL     OW21682   5.295   1.162   6.299
 6928SOL    HW121683   5.206   1.180   6.257
 6928SOL    HW221684   5.282   1.117   6.387
 6929SOL     OW21685   4.525   5.615   0.472
 6929SOL    HW121686   4.507   5.653   0.381
 6929SOL    HW221687   4.561   5.522   0.462
 6930SOL     OW21688   0.387   0.353   3.883
 6930SOL    HW121689   0.312   0.385   3.824
 6930SOL    HW221690   0.474   0.369   3.838
 6931SOL     OW21691   2.160   1.317   1.858
 6931SOL    HW121692   2.230   1.359   1.916
 6931SOL    HW221693   2.203   1.253   1.795
 6932SOL     OW21694   3.035   1.626   0.799
 6932SOL    HW121695   3.119   1.576   0.820
 6932SOL    HW221696   2.970   1.564   0.755
 6933SOL     OW21697   4.627   5.721   5.754
 6933SOL    HW121698   4.640   5.812   5.794
 6933SOL    HW221699   4.562   5.727   5.678
 6934SOL     OW21700   5.090   3.071   7.014
 6934SOL    HW121701   5.020   3.137   0.025
 6934SOL    HW221702   5.087   3.061   6.915
 6935SOL     OW21703   4.355   5.627   3.560
 6935SOL    HW121704   4.380   5.546   3.507
 6935SOL    HW221705   4.365   5.709   3.502
 6936SOL     OW21706   0.875   3.758   1.260
 6936SOL    HW121707   0.902   3.766   1.164
 6936SOL    HW221708   0.902   3.841   1.309
 6937SOL     OW21709   4.399   0.083   5.724
 6937SOL    HW121710   4.300   0.073   5.740
 6937SOL    HW221711   4.421   0.180   5.720
 6938SOL     OW21712   5.461   2.733   5.205
 6938SOL    HW121713   5.493   2.653   5.257
 6938SOL    HW221714   5.472   2.815   5.260
 6939SOL     OW21715   6.898   4.275   2.754
 6939SOL    HW121716   6.988   4.314   2.770
 6939SOL    HW221717   6.906   4.176   2.739
 6940SOL     OW21718   5.263   0.678   5.661
 6940SOL    HW121719   5.164   0.685   5.650
 6940SOL    HW221720   5.302   0.625   5.586
 6941SOL     OW21721   4.130   3.707   3.777
 6941SOL    HW121722   4.152   3.614   3.746
 6941SOL    HW221723   4.110   3.765   3.698
 6942SOL     OW21724   6.684   2.351   0.169
 6942SOL    HW121725   6.624   2.334   0.091
 6942SOL    HW221726   6.629   2.385   0.246
 6943SOL     OW21727   5.358   5.635   6.513
 6943SOL    HW121728   5.399   5.678   6.594
 6943SOL    HW221729   5.360   5.700   6.437
 6944SOL     OW21730   1.075   5.403   6.197
 6944SOL    HW121731   1.147   5.468   6.177
 6944SOL    HW221732   1.101   5.313   6.163
 6945SOL     OW21733   6.796   2.964   5.935
 6945SOL    HW121734   6.872   2.985   5.873
 6945SOL    HW221735   6.781   2.865   5.936
 6946SOL     OW21736   5.453   3.679   2.231
 6946SOL    HW121737   5.506   3.647   2.309
 6946SOL    HW221738   5.399   3.759   2.257
 6947SOL     OW21739   3.389   6.843   3.340
 6947SOL    HW121740   3.396   6.746   3.315
 6947SOL    HW221741   3.400   6.853   3.439
 6948SOL     OW21742   4.918   0.872   6.094
 6948SOL    HW121743   4.995   0.909   6.041
 6948SOL    HW221744   4.880   0.944   6.152
 6949SOL     OW21745   4.835   6.841   2.700
 6949SOL    HW121746   4.844   6.920   2.640
 6949SOL    HW221747   4.759   6.856   2.764
 6950SOL     OW21748   2.010   1.278   3.008
 6950SOL    HW121749   2.020   1.293   3.107
 6950SOL    HW221750   2.099   1.288   2.964
 6951SOL     OW21751   6.553   5.636   5.965
 6951SOL    HW121752   6.600   5.571   5.906
 6951SOL    HW221753   6.577   5.619   6.061
 6952SOL     OW21754   0.600   5.159   5.235
 6952SOL    HW121755   0.575   5.202   5.149
 6952SOL    HW221756   0.571   5.063   5.234
 6953SOL     OW21757   4.827   1.070   5.738
 6953SOL    HW121758   4.909   1.029   5.779
 6953SOL    HW221759   4.852   1.117   5.653
 6954SOL     OW21760   6.653   3.268   3.531
 6954SOL    HW121761   6.654   3.290   3.629
 6954SOL    HW221762   6.603   3.340   3.482
 6955SOL     OW21763   7.010   5.791   1.936
 6955SOL    HW121764   7.011   5.880   1.981
 6955SOL    HW221765   0.034   5.723   1.995
 6956SOL     OW21766   4.157   5.096   1.222
 6956SOL    HW121767   4.250   5.107   1.258
 6956SOL    HW221768   4.157   5.120   1.124
 6957SOL     OW21769   0.173   5.079   1.440
 6957SOL    HW121770   0.196   5.153   1.503
 6957SOL    HW221771   0.224   4.997   1.465
 6958SOL     OW21772   2.841   2.927   6.039
 6958SOL    HW121773   2.918   2.986   6.062
 6958SOL    HW221774   2.876   2.839   6.004
 6959SOL     OW21775   3.595   1.814   4.201
 6959SOL    HW121776   3.574   1.909   4.225
 6959SOL    HW221777   3.676   1.784   4.250
 6960SOL     OW21778   0.885   4.819   6.250
 6960SOL    HW121779   0.826   4.740   6.235
 6960SOL    HW221780   0.853   4.869   6.330
 6961SOL     OW21781   0.993   0.950   3.558
 6961SOL    HW121782   0.911   0.993   3.522
 6961SOL    HW221783   0.969   0.888   3.633
 6962SOL     OW21784   4.966   4.377   1.511
 6962SOL    HW121785   5.026   4.425   1.575
 6962SOL    HW221786   4.872   4.408   1.524
 6963SOL     OW21787   6.704   4.895   1.736
 6963SOL    HW121788   6.681   4.898   1.833
 6963SOL    HW221789   6.757   4.813   1.716
 6964SOL     OW21790   4.147   5.431   4.981
 6964SOL    HW121791   4.210   5.488   5.034
 6964SOL    HW221792   4.197   5.353   4.943
 6965SOL     OW21793   6.878   3.086   6.190
 6965SOL    HW121794   6.969   3.113   6.161
 6965SOL    HW221795   6.830   3.043   6.113
 6966SOL     OW21796   4.700   2.241   2.716
 6966SOL    HW121797   4.733   2.175   2.783
 6966SOL    HW221798   4.601   2.254   2.728
 6967SOL     OW21799   1.180   1.454   5.951
 6967SOL    HW121800   1.180   1.412   6.042
 6967SOL    HW221801   1.210   1.386   5.884
 6968SOL     OW21802   4.966   5.700   1.397
 6968SOL    HW121803   5.002   5.789   1.422
 6968SOL    HW221804   4.916   5.661   1.474
 6969SOL     OW21805   3.426   1.767   0.270
 6969SOL    HW121806   3.471   1.813   0.194
 6969SOL    HW221807   3.419   1.830   0.347
 6970SOL     OW21808   5.072   4.120   0.353
 6970SOL    HW121809   5.137   4.185   0.392
 6970SOL    HW221810   5.090   4.029   0.389
 6971SOL     OW21811   5.534   1.437   1.555
 6971SOL    HW121812   5.464   1.473   1.616
 6971SOL    HW221813   5.538   1.494   1.472
 6972SOL     OW21814   5.149   4.968   3.622
 6972SOL    HW121815   5.049   4.970   3.626
 6972SOL    HW221816   5.181   4.874   3.632
 6973SOL     OW21817   2.050   4.241   3.635
 6973SOL    HW121818   2.073   4.261   3.540
 6973SOL    HW221819   1.992   4.313   3.672
 6974SOL     OW21820   3.280   3.656   4.300
 6974SOL    HW121821   3.379   3.661   4.285
 6974SOL    HW221822   3.246   3.745   4.331
 6975SOL     OW21823   4.300   0.523   5.742
 6975SOL    HW121824   4.294   0.549   5.839
 6975SOL    HW221825   4.394   0.495   5.721
 6976SOL     OW21826   2.167   4.790   6.644
 6976SOL    HW121827   2.096   4.720   6.636
 6976SOL    HW221828   2.130   4.870   6.690
 6977SOL     OW21829   3.422   1.771   2.619
 6977SOL    HW121830   3.435   1.857   2.669
 6977SOL    HW221831   3.510   1.740   2.583
 6978SOL     OW21832   0.309   0.906   1.890
 6978SOL    HW121833   0.244   0.970   1.852
 6978SOL    HW221834   0.358   0.860   1.816
 6979SOL     OW21835   0.693   4.839   3.202
 6979SOL    HW121836   0.687   4.801   3.295
 6979SOL    HW221837   0.769   4.796   3.153
 6980SOL     OW21838   2.051   1.278   4.363
 6980SOL    HW121839   2.007   1.264   4.451
 6980SOL    HW221840   2.052   1.192   4.312
 6981SOL     OW21841   1.861   5.513   0.501
 6981SOL    HW121842   1.911   5.598   0.517
 6981SOL    HW221843   1.873   5.484   0.406
 6982SOL     OW21844   0.631   0.204   4.403
 6982SOL    HW121845   0.725   0.194   4.437
 6982SOL    HW221846   0.634   0.248   4.313
 6983SOL     OW21847   6.765   0.545   4.093
 6983SOL    HW121848   6.799   0.613   4.158
 6983SOL    HW221849   6.667   0.557   4.080
 6984SOL     OW21850   2.102   1.851   6.225
 6984SOL    HW121851   2.190   1.825   6.264
 6984SOL    HW221852   2.055   1.770   6.192
 6985SOL     OW21853   4.997   5.704   2.280
 6985SOL    HW121854   5.060   5.768   2.236
 6985SOL    HW221855   5.013   5.612   2.244
 6986SOL     OW21856   2.087   6.256   6.104
 6986SOL    HW121857   2.162   6.303   6.057
 6986SOL    HW221858   2.034   6.321   6.158
 6987SOL     OW21859   0.343   3.477   6.632
 6987SOL    HW121860   0.302   3.538   6.565
 6987SOL    HW221861   0.423   3.432   6.592
 6988SOL     OW21862   5.288   1.187   3.616
 6988SOL    HW121863   5.209   1.247   3.611
 6988SOL    HW221864   5.362   1.223   3.559
 6989SOL     OW21865   1.301   1.828   3.439
 6989SOL    HW121866   1.396   1.798   3.441
 6989SOL    HW221867   1.241   1.751   3.462
 6990SOL     OW21868   3.406   3.066   0.280
 6990SOL    HW121869   3.344   3.035   0.352
 6990SOL    HW221870   3.498   3.076   0.318
 6991SOL     OW21871   2.742   4.655   5.791
 6991SOL    HW121872   2.783   4.727   5.736
 6991SOL    HW221873   2.814   4.598   5.830
 6992SOL     OW21874   5.423   6.610   4.143
 6992SOL    HW121875   5.389   6.519   4.118
 6992SOL    HW221876   5.522   6.606   4.154
 6993SOL     OW21877   0.276   6.914   3.128
 6993SOL    HW121878   0.269   6.929   3.029
 6993SOL    HW221879   0.221   6.834   3.153
 6994SOL     OW21880   1.847   3.200   6.325
 6994SOL    HW121881   1.824   3.268   6.256
 6994SOL    HW221882   1.942   3.170   6.311
 6995SOL     OW21883   5.334   5.530   3.198
 6995SOL    HW121884   5.406   5.592   3.231
 6995SOL    HW221885   5.258   5.584   3.161
 6996SOL     OW21886   2.686   0.432   5.786
 6996SOL    HW121887   2.661   0.423   5.882
 6996SOL    HW221888   2.786   0.428   5.777
 6997SOL     OW21889   4.643   6.573   4.633
 6997SOL    HW121890   4.625   6.475   4.646
 6997SOL    HW221891   4.569   6.613   4.578
 6998SOL     OW21892   1.503   3.468   2.671
 6998SOL    HW121893   1.408   3.452   2.643
 6998SOL    HW221894   1.509   3.553   2.724
 6999SOL     OW21895   2.896   1.587   5.421
 6999SOL    HW121896   2.981   1.533   5.422
 6999SOL    HW221897   2.871   1.612   5.514
 7000SOL     OW21898   1.144   6.063   2.390
 7000SOL    HW121899   1.075   5.995   2.416
 7000SOL    HW221900   1.103   6.130   2.328
 7001SOL     OW21901   2.366   2.805   5.801
 7001SOL    HW121902   2.322   2.825   5.713
 7001SOL    HW221903   2.460   2.840   5.800
 7002SOL     OW21904   0.987   5.273   3.184
 7002SOL    HW121905   1.036   5.200   3.136
 7002SOL    HW221906   1.044   5.308   3.258
 7003SOL     OW21907   2.724   6.204   0.867
 7003SOL    HW121908   2.667   6.170   0.792
 7003SOL    HW221909   2.703   6.301   0.884
 7004SOL     OW21910   1.315   4.131   1.081
 7004SOL    HW121911   1.288   4.059   1.018
 7004SOL    HW221912   1.362   4.092   1.160
 7005SOL     OW21913   5.369   5.847   6.692
 7005SOL    HW121914   5.406   5.935   6.721
 7005SOL    HW221915   5.285   5.862   6.638
 7006SOL     OW21916   4.523   4.522   4.748
 7006SOL    HW121917   4.522   4.595   4.680
 7006SOL    HW221918   4.447   4.535   4.812
 7007SOL     OW21919   4.349   6.233   3.341
 7007SOL    HW121920   4.341   6.332   3.330
 7007SOL    HW221921   4.258   6.192   3.349
 7008SOL     OW21922   1.712   5.172   4.183
 7008SOL    HW121923   1.809   5.192   4.171
 7008SOL    HW221924   1.694   5.146   4.277
 7009SOL     OW21925   0.071   4.996   2.380
 7009SOL    HW121926   0.063   5.016   2.478
 7009SOL    HW221927   0.118   4.909   2.368
 7010SOL     OW21928   3.664   5.165   6.468
 7010SOL    HW121929   3.710   5.218   6.396
 7010SOL    HW221930   3.688   5.069   6.460
 7011SOL     OW21931   2.885   0.347   6.027
 7011SOL    HW121932   2.902   0.349   6.125
 7011SOL    HW221933   2.922   0.430   5.985
 7012SOL     OW21934   1.623   0.455   1.878
 7012SOL    HW121935   1.677   0.538   1.872
 7012SOL    HW221936   1.610   0.430   1.974
 7013SOL     OW21937   1.138   0.425   1.603
 7013SOL    HW121938   1.079   0.397   1.679
 7013SOL    HW221939   1.233   0.427   1.634
 7014SOL     OW21940   2.958   4.063   0.800
 7014SOL    HW121941   2.910   4.135   0.850
 7014SOL    HW221942   3.022   4.016   0.862
 7015SOL     OW21943   5.076   2.608   2.338
 7015SOL    HW121944   5.017   2.646   2.267
 7015SOL    HW221945   5.169   2.597   2.302
 7016SOL     OW21946   4.531   4.688   1.572
 7016SOL    HW121947   4.515   4.655   1.664
 7016SOL    HW221948   4.447   4.682   1.518
 7017SOL     OW21949   2.805   1.749   3.647
 7017SOL    HW121950   2.880   1.705   3.696
 7017SOL    HW221951   2.795   1.843   3.680
 7018SOL     OW21952   0.614   4.264   4.870
 7018SOL    HW121953   0.531   4.286   4.922
 7018SOL    HW221954   0.594   4.268   4.772
 7019SOL     OW21955   2.445   5.514   6.936
 7019SOL    HW121956   2.499   5.452   6.879
 7019SOL    HW221957   2.376   5.461   6.986
 7020SOL     OW21958   6.357   6.901   6.505
 7020SOL    HW121959   6.413   6.838   6.560
 7020SOL    HW221960   6.272   6.922   6.554
 7021SOL     OW21961   2.281   0.622   5.921
 7021SOL    HW121962   2.327   0.669   5.846
 7021SOL    HW221963   2.330   0.641   6.007
 7022SOL     OW21964   5.038   3.889   6.819
 7022SOL    HW121965   5.105   3.949   6.863
 7022SOL    HW221966   5.077   3.797   6.810
 7023SOL     OW21967   5.987   3.162   1.664
 7023SOL    HW121968   6.040   3.230   1.613
 7023SOL    HW221969   5.934   3.208   1.736
 7024SOL     OW21970   1.418   5.814   0.209
 7024SOL    HW121971   1.431   5.805   0.110
 7024SOL    HW221972   1.501   5.852   0.249
 7025SOL     OW21973   3.283   2.240   0.138
 7025SOL    HW121974   3.207   2.297   0.168
 7025SOL    HW221975   3.338   2.290   0.072
 7026SOL     OW21976   4.019   1.765   1.161
 7026SOL    HW121977   3.989   1.860   1.155
 7026SOL    HW221978   4.118   1.760   1.151
 7027SOL     OW21979   3.755   6.021   3.941
 7027SOL    HW121980   3.843   5.986   3.911
 7027SOL    HW221981   3.768   6.079   4.021
 7028SOL     OW21982   4.520   6.285   3.586
 7028SOL    HW121983   4.426   6.254   3.606
 7028SOL    HW221984   4.536   6.279   3.488
 7029SOL     OW21985   3.564   6.616   6.935
 7029SOL    HW121986   3.573   6.626   0.017
 7029SOL    HW221987   3.577   6.520   6.910
 7030SOL     OW21988   0.096   3.503   4.716
 7030SOL    HW121989   0.147   3.531   4.634
 7030SOL    HW221990   0.143   3.427   4.760
 7031SOL     OW21991   1.787   5.535   4.240
 7031SOL    HW121992   1.746   5.482   4.165
 7031SOL    HW221993   1.788   5.481   4.323
 7032SOL     OW21994   6.270   0.824   2.928
 7032SOL    HW121995   6.358   0.784   2.901
 7032SOL    HW221996   6.196   0.770   2.889
 7033SOL     OW21997   6.861   1.488   3.594
 7033SOL    HW121998   6.832   1.400   3.632
 7033SOL    HW221999   6.958   1.484   3.570
 7034SOL     OW22000   6.632   0.476   2.816
 7034SOL    HW122001   6.701   0.440   2.752
 7034SOL    HW222002   6.619   0.412   2.891
 7035SOL     OW22003   6.376   5.477   2.422
 7035SOL    HW122004   6.314   5.542   2.465
 7035SOL    HW222005   6.380   5.494   2.324
 7036SOL     OW22006   6.806   5.153   2.348
 7036SOL    HW122007   6.888   5.203   2.376
 7036SOL    HW222008   6.729   5.216   2.342
 7037SOL     OW22009   1.432   6.422   6.217
 7037SOL    HW122010   1.438   6.370   6.132
 7037SOL    HW222011   1.372   6.373   6.281
 7038SOL     OW22012   0.413   4.815   4.020
 7038SOL    HW122013   0.366   4.897   3.985
 7038SOL    HW222014   0.477   4.842   4.092
 7039SOL     OW22015   4.013   0.861   5.797
 7039SOL    HW122016   4.024   0.960   5.805
 7039SOL    HW222017   3.946   0.840   5.725
 7040SOL     OW22018   5.216   2.241   6.281
 7040SOL    HW122019   5.119   2.241   6.301
 7040SOL    HW222020   5.245   2.333   6.253
 7041SOL     OW22021   1.870   1.855   3.062
 7041SOL    HW122022   1.867   1.842   3.161
 7041SOL    HW222023   1.943   1.920   3.040
 7042SOL     OW22024   3.721   5.829   6.604
 7042SOL    HW122025   3.683   5.741   6.575
 7042SOL    HW222026   3.647   5.896   6.613
 7043SOL     OW22027   2.454   2.165   3.315
 7043SOL    HW122028   2.441   2.184   3.218
 7043SOL    HW222029   2.422   2.073   3.335
 7044SOL     OW22030   4.623   4.794   2.856
 7044SOL    HW122031   4.660   4.727   2.920
 7044SOL    HW222032   4.680   4.796   2.773
 7045SOL     OW22033   5.671   6.175   1.439
 7045SOL    HW122034   5.630   6.258   1.478
 7045SOL    HW222035   5.694   6.191   1.343
 7046SOL     OW22036   4.282   0.652   4.546
 7046SOL    HW122037   4.296   0.695   4.635
 7046SOL    HW222038   4.198   0.598   4.548
 7047SOL     OW22039   1.001   0.857   4.339
 7047SOL    HW122040   1.023   0.845   4.242
 7047SOL    HW222041   0.911   0.901   4.347
 7048SOL     OW22042   6.804   6.124   0.797
 7048SOL    HW122043   6.795   6.065   0.717
 7048SOL    HW222044   6.835   6.215   0.768
 7049SOL     OW22045   2.545   1.104   0.371
 7049SOL    HW122046   2.507   1.189   0.334
 7049SOL    HW222047   2.624   1.125   0.428
 7050SOL     OW22048   2.985   3.855   4.660
 7050SOL    HW122049   3.009   3.930   4.721
 7050SOL    HW222050   2.903   3.809   4.694
 7051SOL     OW22051   0.291   0.309   1.693
 7051SOL    HW122052   0.219   0.359   1.741
 7051SOL    HW222053   0.378   0.322   1.742
 7052SOL     OW22054   0.022   2.524   4.053
 7052SOL    HW122055   0.101   2.518   3.992
 7052SOL    HW222056   0.041   2.474   4.137
 7053SOL     OW22057   0.676   4.095   6.953
 7053SOL    HW122058   0.758   4.087   7.011
 7053SOL    HW222059   0.602   4.042   6.994
 7054SOL     OW22060   6.386   6.595   1.870
 7054SOL    HW122061   6.337   6.508   1.862
 7054SOL    HW222062   6.431   6.617   1.784
 7055SOL     OW22063   4.408   0.693   4.307
 7055SOL    HW122064   4.505   0.716   4.300
 7055SOL    HW222065   4.387   0.666   4.400
 7056SOL     OW22066   5.342   5.021   3.441
 7056SOL    HW122067   5.423   5.071   3.475
 7056SOL    HW222068   5.272   5.020   3.512
 7057SOL     OW22069   6.893   5.231   3.274
 7057SOL    HW122070   6.837   5.159   3.315
 7057SOL    HW222071   6.984   5.196   3.254
 7058SOL     OW22072   0.669   5.016   5.624
 7058SOL    HW122073   0.733   5.086   5.656
 7058SOL    HW222074   0.616   4.982   5.701
 7059SOL     OW22075   1.070   0.224   2.539
 7059SOL    HW122076   1.004   0.289   2.502
 7059SOL    HW222077   1.028   0.134   2.549
 7060SOL     OW22078   3.551   6.584   1.772
 7060SOL    HW122079   3.541   6.683   1.766
 7060SOL    HW222080   3.461   6.541   1.764
 7061SOL     OW22081   0.555   1.189   3.124
 7061SOL    HW122082   0.654   1.195   3.139
 7061SOL    HW222083   0.510   1.165   3.211
 7062SOL     OW22084   5.568   1.848   5.208
 7062SOL    HW122085   5.491   1.783   5.205
 7062SOL    HW222086   5.651   1.800   5.235
 7063SOL     OW22087   2.282   6.694   1.256
 7063SOL    HW122088   2.197   6.671   1.304
 7063SOL    HW222089   2.342   6.744   1.317
 7064SOL     OW22090   3.869   2.306   1.582
 7064SOL    HW122091   3.801   2.379   1.576
 7064SOL    HW222092   3.825   2.221   1.610
 7065SOL     OW22093   4.299   3.779   1.579
 7065SOL    HW122094   4.339   3.762   1.489
 7065SOL    HW222095   4.336   3.864   1.617
 7066SOL     OW22096   4.176   6.598   0.025
 7066SOL    HW122097   4.226   6.597   0.112
 7066SOL    HW222098   4.238   6.627   6.970
 7067SOL     OW22099   0.700   3.626   5.862
 7067SOL    HW122100   0.684   3.628   5.763
 7067SOL    HW222101   0.792   3.590   5.880
 7068SOL     OW22102   1.514   1.627   3.126
 7068SOL    HW122103   1.484   1.706   3.179
 7068SOL    HW222104   1.543   1.657   3.035
 7069SOL     OW22105   0.388   4.527   5.742
 7069SOL    HW122106   0.301   4.571   5.716
 7069SOL    HW222107   0.415   4.559   5.832
 7070SOL     OW22108   6.667   4.817   4.762
 7070SOL    HW122109   6.639   4.786   4.853
 7070SOL    HW222110   6.596   4.875   4.722
 7071SOL     OW22111   1.439   5.838   5.423
 7071SOL    HW122112   1.536   5.815   5.438
 7071SOL    HW222113   1.382   5.759   5.446
 7072SOL     OW22114   6.972   6.489   6.316
 7072SOL    HW122115   6.984   6.572   6.262
 7072SOL    HW222116   0.011   6.416   6.278
 7073SOL     OW22117   0.629   0.931   5.699
 7073SOL    HW122118   0.652   0.897   5.608
 7073SOL    HW222119   0.605   0.855   5.759
 7074SOL     OW22120   3.466   1.809   1.735
 7074SOL    HW122121   3.427   1.834   1.824
 7074SOL    HW222122   3.557   1.770   1.747
 7075SOL     OW22123   1.876   5.721   4.458
 7075SOL    HW122124   1.944   5.657   4.493
 7075SOL    HW222125   1.831   5.682   4.378
 7076SOL     OW22126   3.587   1.629   6.155
 7076SOL    HW122127   3.605   1.714   6.205
 7076SOL    HW222128   3.520   1.647   6.082
 7077SOL     OW22129   2.280   5.719   5.566
 7077SOL    HW122130   2.298   5.622   5.551
 7077SOL    HW222131   2.304   5.742   5.661
 7078SOL     OW22132   6.431   0.039   3.453
 7078SOL    HW122133   6.419   0.014   3.549
 7078SOL    HW222134   6.511   0.099   3.444
 7079SOL     OW22135   6.329   6.339   6.167
 7079SOL    HW122136   6.353   6.385   6.252
 7079SOL    HW222137   6.399   6.271   6.144
 7080SOL     OW22138   4.147   2.196   3.847
 7080SOL    HW122139   4.131   2.294   3.836
 7080SOL    HW222140   4.245   2.179   3.851
 7081SOL     OW22141   2.874   0.927   5.552
 7081SOL    HW122142   2.894   0.996   5.621
 7081SOL    HW222143   2.830   0.849   5.596
 7082SOL     OW22144   5.776   1.586   6.906
 7082SOL    HW122145   5.714   1.544   6.840
 7082SOL    HW222146   5.782   1.529   6.988
 7083SOL     OW22147   3.640   0.708   5.717
 7083SOL    HW122148   3.580   0.640   5.676
 7083SOL    HW222149   3.632   0.794   5.666
 7084SOL     OW22150   6.847   6.242   5.725
 7084SOL    HW122151   6.860   6.157   5.673
 7084SOL    HW222152   6.775   6.296   5.682
 7085SOL     OW22153   2.279   2.447   2.866
 7085SOL    HW122154   2.372   2.482   2.862
 7085SOL    HW222155   2.224   2.490   2.794
 7086SOL     OW22156   5.350   1.035   6.522
 7086SOL    HW122157   5.380   0.941   6.532
 7086SOL    HW222158   5.402   1.094   6.584
 7087SOL     OW22159   0.615   3.942   4.497
 7087SOL    HW122160   0.683   3.871   4.476
 7087SOL    HW222161   0.527   3.918   4.455
 7088SOL     OW22162   5.050   2.795   4.135
 7088SOL    HW122163   4.993   2.874   4.113
 7088SOL    HW222164   4.993   2.724   4.178
 7089SOL     OW22165   3.415   2.156   6.096
 7089SOL    HW122166   3.464   2.173   6.010
 7089SOL    HW222167   3.437   2.229   6.161
 7090SOL     OW22168   1.616   1.914   5.394
 7090SOL    HW122169   1.647   1.966   5.315
 7090SOL    HW222170   1.631   1.968   5.477
 7091SOL     OW22171   0.101   1.021   0.685
 7091SOL    HW122172   0.005   0.998   0.669
 7091SOL    HW222173   0.125   0.996   0.779
 7092SOL     OW22174   3.626   4.290   0.692
 7092SOL    HW122175   3.651   4.200   0.656
 7092SOL    HW222176   3.594   4.281   0.786
 7093SOL     OW22177   3.543   4.194   4.517
 7093SOL    HW122178   3.464   4.203   4.577
 7093SOL    HW222179   3.627   4.199   4.571
 7094SOL     OW22180   0.967   6.660   5.793
 7094SOL    HW122181   1.065   6.678   5.782
 7094SOL    HW222182   0.924   6.658   5.703
 7095SOL     OW22183   1.182   3.189   6.471
 7095SOL    HW122184   1.251   3.144   6.416
 7095SOL    HW222185   1.221   3.213   6.560
 7096SOL     OW22186   4.404   2.116   3.840
 7096SOL    HW122187   4.433   2.045   3.776
 7096SOL    HW222188   4.484   2.166   3.873
 7097SOL     OW22189   0.527   1.175   1.893
 7097SOL    HW122190   0.442   1.198   1.940
 7097SOL    HW222191   0.507   1.107   1.821
 7098SOL     OW22192   1.781   5.678   6.032
 7098SOL    HW122193   1.871   5.649   6.001
 7098SOL    HW222194   1.788   5.766   6.079
 7099SOL     OW22195   1.150   1.034   4.909
 7099SOL    HW122196   1.235   1.053   4.957
 7099SOL    HW222197   1.131   1.108   4.844
 7100SOL     OW22198   4.961   3.959   0.924
 7100SOL    HW122199   4.922   3.872   0.952
 7100SOL    HW222200   4.973   4.018   1.004
 7101SOL     OW22201   3.023   0.559   4.870
 7101SOL    HW122202   3.002   0.610   4.954
 7101SOL    HW222203   3.025   0.622   4.793
 7102SOL     OW22204   4.139   1.406   0.998
 7102SOL    HW122205   4.193   1.487   1.022
 7102SOL    HW222206   4.149   1.386   0.901
 7103SOL     OW22207   3.303   6.312   0.000
 7103SOL    HW122208   3.401   6.329   7.015
 7103SOL    HW222209   3.269   6.332   0.092
 7104SOL     OW22210   1.626   2.867   3.352
 7104SOL    HW122211   1.623   2.929   3.430
 7104SOL    HW222212   1.604   2.774   3.381
 7105SOL     OW22213   3.181   3.464   4.489
 7105SOL    HW122214   3.218   3.523   4.417
 7105SOL    HW222215   3.105   3.411   4.452
 7106SOL     OW22216   3.475   3.243   4.800
 7106SOL    HW122217   3.536   3.287   4.866
 7106SOL    HW222218   3.473   3.144   4.816
 7107SOL     OW22219   3.303   0.882   0.948
 7107SOL    HW122220   3.220   0.843   0.987
 7107SOL    HW222221   3.286   0.911   0.854
 7108SOL     OW22222   5.031   6.100   0.966
 7108SOL    HW122223   5.046   6.042   0.886
 7108SOL    HW222224   4.933   6.102   0.987
 7109SOL     OW22225   3.393   0.210   5.843
 7109SOL    HW122226   3.306   0.192   5.798
 7109SOL    HW222227   3.417   0.307   5.833
 7110SOL     OW22228   4.749   5.010   4.215
 7110SOL    HW122229   4.823   4.991   4.151
 7110SOL    HW222230   4.783   5.068   4.289
 7111SOL     OW22231   1.886   3.426   4.284
 7111SOL    HW122232   1.832   3.343   4.270
 7111SOL    HW222233   1.980   3.400   4.309
 7112SOL     OW22234   0.459   6.118   4.016
 7112SOL    HW122235   0.528   6.189   4.029
 7112SOL    HW222236   0.503   6.034   3.984
 7113SOL     OW22237   3.785   4.141   4.625
 7113SOL    HW122238   3.846   4.129   4.547
 7113SOL    HW222239   3.823   4.210   4.687
 7114SOL     OW22240   4.518   1.324   2.145
 7114SOL    HW122241   4.540   1.228   2.124
 7114SOL    HW222242   4.449   1.357   2.081
 7115SOL     OW22243   4.767   1.942   1.256
 7115SOL    HW122244   4.704   1.952   1.333
 7115SOL    HW222245   4.796   1.847   1.248
 7116SOL     OW22246   5.485   3.806   3.421
 7116SOL    HW122247   5.513   3.861   3.499
 7116SOL    HW222248   5.395   3.836   3.390
 7117SOL     OW22249   6.182   6.022   2.410
 7117SOL    HW122250   6.205   5.926   2.396
 7117SOL    HW222251   6.103   6.029   2.471
 7118SOL     OW22252   5.339   4.000   1.118
 7118SOL    HW122253   5.289   4.061   1.057
 7118SOL    HW222254   5.275   3.959   1.184
 7119SOL     OW22255   5.967   1.311   2.549
 7119SOL    HW122256   5.981   1.268   2.638
 7119SOL    HW222257   6.047   1.295   2.491
 7120SOL     OW22258   5.045   1.281   3.759
 7120SOL    HW122259   5.027   1.220   3.836
 7120SOL    HW222260   4.980   1.261   3.685
 7121SOL     OW22261   2.267   0.044   3.726
 7121SOL    HW122262   2.299   6.973   3.757
 7121SOL    HW222263   2.178   0.034   3.681
 7122SOL     OW22264   6.679   1.110   6.793
 7122SOL    HW122265   6.615   1.166   6.846
 7122SOL    HW222266   6.770   1.114   6.834
 7123SOL     OW22267   2.890   5.698   1.388
 7123SOL    HW122268   2.884   5.613   1.441
 7123SOL    HW222269   2.922   5.677   1.295
 7124SOL     OW22270   0.066   5.237   6.888
 7124SOL    HW122271   0.053   5.336   6.897
 7124SOL    HW222272   0.160   5.219   6.857
 7125SOL     OW22273   6.645   6.587   2.415
 7125SOL    HW122274   6.602   6.672   2.384
 7125SOL    HW222275   6.716   6.560   2.349
 7126SOL     OW22276   1.966   4.122   0.423
 7126SOL    HW122277   2.047   4.063   0.419
 7126SOL    HW222278   1.893   4.074   0.472
 7127SOL     OW22279   3.202   6.057   4.113
 7127SOL    HW122280   3.157   6.090   4.030
 7127SOL    HW222281   3.294   6.027   4.092
 7128SOL     OW22282   3.263   4.460   0.578
 7128SOL    HW122283   3.265   4.523   0.656
 7128SOL    HW222284   3.327   4.492   0.508
 7129SOL     OW22285   3.388   0.548   1.160
 7129SOL    HW122286   3.365   0.548   1.257
 7129SOL    HW222287   3.319   0.496   1.109
 7130SOL     OW22288   2.998   4.825   3.901
 7130SOL    HW122289   2.905   4.789   3.890
 7130SOL    HW222290   2.999   4.892   3.975
 7131SOL     OW22291   3.144   1.373   2.129
 7131SOL    HW122292   3.126   1.464   2.092
 7131SOL    HW222293   3.057   1.329   2.151
 7132SOL     OW22294   3.929   3.965   2.744
 7132SOL    HW122295   3.914   4.059   2.772
 7132SOL    HW222296   3.932   3.960   2.644
 7133SOL     OW22297   4.672   5.660   3.321
 7133SOL    HW122298   4.577   5.692   3.329
 7133SOL    HW222299   4.690   5.591   3.391
 7134SOL     OW22300   5.850   5.902   3.588
 7134SOL    HW122301   5.798   5.962   3.528
 7134SOL    HW222302   5.932   5.950   3.620
 7135SOL     OW22303   1.744   1.114   4.399
 7135SOL    HW122304   1.675   1.063   4.347
 7135SOL    HW222305   1.809   1.049   4.439
 7136SOL     OW22306   1.617   0.968   0.685
 7136SOL    HW122307   1.694   0.995   0.743
 7136SOL    HW222308   1.635   0.997   0.591
 7137SOL     OW22309   4.666   0.720   4.406
 7137SOL    HW122310   4.724   0.795   4.438
 7137SOL    HW222311   4.722   0.642   4.381
 7138SOL     OW22312   2.885   3.629   1.330
 7138SOL    HW122313   2.824   3.590   1.261
 7138SOL    HW222314   2.948   3.559   1.362
 7139SOL     OW22315   4.574   3.313   1.666
 7139SOL    HW122316   4.528   3.402   1.659
 7139SOL    HW222317   4.505   3.242   1.680
 7140SOL     OW22318   6.356   4.651   4.725
 7140SOL    HW122319   6.318   4.597   4.799
 7140SOL    HW222320   6.381   4.742   4.759
 7141SOL     OW22321   2.944   0.111   0.985
 7141SOL    HW122322   2.896   0.194   1.015
 7141SOL    HW222323   3.038   0.113   1.018
 7142SOL     OW22324   4.136   5.899   3.954
 7142SOL    HW122325   4.224   5.933   3.920
 7142SOL    HW222326   4.143   5.883   4.053
 7143SOL     OW22327   1.652   3.798   6.083
 7143SOL    HW122328   1.621   3.889   6.109
 7143SOL    HW222329   1.605   3.729   6.138
 7144SOL     OW22330   0.940   1.535   2.727
 7144SOL    HW122331   0.990   1.617   2.754
 7144SOL    HW222332   1.000   1.475   2.675
 7145SOL     OW22333   4.624   6.919   6.840
 7145SOL    HW122334   4.705   6.864   6.818
 7145SOL    HW222335   4.559   6.915   6.765
 7146SOL     OW22336   2.926   6.836   0.504
 7146SOL    HW122337   2.986   6.813   0.427
 7146SOL    HW222338   2.925   6.759   0.568
 7147SOL     OW22339   0.159   0.661   3.054
 7147SOL    HW122340   0.143   0.759   3.041
 7147SOL    HW222341   0.257   0.642   3.050
 7148SOL     OW22342   1.322   6.384   1.755
 7148SOL    HW122343   1.344   6.476   1.721
 7148SOL    HW222344   1.350   6.316   1.688
 7149SOL     OW22345   6.693   1.085   3.191
 7149SOL    HW122346   6.738   1.142   3.122
 7149SOL    HW222347   6.595   1.107   3.194
 7150SOL     OW22348   5.566   2.926   0.279
 7150SOL    HW122349   5.529   2.852   0.335
 7150SOL    HW222350   5.494   2.962   0.220
 7151SOL     OW22351   2.174   5.834   1.451
 7151SOL    HW122352   2.179   5.929   1.483
 7151SOL    HW222353   2.099   5.825   1.385
 7152SOL     OW22354   0.599   3.204   4.872
 7152SOL    HW122355   0.508   3.190   4.912
 7152SOL    HW222356   0.590   3.229   4.776
 7153SOL     OW22357   4.470   0.518   5.012
 7153SOL    HW122358   4.402   0.472   5.070
 7153SOL    HW222359   4.424   0.587   4.956
 7154SOL     OW22360   3.749   5.933   4.352
 7154SOL    HW122361   3.702   6.016   4.381
 7154SOL    HW222362   3.699   5.892   4.275
 7155SOL     OW22363   1.031   6.658   2.209
 7155SOL    HW122364   0.952   6.702   2.253
 7155SOL    HW222365   1.115   6.703   2.239
 7156SOL     OW22366   6.452   5.271   5.252
 7156SOL    HW122367   6.368   5.228   5.220
 7156SOL    HW222368   6.522   5.266   5.180
 7157SOL     OW22369   5.827   5.559   0.206
 7157SOL    HW122370   5.795   5.652   0.220
 7157SOL    HW222371   5.784   5.499   0.274
 7158SOL     OW22372   0.234   6.630   3.437
 7158SOL    HW122373   0.229   6.713   3.492
 7158SOL    HW222374   0.175   6.639   3.356
 7159SOL     OW22375   0.440   5.196   0.718
 7159SOL    HW122376   0.439   5.271   0.784
 7159SOL    HW222377   0.503   5.125   0.748
 7160SOL     OW22378   6.159   0.130   2.057
 7160SOL    HW122379   6.231   0.082   2.008
 7160SOL    HW222380   6.197   0.213   2.098
 7161SOL     OW22381   3.706   2.873   4.129
 7161SOL    HW122382   3.753   2.955   4.096
 7161SOL    HW222383   3.626   2.854   4.072
 7162SOL     OW22384   3.751   4.891   4.098
 7162SOL    HW122385   3.684   4.817   4.108
 7162SOL    HW222386   3.787   4.890   4.004
 7163SOL     OW22387   3.315   0.224   3.849
 7163SOL    HW122388   3.216   0.232   3.855
 7163SOL    HW222389   3.341   0.198   3.756
 7164SOL     OW22390   2.165   1.295   3.670
 7164SOL    HW122391   2.134   1.281   3.764
 7164SOL    HW222392   2.257   1.257   3.660
 7165SOL     OW22393   5.534   1.415   0.994
 7165SOL    HW122394   5.613   1.388   0.939
 7165SOL    HW222395   5.468   1.464   0.938
 7166SOL     OW22396   4.675   4.759   0.716
 7166SOL    HW122397   4.722   4.675   0.742
 7166SOL    HW222398   4.703   4.833   0.777
 7167SOL     OW22399   4.708   3.685   5.400
 7167SOL    HW122400   4.705   3.641   5.310
 7167SOL    HW222401   4.739   3.618   5.469
 7168SOL     OW22402   1.533   1.017   4.243
 7168SOL    HW122403   1.494   0.927   4.226
 7168SOL    HW222404   1.470   1.087   4.209
 7169SOL     OW22405   1.465   3.366   6.369
 7169SOL    HW122406   1.400   3.423   6.318
 7169SOL    HW222407   1.438   3.270   6.360
 7170SOL     OW22408   5.154   4.649   3.375
 7170SOL    HW122409   5.095   4.607   3.305
 7170SOL    HW222410   5.225   4.703   3.331
 7171SOL     OW22411   4.186   2.931   5.418
 7171SOL    HW122412   4.121   2.945   5.493
 7171SOL    HW222413   4.225   2.839   5.424
 7172SOL     OW22414   1.792   6.479   0.701
 7172SOL    HW122415   1.862   6.410   0.721
 7172SOL    HW222416   1.702   6.446   0.729
 7173SOL     OW22417   0.155   5.900   4.239
 7173SOL    HW122418   0.066   5.922   4.199
 7173SOL    HW222419   0.147   5.892   4.338
 7174SOL     OW22420   1.975   5.023   0.549
 7174SOL    HW122421   1.934   4.936   0.576
 7174SOL    HW222422   1.941   5.096   0.608
 7175SOL     OW22423   5.096   4.067   0.027
 7175SOL    HW122424   5.007   4.089   0.069
 7175SOL    HW222425   5.146   4.004   0.087
 7176SOL     OW22426   6.571   4.292   1.990
 7176SOL    HW122427   6.648   4.313   2.051
 7176SOL    HW222428   6.524   4.210   2.023
 7177SOL     OW22429   0.825   6.037   3.523
 7177SOL    HW122430   0.824   5.946   3.565
 7177SOL    HW222431   0.738   6.083   3.540
 7178SOL     OW22432   1.258   2.489   4.686
 7178SOL    HW122433   1.260   2.577   4.733
 7178SOL    HW222434   1.182   2.488   4.621
 7179SOL     OW22435   2.890   3.756   5.424
 7179SOL    HW122436   2.818   3.779   5.359
 7179SOL    HW222437   2.936   3.673   5.394
 7180SOL     OW22438   0.787   5.949   0.964
 7180SOL    HW122439   0.874   5.983   0.928
 7180SOL    HW222440   0.719   6.022   0.963
 7181SOL     OW22441   4.489   0.899   1.539
 7181SOL    HW122442   4.510   0.874   1.445
 7181SOL    HW222443   4.392   0.882   1.557
 7182SOL     OW22444   2.317   4.521   5.582
 7182SOL    HW122445   2.396   4.471   5.546
 7182SOL    HW222446   2.269   4.567   5.507
 7183SOL     OW22447   2.024   5.021   3.089
 7183SOL    HW122448   2.042   5.068   3.175
 7183SOL    HW222449   2.107   5.018   3.034
 7184SOL     OW22450   1.508   6.726   4.183
 7184SOL    HW122451   1.514   6.669   4.101
 7184SOL    HW222452   1.413   6.756   4.196
 7185SOL     OW22453   4.764   3.095   6.959
 7185SOL    HW122454   4.834   3.087   6.888
 7185SOL    HW222455   4.729   3.004   6.981
 7186SOL     OW22456   6.527   5.890   5.345
 7186SOL    HW122457   6.603   5.836   5.309
 7186SOL    HW222458   6.557   5.942   5.425
 7187SOL     OW22459   1.748   3.859   1.753
 7187SOL    HW122460   1.834   3.812   1.735
 7187SOL    HW222461   1.738   3.935   1.689
 7188SOL     OW22462   4.841   0.454   1.885
 7188SOL    HW122463   4.928   0.502   1.899
 7188SOL    HW222464   4.773   0.519   1.851
 7189SOL     OW22465   0.183   1.276   5.579
 7189SOL    HW122466   0.110   1.331   5.619
 7189SOL    HW222467   0.164   1.260   5.482
 7190SOL     OW22468   5.592   3.842   3.068
 7190SOL    HW122469   5.619   3.797   3.153
 7190SOL    HW222470   5.553   3.775   3.005
 7191SOL     OW22471   1.575   3.843   2.509
 7191SOL    HW122472   1.628   3.882   2.433
 7191SOL    HW222473   1.635   3.826   2.587
 7192SOL     OW22474   2.083   4.754   6.228
 7192SOL    HW122475   2.165   4.776   6.280
 7192SOL    HW222476   2.108   4.702   6.147
 7193SOL     OW22477   3.628   1.533   4.523
 7193SOL    HW122478   3.668   1.507   4.435
 7193SOL    HW222479   3.591   1.626   4.517
 7194SOL     OW22480   2.470   1.927   1.500
 7194SOL    HW122481   2.557   1.948   1.546
 7194SOL    HW222482   2.396   1.930   1.567
 7195SOL     OW22483   0.293   5.596   0.478
 7195SOL    HW122484   0.334   5.663   0.539
 7195SOL    HW222485   0.219   5.548   0.527
 7196SOL     OW22486   3.006   3.569   3.130
 7196SOL    HW122487   3.080   3.592   3.067
 7196SOL    HW222488   2.939   3.512   3.083
 7197SOL     OW22489   6.747   1.690   4.491
 7197SOL    HW122490   6.747   1.781   4.532
 7197SOL    HW222491   6.784   1.624   4.556
 7198SOL     OW22492   1.479   6.866   6.225
 7198SOL    HW122493   1.519   6.942   6.174
 7198SOL    HW222494   1.536   6.784   6.213
 7199SOL     OW22495   0.098   0.523   2.571
 7199SOL    HW122496   0.078   0.472   2.486
 7199SOL    HW222497   0.177   0.582   2.556
 7200SOL     OW22498   2.418   0.954   1.035
 7200SOL    HW122499   2.374   0.895   0.966
 7200SOL    HW222500   2.391   0.924   1.126
 7201SOL     OW22501   1.409   4.791   3.840
 7201SOL    HW122502   1.383   4.729   3.767
 7201SOL    HW222503   1.395   4.886   3.810
 7202SOL     OW22504   4.305   0.253   6.048
 7202SOL    HW122505   4.228   0.294   6.096
 7202SOL    HW222506   4.358   0.324   6.002
 7203SOL     OW22507   5.664   0.455   0.189
 7203SOL    HW122508   5.749   0.433   0.142
 7203SOL    HW222509   5.665   0.412   0.280
 7204SOL     OW22510   6.218   0.896   3.171
 7204SOL    HW122511   6.239   0.851   3.084
 7204SOL    HW222512   6.291   0.960   3.194
 7205SOL     OW22513   1.773   5.114   3.322
 7205SOL    HW122514   1.715   5.130   3.402
 7205SOL    HW222515   1.869   5.127   3.347
 7206SOL     OW22516   6.661   1.326   1.061
 7206SOL    HW122517   6.725   1.403   1.061
 7206SOL    HW222518   6.702   1.249   1.013
 7207SOL     OW22519   3.109   6.482   1.291
 7207SOL    HW122520   3.027   6.485   1.234
 7207SOL    HW222521   3.087   6.442   1.380
 7208SOL     OW22522   3.381   0.304   5.562
 7208SOL    HW122523   3.283   0.294   5.579
 7208SOL    HW222524   3.420   0.367   5.629
 7209SOL     OW22525   4.093   3.413   3.867
 7209SOL    HW122526   4.128   3.412   3.773
 7209SOL    HW222527   4.012   3.472   3.871
 7210SOL     OW22528   4.451   1.067   4.081
 7210SOL    HW122529   4.474   1.162   4.062
 7210SOL    HW222530   4.377   1.038   4.020
 7211SOL     OW22531   1.205   5.755   4.123
 7211SOL    HW122532   1.256   5.834   4.090
 7211SOL    HW222533   1.265   5.674   4.123
 7212SOL     OW22534   6.147   5.635   4.544
 7212SOL    HW122535   6.108   5.665   4.457
 7212SOL    HW222536   6.191   5.546   4.532
 7213SOL     OW22537   5.859   0.554   5.684
 7213SOL    HW122538   5.813   0.543   5.596
 7213SOL    HW222539   5.834   0.643   5.723
 7214SOL     OW22540   2.328   5.378   5.031
 7214SOL    HW122541   2.322   5.281   5.055
 7214SOL    HW222542   2.239   5.421   5.044
 7215SOL     OW22543   0.737   3.851   4.083
 7215SOL    HW122544   0.646   3.880   4.112
 7215SOL    HW222545   0.806   3.911   4.123
 7216SOL     OW22546   2.480   0.288   0.290
 7216SOL    HW122547   2.543   0.286   0.213
 7216SOL    HW222548   2.389   0.314   0.258
 7217SOL     OW22549   1.263   3.887   2.215
 7217SOL    HW122550   1.175   3.915   2.175
 7217SOL    HW222551   1.256   3.891   2.314
 7218SOL     OW22552   4.619   2.121   5.701
 7218SOL    HW122553   4.705   2.102   5.748
 7218SOL    HW222554   4.592   2.216   5.717
 7219SOL     OW22555   4.357   6.598   3.390
 7219SOL    HW122556   4.265   6.614   3.424
 7219SOL    HW222557   4.423   6.605   3.465
 7220SOL     OW22558   6.479   1.348   2.466
 7220SOL    HW122559   6.530   1.363   2.381
 7220SOL    HW222560   6.422   1.266   2.456
 7221SOL     OW22561   5.290   3.851   5.704
 7221SOL    HW122562   5.317   3.842   5.799
 7221SOL    HW222563   5.195   3.882   5.699
 7222SOL     OW22564   6.959   6.061   1.461
 7222SOL    HW122565   6.996   6.137   1.514
 7222SOL    HW222566   0.014   5.997   1.439
 7223SOL     OW22567   3.553   1.336   6.167
 7223SOL    HW122568   3.474   1.349   6.107
 7223SOL    HW222569   3.603   1.422   6.176
 7224SOL     OW22570   5.389   0.379   4.740
 7224SOL    HW122571   5.481   0.357   4.772
 7224SOL    HW222572   5.393   0.413   4.646
 7225SOL     OW22573   1.830   5.683   0.218
 7225SOL    HW122574   1.902   5.734   0.170
 7225SOL    HW222575   1.769   5.746   0.265
 7226SOL     OW22576   0.408   0.177   0.313
 7226SOL    HW122577   0.351   0.127   0.248
 7226SOL    HW222578   0.351   0.211   0.388
 7227SOL     OW22579   0.594   2.733   6.281
 7227SOL    HW122580   0.615   2.831   6.284
 7227SOL    HW222581   0.609   2.693   6.371
 7228SOL     OW22582   6.821   0.215   2.253
 7228SOL    HW122583   6.742   0.228   2.194
 7228SOL    HW222584   6.829   0.118   2.279
 7229SOL     OW22585   1.409   0.207   4.461
 7229SOL    HW122586   1.404   0.307   4.468
 7229SOL    HW222587   1.323   0.167   4.494
 7230SOL     OW22588   4.470   5.106   3.462
 7230SOL    HW122589   4.458   5.144   3.553
 7230SOL    HW222590   4.567   5.084   3.448
 7231SOL     OW22591   6.022   1.346   5.966
 7231SOL    HW122592   5.930   1.370   5.937
 7231SOL    HW222593   6.022   1.255   6.007
 7232SOL     OW22594   3.909   4.818   2.308
 7232SOL    HW122595   4.002   4.795   2.278
 7232SOL    HW222596   3.876   4.748   2.371
 7233SOL     OW22597   0.284   2.959   5.691
 7233SOL    HW122598   0.210   2.958   5.758
 7233SOL    HW222599   0.357   2.898   5.720
 7234SOL     OW22600   6.335   1.944   1.578
 7234SOL    HW122601   6.259   1.921   1.639
 7234SOL    HW222602   6.407   1.990   1.629
 7235SOL     OW22603   5.502   3.733   5.252
 7235SOL    HW122604   5.449   3.695   5.175
 7235SOL    HW222605   5.494   3.672   5.331
 7236SOL     OW22606   3.664   0.770   3.109
 7236SOL    HW122607   3.706   0.713   3.179
 7236SOL    HW222608   3.629   0.712   3.036
 7237SOL     OW22609   5.985   5.974   5.617
 7237SOL    HW122610   5.902   5.955   5.670
 7237SOL    HW222611   6.062   5.923   5.656
 7238SOL     OW22612   2.702   1.946   2.308
 7238SOL    HW122613   2.784   1.905   2.348
 7238SOL    HW222614   2.685   1.906   2.218
 7239SOL     OW22615   2.863   1.666   2.094
 7239SOL    HW122616   2.839   1.763   2.085
 7239SOL    HW222617   2.869   1.643   2.191
 7240SOL     OW22618   2.618   4.575   0.275
 7240SOL    HW122619   2.550   4.506   0.250
 7240SOL    HW222620   2.699   4.529   0.312
 7241SOL     OW22621   3.359   6.863   5.319
 7241SOL    HW122622   3.280   6.856   5.379
 7241SOL    HW222623   3.386   6.959   5.311
 7242SOL     OW22624   6.228   4.339   6.331
 7242SOL    HW122625   6.246   4.412   6.397
 7242SOL    HW222626   6.140   4.354   6.288
 7243SOL     OW22627   0.799   5.737   0.297
 7243SOL    HW122628   0.824   5.674   0.370
 7243SOL    HW222629   0.815   5.694   0.209
 7244SOL     OW22630   5.422   2.191   1.358
 7244SOL    HW122631   5.368   2.240   1.290
 7244SOL    HW222632   5.421   2.093   1.337
 7245SOL     OW22633   6.896   1.772   4.126
 7245SOL    HW122634   6.864   1.687   4.169
 7245SOL    HW222635   6.818   1.832   4.109
 7246SOL     OW22636   6.711   0.084   5.178
 7246SOL    HW122637   6.803   0.045   5.178
 7246SOL    HW222638   6.713   0.175   5.136
 7247SOL     OW22639   2.817   5.929   2.036
 7247SOL    HW122640   2.764   5.847   2.013
 7247SOL    HW222641   2.884   5.947   1.963
 7248SOL     OW22642   3.994   1.271   4.292
 7248SOL    HW122643   3.934   1.192   4.309
 7248SOL    HW222644   3.999   1.288   4.193
 7249SOL     OW22645   6.218   5.031   6.779
 7249SOL    HW122646   6.123   5.059   6.766
 7249SOL    HW222647   6.236   5.018   6.876
 7250SOL     OW22648   2.845   4.484   6.286
 7250SOL    HW122649   2.835   4.556   6.354
 7250SOL    HW222650   2.898   4.518   6.208
 7251SOL     OW22651   6.555   6.911   5.068
 7251SOL    HW122652   6.591   6.973   5.138
 7251SOL    HW222653   6.630   6.858   5.028
 7252SOL     OW22654   3.432   2.937   4.882
 7252SOL    HW122655   3.334   2.949   4.867
 7252SOL    HW222656   3.447   2.894   4.971
 7253SOL     OW22657   3.707   6.204   1.164
 7253SOL    HW122658   3.692   6.105   1.159
 7253SOL    HW222659   3.760   6.234   1.085
 7254SOL     OW22660   4.322   6.013   4.213
 7254SOL    HW122661   4.303   5.959   4.295
 7254SOL    HW222662   4.344   6.107   4.239
 7255SOL     OW22663   3.154   3.568   2.369
 7255SOL    HW122664   3.062   3.603   2.388
 7255SOL    HW222665   3.220   3.615   2.427
 7256SOL     OW22666   4.225   4.648   3.746
 7256SOL    HW122667   4.175   4.700   3.678
 7256SOL    HW222668   4.307   4.700   3.773
 7257SOL     OW22669   6.201   2.881   3.071
 7257SOL    HW122670   6.290   2.868   3.027
 7257SOL    HW222671   6.132   2.900   3.001
 7258SOL     OW22672   3.391   0.549   4.759
 7258SOL    HW122673   3.433   0.515   4.675
 7258SOL    HW222674   3.323   0.483   4.791
 7259SOL     OW22675   2.118   4.363   6.764
 7259SOL    HW122676   2.150   4.441   6.817
 7259SOL    HW222677   2.034   4.327   6.804
 7260SOL     OW22678   3.195   2.149   2.980
 7260SOL    HW122679   3.138   2.154   2.897
 7260SOL    HW222680   3.148   2.197   3.055
 7261SOL     OW22681   1.978   3.459   1.900
 7261SOL    HW122682   1.915   3.426   1.970
 7261SOL    HW222683   2.067   3.476   1.941
 7262SOL     OW22684   5.815   1.804   4.881
 7262SOL    HW122685   5.824   1.854   4.795
 7262SOL    HW222686   5.731   1.750   4.880
 7263SOL     OW22687   1.921   6.007   1.908
 7263SOL    HW122688   1.951   6.004   1.812
 7263SOL    HW222689   1.913   5.914   1.942
 7264SOL     OW22690   0.541   0.339   5.867
 7264SOL    HW122691   0.477   0.387   5.807
 7264SOL    HW222692   0.630   0.332   5.823
 7265SOL     OW22693   4.204   4.653   5.685
 7265SOL    HW122694   4.244   4.719   5.623
 7265SOL    HW222695   4.220   4.560   5.651
 7266SOL     OW22696   4.879   0.649   1.548
 7266SOL    HW122697   4.852   0.727   1.604
 7266SOL    HW222698   4.842   0.565   1.588
 7267SOL     OW22699   0.244   3.895   4.150
 7267SOL    HW122700   0.275   3.807   4.113
 7267SOL    HW222701   0.202   3.948   4.076
 7268SOL     OW22702   3.861   6.955   1.574
 7268SOL    HW122703   3.911   6.874   1.605
 7268SOL    HW222704   3.902   6.989   1.490
 7269SOL     OW22705   1.287   5.547   2.023
 7269SOL    HW122706   1.355   5.618   2.005
 7269SOL    HW222707   1.251   5.512   1.937
 7270SOL     OW22708   2.826   0.848   2.928
 7270SOL    HW122709   2.875   0.765   2.902
 7270SOL    HW222710   2.891   0.924   2.933
 7271SOL     OW22711   0.151   3.225   3.378
 7271SOL    HW122712   0.071   3.214   3.319
 7271SOL    HW222713   0.123   3.263   3.466
 7272SOL     OW22714   5.919   2.000   2.349
 7272SOL    HW122715   5.911   2.090   2.305
 7272SOL    HW222716   6.003   1.997   2.403
 7273SOL     OW22717   5.514   4.800   0.008
 7273SOL    HW122718   5.574   4.871   0.045
 7273SOL    HW222719   5.533   4.713   0.053
 7274SOL     OW22720   6.275   4.856   5.292
 7274SOL    HW122721   6.192   4.826   5.245
 7274SOL    HW222722   6.347   4.875   5.225
 7275SOL     OW22723   0.016   7.005   0.456
 7275SOL    HW122724   7.001   0.004   0.549
 7275SOL    HW222725   0.018   0.073   0.405
 7276SOL     OW22726   2.241   2.870   3.635
 7276SOL    HW122727   2.150   2.850   3.671
 7276SOL    HW222728   2.304   2.887   3.711
 7277SOL     OW22729   4.877   1.907   4.921
 7277SOL    HW122730   4.894   2.005   4.908
 7277SOL    HW222731   4.797   1.895   4.979
 7278SOL     OW22732   3.294   1.306   2.482
 7278SOL    HW122733   3.315   1.363   2.562
 7278SOL    HW222734   3.344   1.220   2.488
 7279SOL     OW22735   5.633   4.907   1.062
 7279SOL    HW122736   5.599   4.843   0.993
 7279SOL    HW222737   5.635   4.862   1.152
 7280SOL     OW22738   6.148   2.971   5.211
 7280SOL    HW122739   6.139   2.872   5.201
 7280SOL    HW222740   6.069   3.016   5.168
 7281SOL     OW22741   3.860   6.329   2.410
 7281SOL    HW122742   3.815   6.332   2.321
 7281SOL    HW222743   3.959   6.338   2.398
 7282SOL     OW22744   6.895   4.764   2.590
 7282SOL    HW122745   6.995   4.761   2.597
 7282SOL    HW222746   6.864   4.696   2.524
 7283SOL     OW22747   3.953   4.900   2.994
 7283SOL    HW122748   3.874   4.950   2.958
 7283SOL    HW222749   4.015   4.963   3.040
 7284SOL     OW22750   6.688   1.972   3.264
 7284SOL    HW122751   6.599   1.934   3.240
 7284SOL    HW222752   6.675   2.060   3.310
 7285SOL     OW22753   4.976   2.988   1.806
 7285SOL    HW122754   4.913   3.026   1.738
 7285SOL    HW222755   4.939   3.005   1.898
 7286SOL     OW22756   0.389   1.423   1.670
 7286SOL    HW122757   0.379   1.478   1.753
 7286SOL    HW222758   0.479   1.439   1.631
 7287SOL     OW22759   1.348   2.651   3.788
 7287SOL    HW122760   1.400   2.671   3.871
 7287SOL    HW222761   1.320   2.555   3.788
 7288SOL     OW22762   2.858   2.242   3.004
 7288SOL    HW122763   2.924   2.303   3.048
 7288SOL    HW222764   2.828   2.173   3.070
 7289SOL     OW22765   5.933   2.520   0.868
 7289SOL    HW122766   5.951   2.490   0.961
 7289SOL    HW222767   5.958   2.447   0.804
 7290SOL     OW22768   3.321   1.784   5.549
 7290SOL    HW122769   3.329   1.860   5.484
 7290SOL    HW222770   3.399   1.722   5.537
 7291SOL     OW22771   4.310   1.273   0.525
 7291SOL    HW122772   4.258   1.269   0.440
 7291SOL    HW222773   4.360   1.359   0.529
 7292SOL     OW22774   2.544   0.556   2.523
 7292SOL    HW122775   2.447   0.579   2.515
 7292SOL    HW222776   2.572   0.500   2.445
 7293SOL     OW22777   1.081   0.471   5.362
 7293SOL    HW122778   1.015   0.426   5.302
 7293SOL    HW222779   1.081   0.426   5.452
 7294SOL     OW22780   2.331   5.923   1.746
 7294SOL    HW122781   2.254   5.905   1.685
 7294SOL    HW222782   2.405   5.858   1.728
 7295SOL     OW22783   5.779   5.443   2.434
 7295SOL    HW122784   5.700   5.425   2.494
 7295SOL    HW222785   5.772   5.387   2.352
 7296SOL     OW22786   4.840   4.542   2.167
 7296SOL    HW122787   4.755   4.494   2.189
 7296SOL    HW222788   4.845   4.557   2.068
 7297SOL     OW22789   4.021   6.364   1.177
 7297SOL    HW122790   4.109   6.405   1.153
 7297SOL    HW222791   3.959   6.435   1.210
 7298SOL     OW22792   4.529   5.380   6.852
 7298SOL    HW122793   4.439   5.352   6.885
 7298SOL    HW222794   4.520   5.468   6.804
 7299SOL     OW22795   1.564   2.968   6.978
 7299SOL    HW122796   1.561   3.048   0.021
 7299SOL    HW222797   1.634   2.983   6.909
 7300SOL     OW22798   0.567   5.308   2.212
 7300SOL    HW122799   0.523   5.332   2.125
 7300SOL    HW222800   0.644   5.369   2.229
 7301SOL     OW22801   5.385   0.177   5.695
 7301SOL    HW122802   5.438   0.187   5.779
 7301SOL    HW222803   5.413   0.247   5.630
 7302SOL     OW22804   5.053   1.262   6.180
 7302SOL    HW122805   5.021   1.232   6.090
 7302SOL    HW222806   5.096   1.351   6.171
 7303SOL     OW22807   2.291   1.597   1.597
 7303SOL    HW122808   2.208   1.653   1.598
 7303SOL    HW222809   2.337   1.604   1.685
 7304SOL     OW22810   2.525   5.750   1.606
 7304SOL    HW122811   2.485   5.663   1.577
 7304SOL    HW222812   2.583   5.735   1.686
 7305SOL     OW22813   6.413   1.970   0.731
 7305SOL    HW122814   6.347   1.962   0.657
 7305SOL    HW222815   6.402   1.893   0.794
 7306SOL     OW22816   2.110   2.265   1.662
 7306SOL    HW122817   2.079   2.353   1.697
 7306SOL    HW222818   2.151   2.278   1.571
 7307SOL     OW22819   2.105   0.291   1.736
 7307SOL    HW122820   2.197   0.329   1.731
 7307SOL    HW222821   2.039   0.364   1.755
 7308SOL     OW22822   5.246   1.075   3.209
 7308SOL    HW122823   5.274   0.984   3.177
 7308SOL    HW222824   5.150   1.072   3.238
 7309SOL     OW22825   1.710   5.344   3.158
 7309SOL    HW122826   1.793   5.383   3.118
 7309SOL    HW222827   1.725   5.246   3.176
 7310SOL     OW22828   2.309   2.592   6.515
 7310SOL    HW122829   2.291   2.687   6.492
 7310SOL    HW222830   2.225   2.550   6.549
 7311SOL     OW22831   0.107   6.626   6.527
 7311SOL    HW122832   0.070   6.547   6.479
 7311SOL    HW222833   0.112   6.704   6.464
 7312SOL     OW22834   6.642   2.269   4.147
 7312SOL    HW122835   6.611   2.250   4.054
 7312SOL    HW222836   6.731   2.226   4.162
 7313SOL     OW22837   3.076   0.891   1.842
 7313SOL    HW122838   3.112   0.956   1.775
 7313SOL    HW222839   3.142   0.878   1.915
 7314SOL     OW22840   0.424   3.759   6.727
 7314SOL    HW122841   0.441   3.857   6.739
 7314SOL    HW222842   0.396   3.742   6.633
 7315SOL     OW22843   1.371   4.431   2.380
 7315SOL    HW122844   1.301   4.421   2.310
 7315SOL    HW222845   1.462   4.424   2.337
 7316SOL     OW22846   3.357   1.919   1.017
 7316SOL    HW122847   3.422   1.855   1.058
 7316SOL    HW222848   3.363   1.911   0.917
 7317SOL     OW22849   3.725   1.356   1.082
 7317SOL    HW122850   3.818   1.320   1.082
 7317SOL    HW222851   3.665   1.294   1.030
 7318SOL     OW22852   4.393   6.586   0.214
 7318SOL    HW122853   4.419   6.682   0.204
 7318SOL    HW222854   4.462   6.538   0.268
 7319SOL     OW22855   6.147   4.597   6.439
 7319SOL    HW122856   6.151   4.668   6.509
 7319SOL    HW222857   6.129   4.639   6.350
 7320SOL     OW22858   6.846   2.956   1.908
 7320SOL    HW122859   6.748   2.936   1.912
 7320SOL    HW222860   6.886   2.908   1.829
 7321SOL     OW22861   2.025   0.084   6.924
 7321SOL    HW122862   2.004   7.017   6.971
 7321SOL    HW222863   1.990   0.161   6.977
 7322SOL     OW22864   0.728   2.852   2.759
 7322SOL    HW122865   0.697   2.939   2.797
 7322SOL    HW222866   0.727   2.858   2.659
 7323SOL     OW22867   1.176   2.442   1.331
 7323SOL    HW122868   1.106   2.480   1.392
 7323SOL    HW222869   1.261   2.493   1.342
 7324SOL     OW22870   5.315   4.837   3.237
 7324SOL    HW122871   5.340   4.913   3.297
 7324SOL    HW222872   5.277   4.873   3.152
 7325SOL     OW22873   4.610   1.148   5.891
 7325SOL    HW122874   4.695   1.127   5.843
 7325SOL    HW222875   4.532   1.123   5.833
 7326SOL     OW22876   3.527   0.311   0.196
 7326SOL    HW122877   3.528   0.214   0.172
 7326SOL    HW222878   3.448   0.356   0.154
 7327SOL     OW22879   0.312   3.440   3.306
 7327SOL    HW122880   0.257   3.357   3.310
 7327SOL    HW222881   0.398   3.426   3.355
 7328SOL     OW22882   4.300   4.775   4.791
 7328SOL    HW122883   4.323   4.701   4.854
 7328SOL    HW222884   4.381   4.799   4.737
 7329SOL     OW22885   2.951   3.351   1.062
 7329SOL    HW122886   3.038   3.374   1.020
 7329SOL    HW222887   2.931   3.254   1.047
 7330SOL     OW22888   2.869   3.335   1.554
 7330SOL    HW122889   2.853   3.292   1.643
 7330SOL    HW222890   2.785   3.334   1.501
 7331SOL     OW22891   4.831   0.690   2.917
 7331SOL    HW122892   4.751   0.740   2.948
 7331SOL    HW222893   4.834   0.601   2.963
 7332SOL     OW22894   3.120   5.067   6.390
 7332SOL    HW122895   3.136   5.120   6.306
 7332SOL    HW222896   3.103   4.972   6.367
 7333SOL     OW22897   6.835   2.271   1.148
 7333SOL    HW122898   6.762   2.297   1.211
 7333SOL    HW222899   6.923   2.301   1.186
 7334SOL     OW22900   2.714   0.222   4.832
 7334SOL    HW122901   2.702   0.164   4.751
 7334SOL    HW222902   2.727   0.317   4.804
 7335SOL     OW22903   6.616   2.993   2.257
 7335SOL    HW122904   6.639   2.900   2.228
 7335SOL    HW222905   6.631   3.002   2.356
 7336SOL     OW22906   1.503   6.965   1.756
 7336SOL    HW122907   1.548   0.035   1.769
 7336SOL    HW222908   1.543   6.898   1.819
 7337SOL     OW22909   2.067   2.112   3.351
 7337SOL    HW122910   2.128   2.180   3.393
 7337SOL    HW222911   1.974   2.128   3.383
 7338SOL     OW22912   5.140   3.137   1.375
 7338SOL    HW122913   5.188   3.100   1.296
 7338SOL    HW222914   5.154   3.236   1.380
 7339SOL     OW22915   6.327   5.151   4.358
 7339SOL    HW122916   6.417   5.156   4.314
 7339SOL    HW222917   6.256   5.136   4.288
 7340SOL     OW22918   2.727   0.153   0.449
 7340SOL    HW122919   2.773   0.169   0.536
 7340SOL    HW222920   2.628   0.155   0.464
 7341SOL     OW22921   6.096   4.961   4.057
 7341SOL    HW122922   6.098   5.051   4.013
 7341SOL    HW222923   6.001   4.931   4.068
 7342SOL     OW22924   0.133   6.600   0.249
 7342SOL    HW122925   0.115   6.536   0.174
 7342SOL    HW222926   0.091   6.688   0.229
 7343SOL     OW22927   5.874   3.204   2.281
 7343SOL    HW122928   5.775   3.218   2.275
 7343SOL    HW222929   5.915   3.280   2.333
 7344SOL     OW22930   1.424   6.395   0.007
 7344SOL    HW122931   1.451   6.441   6.940
 7344SOL    HW222932   1.434   6.459   0.083
 7345SOL     OW22933   3.697   5.544   6.729
 7345SOL    HW122934   3.639   5.554   6.648
 7345SOL    HW222935   3.732   5.451   6.734
 7346SOL     OW22936   3.994   4.823   1.927
 7346SOL    HW122937   3.991   4.731   1.887
 7346SOL    HW222938   4.031   4.817   2.020
 7347SOL     OW22939   6.232   1.623   2.859
 7347SOL    HW122940   6.261   1.559   2.788
 7347SOL    HW222941   6.134   1.643   2.847
 7348SOL     OW22942   1.336   1.979   3.190
 7348SOL    HW122943   1.431   1.968   3.161
 7348SOL    HW222944   1.323   1.937   3.280
 7349SOL     OW22945   3.365   1.309   1.078
 7349SOL    HW122946   3.308   1.241   1.124
 7349SOL    HW222947   3.361   1.395   1.129
 7350SOL     OW22948   2.338   1.913   3.317
 7350SOL    HW122949   2.290   1.930   3.403
 7350SOL    HW222950   2.273   1.878   3.250
 7351SOL     OW22951   4.461   4.461   6.510
 7351SOL    HW122952   4.380   4.432   6.561
 7351SOL    HW222953   4.438   4.541   6.454
 7352SOL     OW22954   0.774   1.529   2.278
 7352SOL    HW122955   0.744   1.479   2.360
 7352SOL    HW222956   0.867   1.501   2.254
 7353SOL     OW22957   5.252   1.935   4.580
 7353SOL    HW122958   5.248   1.866   4.507
 7353SOL    HW222959   5.170   1.928   4.637
 7354SOL     OW22960   6.077   4.859   5.671
 7354SOL    HW122961   6.172   4.827   5.676
 7354SOL    HW222962   6.053   4.874   5.576
 7355SOL     OW22963   1.999   5.366   1.868
 7355SOL    HW122964   1.995   5.380   1.967
 7355SOL    HW222965   2.025   5.271   1.849
 7356SOL     OW22966   5.864   1.580   5.690
 7356SOL    HW122967   5.882   1.546   5.597
 7356SOL    HW222968   5.942   1.634   5.721
 7357SOL     OW22969   6.010   1.485   0.301
 7357SOL    HW122970   6.037   1.579   0.320
 7357SOL    HW222971   6.086   1.424   0.321
 7358SOL     OW22972   3.110   1.064   3.857
 7358SOL    HW122973   3.199   1.054   3.900
 7358SOL    HW222974   3.071   0.973   3.839
 7359SOL     OW22975   4.166   3.462   3.594
 7359SOL    HW122976   4.124   3.375   3.567
 7359SOL    HW222977   4.265   3.454   3.590
 7360SOL     OW22978   0.725   2.482   4.749
 7360SOL    HW122979   0.646   2.436   4.789
 7360SOL    HW222980   0.716   2.481   4.649
 7361SOL     OW22981   5.352   6.069   2.232
 7361SOL    HW122982   5.401   6.126   2.166
 7361SOL    HW222983   5.416   6.037   2.302
 7362SOL     OW22984   1.954   6.010   6.159
 7362SOL    HW122985   1.900   5.963   6.090
 7362SOL    HW222986   2.004   6.086   6.117
 7363SOL     OW22987   4.924   3.512   6.642
 7363SOL    HW122988   4.845   3.453   6.657
 7363SOL    HW222989   4.893   3.603   6.613
 7364SOL     OW22990   4.331   6.342   1.373
 7364SOL    HW122991   4.339   6.431   1.326
 7364SOL    HW222992   4.256   6.345   1.438
 7365SOL     OW22993   2.891   0.255   2.518
 7365SOL    HW122994   2.953   0.320   2.562
 7365SOL    HW222995   2.907   0.163   2.554
 7366SOL     OW22996   0.299   5.100   6.479
 7366SOL    HW122997   0.248   5.027   6.524
 7366SOL    HW222998   0.354   5.061   6.405
 7367SOL     OW22999   5.064   4.121   1.457
 7367SOL    HW123000   5.047   4.218   1.471
 7367SOL    HW223001   5.024   4.069   1.533
 7368SOL     OW23002   3.284   3.545   4.869
 7368SOL    HW123003   3.247   3.612   4.806
 7368SOL    HW223004   3.221   3.532   4.946
 7369SOL     OW23005   4.815   4.019   0.562
 7369SOL    HW123006   4.874   3.973   0.496
 7369SOL    HW223007   4.800   3.959   0.641
 7370SOL     OW23008   2.543   6.868   0.721
 7370SOL    HW123009   2.547   6.941   0.652
 7370SOL    HW223010   2.608   6.888   0.794
 7371SOL     OW23011   2.549   5.270   4.507
 7371SOL    HW123012   2.456   5.234   4.514
 7371SOL    HW223013   2.602   5.215   4.442
 7372SOL     OW23014   3.849   0.404   5.947
 7372SOL    HW123015   3.840   0.501   5.923
 7372SOL    HW223016   3.798   0.386   6.030
 7373SOL     OW23017   4.012   0.540   2.196
 7373SOL    HW123018   3.933   0.599   2.183
 7373SOL    HW223019   3.987   0.461   2.252
 7374SOL     OW23020   1.745   3.112   6.564
 7374SOL    HW123021   1.696   3.194   6.593
 7374SOL    HW223022   1.801   3.133   6.484
 7375SOL     OW23023   1.260   0.630   4.125
 7375SOL    HW123024   1.231   0.692   4.197
 7375SOL    HW223025   1.356   0.606   4.139
 7376SOL     OW23026   2.296   3.578   6.800
 7376SOL    HW123027   2.283   3.516   6.722
 7376SOL    HW223028   2.322   3.669   6.765
 7377SOL     OW23029   4.658   4.269   1.712
 7377SOL    HW123030   4.663   4.356   1.664
 7377SOL    HW223031   4.567   4.260   1.754
 7378SOL     OW23032   0.099   1.267   5.313
 7378SOL    HW123033   0.017   1.278   5.256
 7378SOL    HW223034   0.165   1.339   5.290
 7379SOL     OW23035   3.904   1.198   2.311
 7379SOL    HW123036   3.810   1.165   2.306
 7379SOL    HW223037   3.908   1.291   2.275
 7380SOL     OW23038   0.326   3.317   6.063
 7380SOL    HW123039   0.269   3.349   5.988
 7380SOL    HW223040   0.407   3.375   6.071
 7381SOL     OW23041   5.106   1.840   1.676
 7381SOL    HW123042   5.037   1.793   1.731
 7381SOL    HW223043   5.072   1.850   1.582
 7382SOL     OW23044   6.516   5.689   4.413
 7382SOL    HW123045   6.564   5.673   4.327
 7382SOL    HW223046   6.516   5.605   4.468
 7383SOL     OW23047   6.678   6.345   3.504
 7383SOL    HW123048   6.755   6.398   3.468
 7383SOL    HW223049   6.636   6.293   3.430
 7384SOL     OW23050   5.314   6.996   2.297
 7384SOL    HW123051   5.244   6.992   2.226
 7384SOL    HW223052   5.301   6.918   2.360
 7385SOL     OW23053   4.758   6.040   1.267
 7385SOL    HW123054   4.845   6.034   1.317
 7385SOL    HW223055   4.775   6.067   1.173
 7386SOL     OW23056   0.694   2.301   5.214
 7386SOL    HW123057   0.748   2.381   5.239
 7386SOL    HW223058   0.742   2.250   5.141
 7387SOL     OW23059   3.638   5.645   3.586
 7387SOL    HW123060   3.563   5.581   3.570
 7387SOL    HW223061   3.611   5.712   3.655
 7388SOL     OW23062   6.208   5.023   3.215
 7388SOL    HW123063   6.307   5.034   3.215
 7388SOL    HW223064   6.167   5.087   3.150
 7389SOL     OW23065   1.772   4.115   6.207
 7389SOL    HW123066   1.745   4.127   6.112
 7389SOL    HW223067   1.868   4.140   6.219
 7390SOL     OW23068   1.325   0.250   5.598
 7390SOL    HW123069   1.403   0.250   5.535
 7390SOL    HW223070   1.348   0.197   5.680
 7391SOL     OW23071   6.125   3.261   6.160
 7391SOL    HW123072   6.129   3.168   6.196
 7391SOL    HW223073   6.065   3.316   6.218
 7392SOL     OW23074   1.378   4.879   4.142
 7392SOL    HW123075   1.400   4.820   4.064
 7392SOL    HW223076   1.418   4.969   4.128
 7393SOL     OW23077   0.225   4.650   2.672
 7393SOL    HW123078   0.204   4.693   2.759
 7393SOL    HW223079   0.245   4.553   2.686
 7394SOL     OW23080   4.064   3.699   6.827
 7394SOL    HW123081   4.146   3.656   6.863
 7394SOL    HW223082   3.998   3.628   6.800
 7395SOL     OW23083   1.039   0.460   0.345
 7395SOL    HW123084   1.088   0.398   0.283
 7395SOL    HW223085   0.940   0.449   0.333
 7396SOL     OW23086   0.941   6.788   6.156
 7396SOL    HW123087   0.955   6.742   6.244
 7396SOL    HW223088   1.000   6.868   6.150
 7397SOL     OW23089   6.531   4.874   5.130
 7397SOL    HW123090   6.597   4.799   5.127
 7397SOL    HW223091   6.542   4.924   5.217
 7398SOL     OW23092   4.590   4.347   3.822
 7398SOL    HW123093   4.600   4.327   3.919
 7398SOL    HW223094   4.680   4.356   3.779
 7399SOL     OW23095   4.981   3.823   6.226
 7399SOL    HW123096   4.881   3.820   6.225
 7399SOL    HW223097   5.017   3.759   6.158
 7400SOL     OW23098   2.818   5.595   6.602
 7400SOL    HW123099   2.897   5.556   6.649
 7400SOL    HW223100   2.806   5.549   6.513
 7401SOL     OW23101   6.846   2.112   4.190
 7401SOL    HW123102   6.942   2.131   4.167
 7401SOL    HW223103   6.804   2.059   4.117
 7402SOL     OW23104   2.715   0.468   3.861
 7402SOL    HW123105   2.808   0.505   3.857
 7402SOL    HW223106   2.717   0.376   3.901
 7403SOL     OW23107   1.265   4.032   3.043
 7403SOL    HW123108   1.306   3.981   3.118
 7403SOL    HW223109   1.268   3.977   2.960
 7404SOL     OW23110   1.443   0.469   1.484
 7404SOL    HW123111   1.462   0.373   1.466
 7404SOL    HW223112   1.427   0.516   1.397
 7405SOL     OW23113   3.109   5.119   6.124
 7405SOL    HW123114   3.081   5.023   6.124
 7405SOL    HW223115   3.208   5.125   6.116
 7406SOL     OW23116   0.865   4.600   2.192
 7406SOL    HW123117   0.965   4.602   2.180
 7406SOL    HW223118   0.831   4.508   2.174
 7407SOL     OW23119   1.282   6.344   6.442
 7407SOL    HW123120   1.295   6.253   6.481
 7407SOL    HW223121   1.246   6.405   6.512
 7408SOL     OW23122   1.643   4.443   5.941
 7408SOL    HW123123   1.603   4.533   5.920
 7408SOL    HW223124   1.725   4.430   5.885
 7409SOL     OW23125   1.953   6.106   5.095
 7409SOL    HW123126   2.037   6.110   5.150
 7409SOL    HW223127   1.876   6.135   5.151
 7410SOL     OW23128   0.139   5.419   1.329
 7410SOL    HW123129   0.139   5.343   1.263
 7410SOL    HW223130   0.062   5.409   1.391
 7411SOL     OW23131   3.287   5.881   4.932
 7411SOL    HW123132   3.282   5.811   5.004
 7411SOL    HW223133   3.206   5.940   4.938
 7412SOL     OW23134   1.341   1.698   0.505
 7412SOL    HW123135   1.324   1.786   0.461
 7412SOL    HW223136   1.389   1.713   0.592
 7413SOL     OW23137   5.940   4.156   5.017
 7413SOL    HW123138   6.002   4.082   4.992
 7413SOL    HW223139   5.886   4.129   5.097
 7414SOL     OW23140   6.864   6.930   2.175
 7414SOL    HW123141   6.955   6.896   2.153
 7414SOL    HW223142   6.807   6.927   2.093
 7415SOL     OW23143   1.713   3.015   3.611
 7415SOL    HW123144   1.620   2.990   3.640
 7415SOL    HW223145   1.762   3.054   3.689
 7416SOL     OW23146   3.694   1.370   3.953
 7416SOL    HW123147   3.599   1.361   3.984
 7416SOL    HW223148   3.749   1.295   3.991
 7417SOL     OW23149   1.165   6.598   0.339
 7417SOL    HW123150   1.135   6.548   0.258
 7417SOL    HW223151   1.090   6.653   0.374
 7418SOL     OW23152   2.199   3.481   1.160
 7418SOL    HW123153   2.152   3.410   1.108
 7418SOL    HW223154   2.288   3.501   1.117
 7419SOL     OW23155   6.082   1.018   4.967
 7419SOL    HW123156   6.143   1.063   5.033
 7419SOL    HW223157   6.106   0.922   4.959
 7420SOL     OW23158   6.624   5.538   1.885
 7420SOL    HW123159   6.672   5.608   1.832
 7420SOL    HW223160   6.650   5.448   1.853
 7421SOL     OW23161   3.808   3.987   1.352
 7421SOL    HW123162   3.876   4.039   1.404
 7421SOL    HW223163   3.851   3.905   1.314
 7422SOL     OW23164   0.024   3.016   0.351
 7422SOL    HW123165   7.009   2.927   0.383
 7422SOL    HW223166   6.997   3.089   0.402
 7423SOL     OW23167   1.539   5.100   6.346
 7423SOL    HW123168   1.528   5.192   6.310
 7423SOL    HW223169   1.630   5.091   6.387
 7424SOL     OW23170   5.460   0.647   4.292
 7424SOL    HW123171   5.513   0.731   4.309
 7424SOL    HW223172   5.481   0.612   4.201
 7425SOL     OW23173   3.525   5.364   6.262
 7425SOL    HW123174   3.617   5.327   6.262
 7425SOL    HW223175   3.486   5.357   6.170
 7426SOL     OW23176   1.340   1.034   6.571
 7426SOL    HW123177   1.363   1.097   6.644
 7426SOL    HW223178   1.331   1.084   6.485
 7427SOL     OW23179   4.028   5.150   4.897
 7427SOL    HW123180   4.055   5.147   4.800
 7427SOL    HW223181   3.971   5.230   4.912
 7428SOL     OW23182   3.231   2.435   5.911
 7428SOL    HW123183   3.175   2.389   5.980
 7428SOL    HW223184   3.273   2.517   5.950
 7429SOL     OW23185   0.119   0.329   2.802
 7429SOL    HW123186   0.112   0.399   2.731
 7429SOL    HW223187   0.052   0.257   2.786
 7430SOL     OW23188   6.190   4.046   5.315
 7430SOL    HW123189   6.136   4.121   5.277
 7430SOL    HW223190   6.144   3.959   5.296
 7431SOL     OW23191   0.160   4.230   2.073
 7431SOL    HW123192   0.193   4.228   2.168
 7431SOL    HW223193   0.234   4.199   2.013
 7432SOL     OW23194   6.953   6.606   4.327
 7432SOL    HW123195   6.982   6.696   4.295
 7432SOL    HW223196   6.863   6.613   4.369
 7433SOL     OW23197   6.270   5.489   0.748
 7433SOL    HW123198   6.199   5.447   0.690
 7433SOL    HW223199   6.254   5.465   0.843
 7434SOL     OW23200   3.332   1.420   6.534
 7434SOL    HW123201   3.267   1.351   6.503
 7434SOL    HW223202   3.305   1.510   6.499
 7435SOL     OW23203   2.686   6.367   0.247
 7435SOL    HW123204   2.721   6.455   0.214
 7435SOL    HW223205   2.606   6.382   0.305
 7436SOL     OW23206   4.842   3.287   0.127
 7436SOL    HW123207   4.813   3.207   0.074
 7436SOL    HW223208   4.767   3.353   0.131
 7437SOL     OW23209   0.578   5.666   5.800
 7437SOL    HW123210   0.653   5.699   5.857
 7437SOL    HW223211   0.531   5.591   5.847
 7438SOL     OW23212   6.791   4.648   1.718
 7438SOL    HW123213   6.869   4.588   1.735
 7438SOL    HW223214   6.706   4.599   1.736
 7439SOL     OW23215   1.836   6.740   3.557
 7439SOL    HW123216   1.802   6.778   3.471
 7439SOL    HW223217   1.912   6.679   3.539
 7440SOL     OW23218   1.193   2.448   4.134
 7440SOL    HW123219   1.178   2.375   4.068
 7440SOL    HW223220   1.289   2.450   4.160
 7441SOL     OW23221   5.642   1.403   4.054
 7441SOL    HW123222   5.631   1.419   3.956
 7441SOL    HW223223   5.644   1.304   4.072
 7442SOL     OW23224   1.068   0.662   6.452
 7442SOL    HW123225   1.126   0.593   6.496
 7442SOL    HW223226   1.022   0.717   6.522
 7443SOL     OW23227   0.585   0.855   6.550
 7443SOL    HW123228   0.574   0.954   6.558
 7443SOL    HW223229   0.640   0.833   6.469
 7444SOL     OW23230   0.802   3.173   6.535
 7444SOL    HW123231   0.780   3.136   6.625
 7444SOL    HW223232   0.888   3.132   6.503
 7445SOL     OW23233   5.191   1.532   2.024
 7445SOL    HW123234   5.230   1.473   2.094
 7445SOL    HW223235   5.111   1.488   1.983
 7446SOL     OW23236   6.711   4.040   1.335
 7446SOL    HW123237   6.631   4.099   1.336
 7446SOL    HW223238   6.685   3.949   1.368
 7447SOL     OW23239   1.345   3.940   6.454
 7447SOL    HW123240   1.249   3.952   6.429
 7447SOL    HW223241   1.397   4.021   6.427
 7448SOL     OW23242   6.382   0.249   6.213
 7448SOL    HW123243   6.421   0.265   6.122
 7448SOL    HW223244   6.331   0.330   6.241
 7449SOL     OW23245   5.550   2.106   2.078
 7449SOL    HW123246   5.570   2.008   2.089
 7449SOL    HW223247   5.525   2.145   2.167
 7450SOL     OW23248   4.825   2.128   2.511
 7450SOL    HW123249   4.879   2.209   2.490
 7450SOL    HW223250   4.769   2.145   2.593
 7451SOL     OW23251   1.815   0.883   5.019
 7451SOL    HW123252   1.793   0.963   5.075
 7451SOL    HW223253   1.876   0.823   5.069
 7452SOL     OW23254   1.838   6.684   4.721
 7452SOL    HW123255   1.784   6.673   4.804
 7452SOL    HW223256   1.784   6.658   4.641
 7453SOL     OW23257   5.554   6.137   4.296
 7453SOL    HW123258   5.502   6.069   4.348
 7453SOL    HW223259   5.546   6.226   4.341
 7454SOL     OW23260   0.722   3.463   1.486
 7454SOL    HW123261   0.700   3.381   1.433
 7454SOL    HW223262   0.679   3.543   1.443
 7455SOL     OW23263   4.753   2.656   0.257
 7455SOL    HW123264   4.821   2.583   0.269
 7455SOL    HW223265   4.731   2.695   0.346
 7456SOL     OW23266   1.661   3.321   4.519
 7456SOL    HW123267   1.695   3.404   4.563
 7456SOL    HW223268   1.561   3.321   4.521
 7457SOL     OW23269   6.296   0.677   5.512
 7457SOL    HW123270   6.230   0.658   5.585
 7457SOL    HW223271   6.385   0.637   5.535
 7458SOL     OW23272   2.844   0.854   0.425
 7458SOL    HW123273   2.916   0.845   0.494
 7458SOL    HW223274   2.833   0.767   0.377
 7459SOL     OW23275   4.724   0.511   5.030
 7459SOL    HW123276   4.745   0.540   4.936
 7459SOL    HW223277   4.627   0.491   5.037
 7460SOL     OW23278   0.426   4.240   0.565
 7460SOL    HW123279   0.342   4.215   0.613
 7460SOL    HW223280   0.419   4.212   0.469
 7461SOL     OW23281   5.403   1.043   5.071
 7461SOL    HW123282   5.304   1.042   5.060
 7461SOL    HW223283   5.444   0.977   5.008
 7462SOL     OW23284   2.275   1.831   2.542
 7462SOL    HW123285   2.370   1.831   2.572
 7462SOL    HW223286   2.270   1.803   2.446
 7463SOL     OW23287   3.992   3.863   2.128
 7463SOL    HW123288   4.058   3.937   2.115
 7463SOL    HW223289   3.905   3.889   2.085
 7464SOL     OW23290   5.168   5.939   0.757
 7464SOL    HW123291   5.178   5.840   0.760
 7464SOL    HW223292   5.242   5.979   0.703
 7465SOL     OW23293   2.741   0.204   2.047
 7465SOL    HW123294   2.683   0.272   2.001
 7465SOL    HW223295   2.837   0.228   2.033
 7466SOL     OW23296   0.338   0.501   7.000
 7466SOL    HW123297   0.303   0.474   0.072
 7466SOL    HW223298   0.270   0.558   6.954
 7467SOL     OW23299   0.228   1.672   0.999
 7467SOL    HW123300   0.256   1.577   0.986
 7467SOL    HW223301   0.142   1.676   1.050
 7468SOL     OW23302   5.300   1.425   2.884
 7468SOL    HW123303   5.276   1.472   2.799
 7468SOL    HW223304   5.389   1.382   2.875
 7469SOL     OW23305   1.125   0.941   0.562
 7469SOL    HW123306   1.216   0.909   0.589
 7469SOL    HW223307   1.059   0.866   0.569
 7470SOL     OW23308   0.142   2.071   2.231
 7470SOL    HW123309   0.092   2.113   2.156
 7470SOL    HW223310   0.120   2.118   2.316
 7471SOL     OW23311   6.355   6.449   5.819
 7471SOL    HW123312   6.268   6.468   5.774
 7471SOL    HW223313   6.375   6.352   5.814
 7472SOL     OW23314   3.732   0.459   4.090
 7472SOL    HW123315   3.698   0.367   4.110
 7472SOL    HW223316   3.801   0.455   4.019
 7473SOL     OW23317   6.326   3.836   4.362
 7473SOL    HW123318   6.406   3.881   4.322
 7473SOL    HW223319   6.335   3.737   4.352
 7474SOL     OW23320   3.750   1.234   3.683
 7474SOL    HW123321   3.742   1.262   3.588
 7474SOL    HW223322   3.680   1.279   3.737
 7475SOL     OW23323   3.860   0.660   1.205
 7475SOL    HW123324   3.765   0.687   1.222
 7475SOL    HW223325   3.899   0.719   1.134
 7476SOL     OW23326   3.835   6.197   4.146
 7476SOL    HW123327   3.872   6.285   4.116
 7476SOL    HW223328   3.866   6.178   4.239
 7477SOL     OW23329   4.191   1.016   3.908
 7477SOL    HW123330   4.156   1.025   3.814
 7477SOL    HW223331   4.159   1.094   3.962
 7478SOL     OW23332   2.167   4.303   0.198
 7478SOL    HW123333   2.070   4.327   0.189
 7478SOL    HW223334   2.176   4.218   0.249
 7479SOL     OW23335   4.699   0.653   0.026
 7479SOL    HW123336   4.600   0.649   0.017
 7479SOL    HW223337   4.741   0.671   6.955
 7480SOL     OW23338   6.599   6.089   1.392
 7480SOL    HW123339   6.642   6.035   1.464
 7480SOL    HW223340   6.594   6.034   1.308
 7481SOL     OW23341   5.656   4.577   0.384
 7481SOL    HW123342   5.733   4.517   0.406
 7481SOL    HW223343   5.605   4.598   0.467
 7482SOL     OW23344   4.727   1.006   2.679
 7482SOL    HW123345   4.768   1.058   2.754
 7482SOL    HW223346   4.631   0.988   2.700
 7483SOL     OW23347   3.687   1.090   4.576
 7483SOL    HW123348   3.724   1.182   4.588
 7483SOL    HW223349   3.606   1.079   4.633
 7484SOL     OW23350   2.168   6.537   2.429
 7484SOL    HW123351   2.220   6.599   2.370
 7484SOL    HW223352   2.168   6.445   2.389
 7485SOL     OW23353   2.933   5.646   6.188
 7485SOL    HW123354   2.874   5.712   6.141
 7485SOL    HW223355   2.877   5.570   6.221
 7486SOL     OW23356   3.316   6.002   5.494
 7486SOL    HW123357   3.291   5.939   5.421
 7486SOL    HW223358   3.325   6.094   5.458
 7487SOL     OW23359   3.058   5.901   3.699
 7487SOL    HW123360   2.959   5.891   3.707
 7487SOL    HW223361   3.090   5.849   3.620
 7488SOL     OW23362   3.344   6.965   6.027
 7488SOL    HW123363   3.362   0.011   5.952
 7488SOL    HW223364   3.325   6.875   5.990
 7489SOL     OW23365   4.613   2.689   4.315
 7489SOL    HW123366   4.692   2.743   4.344
 7489SOL    HW223367   4.575   2.640   4.394
 7490SOL     OW23368   5.929   1.041   1.049
 7490SOL    HW123369   5.963   1.076   0.961
 7490SOL    HW223370   5.934   1.113   1.117
 7491SOL     OW23371   6.657   5.611   6.218
 7491SOL    HW123372   6.597   5.592   6.296
 7491SOL    HW223373   6.751   5.621   6.251
 7492SOL     OW23374   1.873   2.672   5.048
 7492SOL    HW123375   1.858   2.631   5.137
 7492SOL    HW223376   1.918   2.606   4.988
 7493SOL     OW23377   5.569   3.445   6.592
 7493SOL    HW123378   5.533   3.519   6.649
 7493SOL    HW223379   5.665   3.463   6.571
 7494SOL     OW23380   5.331   0.303   2.073
 7494SOL    HW123381   5.393   0.226   2.056
 7494SOL    HW223382   5.283   0.326   1.989
 7495SOL     OW23383   2.133   1.637   0.768
 7495SOL    HW123384   2.139   1.554   0.712
 7495SOL    HW223385   2.070   1.701   0.725
 7496SOL     OW23386   1.093   5.022   6.423
 7496SOL    HW123387   1.010   4.990   6.469
 7496SOL    HW223388   1.163   5.043   6.491
 7497SOL     OW23389   1.685   4.370   2.364
 7497SOL    HW123390   1.734   4.388   2.449
 7497SOL    HW223391   1.750   4.367   2.288
 7498SOL     OW23392   3.333   1.801   4.737
 7498SOL    HW123393   3.250   1.754   4.765
 7498SOL    HW223394   3.323   1.899   4.754
 7499SOL     OW23395   5.618   6.873   4.596
 7499SOL    HW123396   5.566   6.885   4.681
 7499SOL    HW223397   5.667   6.786   4.598
 7500SOL     OW23398   4.607   6.095   1.925
 7500SOL    HW123399   4.639   6.051   1.840
 7500SOL    HW223400   4.602   6.027   1.998
 7501SOL     OW23401   0.791   3.959   3.599
 7501SOL    HW123402   0.857   3.897   3.641
 7501SOL    HW223403   0.740   4.006   3.671
 7502SOL     OW23404   2.445   0.770   4.822
 7502SOL    HW123405   2.420   0.690   4.767
 7502SOL    HW223406   2.543   0.769   4.840
 7503SOL     OW23407   2.979   1.000   0.078
 7503SOL    HW123408   2.912   0.933   0.045
 7503SOL    HW223409   2.964   1.088   0.034
 7504SOL     OW23410   4.075   6.853   3.302
 7504SOL    HW123411   4.091   6.946   3.269
 7504SOL    HW223412   4.115   6.843   3.393
 7505SOL     OW23413   1.983   1.382   5.009
 7505SOL    HW123414   2.050   1.320   5.049
 7505SOL    HW223415   1.933   1.429   5.082
 7506SOL     OW23416   3.577   0.605   2.546
 7506SOL    HW123417   3.581   0.576   2.641
 7506SOL    HW223418   3.609   0.531   2.487
 7507SOL     OW23419   1.013   6.387   5.723
 7507SOL    HW123420   1.074   6.450   5.771
 7507SOL    HW223421   0.939   6.439   5.679
 7508SOL     OW23422   5.756   6.995   2.882
 7508SOL    HW123423   5.713   6.905   2.881
 7508SOL    HW223424   5.716   0.033   2.808
 7509SOL     OW23425   4.863   3.308   6.046
 7509SOL    HW123426   4.831   3.403   6.052
 7509SOL    HW223427   4.848   3.274   5.954
 7510SOL     OW23428   3.465   4.185   5.040
 7510SOL    HW123429   3.510   4.207   5.127
 7510SOL    HW223430   3.510   4.106   4.999
 7511SOL     OW23431   1.672   0.115   2.219
 7511SOL    HW123432   1.718   0.123   2.131
 7511SOL    HW223433   1.741   0.107   2.291
 7512SOL     OW23434   2.820   3.235   1.805
 7512SOL    HW123435   2.734   3.287   1.801
 7512SOL    HW223436   2.855   3.235   1.898
 7513SOL     OW23437   1.495   1.837   6.395
 7513SOL    HW123438   1.547   1.793   6.469
 7513SOL    HW223439   1.548   1.834   6.310
 7514SOL     OW23440   2.805   5.822   2.314
 7514SOL    HW123441   2.884   5.762   2.300
 7514SOL    HW223442   2.786   5.872   2.230
 7515SOL     OW23443   6.761   6.949   2.905
 7515SOL    HW123444   6.685   6.940   2.840
 7515SOL    HW223445   6.728   6.928   2.997
 7516SOL     OW23446   0.414   1.042   4.110
 7516SOL    HW123447   0.506   1.068   4.080
 7516SOL    HW223448   0.419   1.002   4.201
 7517SOL     OW23449   0.219   3.585   0.641
 7517SOL    HW123450   0.266   3.670   0.665
 7517SOL    HW223451   0.277   3.530   0.581
 7518SOL     OW23452   4.384   5.469   4.095
 7518SOL    HW123453   4.390   5.436   4.189
 7518SOL    HW223454   4.378   5.569   4.096
 7519SOL     OW23455   1.346   6.039   4.692
 7519SOL    HW123456   1.403   6.104   4.742
 7519SOL    HW223457   1.275   6.003   4.752
 7520SOL     OW23458   1.095   6.658   3.967
 7520SOL    HW123459   1.127   6.645   3.873
 7520SOL    HW223460   0.998   6.635   3.973
 7521SOL     OW23461   4.729   4.181   4.836
 7521SOL    HW123462   4.790   4.104   4.854
 7521SOL    HW223463   4.653   4.180   4.901
 7522SOL     OW23464   2.161   0.980   0.609
 7522SOL    HW123465   2.237   0.951   0.551
 7522SOL    HW223466   2.191   1.055   0.667
 7523SOL     OW23467   6.014   0.062   6.123
 7523SOL    HW123468   6.075   0.087   6.048
 7523SOL    HW223469   6.067   0.030   6.201
 7524SOL     OW23470   0.296   1.867   5.453
 7524SOL    HW123471   0.216   1.912   5.493
 7524SOL    HW223472   0.379   1.915   5.481
 7525SOL     OW23473   1.439   0.642   0.006
 7525SOL    HW123474   1.532   0.681   0.006
 7525SOL    HW223475   1.414   0.615   0.098
 7526SOL     OW23476   3.715   2.948   4.381
 7526SOL    HW123477   3.811   2.970   4.395
 7526SOL    HW223478   3.702   2.914   4.287
 7527SOL     OW23479   5.240   4.183   2.573
 7527SOL    HW123480   5.328   4.178   2.619
 7527SOL    HW223481   5.181   4.109   2.606
 7528SOL     OW23482   4.702   2.851   0.028
 7528SOL    HW123483   4.703   2.823   0.124
 7528SOL    HW223484   4.689   2.770   6.989
 7529SOL     OW23485   4.030   1.140   4.757
 7529SOL    HW123486   4.011   1.127   4.659
 7529SOL    HW223487   4.028   1.051   4.803
 7530SOL     OW23488   0.027   4.138   2.459
 7530SOL    HW123489   7.000   4.095   2.538
 7530SOL    HW223490   0.124   4.151   2.479
 7531SOL     OW23491   4.250   1.970   3.609
 7531SOL    HW123492   4.337   1.961   3.657
 7531SOL    HW223493   4.192   1.891   3.627
 7532SOL     OW23494   5.271   5.673   2.071
 7532SOL    HW123495   5.206   5.598   2.058
 7532SOL    HW223496   5.352   5.657   2.013
 7533SOL     OW23497   3.396   1.231   4.612
 7533SOL    HW123498   3.368   1.170   4.539
 7533SOL    HW223499   3.468   1.293   4.579
 7534SOL     OW23500   3.968   6.176   5.290
 7534SOL    HW123501   3.892   6.137   5.239
 7534SOL    HW223502   3.933   6.225   5.370
 7535SOL     OW23503   2.863   2.344   5.579
 7535SOL    HW123504   2.948   2.394   5.597
 7535SOL    HW223505   2.864   2.258   5.630
 7536SOL     OW23506   4.272   5.484   4.595
 7536SOL    HW123507   4.239   5.421   4.665
 7536SOL    HW223508   4.227   5.573   4.607
 7537SOL     OW23509   2.171   5.045   5.528
 7537SOL    HW123510   2.205   5.037   5.622
 7537SOL    HW223511   2.080   5.004   5.522
 7538SOL     OW23512   2.990   3.206   2.920
 7538SOL    HW123513   3.035   3.133   2.869
 7538SOL    HW223514   3.002   3.192   3.018
 7539SOL     OW23515   1.910   2.925   5.153
 7539SOL    HW123516   1.894   2.848   5.091
 7539SOL    HW223517   2.002   2.961   5.138
 7540SOL     OW23518   3.000   1.540   6.613
 7540SOL    HW123519   2.918   1.596   6.608
 7540SOL    HW223520   3.049   1.560   6.697
 7541SOL     OW23521   6.124   2.030   4.923
 7541SOL    HW123522   6.133   2.129   4.927
 7541SOL    HW223523   6.149   1.997   4.832
 7542SOL     OW23524   1.287   6.940   5.769
 7542SOL    HW123525   1.331   6.926   5.681
 7542SOL    HW223526   1.319   6.870   5.834
 7543SOL     OW23527   3.835   3.444   0.613
 7543SOL    HW123528   3.922   3.423   0.657
 7543SOL    HW223529   3.851   3.494   0.528
 7544SOL     OW23530   1.758   2.399   3.184
 7544SOL    HW123531   1.846   2.406   3.233
 7544SOL    HW223532   1.776   2.397   3.085
 7545SOL     OW23533   5.061   6.666   3.555
 7545SOL    HW123534   5.121   6.600   3.600
 7545SOL    HW223535   4.970   6.626   3.544
 7546SOL     OW23536   5.128   0.205   0.059
 7546SOL    HW123537   5.124   0.283   7.014
 7546SOL    HW223538   5.121   0.120   0.008
 7547SOL     OW23539   3.677   0.517   0.271
 7547SOL    HW123540   3.626   0.587   0.320
 7547SOL    HW223541   3.615   0.443   0.244
 7548SOL     OW23542   2.664   2.268   1.595
 7548SOL    HW123543   2.585   2.319   1.562
 7548SOL    HW223544   2.746   2.323   1.584
 7549SOL     OW23545   5.309   1.885   2.687
 7549SOL    HW123546   5.270   1.977   2.682
 7549SOL    HW223547   5.405   1.891   2.716
 7550SOL     OW23548   1.832   6.347   2.832
 7550SOL    HW123549   1.787   6.431   2.802
 7550SOL    HW223550   1.888   6.311   2.758
 7551SOL     OW23551   4.527   3.289   6.845
 7551SOL    HW123552   4.438   3.273   6.888
 7551SOL    HW223553   4.567   3.201   6.818
 7552SOL     OW23554   2.437   5.284   4.224
 7552SOL    HW123555   2.387   5.316   4.305
 7552SOL    HW223556   2.503   5.353   4.196
 7553SOL     OW23557   3.767   5.828   6.123
 7553SOL    HW123558   3.773   5.928   6.127
 7553SOL    HW223559   3.712   5.801   6.044
 7554SOL     OW23560   5.297   1.383   0.393
 7554SOL    HW123561   5.340   1.325   0.463
 7554SOL    HW223562   5.220   1.432   0.434
 7555SOL     OW23563   0.136   6.259   4.844
 7555SOL    HW123564   0.172   6.202   4.918
 7555SOL    HW223565   0.194   6.247   4.763
 7556SOL     OW23566   0.593   2.881   4.731
 7556SOL    HW123567   0.609   2.903   4.827
 7556SOL    HW223568   0.680   2.873   4.683
 7557SOL     OW23569   5.303   4.210   6.295
 7557SOL    HW123570   5.339   4.295   6.334
 7557SOL    HW223571   5.334   4.132   6.351
 7558SOL     OW23572   2.124   3.279   3.300
 7558SOL    HW123573   2.142   3.184   3.324
 7558SOL    HW223574   2.052   3.283   3.231
 7559SOL     OW23575   0.590   4.920   1.004
 7559SOL    HW123576   0.494   4.909   1.029
 7559SOL    HW223577   0.636   4.831   1.004
 7560SOL     OW23578   5.676   6.543   0.808
 7560SOL    HW123579   5.754   6.509   0.755
 7560SOL    HW223580   5.630   6.615   0.757
 7561SOL     OW23581   6.671   3.701   0.229
 7561SOL    HW123582   6.709   3.670   0.316
 7561SOL    HW223583   6.574   3.720   0.239
 7562SOL     OW23584   5.301   6.346   5.567
 7562SOL    HW123585   5.303   6.366   5.665
 7562SOL    HW223586   5.337   6.425   5.517
 7563SOL     OW23587   2.914   0.704   1.998
 7563SOL    HW123588   2.831   0.648   1.995
 7563SOL    HW223589   2.915   0.767   1.920
 7564SOL     OW23590   4.840   0.428   3.001
 7564SOL    HW123591   4.928   0.397   2.965
 7564SOL    HW223592   4.766   0.383   2.951
 7565SOL     OW23593   4.685   5.126   6.944
 7565SOL    HW123594   4.664   5.220   6.917
 7565SOL    HW223595   4.762   5.127   7.008
 7566SOL     OW23596   0.399   5.945   4.568
 7566SOL    HW123597   0.468   5.973   4.502
 7566SOL    HW223598   0.384   5.847   4.563
 7567SOL     OW23599   2.757   4.765   6.222
 7567SOL    HW123600   2.697   4.699   6.266
 7567SOL    HW223601   2.750   4.853   6.270
 7568SOL     OW23602   5.239   5.881   2.974
 7568SOL    HW123603   5.281   5.857   2.887
 7568SOL    HW223604   5.210   5.976   2.972
 7569SOL     OW23605   3.901   5.780   6.855
 7569SOL    HW123606   3.885   5.764   6.758
 7569SOL    HW223607   3.868   5.702   6.908
 7570SOL     OW23608   5.596   5.230   3.851
 7570SOL    HW123609   5.652   5.286   3.790
 7570SOL    HW223610   5.656   5.171   3.906
 7571SOL     OW23611   5.854   3.913   1.078
 7571SOL    HW123612   5.861   3.818   1.109
 7571SOL    HW223613   5.758   3.935   1.062
 7572SOL     OW23614   3.805   1.074   4.319
 7572SOL    HW123615   3.825   0.981   4.289
 7572SOL    HW223616   3.790   1.075   4.418
 7573SOL     OW23617   0.200   6.259   4.567
 7573SOL    HW123618   0.260   6.199   4.514
 7573SOL    HW223619   0.118   6.280   4.513
 7574SOL     OW23620   5.336   0.106   3.206
 7574SOL    HW123621   5.378   0.114   3.296
 7574SOL    HW223622   5.250   0.157   3.205
 7575SOL     OW23623   3.999   1.407   5.381
 7575SOL    HW123624   3.911   1.381   5.419
 7575SOL    HW223625   4.015   1.504   5.398
 7576SOL     OW23626   6.397   3.706   0.214
 7576SOL    HW123627   6.340   3.762   0.154
 7576SOL    HW223628   6.338   3.656   0.278
 7577SOL     OW23629   6.560   0.958   5.033
 7577SOL    HW123630   6.637   0.912   4.989
 7577SOL    HW223631   6.522   0.899   5.103
 7578SOL     OW23632   2.166   5.878   4.911
 7578SOL    HW123633   2.164   5.951   4.843
 7578SOL    HW223634   2.254   5.878   4.957
 7579SOL     OW23635   3.711   1.709   2.777
 7579SOL    HW123636   3.745   1.790   2.728
 7579SOL    HW223637   3.736   1.715   2.873
 7580SOL     OW23638   1.689   4.182   3.010
 7580SOL    HW123639   1.596   4.190   2.974
 7580SOL    HW223640   1.735   4.105   2.965
 7581SOL     OW23641   5.029   1.592   1.029
 7581SOL    HW123642   5.048   1.497   1.057
 7581SOL    HW223643   5.061   1.606   0.935
 7582SOL     OW23644   3.310   1.523   1.221
 7582SOL    HW123645   3.220   1.553   1.189
 7582SOL    HW223646   3.363   1.603   1.252
 7583SOL     OW23647   5.901   3.336   1.882
 7583SOL    HW123648   5.968   3.411   1.885
 7583SOL    HW223649   5.929   3.264   1.946
 7584SOL     OW23650   2.767   6.732   1.264
 7584SOL    HW123651   2.761   6.684   1.351
 7584SOL    HW223652   2.805   6.824   1.279
 7585SOL     OW23653   1.632   4.823   6.607
 7585SOL    HW123654   1.593   4.914   6.613
 7585SOL    HW223655   1.573   4.765   6.550
 7586SOL     OW23656   2.698   0.198   2.856
 7586SOL    HW123657   2.770   0.216   2.923
 7586SOL    HW223658   2.666   0.104   2.864
 7587SOL     OW23659   0.767   1.531   6.461
 7587SOL    HW123660   0.685   1.574   6.498
 7587SOL    HW223661   0.764   1.534   6.361
 7588SOL     OW23662   0.322   4.985   2.873
 7588SOL    HW123663   0.318   5.074   2.918
 7588SOL    HW223664   0.415   4.969   2.840
 7589SOL     OW23665   6.085   5.842   0.640
 7589SOL    HW123666   6.067   5.933   0.604
 7589SOL    HW223667   5.999   5.794   0.653
 7590SOL     OW23668   2.628   1.841   5.736
 7590SOL    HW123669   2.570   1.766   5.704
 7590SOL    HW223670   2.600   1.868   5.827
 7591SOL     OW23671   0.064   4.943   6.870
 7591SOL    HW123672   0.031   5.037   6.876
 7591SOL    HW223673   7.006   4.880   6.883
 7592SOL     OW23674   6.749   5.001   6.845
 7592SOL    HW123675   6.725   4.963   6.756
 7592SOL    HW223676   6.782   5.095   6.833
 7593SOL     OW23677   4.765   2.282   6.605
 7593SOL    HW123678   4.697   2.215   6.635
 7593SOL    HW223679   4.843   2.281   6.668
 7594SOL     OW23680   0.818   6.222   3.951
 7594SOL    HW123681   0.890   6.291   3.954
 7594SOL    HW223682   0.860   6.131   3.941
 7595SOL     OW23683   7.003   3.172   6.437
 7595SOL    HW123684   6.917   3.134   6.401
 7595SOL    HW223685   0.061   3.115   6.408
 7596SOL     OW23686   5.045   4.328   2.136
 7596SOL    HW123687   5.074   4.234   2.116
 7596SOL    HW223688   4.950   4.341   2.106
 7597SOL     OW23689   3.296   5.149   1.540
 7597SOL    HW123690   3.236   5.222   1.507
 7597SOL    HW223691   3.289   5.070   1.480
 7598SOL     OW23692   6.914   0.145   2.795
 7598SOL    HW123693   6.879   0.210   2.726
 7598SOL    HW223694   6.850   0.069   2.804
 7599SOL     OW23695   6.183   1.772   3.736
 7599SOL    HW123696   6.227   1.855   3.770
 7599SOL    HW223697   6.253   1.709   3.702
 7600SOL     OW23698   1.573   0.620   2.217
 7600SOL    HW123699   1.563   0.528   2.178
 7600SOL    HW223700   1.559   0.616   2.316
 7601SOL     OW23701   1.685   6.078   4.136
 7601SOL    HW123702   1.712   6.086   4.232
 7601SOL    HW223703   1.646   5.988   4.119
 7602SOL     OW23704   1.381   4.204   4.622
 7602SOL    HW123705   1.446   4.261   4.673
 7602SOL    HW223706   1.294   4.253   4.613
 7603SOL     OW23707   0.942   6.027   0.550
 7603SOL    HW123708   0.935   6.004   0.453
 7603SOL    HW223709   1.023   6.082   0.566
 7604SOL     OW23710   3.852   6.144   4.921
 7604SOL    HW123711   3.868   6.078   4.848
 7604SOL    HW223712   3.850   6.097   5.009
 7605SOL     OW23713   0.526   4.628   6.953
 7605SOL    HW123714   0.506   4.568   0.013
 7605SOL    HW223715   0.451   4.693   6.942
 7606SOL     OW23716   6.826   2.749   2.492
 7606SOL    HW123717   6.923   2.730   2.472
 7606SOL    HW223718   6.784   2.669   2.535
 7607SOL     OW23719   5.135   6.874   6.627
 7607SOL    HW123720   5.070   6.931   6.577
 7607SOL    HW223721   5.118   6.778   6.607
 7608SOL     OW23722   2.875   3.408   3.914
 7608SOL    HW123723   2.879   3.376   3.820
 7608SOL    HW223724   2.885   3.507   3.916
 7609SOL     OW23725   0.713   3.724   3.839
 7609SOL    HW123726   0.703   3.782   3.921
 7609SOL    HW223727   0.784   3.762   3.780
 7610SOL     OW23728   5.447   0.271   0.874
 7610SOL    HW123729   5.455   0.189   0.931
 7610SOL    HW223730   5.519   0.336   0.898
 7611SOL     OW23731   1.148   2.001   0.148
 7611SOL    HW123732   1.136   2.100   0.135
 7611SOL    HW223733   1.116   1.953   0.067
 7612SOL     OW23734   4.197   1.641   4.290
 7612SOL    HW123735   4.148   1.712   4.239
 7612SOL    HW223736   4.277   1.682   4.335
 7613SOL     OW23737   4.802   1.144   1.759
 7613SOL    HW123738   4.871   1.165   1.690
 7613SOL    HW223739   4.731   1.215   1.758
 7614SOL     OW23740   3.681   1.764   1.441
 7614SOL    HW123741   3.655   1.840   1.382
 7614SOL    HW223742   3.671   1.790   1.537
 7615SOL     OW23743   3.931   5.414   6.497
 7615SOL    HW123744   3.966   5.504   6.525
 7615SOL    HW223745   3.905   5.362   6.578
 7616SOL     OW23746   7.005   4.045   3.636
 7616SOL    HW123747   0.081   4.021   3.658
 7616SOL    HW223748   6.944   3.973   3.670
 7617SOL     OW23749   3.065   5.286   3.591
 7617SOL    HW123750   3.132   5.272   3.664
 7617SOL    HW223751   3.104   5.262   3.503
 7618SOL     OW23752   1.488   2.751   6.850
 7618SOL    HW123753   1.528   2.744   6.759
 7618SOL    HW223754   1.504   2.843   6.887
 7619SOL     OW23755   6.011   3.219   5.428
 7619SOL    HW123756   6.091   3.230   5.369
 7619SOL    HW223757   5.965   3.133   5.407
 7620SOL     OW23758   4.063   0.004   0.442
 7620SOL    HW123759   4.032   0.014   0.537
 7620SOL    HW223760   4.005   6.955   0.395
 7621SOL     OW23761   2.052   1.014   0.999
 7621SOL    HW123762   2.037   1.072   1.079
 7621SOL    HW223763   2.142   1.032   0.960
 7622SOL     OW23764   4.262   3.037   0.864
 7622SOL    HW123765   4.305   2.949   0.845
 7622SOL    HW223766   4.219   3.035   0.955
 7623SOL     OW23767   4.369   6.128   6.590
 7623SOL    HW123768   4.308   6.195   6.632
 7623SOL    HW223769   4.460   6.136   6.630
 7624SOL     OW23770   0.658   1.747   3.277
 7624SOL    HW123771   0.615   1.832   3.307
 7624SOL    HW223772   0.609   1.711   3.198
 7625SOL     OW23773   5.325   0.437   1.124
 7625SOL    HW123774   5.309   0.376   1.201
 7625SOL    HW223775   5.238   0.479   1.097
 7626SOL     OW23776   1.358   6.607   4.863
 7626SOL    HW123777   1.375   6.546   4.940
 7626SOL    HW223778   1.300   6.560   4.796
 7627SOL     OW23779   6.367   3.152   0.985
 7627SOL    HW123780   6.289   3.214   0.989
 7627SOL    HW223781   6.444   3.190   1.036
 7628SOL     OW23782   2.852   1.086   1.198
 7628SOL    HW123783   2.770   1.127   1.239
 7628SOL    HW223784   2.901   1.154   1.144
 7629SOL     OW23785   6.800   5.858   2.498
 7629SOL    HW123786   6.837   5.770   2.529
 7629SOL    HW223787   6.711   5.843   2.455
 7630SOL     OW23788   6.309   0.259   2.232
 7630SOL    HW123789   6.384   0.314   2.270
 7630SOL    HW223790   6.302   0.174   2.284
 7631SOL     OW23791   0.709   1.994   4.902
 7631SOL    HW123792   0.766   1.914   4.918
 7631SOL    HW223793   0.767   2.076   4.902
 7632SOL     OW23794   4.286   2.207   0.820
 7632SOL    HW123795   4.233   2.172   0.743
 7632SOL    HW223796   4.291   2.138   0.891
 7633SOL     OW23797   5.600   3.217   6.723
 7633SOL    HW123798   5.502   3.200   6.736
 7633SOL    HW223799   5.612   3.300   6.668
 7634SOL     OW23800   1.847   0.777   2.355
 7634SOL    HW123801   1.931   0.823   2.327
 7634SOL    HW223802   1.769   0.838   2.342
 7635SOL     OW23803   2.408   5.466   6.130
 7635SOL    HW123804   2.449   5.478   6.221
 7635SOL    HW223805   2.322   5.415   6.139
 7636SOL     OW23806   1.350   1.156   4.113
 7636SOL    HW123807   1.302   1.117   4.034
 7636SOL    HW223808   1.364   1.254   4.099
 7637SOL     OW23809   1.196   0.061   4.202
 7637SOL    HW123810   1.114   0.090   4.251
 7637SOL    HW223811   1.210   6.981   4.215
 7638SOL     OW23812   5.269   5.422   1.989
 7638SOL    HW123813   5.353   5.368   1.999
 7638SOL    HW223814   5.247   5.433   1.893
 7639SOL     OW23815   0.967   1.712   5.692
 7639SOL    HW123816   0.982   1.745   5.786
 7639SOL    HW223817   1.054   1.711   5.643
 7640SOL     OW23818   2.395   2.282   0.908
 7640SOL    HW123819   2.480   2.264   0.957
 7640SOL    HW223820   2.318   2.279   0.971
 7641SOL     OW23821   6.607   4.307   2.386
 7641SOL    HW123822   6.666   4.332   2.462
 7641SOL    HW223823   6.624   4.211   2.360
 7642SOL     OW23824   2.573   1.954   2.531
 7642SOL    HW123825   2.585   1.978   2.435
 7642SOL    HW223826   2.598   1.859   2.546
 7643SOL     OW23827   4.563   2.531   2.804
 7643SOL    HW123828   4.487   2.466   2.811
 7643SOL    HW223829   4.581   2.551   2.708
 7644SOL     OW23830   0.432   2.834   3.328
 7644SOL    HW123831   0.468   2.827   3.235
 7644SOL    HW223832   0.335   2.858   3.324
 7645SOL     OW23833   4.497   4.698   0.070
 7645SOL    HW123834   4.449   4.649   7.015
 7645SOL    HW223835   4.595   4.687   0.058
 7646SOL     OW23836   2.353   2.010   2.157
 7646SOL    HW123837   2.290   2.020   2.080
 7646SOL    HW223838   2.315   1.945   2.223
 7647SOL     OW23839   2.004   3.696   1.739
 7647SOL    HW123840   1.935   3.660   1.676
 7647SOL    HW223841   2.000   3.646   1.825
 7648SOL     OW23842   4.323   1.618   3.726
 7648SOL    HW123843   4.416   1.636   3.695
 7648SOL    HW223844   4.298   1.682   3.798
 7649SOL     OW23845   2.280   0.703   2.291
 7649SOL    HW123846   2.271   0.711   2.390
 7649SOL    HW223847   2.375   0.682   2.267
 7650SOL     OW23848   7.002   3.769   2.205
 7650SOL    HW123849   6.978   3.861   2.237
 7650SOL    HW223850   0.069   3.773   2.153
 7651SOL     OW23851   3.070   6.986   6.869
 7651SOL    HW123852   3.137   6.952   6.935
 7651SOL    HW223853   3.037   6.911   6.813
 7652SOL     OW23854   6.609   3.576   3.508
 7652SOL    HW123855   6.612   3.641   3.432
 7652SOL    HW223856   6.518   3.578   3.550
 7653SOL     OW23857   2.421   1.854   1.246
 7653SOL    HW123858   2.441   1.756   1.244
 7653SOL    HW223859   2.448   1.891   1.335
 7654SOL     OW23860   4.831   2.988   3.893
 7654SOL    HW123861   4.909   3.017   3.837
 7654SOL    HW223862   4.788   2.908   3.850
 7655SOL     OW23863   3.076   6.984   4.827
 7655SOL    HW123864   3.081   7.003   4.729
 7655SOL    HW223865   3.032   6.895   4.841
 7656SOL     OW23866   6.865   6.208   5.043
 7656SOL    HW123867   6.789   6.148   5.066
 7656SOL    HW223868   6.951   6.167   5.073
 7657SOL     OW23869   2.761   2.350   3.726
 7657SOL    HW123870   2.712   2.402   3.796
 7657SOL    HW223871   2.699   2.326   3.652
 7658SOL     OW23872   4.702   0.709   5.888
 7658SOL    HW123873   4.638   0.777   5.924
 7658SOL    HW223874   4.691   0.702   5.789
 7659SOL     OW23875   6.650   0.081   0.810
 7659SOL    HW123876   6.734   0.111   0.764
 7659SOL    HW223877   6.669   0.064   0.907
 7660SOL     OW23878   5.349   5.397   2.664
 7660SOL    HW123879   5.328   5.484   2.618
 7660SOL    HW223880   5.351   5.412   2.763
 7661SOL     OW23881   6.145   2.668   4.100
 7661SOL    HW123882   6.062   2.714   4.069
 7661SOL    HW223883   6.179   2.713   4.183
 7662SOL     OW23884   1.535   3.526   2.289
 7662SOL    HW123885   1.449   3.497   2.331
 7662SOL    HW223886   1.608   3.525   2.358
 7663SOL     OW23887   0.826   5.360   6.293
 7663SOL    HW123888   0.809   5.269   6.331
 7663SOL    HW223889   0.923   5.369   6.272
 7664SOL     OW23890   2.555   6.485   3.416
 7664SOL    HW123891   2.456   6.481   3.433
 7664SOL    HW223892   2.598   6.547   3.481
 7665SOL     OW23893   2.894   0.939   4.468
 7665SOL    HW123894   2.821   0.933   4.536
 7665SOL    HW223895   2.895   0.857   4.412
 7666SOL     OW23896   0.904   0.116   1.171
 7666SOL    HW123897   0.817   0.068   1.176
 7666SOL    HW223898   0.925   0.157   1.260
 7667SOL     OW23899   5.006   6.552   6.892
 7667SOL    HW123900   4.964   6.636   6.856
 7667SOL    HW223901   5.066   6.574   6.968
 7668SOL     OW23902   3.554   4.525   1.213
 7668SOL    HW123903   3.523   4.517   1.308
 7668SOL    HW223904   3.646   4.488   1.205
 7669SOL     OW23905   4.856   0.036   3.790
 7669SOL    HW123906   4.898   0.110   3.844
 7669SOL    HW223907   4.779   0.072   3.738
 7670SOL     OW23908   1.199   5.629   0.183
 7670SOL    HW123909   1.293   5.662   0.189
 7670SOL    HW223910   1.166   5.606   0.275
 7671SOL     OW23911   5.428   1.130   4.798
 7671SOL    HW123912   5.365   1.052   4.802
 7671SOL    HW223913   5.461   1.150   4.890
 7672SOL     OW23914   5.694   0.410   4.046
 7672SOL    HW123915   5.623   0.474   4.017
 7672SOL    HW223916   5.685   0.325   3.995
 7673SOL     OW23917   0.896   4.925   1.145
 7673SOL    HW123918   0.973   4.914   1.208
 7673SOL    HW223919   0.839   4.844   1.147
 7674SOL     OW23920   6.496   2.037   4.281
 7674SOL    HW123921   6.537   1.954   4.243
 7674SOL    HW223922   6.536   2.117   4.237
 7675SOL     OW23923   4.600   0.254   1.966
 7675SOL    HW123924   4.610   0.176   1.905
 7675SOL    HW223925   4.670   0.323   1.944
 7676SOL     OW23926   1.373   0.758   6.592
 7676SOL    HW123927   1.350   0.852   6.565
 7676SOL    HW223928   1.331   0.737   6.680
 7677SOL     OW23929   2.085   3.449   2.516
 7677SOL    HW123930   1.985   3.445   2.518
 7677SOL    HW223931   2.117   3.423   2.425
 7678SOL     OW23932   0.878   0.868   0.168
 7678SOL    HW123933   0.918   0.942   0.222
 7678SOL    HW223934   0.947   0.799   0.149
 7679SOL     OW23935   0.960   5.409   4.709
 7679SOL    HW123936   0.868   5.414   4.671
 7679SOL    HW223937   0.980   5.491   4.762
 7680SOL     OW23938   3.353   3.532   6.608
 7680SOL    HW123939   3.256   3.556   6.607
 7680SOL    HW223940   3.405   3.608   6.645
 7681SOL     OW23941   2.365   1.785   0.088
 7681SOL    HW123942   2.456   1.825   0.087
 7681SOL    HW223943   2.320   1.807   0.175
 7682SOL     OW23944   3.238   0.079   1.550
 7682SOL    HW123945   3.283   0.077   1.460
 7682SOL    HW223946   3.185   7.013   1.562
 7683SOL     OW23947   6.114   1.877   2.925
 7683SOL    HW123948   6.100   1.961   2.979
 7683SOL    HW223949   6.141   1.902   2.832
 7684SOL     OW23950   4.909   2.050   6.101
 7684SOL    HW123951   4.961   1.964   6.106
 7684SOL    HW223952   4.859   2.054   6.014
 7685SOL     OW23953   3.452   3.004   0.903
 7685SOL    HW123954   3.391   2.925   0.903
 7685SOL    HW223955   3.499   3.009   0.815
 7686SOL     OW23956   4.622   6.829   3.406
 7686SOL    HW123957   4.580   6.759   3.464
 7686SOL    HW223958   4.685   6.885   3.461
 7687SOL     OW23959   5.267   5.050   5.492
 7687SOL    HW123960   5.172   5.079   5.506
 7687SOL    HW223961   5.275   4.952   5.509
 7688SOL     OW23962   6.929   6.838   5.082
 7688SOL    HW123963   6.835   6.804   5.084
 7688SOL    HW223964   6.961   6.842   4.987
 7689SOL     OW23965   4.454   6.124   4.568
 7689SOL    HW123966   4.435   6.076   4.654
 7689SOL    HW223967   4.517   6.070   4.513
 7690SOL     OW23968   5.489   4.153   2.695
 7690SOL    HW123969   5.571   4.195   2.657
 7690SOL    HW223970   5.506   4.127   2.790
 7691SOL     OW23971   4.998   2.463   3.885
 7691SOL    HW123972   5.061   2.535   3.917
 7691SOL    HW223973   5.046   2.404   3.819
 7692SOL     OW23974   1.701   6.159   1.777
 7692SOL    HW123975   1.673   6.247   1.815
 7692SOL    HW223976   1.780   6.124   1.828
 7693SOL     OW23977   4.045   1.152   5.836
 7693SOL    HW123978   4.075   1.238   5.793
 7693SOL    HW223979   4.014   1.171   5.929
 7694SOL     OW23980   0.068   4.779   4.121
 7694SOL    HW123981   0.010   4.768   4.202
 7694SOL    HW223982   0.063   4.874   4.090
 7695SOL     OW23983   4.461   0.164   0.766
 7695SOL    HW123984   4.470   0.259   0.793
 7695SOL    HW223985   4.421   0.159   0.674
 7696SOL     OW23986   0.225   2.186   4.261
 7696SOL    HW123987   0.178   2.112   4.213
 7696SOL    HW223988   0.158   2.254   4.291
 7697SOL     OW23989   2.214   1.648   3.564
 7697SOL    HW123990   2.299   1.600   3.540
 7697SOL    HW223991   2.226   1.746   3.549
 7698SOL     OW23992   6.866   2.773   4.529
 7698SOL    HW123993   6.802   2.702   4.558
 7698SOL    HW223994   6.925   2.798   4.605
 7699SOL     OW23995   2.679   5.778   0.778
 7699SOL    HW123996   2.694   5.864   0.828
 7699SOL    HW223997   2.766   5.731   0.764
 7700SOL     OW23998   4.883   6.668   5.062
 7700SOL    HW123999   4.843   6.710   4.980
 7700SOL    HW224000   4.925   6.581   5.037
 7701SOL     OW24001   0.290   1.021   5.294
 7701SOL    HW124002   0.333   1.015   5.384
 7701SOL    HW224003   0.245   1.109   5.284
 7702SOL     OW24004   3.145   6.155   5.719
 7702SOL    HW124005   3.076   6.111   5.663
 7702SOL    HW224006   3.234   6.152   5.672
 7703SOL     OW24007   0.410   1.394   5.505
 7703SOL    HW124008   0.331   1.348   5.544
 7703SOL    HW224009   0.392   1.413   5.408
 7704SOL     OW24010   4.390   4.559   6.861
 7704SOL    HW124011   4.457   4.492   6.829
 7704SOL    HW224012   4.303   4.513   6.879
 7705SOL     OW24013   3.889   5.122   5.297
 7705SOL    HW124014   3.895   5.056   5.222
 7705SOL    HW224015   3.971   5.178   5.300
 7706SOL     OW24016   6.363   0.332   5.373
 7706SOL    HW124017   6.318   0.397   5.312
 7706SOL    HW224018   6.325   0.339   5.465
 7707SOL     OW24019   6.916   5.646   6.309
 7707SOL    HW124020   6.978   5.569   6.321
 7707SOL    HW224021   6.906   5.695   6.395
 7708SOL     OW24022   4.582   6.351   4.197
 7708SOL    HW124023   4.580   6.296   4.114
 7708SOL    HW224024   4.601   6.447   4.174
 7709SOL     OW24025   4.662   2.660   1.736
 7709SOL    HW124026   4.606   2.712   1.672
 7709SOL    HW224027   4.693   2.719   1.810
 7710SOL     OW24028   3.179   0.011   0.708
 7710SOL    HW124029   3.198   0.033   0.803
 7710SOL    HW224030   3.101   6.966   0.703
 7711SOL     OW24031   5.774   5.967   5.771
 7711SOL    HW124032   5.798   6.063   5.786
 7711SOL    HW224033   5.706   5.960   5.698
 7712SOL     OW24034   6.242   4.817   1.290
 7712SOL    HW124035   6.342   4.816   1.288
 7712SOL    HW224036   6.209   4.903   1.252
 7713SOL     OW24037   1.721   4.416   6.505
 7713SOL    HW124038   1.639   4.468   6.529
 7713SOL    HW224039   1.773   4.465   6.435
 7714SOL     OW24040   5.956   4.253   4.073
 7714SOL    HW124041   6.021   4.219   4.005
 7714SOL    HW224042   5.972   4.351   4.088
 7715SOL     OW24043   5.289   0.310   1.451
 7715SOL    HW124044   5.258   0.265   1.534
 7715SOL    HW224045   5.217   0.371   1.417
 7716SOL     OW24046   4.935   2.388   2.433
 7716SOL    HW124047   4.845   2.403   2.392
 7716SOL    HW224048   4.997   2.462   2.406
 7717SOL     OW24049   2.780   1.603   5.159
 7717SOL    HW124050   2.759   1.566   5.250
 7717SOL    HW224051   2.694   1.616   5.108
 7718SOL     OW24052   2.496   1.230   3.230
 7718SOL    HW124053   2.466   1.143   3.191
 7718SOL    HW224054   2.566   1.213   3.300
 7719SOL     OW24055   0.064   2.391   4.316
 7719SOL    HW124056   0.123   2.433   4.386
 7719SOL    HW224057   6.995   2.440   4.312
 7720SOL     OW24058   6.506   6.460   1.054
 7720SOL    HW124059   6.503   6.370   1.012
 7720SOL    HW224060   6.517   6.451   1.153
 7721SOL     OW24061   2.537   4.497   3.379
 7721SOL    HW124062   2.562   4.476   3.473
 7721SOL    HW224063   2.462   4.439   3.350
 7722SOL     OW24064   6.151   4.791   2.856
 7722SOL    HW124065   6.235   4.840   2.831
 7722SOL    HW224066   6.141   4.711   2.797
 7723SOL     OW24067   0.272   2.895   0.472
 7723SOL    HW124068   0.236   2.955   0.401
 7723SOL    HW224069   0.234   2.922   0.560
 7724SOL     OW24070   1.536   4.314   1.088
 7724SOL    HW124071   1.485   4.388   1.131
 7724SOL    HW224072   1.486   4.228   1.100
 7725SOL     OW24073   5.855   2.496   3.362
 7725SOL    HW124074   5.805   2.582   3.374
 7725SOL    HW224075   5.800   2.421   3.399
 7726SOL     OW24076   0.990   4.230   2.797
 7726SOL    HW124077   1.009   4.236   2.699
 7726SOL    HW224078   0.927   4.154   2.814
 7727SOL     OW24079   6.369   2.846   3.817
 7727SOL    HW124080   6.435   2.771   3.810
 7727SOL    HW224081   6.281   2.816   3.780
 7728SOL     OW24082   1.718   3.067   2.726
 7728SOL    HW124083   1.655   2.993   2.705
 7728SOL    HW224084   1.782   3.038   2.797
 7729SOL     OW24085   4.988   2.067   1.165
 7729SOL    HW124086   4.898   2.032   1.191
 7729SOL    HW224087   5.007   2.151   1.216
 7730SOL     OW24088   4.595   6.201   2.654
 7730SOL    HW124089   4.638   6.264   2.589
 7730SOL    HW224090   4.666   6.150   2.703
 7731SOL     OW24091   6.117   0.693   0.363
 7731SOL    HW124092   6.054   0.621   0.336
 7731SOL    HW224093   6.154   0.738   0.281
 7732SOL     OW24094   4.776   5.702   0.536
 7732SOL    HW124095   4.839   5.659   0.600
 7732SOL    HW224096   4.704   5.637   0.511
 7733SOL     OW24097   3.634   0.636   1.562
 7733SOL    HW124098   3.598   0.543   1.571
 7733SOL    HW224099   3.600   0.677   1.477
 7734SOL     OW24100   1.147   2.807   3.680
 7734SOL    HW124101   1.221   2.748   3.712
 7734SOL    HW224102   1.059   2.771   3.713
 7735SOL     OW24103   5.367   4.446   6.659
 7735SOL    HW124104   5.300   4.425   6.731
 7735SOL    HW224105   5.455   4.406   6.683
 7736SOL     OW24106   5.396   4.005   6.791
 7736SOL    HW124107   5.319   4.021   6.729
 7736SOL    HW224108   5.381   4.054   6.877
 7737SOL     OW24109   4.598   1.836   0.452
 7737SOL    HW124110   4.553   1.920   0.482
 7737SOL    HW224111   4.531   1.762   0.451
 7738SOL     OW24112   2.905   5.636   0.697
 7738SOL    HW124113   2.901   5.607   0.601
 7738SOL    HW224114   2.999   5.664   0.719
 7739SOL     OW24115   0.776   2.425   1.097
 7739SOL    HW124116   0.870   2.402   1.071
 7739SOL    HW224117   0.751   2.515   1.060
 7740SOL     OW24118   0.264   0.097   2.555
 7740SOL    HW124119   0.197   0.058   2.618
 7740SOL    HW224120   0.357   0.077   2.588
 7741SOL     OW24121   2.047   6.074   3.948
 7741SOL    HW124122   1.963   6.128   3.940
 7741SOL    HW224123   2.115   6.126   3.999
 7742SOL     OW24124   5.936   2.050   3.177
 7742SOL    HW124125   5.865   2.098   3.228
 7742SOL    HW224126   5.982   1.984   3.237
 7743SOL     OW24127   4.759   2.755   5.296
 7743SOL    HW124128   4.739   2.664   5.333
 7743SOL    HW224129   4.701   2.823   5.341
 7744SOL     OW24130   6.154   6.665   3.675
 7744SOL    HW124131   6.054   6.674   3.676
 7744SOL    HW224132   6.180   6.586   3.731
 7745SOL     OW24133   3.496   2.393   6.266
 7745SOL    HW124134   3.572   2.362   6.324
 7745SOL    HW224135   3.521   2.478   6.221
 7746SOL     OW24136   2.129   0.076   0.242
 7746SOL    HW124137   2.163   7.013   0.195
 7746SOL    HW224138   2.078   0.049   0.324
 7747SOL     OW24139   5.464   6.153   0.837
 7747SOL    HW124140   5.479   6.091   0.913
 7747SOL    HW224141   5.424   6.103   0.760
 7748SOL     OW24142   2.392   3.979   6.370
 7748SOL    HW124143   2.304   4.027   6.381
 7748SOL    HW224144   2.425   3.993   6.276
 7749SOL     OW24145   5.282   2.945   5.374
 7749SOL    HW124146   5.272   3.035   5.417
 7749SOL    HW224147   5.192   2.900   5.369
 7750SOL     OW24148   0.329   5.599   1.868
 7750SOL    HW124149   0.383   5.577   1.787
 7750SOL    HW224150   0.294   5.692   1.861
 7751SOL     OW24151   0.620   2.484   1.387
 7751SOL    HW124152   0.565   2.557   1.426
 7751SOL    HW224153   0.715   2.495   1.415
 7752SOL     OW24154   4.737   1.099   4.722
 7752SOL    HW124155   4.750   1.062   4.630
 7752SOL    HW224156   4.735   1.024   4.788
 7753SOL     OW24157   2.374   1.380   5.454
 7753SOL    HW124158   2.442   1.323   5.408
 7753SOL    HW224159   2.378   1.364   5.553
 7754SOL     OW24160   4.042   6.148   2.004
 7754SOL    HW124161   3.963   6.092   1.977
 7754SOL    HW224162   4.126   6.097   1.988
 7755SOL     OW24163   1.350   4.149   6.001
 7755SOL    HW124164   1.265   4.097   6.012
 7755SOL    HW224165   1.426   4.085   5.988
 7756SOL     OW24166   3.087   6.366   1.558
 7756SOL    HW124167   3.101   6.267   1.548
 7756SOL    HW224168   2.991   6.387   1.543
 7757SOL     OW24169   0.251   4.541   3.099
 7757SOL    HW124170   0.255   4.475   3.175
 7757SOL    HW224171   0.323   4.520   3.033
 7758SOL     OW24172   1.572   0.722   5.325
 7758SOL    HW124173   1.476   0.726   5.353
 7758SOL    HW224174   1.613   0.638   5.361
 7759SOL     OW24175   3.244   2.063   6.388
 7759SOL    HW124176   3.163   2.117   6.413
 7759SOL    HW224177   3.227   2.013   6.304
 7760SOL     OW24178   4.638   3.128   1.362
 7760SOL    HW124179   4.669   3.109   1.269
 7760SOL    HW224180   4.686   3.208   1.398
 7761SOL     OW24181   4.562   5.624   4.582
 7761SOL    HW124182   4.474   5.576   4.585
 7761SOL    HW224183   4.564   5.696   4.651
 7762SOL     OW24184   6.635   0.399   3.237
 7762SOL    HW124185   6.586   0.476   3.197
 7762SOL    HW224186   6.602   0.383   3.330
 7763SOL     OW24187   2.732   0.000   4.674
 7763SOL    HW124188   2.675   6.966   4.609
 7763SOL    HW224189   2.797   6.957   4.718
 7764SOL     OW24190   3.024   4.013   5.441
 7764SOL    HW124191   2.970   3.933   5.416
 7764SOL    HW224192   3.118   4.003   5.408
 7765SOL     OW24193   6.465   2.710   4.490
 7765SOL    HW124194   6.526   2.764   4.431
 7765SOL    HW224195   6.370   2.726   4.463
 7766SOL     OW24196   0.207   4.264   6.637
 7766SOL    HW124197   0.121   4.310   6.657
 7766SOL    HW224198   0.196   4.209   6.554
 7767SOL     OW24199   2.749   1.030   3.175
 7767SOL    HW124200   2.730   1.096   3.102
 7767SOL    HW224201   2.715   1.065   3.262
 7768SOL     OW24202   4.563   4.956   3.079
 7768SOL    HW124203   4.579   4.893   3.003
 7768SOL    HW224204   4.567   4.905   3.165
 7769SOL     OW24205   3.410   2.339   5.288
 7769SOL    HW124206   3.350   2.323   5.211
 7769SOL    HW224207   3.476   2.264   5.296
 7770SOL     OW24208   1.715   3.313   4.841
 7770SOL    HW124209   1.716   3.213   4.830
 7770SOL    HW224210   1.630   3.350   4.803
 7771SOL     OW24211   2.633   2.090   6.268
 7771SOL    HW124212   2.722   2.070   6.308
 7771SOL    HW224213   2.645   2.127   6.176
 7772SOL     OW24214   5.283   0.080   1.671
 7772SOL    HW124215   5.297   0.010   1.741
 7772SOL    HW224216   5.189   0.114   1.675
 7773SOL     OW24217   3.493   5.867   0.296
 7773SOL    HW124218   3.413   5.827   0.252
 7773SOL    HW224219   3.564   5.797   0.307
 7774SOL     OW24220   4.579   1.832   2.586
 7774SOL    HW124221   4.666   1.852   2.631
 7774SOL    HW224222   4.506   1.828   2.655
 7775SOL     OW24223   3.526   0.668   6.807
 7775SOL    HW124224   3.540   0.597   6.875
 7775SOL    HW224225   3.613   0.690   6.763
 7776SOL     OW24226   1.581   1.101   4.778
 7776SOL    HW124227   1.509   1.136   4.838
 7776SOL    HW224228   1.540   1.050   4.703
 7777SOL     OW24229   4.904   5.320   3.434
 7777SOL    HW124230   4.968   5.396   3.443
 7777SOL    HW224231   4.818   5.343   3.479
 7778SOL     OW24232   5.683   4.394   2.800
 7778SOL    HW124233   5.711   4.335   2.724
 7778SOL    HW224234   5.760   4.452   2.827
 7779SOL     OW24235   3.793   5.727   2.342
 7779SOL    HW124236   3.702   5.763   2.323
 7779SOL    HW224237   3.831   5.772   2.422
 7780SOL     OW24238   5.699   5.891   5.065
 7780SOL    HW124239   5.752   5.939   5.135
 7780SOL    HW224240   5.605   5.881   5.096
 7781SOL     OW24241   1.756   2.399   0.485
 7781SOL    HW124242   1.846   2.366   0.459
 7781SOL    HW224243   1.692   2.384   0.409
 7782SOL     OW24244   5.508   4.154   3.261
 7782SOL    HW124245   5.518   4.251   3.279
 7782SOL    HW224246   5.418   4.122   3.292
 7783SOL     OW24247   1.044   0.795   5.472
 7783SOL    HW124248   0.986   0.745   5.407
 7783SOL    HW224249   1.038   0.753   5.562
 7784SOL     OW24250   2.389   2.713   2.770
 7784SOL    HW124251   2.461   2.644   2.762
 7784SOL    HW224252   2.388   2.769   2.687
 7785SOL     OW24253   0.759   6.414   2.437
 7785SOL    HW124254   0.687   6.438   2.373
 7785SOL    HW224255   0.802   6.498   2.473
 7786SOL     OW24256   4.471   0.182   6.264
 7786SOL    HW124257   4.513   0.096   6.234
 7786SOL    HW224258   4.420   0.223   6.189
 7787SOL     OW24259   2.829   2.564   1.266
 7787SOL    HW124260   2.779   2.479   1.278
 7787SOL    HW224261   2.924   2.544   1.242
 7788SOL     OW24262   0.637   4.213   1.614
 7788SOL    HW124263   0.575   4.274   1.565
 7788SOL    HW224264   0.654   4.131   1.558
 7789SOL     OW24265   3.986   1.156   6.103
 7789SOL    HW124266   4.070   1.112   6.134
 7789SOL    HW224267   3.926   1.173   6.181
 7790SOL     OW24268   5.132   4.589   1.672
 7790SOL    HW124269   5.178   4.672   1.703
 7790SOL    HW224270   5.164   4.511   1.727
 7791SOL     OW24271   2.887   5.267   2.615
 7791SOL    HW124272   2.984   5.248   2.598
 7791SOL    HW224273   2.840   5.181   2.635
 7792SOL     OW24274   1.355   1.572   2.350
 7792SOL    HW124275   1.356   1.664   2.311
 7792SOL    HW224276   1.383   1.576   2.446
 7793SOL     OW24277   5.073   0.670   6.191
 7793SOL    HW124278   5.045   0.631   6.279
 7793SOL    HW224279   5.006   0.738   6.162
 7794SOL     OW24280   0.450   6.484   3.495
 7794SOL    HW124281   0.365   6.526   3.462
 7794SOL    HW224282   0.449   6.481   3.595
 7795SOL     OW24283   3.210   6.169   6.599
 7795SOL    HW124284   3.150   6.110   6.545
 7795SOL    HW224285   3.294   6.186   6.547
 7796SOL     OW24286   3.935   3.188   5.984
 7796SOL    HW124287   3.943   3.287   5.999
 7796SOL    HW224288   3.865   3.170   5.916
 7797SOL     OW24289   0.796   6.328   3.043
 7797SOL    HW124290   0.883   6.308   2.999
 7797SOL    HW224291   0.798   6.297   3.138
 7798SOL     OW24292   1.003   2.802   0.862
 7798SOL    HW124293   1.046   2.777   0.948
 7798SOL    HW224294   1.016   2.900   0.845
 7799SOL     OW24295   2.313   5.801   3.825
 7799SOL    HW124296   2.236   5.856   3.791
 7799SOL    HW224297   2.347   5.743   3.751
 7800SOL     OW24298   0.204   6.371   1.735
 7800SOL    HW124299   0.284   6.319   1.763
 7800SOL    HW224300   0.231   6.443   1.671
 7801SOL     OW24301   2.010   2.189   2.191
 7801SOL    HW124302   2.078   2.231   2.251
 7801SOL    HW224303   2.048   2.178   2.099
 7802SOL     OW24304   0.184   3.561   4.412
 7802SOL    HW124305   0.136   3.648   4.404
 7802SOL    HW224306   0.281   3.575   4.391
 7803SOL     OW24307   4.187   2.690   5.590
 7803SOL    HW124308   4.089   2.673   5.594
 7803SOL    HW224309   4.220   2.715   5.681
 7804SOL     OW24310   2.733   1.921   5.463
 7804SOL    HW124311   2.740   1.926   5.563
 7804SOL    HW224312   2.825   1.915   5.423
 7805SOL     OW24313   5.835   3.211   0.426
 7805SOL    HW124314   5.766   3.155   0.471
 7805SOL    HW224315   5.845   3.183   0.331
 7806SOL     OW24316   0.000   2.419   5.667
 7806SOL    HW124317   0.062   2.344   5.692
 7806SOL    HW224318   0.052   2.504   5.657
 7807SOL     OW24319   2.247   4.761   5.925
 7807SOL    HW124320   2.342   4.737   5.942
 7807SOL    HW224321   2.242   4.853   5.884
 7808SOL     OW24322   4.980   3.423   3.324
 7808SOL    HW124323   4.921   3.486   3.375
 7808SOL    HW224324   5.033   3.368   3.388
 7809SOL     OW24325   4.168   5.019   3.143
 7809SOL    HW124326   4.183   4.987   3.237
 7809SOL    HW224327   4.250   4.999   3.089
 7810SOL     OW24328   3.838   6.632   5.342
 7810SOL    HW124329   3.921   6.596   5.386
 7810SOL    HW224330   3.853   6.728   5.318
 7811SOL     OW24331   1.376   5.710   2.898
 7811SOL    HW124332   1.423   5.648   2.835
 7811SOL    HW224333   1.282   5.724   2.867
 7812SOL     OW24334   2.797   2.385   6.383
 7812SOL    HW124335   2.756   2.438   6.308
 7812SOL    HW224336   2.897   2.392   6.378
 7813SOL     OW24337   5.614   0.942   0.662
 7813SOL    HW124338   5.690   0.882   0.689
 7813SOL    HW224339   5.633   0.980   0.571
 7814SOL     OW24340   6.990   3.078   2.146
 7814SOL    HW124341   6.941   3.011   2.091
 7814SOL    HW224342   0.049   3.115   2.093
 7815SOL     OW24343   5.896   3.642   5.086
 7815SOL    HW124344   5.821   3.648   5.020
 7815SOL    HW224345   5.919   3.545   5.102
 7816SOL     OW24346   0.999   1.250   5.204
 7816SOL    HW124347   1.090   1.267   5.241
 7816SOL    HW224348   0.932   1.310   5.250
 7817SOL     OW24349   3.097   2.983   6.366
 7817SOL    HW124350   3.068   3.077   6.345
 7817SOL    HW224351   3.019   2.921   6.354
 7818SOL     OW24352   5.417   0.907   2.250
 7818SOL    HW124353   5.391   0.968   2.175
 7818SOL    HW224354   5.500   0.941   2.293
 7819SOL     OW24355   1.256   4.283   3.811
 7819SOL    HW124356   1.303   4.214   3.755
 7819SOL    HW224357   1.218   4.239   3.893
 7820SOL     OW24358   1.746   6.989   6.067
 7820SOL    HW124359   1.707   0.058   6.038
 7820SOL    HW224360   1.795   6.947   5.990
 7821SOL     OW24361   5.275   5.525   6.168
 7821SOL    HW124362   5.374   5.537   6.172
 7821SOL    HW224363   5.244   5.479   6.252
 7822SOL     OW24364   1.423   1.036   4.583
 7822SOL    HW124365   1.410   1.097   4.505
 7822SOL    HW224366   1.334   1.006   4.617
 7823SOL     OW24367   1.401   3.787   6.230
 7823SOL    HW124368   1.369   3.695   6.253
 7823SOL    HW224369   1.386   3.848   6.307
 7824SOL     OW24370   5.445   2.540   3.034
 7824SOL    HW124371   5.476   2.507   2.944
 7824SOL    HW224372   5.347   2.557   3.030
 7825SOL     OW24373   3.518   3.351   2.251
 7825SOL    HW124374   3.527   3.276   2.186
 7825SOL    HW224375   3.477   3.430   2.206
 7826SOL     OW24376   6.798   0.550   0.594
 7826SOL    HW124377   6.874   0.485   0.597
 7826SOL    HW224378   6.759   0.561   0.686
 7827SOL     OW24379   5.489   4.999   1.973
 7827SOL    HW124380   5.460   4.906   1.998
 7827SOL    HW224381   5.581   4.996   1.934
 7828SOL     OW24382   0.808   6.621   0.783
 7828SOL    HW124383   0.833   6.648   0.876
 7828SOL    HW224384   0.761   6.697   0.738
 7829SOL     OW24385   3.985   2.813   1.733
 7829SOL    HW124386   3.943   2.778   1.649
 7829SOL    HW224387   3.914   2.855   1.790
 7830SOL     OW24388   6.164   2.525   6.623
 7830SOL    HW124389   6.141   2.591   6.695
 7830SOL    HW224390   6.149   2.567   6.534
 7831SOL     OW24391   1.262   3.094   0.454
 7831SOL    HW124392   1.358   3.094   0.481
 7831SOL    HW224393   1.210   3.153   0.515
 7832SOL     OW24394   2.381   2.216   5.786
 7832SOL    HW124395   2.283   2.228   5.767
 7832SOL    HW224396   2.421   2.153   5.720
 7833SOL     OW24397   0.271   0.005   0.159
 7833SOL    HW124398   0.218   0.038   0.081
 7833SOL    HW224399   0.292   6.926   0.147
 7834SOL     OW24400   0.723   0.680   1.230
 7834SOL    HW124401   0.779   0.606   1.268
 7834SOL    HW224402   0.745   0.766   1.276
 7835SOL     OW24403   2.151   2.983   4.891
 7835SOL    HW124404   2.189   2.972   4.799
 7835SOL    HW224405   2.226   2.984   4.958
 7836SOL     OW24406   2.015   6.360   0.495
 7836SOL    HW124407   1.992   6.329   0.587
 7836SOL    HW224408   1.967   6.303   0.428
 7837SOL     OW24409   6.011   6.974   2.978
 7837SOL    HW124410   6.047   6.885   3.004
 7837SOL    HW224411   5.921   6.963   2.936
 7838SOL     OW24412   3.549   0.264   4.573
 7838SOL    HW124413   3.473   0.325   4.551
 7838SOL    HW224414   3.635   0.311   4.554
 7839SOL     OW24415   6.394   4.796   4.317
 7839SOL    HW124416   6.379   4.713   4.370
 7839SOL    HW224417   6.466   4.851   4.360
 7840SOL     OW24418   5.631   2.849   4.600
 7840SOL    HW124419   5.596   2.864   4.508
 7840SOL    HW224420   5.614   2.754   4.627
 7841SOL     OW24421   0.520   1.674   6.499
 7841SOL    HW124422   0.448   1.664   6.430
 7841SOL    HW224423   0.479   1.700   6.586
 7842SOL     OW24424   2.573   0.819   2.966
 7842SOL    HW124425   2.672   0.831   2.955
 7842SOL    HW224426   2.555   0.732   3.012
 7843SOL     OW24427   5.369   3.826   0.730
 7843SOL    HW124428   5.316   3.757   0.779
 7843SOL    HW224429   5.319   3.912   0.728
 7844SOL     OW24430   3.975   0.883   3.526
 7844SOL    HW124431   3.997   0.908   3.432
 7844SOL    HW224432   4.007   0.955   3.588
 7845SOL     OW24433   6.502   1.552   4.154
 7845SOL    HW124434   6.450   1.620   4.206
 7845SOL    HW224435   6.599   1.579   4.152
 7846SOL     OW24436   2.878   6.666   2.238
 7846SOL    HW124437   2.791   6.653   2.285
 7846SOL    HW224438   2.868   6.735   2.166
 7847SOL     OW24439   6.843   0.752   0.391
 7847SOL    HW124440   6.805   0.694   0.463
 7847SOL    HW224441   6.789   0.836   0.384
 7848SOL     OW24442   4.956   3.804   1.978
 7848SOL    HW124443   4.923   3.720   2.021
 7848SOL    HW224444   4.914   3.883   2.023
 7849SOL     OW24445   5.763   3.900   4.848
 7849SOL    HW124446   5.685   3.837   4.848
 7849SOL    HW224447   5.810   3.894   4.760
 7850SOL     OW24448   1.384   0.646   4.864
 7850SOL    HW124449   1.462   0.639   4.927
 7850SOL    HW224450   1.299   0.628   4.913
 7851SOL     OW24451   5.797   6.510   0.053
 7851SOL    HW124452   5.725   6.580   0.051
 7851SOL    HW224453   5.868   6.534   7.005
 7852SOL     OW24454   2.478   6.179   6.759
 7852SOL    HW124455   2.564   6.223   6.733
 7852SOL    HW224456   2.425   6.240   6.818
 7853SOL     OW24457   2.731   3.353   0.214
 7853SOL    HW124458   2.639   3.379   0.186
 7853SOL    HW224459   2.769   3.288   0.149
 7854SOL     OW24460   3.515   4.111   2.522
 7854SOL    HW124461   3.426   4.156   2.531
 7854SOL    HW224462   3.512   4.021   2.565
 7855SOL     OW24463   4.248   6.081   6.011
 7855SOL    HW124464   4.319   6.133   6.058
 7855SOL    HW224465   4.279   6.057   5.919
 7856SOL     OW24466   5.234   3.395   5.994
 7856SOL    HW124467   5.281   3.307   5.998
 7856SOL    HW224468   5.153   3.392   6.052
 7857SOL     OW24469   6.764   1.654   5.650
 7857SOL    HW124470   6.667   1.667   5.632
 7857SOL    HW224471   6.807   1.742   5.670
 7858SOL     OW24472   6.251   3.959   2.927
 7858SOL    HW124473   6.153   3.946   2.934
 7858SOL    HW224474   6.297   3.914   3.004
 7859SOL     OW24475   1.217   5.289   6.880
 7859SOL    HW124476   1.286   5.353   6.846
 7859SOL    HW224477   1.259   5.222   6.940
 7860SOL     OW24478   4.013   0.010   1.938
 7860SOL    HW124479   4.085   6.960   1.927
 7860SOL    HW224480   4.052   0.096   1.971
 7861SOL     OW24481   4.968   4.631   0.573
 7861SOL    HW124482   4.962   4.533   0.554
 7861SOL    HW224483   4.877   4.672   0.564
 7862SOL     OW24484   3.082   4.477   1.343
 7862SOL    HW124485   3.078   4.570   1.379
 7862SOL    HW224486   3.132   4.418   1.408
 7863SOL     OW24487   6.632   5.277   1.839
 7863SOL    HW124488   6.720   5.259   1.884
 7863SOL    HW224489   6.630   5.228   1.751
 7864SOL     OW24490   0.646   5.005   4.936
 7864SOL    HW124491   0.634   5.103   4.953
 7864SOL    HW224492   0.736   4.977   4.969
 7865SOL     OW24493   3.070   0.212   3.486
 7865SOL    HW124494   3.020   0.145   3.431
 7865SOL    HW224495   3.167   0.208   3.462
 7866SOL     OW24496   2.467   2.035   4.340
 7866SOL    HW124497   2.391   1.988   4.385
 7866SOL    HW224498   2.550   2.024   4.395
 7867SOL     OW24499   6.318   4.372   2.060
 7867SOL    HW124500   6.311   4.465   2.096
 7867SOL    HW224501   6.414   4.348   2.047
 7868SOL     OW24502   5.283   6.273   0.580
 7868SOL    HW124503   5.310   6.369   0.566
 7868SOL    HW224504   5.193   6.271   0.624
 7869SOL     OW24505   0.764   3.651   1.933
 7869SOL    HW124506   0.723   3.619   1.848
 7869SOL    HW224507   0.697   3.703   1.986
 7870SOL     OW24508   7.010   5.713   3.838
 7870SOL    HW124509   6.919   5.686   3.869
 7870SOL    HW224510   7.004   5.751   3.746
 7871SOL     OW24511   4.857   3.036   3.055
 7871SOL    HW124512   4.860   3.136   3.045
 7871SOL    HW224513   4.820   2.995   2.972
 7872SOL     OW24514   0.181   2.916   3.288
 7872SOL    HW124515   0.129   2.882   3.210
 7872SOL    HW224516   0.168   3.015   3.297
 7873SOL     OW24517   0.233   5.250   5.210
 7873SOL    HW124518   0.274   5.242   5.119
 7873SOL    HW224519   0.163   5.180   5.221
 7874SOL     OW24520   6.079   1.378   0.624
 7874SOL    HW124521   6.127   1.316   0.563
 7874SOL    HW224522   6.086   1.472   0.589
 7875SOL     OW24523   4.182   3.310   6.456
 7875SOL    HW124524   4.231   3.376   6.513
 7875SOL    HW224525   4.158   3.352   6.369
 7876SOL     OW24526   6.707   0.220   3.730
 7876SOL    HW124527   6.748   0.310   3.739
 7876SOL    HW224528   6.696   0.180   3.821
 7877SOL     OW24529   6.949   1.956   2.443
 7877SOL    HW124530   6.855   1.973   2.412
 7877SOL    HW224531   7.013   2.010   2.387
 7878SOL     OW24532   4.930   3.585   2.366
 7878SOL    HW124533   5.014   3.609   2.414
 7878SOL    HW224534   4.943   3.601   2.268
 7879SOL     OW24535   5.321   6.748   3.923
 7879SOL    HW124536   5.238   6.802   3.935
 7879SOL    HW224537   5.357   6.723   4.013
 7880SOL     OW24538   0.176   0.181   6.702
 7880SOL    HW124539   0.083   0.206   6.673
 7880SOL    HW224540   0.234   0.171   6.621
 7881SOL     OW24541   0.220   4.571   4.371
 7881SOL    HW124542   0.207   4.599   4.276
 7881SOL    HW224543   0.166   4.630   4.431
 7882SOL     OW24544   6.703   4.060   3.287
 7882SOL    HW124545   6.660   4.148   3.305
 7882SOL    HW224546   6.678   4.029   3.195
 7883SOL     OW24547   3.234   1.554   3.572
 7883SOL    HW124548   3.154   1.574   3.627
 7883SOL    HW224549   3.289   1.636   3.560
 7884SOL     OW24550   0.629   4.362   4.595
 7884SOL    HW124551   0.659   4.344   4.501
 7884SOL    HW224552   0.530   4.380   4.595
 7885SOL     OW24553   5.860   5.562   3.044
 7885SOL    HW124554   5.880   5.524   3.134
 7885SOL    HW224555   5.787   5.510   3.000
 7886SOL     OW24556   4.709   2.685   2.355
 7886SOL    HW124557   4.785   2.655   2.297
 7886SOL    HW224558   4.635   2.720   2.297
 7887SOL     OW24559   3.080   3.353   0.332
 7887SOL    HW124560   3.008   3.410   0.370
 7887SOL    HW224561   3.058   3.330   0.237
 7888SOL     OW24562   5.606   1.866   4.084
 7888SOL    HW124563   5.643   1.939   4.141
 7888SOL    HW224564   5.680   1.804   4.057
 7889SOL     OW24565   6.286   4.895   0.726
 7889SOL    HW124566   6.257   4.803   0.753
 7889SOL    HW224567   6.233   4.963   0.778
 7890SOL     OW24568   0.905   3.968   4.268
 7890SOL    HW124569   0.881   4.042   4.330
 7890SOL    HW224570   1.004   3.964   4.256
 7891SOL     OW24571   0.943   2.137   4.076
 7891SOL    HW124572   0.845   2.120   4.069
 7891SOL    HW224573   0.973   2.192   3.998
 7892SOL     OW24574   0.841   2.862   5.784
 7892SOL    HW124575   0.901   2.941   5.797
 7892SOL    HW224576   0.812   2.858   5.689
 7893SOL     OW24577   6.018   0.806   1.109
 7893SOL    HW124578   5.993   0.895   1.070
 7893SOL    HW224579   6.118   0.798   1.112
 7894SOL     OW24580   2.765   0.999   6.288
 7894SOL    HW124581   2.725   0.923   6.340
 7894SOL    HW224582   2.745   1.085   6.334
 7895SOL     OW24583   3.960   6.378   3.639
 7895SOL    HW124584   4.035   6.347   3.697
 7895SOL    HW224585   3.899   6.302   3.618
 7896SOL     OW24586   3.732   2.157   1.165
 7896SOL    HW124587   3.663   2.216   1.122
 7896SOL    HW224588   3.688   2.098   1.232
 7897SOL     OW24589   3.811   4.264   6.852
 7897SOL    HW124590   3.855   4.279   6.941
 7897SOL    HW224591   3.858   4.190   6.804
 7898SOL     OW24592   5.595   0.238   4.419
 7898SOL    HW124593   5.685   0.277   4.399
 7898SOL    HW224594   5.594   0.141   4.395
 7899SOL     OW24595   5.690   4.631   1.849
 7899SOL    HW124596   5.612   4.570   1.839
 7899SOL    HW224597   5.739   4.609   1.934
 7900SOL     OW24598   0.829   3.840   0.177
 7900SOL    HW124599   0.856   3.935   0.195
 7900SOL    HW224600   0.774   3.806   0.254
 7901SOL     OW24601   5.734   1.205   6.048
 7901SOL    HW124602   5.811   1.141   6.039
 7901SOL    HW224603   5.764   1.297   6.024
 7902SOL     OW24604   0.362   6.751   2.616
 7902SOL    HW124605   0.281   6.746   2.556
 7902SOL    HW224606   0.412   6.836   2.596
 7903SOL     OW24607   2.172   2.153   4.988
 7903SOL    HW124608   2.223   2.234   4.958
 7903SOL    HW224609   2.219   2.071   4.958
 7904SOL     OW24610   5.435   0.754   1.751
 7904SOL    HW124611   5.339   0.784   1.747
 7904SOL    HW224612   5.441   0.659   1.720
 7905SOL     OW24613   5.662   0.302   0.434
 7905SOL    HW124614   5.756   0.336   0.436
 7905SOL    HW224615   5.638   0.261   0.522
 7906SOL     OW24616   1.519   5.364   1.076
 7906SOL    HW124617   1.494   5.451   1.034
 7906SOL    HW224618   1.442   5.330   1.130
 7907SOL     OW24619   6.195   0.441   3.266
 7907SOL    HW124620   6.219   0.452   3.170
 7907SOL    HW224621   6.115   0.382   3.274
 7908SOL     OW24622   0.099   0.960   7.009
 7908SOL    HW124623   0.128   1.005   6.924
 7908SOL    HW224624   0.102   1.027   0.066
 7909SOL     OW24625   5.892   3.759   1.967
 7909SOL    HW124626   5.928   3.838   2.018
 7909SOL    HW224627   5.796   3.774   1.946
 7910SOL     OW24628   2.224   3.547   0.586
 7910SOL    HW124629   2.199   3.537   0.490
 7910SOL    HW224630   2.305   3.605   0.593
 7911SOL     OW24631   0.952   4.349   0.334
 7911SOL    HW124632   1.028   4.319   0.275
 7911SOL    HW224633   0.986   4.366   0.426
 7912SOL     OW24634   6.043   5.547   0.009
 7912SOL    HW124635   6.015   5.546   6.931
 7912SOL    HW224636   5.963   5.532   0.067
 7913SOL     OW24637   0.624   3.166   0.809
 7913SOL    HW124638   0.583   3.181   0.718
 7913SOL    HW224639   0.723   3.172   0.802
 7914SOL     OW24640   6.300   5.110   4.814
 7914SOL    HW124641   6.320   5.204   4.840
 7914SOL    HW224642   6.209   5.105   4.772
 7915SOL     OW24643   3.362   6.971   3.117
 7915SOL    HW124644   3.369   6.930   3.208
 7915SOL    HW224645   3.333   0.049   3.126
 7916SOL     OW24646   1.725   0.436   4.459
 7916SOL    HW124647   1.638   0.447   4.507
 7916SOL    HW224648   1.797   0.484   4.509
 7917SOL     OW24649   3.820   3.570   0.256
 7917SOL    HW124650   3.884   3.634   0.213
 7917SOL    HW224651   3.758   3.534   0.187
 7918SOL     OW24652   2.268   0.823   5.042
 7918SOL    HW124653   2.333   0.827   5.118
 7918SOL    HW224654   2.317   0.810   4.956
 7919SOL     OW24655   1.271   5.629   2.491
 7919SOL    HW124656   1.322   5.715   2.495
 7919SOL    HW224657   1.287   5.585   2.403
 7920SOL     OW24658   4.731   0.053   0.794
 7920SOL    HW124659   4.651   0.105   0.765
 7920SOL    HW224660   4.706   6.975   0.808
 7921SOL     OW24661   4.742   1.435   1.940
 7921SOL    HW124662   4.818   1.370   1.937
 7921SOL    HW224663   4.691   1.424   2.025
 7922SOL     OW24664   0.469   5.759   0.726
 7922SOL    HW124665   0.466   5.738   0.824
 7922SOL    HW224666   0.422   5.846   0.709
 7923SOL     OW24667   3.923   1.475   6.888
 7923SOL    HW124668   3.942   1.565   6.928
 7923SOL    HW224669   3.838   1.438   6.928
 7924SOL     OW24670   6.325   0.327   0.763
 7924SOL    HW124671   6.300   0.247   0.708
 7924SOL    HW224672   6.243   0.366   0.804
 7925SOL     OW24673   2.276   6.267   0.637
 7925SOL    HW124674   2.267   6.184   0.581
 7925SOL    HW224675   2.208   6.335   0.607
 7926SOL     OW24676   4.515   5.941   6.434
 7926SOL    HW124677   4.458   5.978   6.508
 7926SOL    HW224678   4.456   5.906   6.361
 7927SOL     OW24679   4.900   6.652   2.280
 7927SOL    HW124680   4.873   6.584   2.213
 7927SOL    HW224681   4.999   6.647   2.295
 7928SOL     OW24682   6.539   1.332   3.039
 7928SOL    HW124683   6.585   1.377   3.116
 7928SOL    HW224684   6.607   1.293   2.978
 7929SOL     OW24685   3.704   4.249   5.853
 7929SOL    HW124686   3.801   4.257   5.830
 7929SOL    HW224687   3.649   4.267   5.771
 7930SOL     OW24688   4.130   5.668   5.694
 7930SOL    HW124689   4.146   5.651   5.597
 7930SOL    HW224690   4.095   5.585   5.737
 7931SOL     OW24691   3.615   2.054   0.468
 7931SOL    HW124692   3.526   2.029   0.506
 7931SOL    HW224693   3.604   2.134   0.409
 7932SOL     OW24694   0.711   5.381   1.885
 7932SOL    HW124695   0.625   5.345   1.922
 7932SOL    HW224696   0.786   5.361   1.949
 7933SOL     OW24697   0.308   1.262   5.968
 7933SOL    HW124698   0.261   1.186   6.013
 7933SOL    HW224699   0.380   1.227   5.908
 7934SOL     OW24700   1.032   4.496   0.869
 7934SOL    HW124701   0.993   4.582   0.904
 7934SOL    HW224702   1.079   4.449   0.944
 7935SOL     OW24703   5.243   3.187   2.452
 7935SOL    HW124704   5.182   3.250   2.403
 7935SOL    HW224705   5.188   3.127   2.510
 7936SOL     OW24706   3.475   6.047   3.992
 7936SOL    HW124707   3.559   6.073   3.944
 7936SOL    HW224708   3.483   5.953   4.024
 7937SOL     OW24709   2.989   6.036   0.042
 7937SOL    HW124710   2.946   5.959   0.089
 7937SOL    HW224711   3.049   6.002   6.988
 7938SOL     OW24712   3.316   6.795   4.603
 7938SOL    HW124713   3.361   6.833   4.683
 7938SOL    HW224714   3.275   6.706   4.626
 7939SOL     OW24715   0.509   1.704   4.648
 7939SOL    HW124716   0.446   1.634   4.680
 7939SOL    HW224717   0.462   1.793   4.647
 7940SOL     OW24718   4.975   0.880   3.071
 7940SOL    HW124719   4.952   0.858   2.977
 7940SOL    HW224720   5.012   0.798   3.116
 7941SOL     OW24721   4.013   6.540   1.428
 7941SOL    HW124722   4.057   6.460   1.467
 7941SOL    HW224723   3.984   6.602   1.502
 7942SOL     OW24724   1.050   4.313   1.482
 7942SOL    HW124725   1.030   4.308   1.384
 7942SOL    HW224726   1.139   4.356   1.496
 7943SOL     OW24727   1.851   5.806   6.552
 7943SOL    HW124728   1.802   5.888   6.522
 7943SOL    HW224729   1.903   5.768   6.475
 7944SOL     OW24730   1.631   2.763   1.074
 7944SOL    HW124731   1.612   2.859   1.094
 7944SOL    HW224732   1.730   2.748   1.076
 7945SOL     OW24733   6.100   4.577   2.666
 7945SOL    HW124734   6.101   4.491   2.614
 7945SOL    HW224735   6.071   4.651   2.606
 7946SOL     OW24736   3.541   1.194   5.172
 7946SOL    HW124737   3.633   1.173   5.139
 7946SOL    HW224738   3.544   1.277   5.227
 7947SOL     OW24739   1.274   2.736   5.262
 7947SOL    HW124740   1.181   2.708   5.285
 7947SOL    HW224741   1.339   2.689   5.321
 7948SOL     OW24742   1.682   4.723   2.496
 7948SOL    HW124743   1.651   4.801   2.552
 7948SOL    HW224744   1.736   4.661   2.553
 7949SOL     OW24745   3.797   4.597   6.334
 7949SOL    HW124746   3.881   4.630   6.290
 7949SOL    HW224747   3.759   4.521   6.280
 7950SOL     OW24748   5.944   4.907   5.431
 7950SOL    HW124749   5.974   4.880   5.340
 7950SOL    HW224750   5.940   5.007   5.436
 7951SOL     OW24751   2.816   5.491   2.774
 7951SOL    HW124752   2.850   5.402   2.743
 7951SOL    HW224753   2.771   5.480   2.863
 7952SOL     OW24754   5.102   3.601   6.816
 7952SOL    HW124755   5.186   3.612   6.764
 7952SOL    HW224756   5.036   3.548   6.762
 7953SOL     OW24757   2.670   1.349   0.838
 7953SOL    HW124758   2.720   1.424   0.796
 7953SOL    HW224759   2.730   1.269   0.845
 7954SOL     OW24760   3.505   3.015   0.021
 7954SOL    HW124761   3.486   3.032   0.117
 7954SOL    HW224762   3.527   2.918   0.007
 7955SOL     OW24763   1.624   0.871   6.600
 7955SOL    HW124764   1.551   0.803   6.604
 7955SOL    HW224765   1.657   0.890   6.693
 7956SOL     OW24766   6.982   6.742   1.061
 7956SOL    HW124767   7.008   6.770   1.153
 7956SOL    HW224768   6.885   6.714   1.060
 7957SOL     OW24769   4.787   0.777   5.353
 7957SOL    HW124770   4.780   0.783   5.452
 7957SOL    HW224771   4.695   0.784   5.313
 7958SOL     OW24772   6.038   3.140   6.831
 7958SOL    HW124773   6.052   3.102   6.740
 7958SOL    HW224774   6.065   3.072   6.900
 7959SOL     OW24775   5.347   0.919   6.176
 7959SOL    HW124776   5.424   0.856   6.188
 7959SOL    HW224777   5.357   0.997   6.238
 7960SOL     OW24778   0.585   0.695   5.845
 7960SOL    HW124779   0.518   0.765   5.867
 7960SOL    HW224780   0.616   0.650   5.928
 7961SOL     OW24781   6.620   0.447   0.430
 7961SOL    HW124782   6.637   0.349   0.424
 7961SOL    HW224783   6.694   0.491   0.481
 7962SOL     OW24784   6.343   6.752   5.713
 7962SOL    HW124785   6.320   6.843   5.746
 7962SOL    HW224786   6.259   6.700   5.697
 7963SOL     OW24787   7.010   5.217   4.994
 7963SOL    HW124788   6.950   5.174   5.062
 7963SOL    HW224789   0.054   5.149   4.955
 7964SOL     OW24790   6.353   3.708   2.238
 7964SOL    HW124791   6.267   3.700   2.288
 7964SOL    HW224792   6.424   3.743   2.300
 7965SOL     OW24793   4.043   1.661   6.653
 7965SOL    HW124794   3.977   1.644   6.580
 7965SOL    HW224795   3.997   1.699   6.733
 7966SOL     OW24796   4.760   4.069   5.200
 7966SOL    HW124797   4.813   4.148   5.231
 7966SOL    HW224798   4.667   4.076   5.236
 7967SOL     OW24799   1.468   4.820   2.086
 7967SOL    HW124800   1.512   4.863   2.165
 7967SOL    HW224801   1.378   4.861   2.072
 7968SOL     OW24802   6.579   2.334   4.400
 7968SOL    HW124803   6.599   2.316   4.303
 7968SOL    HW224804   6.484   2.365   4.409
 7969SOL     OW24805   4.583   5.827   0.002
 7969SOL    HW124806   4.623   5.874   6.941
 7969SOL    HW224807   4.594   5.728   7.009
 7970SOL     OW24808   6.000   2.599   2.256
 7970SOL    HW124809   5.965   2.691   2.239
 7970SOL    HW224810   6.038   2.594   2.348
 7971SOL     OW24811   3.126   1.195   0.820
 7971SOL    HW124812   3.204   1.142   0.787
 7971SOL    HW224813   3.152   1.292   0.826
 7972SOL     OW24814   4.076   3.288   2.801
 7972SOL    HW124815   4.146   3.306   2.870
 7972SOL    HW224816   4.007   3.226   2.838
 7973SOL     OW24817   6.357   3.840   3.150
 7973SOL    HW124818   6.355   3.742   3.172
 7973SOL    HW224819   6.410   3.889   3.219
 7974SOL     OW24820   6.721   2.000   5.279
 7974SOL    HW124821   6.679   1.910   5.272
 7974SOL    HW224822   6.713   2.033   5.373
 7975SOL     OW24823   5.073   0.806   0.969
 7975SOL    HW124824   5.036   0.889   1.010
 7975SOL    HW224825   5.171   0.818   0.954
 7976SOL     OW24826   0.943   6.853   6.656
 7976SOL    HW124827   0.923   6.825   6.562
 7976SOL    HW224828   0.859   6.852   6.710
 7977SOL     OW24829   5.632   6.030   2.693
 7977SOL    HW124830   5.572   6.101   2.731
 7977SOL    HW224831   5.617   6.023   2.594
 7978SOL     OW24832   0.322   4.778   0.988
 7978SOL    HW124833   0.254   4.808   1.055
 7978SOL    HW224834   0.355   4.687   1.012
 7979SOL     OW24835   1.110   3.553   4.730
 7979SOL    HW124836   1.124   3.592   4.821
 7979SOL    HW224837   1.187   3.577   4.671
 7980SOL     OW24838   4.033   5.046   6.449
 7980SOL    HW124839   4.035   5.138   6.411
 7980SOL    HW224840   4.013   5.050   6.547
 7981SOL     OW24841   1.537   4.776   3.435
 7981SOL    HW124842   1.542   4.681   3.404
 7981SOL    HW224843   1.580   4.836   3.368
 7982SOL     OW24844   0.841   2.066   6.351
 7982SOL    HW124845   0.867   2.068   6.255
 7982SOL    HW224846   0.741   2.070   6.359
 7983SOL     OW24847   5.070   0.545   1.109
 7983SOL    HW124848   5.096   0.634   1.071
 7983SOL    HW224849   4.981   0.518   1.071
 7984SOL     OW24850   1.161   1.989   2.033
 7984SOL    HW124851   1.200   2.072   1.993
 7984SOL    HW224852   1.165   1.995   2.133
 7985SOL     OW24853   1.778   2.535   5.661
 7985SOL    HW124854   1.799   2.591   5.580
 7985SOL    HW224855   1.860   2.526   5.717
 7986SOL     OW24856   2.791   1.158   3.962
 7986SOL    HW124857   2.772   1.234   4.024
 7986SOL    HW224858   2.865   1.102   3.999
 7987SOL     OW24859   1.402   3.347   1.258
 7987SOL    HW124860   1.449   3.291   1.190
 7987SOL    HW224861   1.324   3.392   1.215
 7988SOL     OW24862   0.547   2.024   1.104
 7988SOL    HW124863   0.622   2.089   1.097
 7988SOL    HW224864   0.498   2.020   1.017
 7989SOL     OW24865   0.917   4.768   0.528
 7989SOL    HW124866   0.817   4.762   0.532
 7989SOL    HW224867   0.944   4.820   0.448
 7990SOL     OW24868   3.113   5.419   5.523
 7990SOL    HW124869   3.189   5.465   5.476
 7990SOL    HW224870   3.132   5.416   5.621
 7991SOL     OW24871   5.313   1.512   4.903
 7991SOL    HW124872   5.409   1.534   4.918
 7991SOL    HW224873   5.260   1.535   4.984
 7992SOL     OW24874   2.898   0.516   0.566
 7992SOL    HW124875   2.876   0.499   0.470
 7992SOL    HW224876   2.906   0.615   0.581
 7993SOL     OW24877   6.805   5.727   1.738
 7993SOL    HW124878   6.833   5.698   1.646
 7993SOL    HW224879   6.882   5.713   1.801
 7994SOL     OW24880   5.241   0.798   3.180
 7994SOL    HW124881   5.255   0.778   3.277
 7994SOL    HW224882   5.200   0.718   3.136
 7995SOL     OW24883   0.417   4.319   1.484
 7995SOL    HW124884   0.318   4.315   1.503
 7995SOL    HW224885   0.443   4.414   1.467
 7996SOL     OW24886   3.776   0.107   2.740
 7996SOL    HW124887   3.720   0.053   2.803
 7996SOL    HW224888   3.870   0.074   2.743
 7997SOL     OW24889   0.415   2.359   0.193
 7997SOL    HW124890   0.472   2.432   0.156
 7997SOL    HW224891   0.442   2.272   0.153
 7998SOL     OW24892   3.260   0.775   0.324
 7998SOL    HW124893   3.211   0.719   0.391
 7998SOL    HW224894   3.216   0.864   0.317
 7999SOL     OW24895   1.342   1.368   5.238
 7999SOL    HW124896   1.329   1.366   5.338
 7999SOL    HW224897   1.269   1.422   5.197
 8000SOL     OW24898   5.677   5.272   6.766
 8000SOL    HW124899   5.685   5.184   6.721
 8000SOL    HW224900   5.745   5.279   6.839
 8001SOL     OW24901   4.798   0.585   1.287
 8001SOL    HW124902   4.841   0.596   1.376
 8001SOL    HW224903   4.700   0.565   1.299
 8002SOL     OW24904   0.768   6.934   5.926
 8002SOL    HW124905   0.819   0.001   5.940
 8002SOL    HW224906   0.830   6.856   5.939
 8003SOL     OW24907   2.073   6.876   3.020
 8003SOL    HW124908   2.161   6.925   3.018
 8003SOL    HW224909   2.053   6.841   2.929
 8004SOL     OW24910   1.250   3.442   3.766
 8004SOL    HW124911   1.150   3.437   3.764
 8004SOL    HW224912   1.287   3.414   3.677
 8005SOL     OW24913   2.600   0.547   3.611
 8005SOL    HW124914   2.525   0.558   3.545
 8005SOL    HW224915   2.681   0.511   3.565
 8006SOL     OW24916   3.694   4.793   5.498
 8006SOL    HW124917   3.766   4.745   5.548
 8006SOL    HW224918   3.610   4.739   5.498
 8007SOL     OW24919   6.066   1.081   6.543
 8007SOL    HW124920   6.061   1.175   6.509
 8007SOL    HW224921   5.988   1.063   6.603
 8008SOL     OW24922   4.635   6.494   6.801
 8008SOL    HW124923   4.536   6.494   6.791
 8008SOL    HW224924   4.677   6.461   6.716
 8009SOL     OW24925   5.082   1.491   0.500
 8009SOL    HW124926   5.001   1.444   0.535
 8009SOL    HW224927   5.059   1.538   0.415
 8010SOL     OW24928   2.573   2.684   5.274
 8010SOL    HW124929   2.646   2.748   5.296
 8010SOL    HW224930   2.604   2.590   5.288
 8011SOL     OW24931   4.178   1.973   2.349
 8011SOL    HW124932   4.246   2.015   2.288
 8011SOL    HW224933   4.099   1.943   2.295
 8012SOL     OW24934   0.844   2.522   5.275
 8012SOL    HW124935   0.793   2.608   5.267
 8012SOL    HW224936   0.932   2.531   5.228
 8013SOL     OW24937   2.004   2.463   3.312
 8013SOL    HW124938   2.081   2.470   3.375
 8013SOL    HW224939   2.020   2.521   3.233
 8014SOL     OW24940   1.955   0.860   3.143
 8014SOL    HW124941   2.049   0.835   3.167
 8014SOL    HW224942   1.895   0.782   3.159
 8015SOL     OW24943   2.181   6.964   5.281
 8015SOL    HW124944   2.129   6.954   5.196
 8015SOL    HW224945   2.230   0.033   5.280
 8016SOL     OW24946   4.396   1.785   5.627
 8016SOL    HW124947   4.309   1.804   5.582
 8016SOL    HW224948   4.422   1.690   5.612
 8017SOL     OW24949   6.554   0.147   0.375
 8017SOL    HW124950   6.560   0.093   0.292
 8017SOL    HW224951   6.474   0.207   0.371
 8018SOL     OW24952   4.113   1.663   0.068
 8018SOL    HW124953   4.110   1.742   0.006
 8018SOL    HW224954   4.205   1.624   0.068
 8019SOL     OW24955   3.169   2.921   0.807
 8019SOL    HW124956   3.200   2.941   0.714
 8019SOL    HW224957   3.094   2.984   0.831
 8020SOL     OW24958   0.536   0.532   5.116
 8020SOL    HW124959   0.518   0.576   5.028
 8020SOL    HW224960   0.474   0.567   5.185
 8021SOL     OW24961   1.255   2.114   2.702
 8021SOL    HW124962   1.181   2.063   2.658
 8021SOL    HW224963   1.219   2.198   2.741
 8022SOL     OW24964   4.656   1.347   2.378
 8022SOL    HW124965   4.591   1.319   2.307
 8022SOL    HW224966   4.611   1.410   2.441
 8023SOL     OW24967   4.744   5.645   3.689
 8023SOL    HW124968   4.784   5.611   3.775
 8023SOL    HW224969   4.675   5.714   3.711
 8024SOL     OW24970   1.990   6.727   6.555
 8024SOL    HW124971   2.041   6.642   6.545
 8024SOL    HW224972   1.908   6.723   6.498
 8025SOL     OW24973   2.077   5.186   1.386
 8025SOL    HW124974   2.136   5.107   1.405
 8025SOL    HW224975   2.014   5.163   1.312
 8026SOL     OW24976   0.983   5.953   6.871
 8026SOL    HW124977   0.986   5.885   6.797
 8026SOL    HW224978   0.948   5.910   6.954
 8027SOL     OW24979   3.579   6.331   6.886
 8027SOL    HW124980   3.653   6.309   6.949
 8027SOL    HW224981   3.615   6.334   6.792
 8028SOL     OW24982   2.837   5.728   4.604
 8028SOL    HW124983   2.819   5.703   4.699
 8028SOL    HW224984   2.755   5.771   4.565
 8029SOL     OW24985   6.537   0.888   0.767
 8029SOL    HW124986   6.448   0.902   0.809
 8029SOL    HW224987   6.525   0.866   0.670
 8030SOL     OW24988   6.541   4.884   0.632
 8030SOL    HW124989   6.450   4.899   0.670
 8030SOL    HW224990   6.577   4.969   0.594
 8031SOL     OW24991   6.797   0.750   2.679
 8031SOL    HW124992   6.872   0.700   2.723
 8031SOL    HW224993   6.825   0.782   2.589
 8032SOL     OW24994   5.725   2.994   0.871
 8032SOL    HW124995   5.714   2.896   0.853
 8032SOL    HW224996   5.673   3.019   0.952
 8033SOL     OW24997   3.923   4.232   1.034
 8033SOL    HW124998   3.938   4.135   1.016
 8033SOL    HW224999   3.959   4.286   0.957
 8034SOL     OW25000   5.866   0.123   5.610
 8034SOL    HW125001   5.826   0.161   5.527
 8034SOL    HW225002   5.939   0.058   5.585
 8035SOL     OW25003   5.105   1.972   3.049
 8035SOL    HW125004   5.169   2.044   3.021
 8035SOL    HW225005   5.119   1.950   3.145
 8036SOL     OW25006   6.427   3.588   3.188
 8036SOL    HW125007   6.491   3.512   3.178
 8036SOL    HW225008   6.335   3.552   3.202
 8037SOL     OW25009   0.499   2.372   6.164
 8037SOL    HW125010   0.419   2.414   6.208
 8037SOL    HW225011   0.562   2.443   6.134
 8038SOL     OW25012   6.224   6.378   2.422
 8038SOL    HW125013   6.248   6.474   2.404
 8038SOL    HW225014   6.214   6.329   2.336
 8039SOL     OW25015   1.225   2.076   5.453
 8039SOL    HW125016   1.282   2.005   5.412
 8039SOL    HW225017   1.256   2.095   5.546
 8040SOL     OW25018   1.820   5.050   6.061
 8040SOL    HW125019   1.729   5.008   6.064
 8040SOL    HW225020   1.865   5.040   6.150
 8041SOL     OW25021   3.895   1.907   2.809
 8041SOL    HW125022   3.976   1.850   2.818
 8041SOL    HW225023   3.923   2.002   2.793
 8042SOL     OW25024   4.301   4.410   5.609
 8042SOL    HW125025   4.339   4.397   5.517
 8042SOL    HW225026   4.207   4.378   5.611
 8043SOL     OW25027   5.586   4.540   0.123
 8043SOL    HW125028   5.602   4.571   0.217
 8043SOL    HW225029   5.525   4.461   0.124
 8044SOL     OW25030   3.245   3.692   0.929
 8044SOL    HW125031   3.321   3.727   0.875
 8044SOL    HW225032   3.281   3.641   1.008
 8045SOL     OW25033   0.642   1.123   2.562
 8045SOL    HW125034   0.707   1.150   2.632
 8045SOL    HW225035   0.598   1.037   2.589
 8046SOL     OW25036   0.425   5.298   2.455
 8046SOL    HW125037   0.379   5.387   2.444
 8046SOL    HW225038   0.473   5.275   2.371
 8047SOL     OW25039   4.339   6.776   5.499
 8047SOL    HW125040   4.356   6.761   5.596
 8047SOL    HW225041   4.413   6.831   5.460
 8048SOL     OW25042   3.515   3.930   0.001
 8048SOL    HW125043   3.604   3.891   6.996
 8048SOL    HW225044   3.465   3.867   0.060
 8049SOL     OW25045   2.136   0.376   1.142
 8049SOL    HW125046   2.101   0.406   1.054
 8049SOL    HW225047   2.121   0.278   1.152
 8050SOL     OW25048   2.008   4.270   4.468
 8050SOL    HW125049   2.005   4.369   4.461
 8050SOL    HW225050   1.944   4.238   4.537
 8051SOL     OW25051   3.580   6.182   4.250
 8051SOL    HW125052   3.522   6.150   4.174
 8051SOL    HW225053   3.671   6.204   4.215
 8052SOL     OW25054   2.251   2.391   2.065
 8052SOL    HW125055   2.330   2.447   2.090
 8052SOL    HW225056   2.280   2.296   2.053
 8053SOL     OW25057   2.481   3.139   6.041
 8053SOL    HW125058   2.390   3.178   6.038
 8053SOL    HW225059   2.481   3.050   5.994
 8054SOL     OW25060   5.452   4.003   5.167
 8054SOL    HW125061   5.470   4.054   5.251
 8054SOL    HW225062   5.472   3.906   5.182
 8055SOL     OW25063   0.102   0.844   5.449
 8055SOL    HW125064   0.015   0.800   5.426
 8055SOL    HW225065   0.114   0.925   5.393
 8056SOL     OW25066   2.483   1.039   4.675
 8056SOL    HW125067   2.453   1.027   4.769
 8056SOL    HW225068   2.558   0.976   4.655
 8057SOL     OW25069   2.656   2.415   1.919
 8057SOL    HW125070   2.755   2.405   1.911
 8057SOL    HW225071   2.620   2.349   1.985
 8058SOL     OW25072   2.911   0.029   3.314
 8058SOL    HW125073   2.863   0.116   3.305
 8058SOL    HW225074   2.852   6.973   3.283
 8059SOL     OW25075   2.768   3.032   6.458
 8059SOL    HW125076   2.748   2.939   6.488
 8059SOL    HW225077   2.690   3.091   6.478
 8060SOL     OW25078   6.360   0.032   5.408
 8060SOL    HW125079   6.456   0.005   5.415
 8060SOL    HW225080   6.350   0.128   5.435
 8061SOL     OW25081   0.539   1.582   2.139
 8061SOL    HW125082   0.630   1.543   2.156
 8061SOL    HW225083   0.533   1.613   2.044
 8062SOL     OW25084   4.335   5.860   5.419
 8062SOL    HW125085   4.287   5.942   5.453
 8062SOL    HW225086   4.375   5.879   5.329
 8063SOL     OW25087   3.416   0.231   2.994
 8063SOL    HW125088   3.399   0.201   2.900
 8063SOL    HW225089   3.514   0.244   3.008
 8064SOL     OW25090   6.125   2.921   6.985
 8064SOL    HW125091   6.213   2.949   0.004
 8064SOL    HW225092   6.073   2.874   0.039
 8065SOL     OW25093   3.621   7.003   5.115
 8065SOL    HW125094   3.563   0.024   5.187
 8065SOL    HW225095   3.581   0.007   5.026
 8066SOL     OW25096   0.009   0.928   4.839
 8066SOL    HW125097   0.074   0.988   4.792
 8066SOL    HW225098   0.055   0.844   4.866
 8067SOL     OW25099   4.797   2.893   3.291
 8067SOL    HW125100   4.756   2.906   3.201
 8067SOL    HW225101   4.863   2.966   3.308
 8068SOL     OW25102   6.297   4.486   1.002
 8068SOL    HW125103   6.277   4.496   1.099
 8068SOL    HW225104   6.395   4.502   0.986
 8069SOL     OW25105   2.626   4.711   2.441
 8069SOL    HW125106   2.721   4.726   2.415
 8069SOL    HW225107   2.577   4.670   2.365
 8070SOL     OW25108   5.270   4.728   6.910
 8070SOL    HW125109   5.367   4.750   6.912
 8070SOL    HW225110   5.223   4.776   6.985
 8071SOL     OW25111   3.684   6.629   6.023
 8071SOL    HW125112   3.603   6.599   6.073
 8071SOL    HW225113   3.657   6.677   5.940
 8072SOL     OW25114   1.769   2.966   6.803
 8072SOL    HW125115   1.760   3.018   6.719
 8072SOL    HW225116   1.863   2.934   6.813
 8073SOL     OW25117   3.885   0.484   6.684
 8073SOL    HW125118   3.815   0.414   6.699
 8073SOL    HW225119   3.845   0.575   6.699
 8074SOL     OW25120   1.956   1.407   0.253
 8074SOL    HW125121   1.888   1.336   0.232
 8074SOL    HW225122   1.996   1.441   0.168
 8075SOL     OW25123   0.280   6.069   6.993
 8075SOL    HW125124   0.262   6.000   0.046
 8075SOL    HW225125   0.342   6.138   0.012
 8076SOL     OW25126   6.803   0.016   6.951
 8076SOL    HW125127   6.782   0.042   6.856
 8076SOL    HW225128   6.766   0.086   7.012
 8077SOL     OW25129   4.354   5.553   1.148
 8077SOL    HW125130   4.360   5.503   1.061
 8077SOL    HW225131   4.426   5.523   1.209
 8078SOL     OW25132   0.660   0.847   0.803
 8078SOL    HW125133   0.610   0.931   0.827
 8078SOL    HW225134   0.712   0.863   0.719
 8079SOL     OW25135   1.595   1.489   4.908
 8079SOL    HW125136   1.516   1.529   4.862
 8079SOL    HW225137   1.672   1.484   4.845
 8080SOL     OW25138   1.076   3.594   2.643
 8080SOL    HW125139   1.075   3.618   2.545
 8080SOL    HW225140   1.157   3.634   2.686
 8081SOL     OW25141   6.116   4.759   4.622
 8081SOL    HW125142   6.081   4.704   4.546
 8081SOL    HW225143   6.182   4.705   4.674
 8082SOL     OW25144   3.141   1.923   2.731
 8082SOL    HW125145   3.208   1.902   2.660
 8082SOL    HW225146   3.121   2.021   2.730
 8083SOL     OW25147   5.830   2.074   4.780
 8083SOL    HW125148   5.772   2.032   4.849
 8083SOL    HW225149   5.925   2.075   4.813
 8084SOL     OW25150   2.439   0.042   6.648
 8084SOL    HW125151   2.494   7.000   6.590
 8084SOL    HW225152   2.345   0.009   6.649
 8085SOL     OW25153   0.392   5.748   3.857
 8085SOL    HW125154   0.309   5.764   3.804
 8085SOL    HW225155   0.432   5.660   3.832
 8086SOL     OW25156   0.376   0.972   2.189
 8086SOL    HW125157   0.311   0.957   2.114
 8086SOL    HW225158   0.412   1.065   2.182
 8087SOL     OW25159   1.472   0.511   6.778
 8087SOL    HW125160   1.482   0.542   6.873
 8087SOL    HW225161   1.378   0.527   6.747
 8088SOL     OW25162   4.932   6.641   5.981
 8088SOL    HW125163   4.983   6.629   6.066
 8088SOL    HW225164   4.997   6.648   5.905
 8089SOL     OW25165   5.911   2.597   6.233
 8089SOL    HW125166   5.814   2.589   6.256
 8089SOL    HW225167   5.938   2.522   6.173
 8090SOL     OW25168   4.155   1.217   6.538
 8090SOL    HW125169   4.200   1.303   6.562
 8090SOL    HW225170   4.178   1.147   6.605
 8091SOL     OW25171   1.159   4.392   5.133
 8091SOL    HW125172   1.097   4.470   5.123
 8091SOL    HW225173   1.188   4.384   5.229
 8092SOL     OW25174   4.942   2.104   5.393
 8092SOL    HW125175   4.876   2.068   5.327
 8092SOL    HW225176   5.013   2.035   5.409
 8093SOL     OW25177   2.927   6.462   2.683
 8093SOL    HW125178   2.840   6.441   2.638
 8093SOL    HW225179   2.982   6.522   2.624
 8094SOL     OW25180   1.387   4.170   4.163
 8094SOL    HW125181   1.447   4.113   4.108
 8094SOL    HW225182   1.436   4.251   4.195
 8095SOL     OW25183   1.283   4.563   5.447
 8095SOL    HW125184   1.295   4.466   5.427
 8095SOL    HW225185   1.193   4.578   5.490
 8096SOL     OW25186   0.788   6.817   2.369
 8096SOL    HW125187   0.751   6.778   2.285
 8096SOL    HW225188   0.796   6.746   2.439
 8097SOL     OW25189   2.953   6.276   4.991
 8097SOL    HW125190   2.892   6.217   5.043
 8097SOL    HW225191   2.962   6.365   5.037
 8098SOL     OW25192   1.038   5.639   3.768
 8098SOL    HW125193   1.117   5.622   3.828
 8098SOL    HW225194   0.963   5.578   3.795
 8099SOL     OW25195   3.089   5.814   4.259
 8099SOL    HW125196   3.129   5.726   4.233
 8099SOL    HW225197   3.150   5.888   4.232
 8100SOL     OW25198   6.769   1.136   6.211
 8100SOL    HW125199   6.747   1.118   6.115
 8100SOL    HW225200   6.686   1.164   6.259
 8101SOL     OW25201   1.419   6.390   1.435
 8101SOL    HW125202   1.408   6.420   1.340
 8101SOL    HW225203   1.504   6.427   1.473
 8102SOL     OW25204   1.042   3.118   4.546
 8102SOL    HW125205   0.987   3.158   4.473
 8102SOL    HW225206   1.137   3.109   4.517
 8103SOL     OW25207   3.618   1.519   2.398
 8103SOL    HW125208   3.603   1.501   2.495
 8103SOL    HW225209   3.531   1.539   2.354
 8104SOL     OW25210   2.071   6.482   6.512
 8104SOL    HW125211   2.164   6.457   6.484
 8104SOL    HW225212   2.059   6.459   6.609
 8105SOL     OW25213   6.726   1.748   2.720
 8105SOL    HW125214   6.638   1.796   2.725
 8105SOL    HW225215   6.740   1.697   2.805
 8106SOL     OW25216   1.907   5.945   4.609
 8106SOL    HW125217   1.892   5.863   4.553
 8106SOL    HW225218   2.005   5.956   4.627
 8107SOL     OW25219   1.892   5.355   4.745
 8107SOL    HW125220   1.850   5.280   4.797
 8107SOL    HW225221   1.820   5.419   4.715
 8108SOL     OW25222   0.349   0.860   6.392
 8108SOL    HW125223   0.407   0.860   6.311
 8108SOL    HW225224   0.400   0.824   6.470
 8109SOL     OW25225   6.581   3.678   6.294
 8109SOL    HW125226   6.667   3.666   6.245
 8109SOL    HW225227   6.568   3.774   6.317
 8110SOL     OW25228   4.788   4.928   0.913
 8110SOL    HW125229   4.882   4.915   0.944
 8110SOL    HW225230   4.777   5.021   0.878
 8111SOL     OW25231   5.986   1.068   3.218
 8111SOL    HW125232   5.926   1.027   3.287
 8111SOL    HW225233   6.068   1.012   3.208
 8112SOL     OW25234   0.480   2.500   5.183
 8112SOL    HW125235   0.459   2.498   5.085
 8112SOL    HW225236   0.550   2.432   5.204
 8113SOL     OW25237   6.015   2.870   1.177
 8113SOL    HW125238   6.099   2.884   1.124
 8113SOL    HW225239   5.955   2.808   1.127
 8114SOL     OW25240   1.668   4.094   1.633
 8114SOL    HW125241   1.603   4.155   1.587
 8114SOL    HW225242   1.744   4.147   1.669
 8115SOL     OW25243   3.231   6.808   0.083
 8115SOL    HW125244   3.177   6.725   0.073
 8115SOL    HW225245   3.213   6.850   0.172
 8116SOL     OW25246   3.511   5.205   1.016
 8116SOL    HW125247   3.558   5.119   0.999
 8116SOL    HW225248   3.501   5.254   0.929
 8117SOL     OW25249   2.387   0.244   2.981
 8117SOL    HW125250   2.412   0.329   3.028
 8117SOL    HW225251   2.462   0.217   2.921
 8118SOL     OW25252   6.168   3.453   6.567
 8118SOL    HW125253   6.192   3.509   6.487
 8118SOL    HW225254   6.143   3.513   6.643
 8119SOL     OW25255   5.659   5.579   5.389
 8119SOL    HW125256   5.628   5.549   5.299
 8119SOL    HW225257   5.734   5.520   5.420
 8120SOL     OW25258   1.987   5.745   0.624
 8120SOL    HW125259   2.059   5.708   0.565
 8120SOL    HW225260   2.009   5.726   0.720
 8121SOL     OW25261   1.369   4.485   2.752
 8121SOL    HW125262   1.450   4.532   2.789
 8121SOL    HW225263   1.288   4.541   2.768
 8122SOL     OW25264   1.058   4.506   2.585
 8122SOL    HW125265   1.127   4.542   2.647
 8122SOL    HW225266   1.011   4.582   2.539
 8123SOL     OW25267   0.212   2.073   6.765
 8123SOL    HW125268   0.281   2.122   6.712
 8123SOL    HW225269   0.247   2.057   6.858
 8124SOL     OW25270   4.973   5.575   3.537
 8124SOL    HW125271   4.911   5.651   3.556
 8124SOL    HW225272   5.018   5.546   3.621
 8125SOL     OW25273   0.475   0.600   3.082
 8125SOL    HW125274   0.550   0.628   3.141
 8125SOL    HW225275   0.436   0.514   3.116
 8126SOL     OW25276   3.756   5.377   4.161
 8126SOL    HW125277   3.739   5.281   4.180
 8126SOL    HW225278   3.683   5.432   4.201
 8127SOL     OW25279   2.672   2.591   0.479
 8127SOL    HW125280   2.655   2.505   0.529
 8127SOL    HW225281   2.587   2.643   0.473
 8128SOL     OW25282   3.367   2.822   1.897
 8128SOL    HW125283   3.288   2.773   1.859
 8128SOL    HW225284   3.343   2.918   1.909
 8129SOL     OW25285   0.956   2.110   0.429
 8129SOL    HW125286   1.014   2.181   0.388
 8129SOL    HW225287   1.001   2.074   0.510
 8130SOL     OW25288   1.418   5.321   0.245
 8130SOL    HW125289   1.367   5.250   0.294
 8130SOL    HW225290   1.463   5.380   0.311
 8131SOL     OW25291   1.896   2.847   0.714
 8131SOL    HW125292   1.931   2.899   0.636
 8131SOL    HW225293   1.931   2.754   0.710
 8132SOL     OW25294   6.338   6.853   3.760
 8132SOL    HW125295   6.418   6.805   3.795
 8132SOL    HW225296   6.263   6.788   3.746
 8133SOL     OW25297   3.640   5.187   1.241
 8133SOL    HW125298   3.636   5.089   1.260
 8133SOL    HW225299   3.577   5.210   1.166
 8134SOL     OW25300   6.608   0.730   5.457
 8134SOL    HW125301   6.690   0.693   5.413
 8134SOL    HW225302   6.601   0.694   5.550
 8135SOL     OW25303   2.756   6.934   2.138
 8135SOL    HW125304   2.762   0.013   2.114
 8135SOL    HW225305   2.802   6.880   2.067
 8136SOL     OW25306   4.645   5.237   2.554
 8136SOL    HW125307   4.650   5.329   2.516
 8136SOL    HW225308   4.684   5.237   2.646
 8137SOL     OW25309   3.765   1.851   5.086
 8137SOL    HW125310   3.774   1.926   5.020
 8137SOL    HW225311   3.674   1.812   5.080
 8138SOL     OW25312   5.139   0.997   1.949
 8138SOL    HW125313   5.056   1.017   2.000
 8138SOL    HW225314   5.211   1.062   1.976
 8139SOL     OW25315   1.453   1.547   2.608
 8139SOL    HW125316   1.398   1.592   2.678
 8139SOL    HW225317   1.545   1.586   2.607
 8140SOL     OW25318   4.427   1.104   4.436
 8140SOL    HW125319   4.428   1.056   4.348
 8140SOL    HW225320   4.411   1.201   4.420
 8141SOL     OW25321   4.512   5.695   5.519
 8141SOL    HW125322   4.471   5.604   5.526
 8141SOL    HW225323   4.446   5.757   5.476
 8142SOL     OW25324   5.861   4.409   0.535
 8142SOL    HW125325   5.851   4.314   0.506
 8142SOL    HW225326   5.939   4.417   0.597
 8143SOL     OW25327   5.976   4.360   6.206
 8143SOL    HW125328   5.942   4.454   6.205
 8143SOL    HW225329   5.939   4.310   6.127
 8144SOL     OW25330   5.750   6.940   0.046
 8144SOL    HW125331   5.815   6.958   6.990
 8144SOL    HW225332   5.754   7.013   0.113
 8145SOL     OW25333   6.322   5.833   2.935
 8145SOL    HW125334   6.363   5.767   2.998
 8145SOL    HW225335   6.223   5.828   2.941
 8146SOL     OW25336   3.886   0.829   5.566
 8146SOL    HW125337   3.877   0.909   5.507
 8146SOL    HW225338   3.865   0.746   5.514
 8147SOL     OW25339   4.525   1.989   4.227
 8147SOL    HW125340   4.575   1.966   4.143
 8147SOL    HW225341   4.574   2.062   4.275
 8148SOL     OW25342   5.447   2.753   2.699
 8148SOL    HW125343   5.457   2.827   2.633
 8148SOL    HW225344   5.366   2.768   2.755
 8149SOL     OW25345   3.846   5.151   2.569
 8149SOL    HW125346   3.816   5.246   2.556
 8149SOL    HW225347   3.891   5.143   2.658
 8150SOL     OW25348   0.492   5.193   0.443
 8150SOL    HW125349   0.489   5.211   0.541
 8150SOL    HW225350   0.523   5.276   0.395
 8151SOL     OW25351   1.281   2.097   4.451
 8151SOL    HW125352   1.295   2.152   4.369
 8151SOL    HW225353   1.225   2.017   4.428
 8152SOL     OW25354   2.202   0.898   3.671
 8152SOL    HW125355   2.242   0.962   3.605
 8152SOL    HW225356   2.107   0.878   3.645
 8153SOL     OW25357   2.892   6.971   1.295
 8153SOL    HW125358   2.916   6.964   1.392
 8153SOL    HW225359   2.831   0.031   1.281
 8154SOL     OW25360   2.073   6.437   4.105
 8154SOL    HW125361   2.053   6.400   4.196
 8154SOL    HW225362   1.988   6.457   4.058
 8155SOL     OW25363   2.906   3.364   2.377
 8155SOL    HW125364   2.922   3.303   2.454
 8155SOL    HW225365   2.976   3.348   2.307
 8156SOL     OW25366   5.833   1.042   5.257
 8156SOL    HW125367   5.827   1.081   5.349
 8156SOL    HW225368   5.828   0.942   5.263
 8157SOL     OW25369   5.788   3.907   6.441
 8157SOL    HW125370   5.857   3.978   6.457
 8157SOL    HW225371   5.704   3.930   6.490
 8158SOL     OW25372   1.070   5.422   1.557
 8158SOL    HW125373   1.032   5.487   1.492
 8158SOL    HW225374   1.043   5.329   1.531
 8159SOL     OW25375   2.070   5.095   1.867
 8159SOL    HW125376   2.089   5.081   1.964
 8159SOL    HW225377   2.152   5.075   1.814
 8160SOL     OW25378   4.232   2.395   1.145
 8160SOL    HW125379   4.197   2.337   1.219
 8160SOL    HW225380   4.304   2.454   1.180
 8161SOL     OW25381   4.712   1.484   0.405
 8161SOL    HW125382   4.694   1.460   0.309
 8161SOL    HW225383   4.768   1.566   0.408
 8162SOL     OW25384   5.855   6.729   0.969
 8162SOL    HW125385   5.829   6.658   0.903
 8162SOL    HW225386   5.954   6.723   0.986
 8163SOL     OW25387   2.451   4.370   5.343
 8163SOL    HW125388   2.545   4.404   5.349
 8163SOL    HW225389   2.450   4.272   5.361
 8164SOL     OW25390   4.441   2.546   1.236
 8164SOL    HW125391   4.481   2.637   1.250
 8164SOL    HW225392   4.510   2.476   1.254
 8165SOL     OW25393   2.138   4.120   1.549
 8165SOL    HW125394   2.132   4.068   1.634
 8165SOL    HW225395   2.210   4.189   1.557
 8166SOL     OW25396   2.649   0.650   1.976
 8166SOL    HW125397   2.615   0.608   1.892
 8166SOL    HW225398   2.626   0.748   1.976
 8167SOL     OW25399   6.041   2.872   3.507
 8167SOL    HW125400   6.060   2.832   3.418
 8167SOL    HW225401   6.080   2.964   3.511
 8168SOL     OW25402   3.795   1.572   3.040
 8168SOL    HW125403   3.825   1.635   3.112
 8168SOL    HW225404   3.870   1.511   3.016
 8169SOL     OW25405   4.103   3.920   6.992
 8169SOL    HW125406   4.202   3.921   7.000
 8169SOL    HW225407   4.075   3.851   6.926
 8170SOL     OW25408   0.571   5.878   4.329
 8170SOL    HW125409   0.606   5.969   4.307
 8170SOL    HW225410   0.502   5.852   4.262
 8171SOL     OW25411   0.376   2.135   6.520
 8171SOL    HW125412   0.317   2.201   6.473
 8171SOL    HW225413   0.418   2.179   6.599
 8172SOL     OW25414   0.511   6.771   0.169
 8172SOL    HW125415   0.480   6.832   0.242
 8172SOL    HW225416   0.522   6.824   0.084
 8173SOL     OW25417   3.187   2.578   7.011
 8173SOL    HW125418   3.169   2.521   0.073
 8173SOL    HW225419   3.280   2.612   7.015
 8174SOL     OW25420   5.599   0.996   1.763
 8174SOL    HW125421   5.663   0.971   1.691
 8174SOL    HW225422   5.526   0.928   1.768
 8175SOL     OW25423   0.706   1.901   6.591
 8175SOL    HW125424   0.781   1.928   6.529
 8175SOL    HW225425   0.654   1.826   6.550
 8176SOL     OW25426   2.527   5.444   2.032
 8176SOL    HW125427   2.462   5.370   2.020
 8176SOL    HW225428   2.598   5.438   1.962
 8177SOL     OW25429   0.862   6.899   4.295
 8177SOL    HW125430   0.861   6.969   4.367
 8177SOL    HW225431   0.789   6.833   4.311
 8178SOL     OW25432   1.355   6.225   6.734
 8178SOL    HW125433   1.342   6.223   6.833
 8178SOL    HW225434   1.443   6.268   6.713
 8179SOL     OW25435   3.386   2.905   6.705
 8179SOL    HW125436   3.323   2.983   6.710
 8179SOL    HW225437   3.480   2.938   6.708
 8180SOL     OW25438   6.593   6.896   4.491
 8180SOL    HW125439   6.626   6.990   4.500
 8180SOL    HW225440   6.497   6.892   4.519
 8181SOL     OW25441   2.585   2.517   3.100
 8181SOL    HW125442   2.493   2.533   3.136
 8181SOL    HW225443   2.639   2.469   3.168
 8182SOL     OW25444   3.823   2.090   5.560
 8182SOL    HW125445   3.790   2.155   5.629
 8182SOL    HW225446   3.911   2.122   5.525
 8183SOL     OW25447   1.274   3.713   4.532
 8183SOL    HW125448   1.351   3.769   4.562
 8183SOL    HW225449   1.222   3.763   4.463
 8184SOL     OW25450   0.397   0.224   5.433
 8184SOL    HW125451   0.403   0.242   5.531
 8184SOL    HW225452   0.323   0.279   5.393
 8185SOL     OW25453   3.124   1.650   2.028
 8185SOL    HW125454   3.160   1.742   2.014
 8185SOL    HW225455   3.025   1.654   2.039
 8186SOL     OW25456   3.923   5.999   5.870
 8186SOL    HW125457   3.982   5.928   5.908
 8186SOL    HW225458   3.902   6.066   5.941
 8187SOL     OW25459   1.365   2.174   5.689
 8187SOL    HW125460   1.286   2.212   5.738
 8187SOL    HW225461   1.447   2.226   5.712
 8188SOL     OW25462   5.962   2.725   3.108
 8188SOL    HW125463   6.038   2.754   3.165
 8188SOL    HW225464   5.950   2.790   3.032
 8189SOL     OW25465   6.207   4.219   2.834
 8189SOL    HW125466   6.220   4.125   2.867
 8189SOL    HW225467   6.252   4.230   2.745
 8190SOL     OW25468   5.234   3.288   3.743
 8190SOL    HW125469   5.320   3.340   3.740
 8190SOL    HW225470   5.254   3.191   3.757
 8191SOL     OW25471   0.657   5.508   4.283
 8191SOL    HW125472   0.678   5.410   4.283
 8191SOL    HW225473   0.559   5.521   4.293
 8192SOL     OW25474   2.044   4.575   2.323
 8192SOL    HW125475   2.076   4.556   2.416
 8192SOL    HW225476   2.021   4.489   2.278
 8193SOL     OW25477   3.895   6.899   5.290
 8193SOL    HW125478   3.887   6.926   5.194
 8193SOL    HW225479   3.989   6.915   5.321
 8194SOL     OW25480   6.811   0.714   0.113
 8194SOL    HW125481   6.903   0.717   0.072
 8194SOL    HW225482   6.819   0.706   0.212
 8195SOL     OW25483   6.778   6.772   6.983
 8195SOL    HW125484   6.801   6.739   0.056
 8195SOL    HW225485   6.798   6.870   6.977
 8196SOL     OW25486   3.197   6.625   6.268
 8196SOL    HW125487   3.235   6.566   6.339
 8196SOL    HW225488   3.265   6.693   6.241
 8197SOL     OW25489   0.184   0.591   6.210
 8197SOL    HW125490   0.210   0.592   6.114
 8197SOL    HW225491   0.267   0.589   6.267
 8198SOL     OW25492   2.407   6.906   3.279
 8198SOL    HW125493   2.412   6.958   3.365
 8198SOL    HW225494   2.369   6.816   3.298
 8199SOL     OW25495   6.961   3.583   6.510
 8199SOL    HW125496   6.875   3.546   6.545
 8199SOL    HW225497   7.016   3.509   6.471
 8200SOL     OW25498   5.301   4.283   1.063
 8200SOL    HW125499   5.395   4.270   1.096
 8200SOL    HW225500   5.247   4.328   1.133
 8201SOL     OW25501   5.710   6.939   3.535
 8201SOL    HW125502   5.618   6.899   3.528
 8201SOL    HW225503   5.750   6.946   3.445
 8202SOL     OW25504   1.602   3.965   4.020
 8202SOL    HW125505   1.677   4.030   4.009
 8202SOL    HW225506   1.605   3.897   3.947
 8203SOL     OW25507   5.590   3.974   1.012
 8203SOL    HW125508   5.507   3.968   1.067
 8203SOL    HW225509   5.577   3.924   0.926
 8204SOL     OW25510   3.020   0.285   1.991
 8204SOL    HW125511   3.013   0.348   1.913
 8204SOL    HW225512   3.100   0.226   1.979
 8205SOL     OW25513   5.518   5.438   1.749
 8205SOL    HW125514   5.479   5.347   1.736
 8205SOL    HW225515   5.592   5.453   1.683
 8206SOL     OW25516   4.363   2.058   5.220
 8206SOL    HW125517   4.317   1.977   5.183
 8206SOL    HW225518   4.423   2.031   5.295
 8207SOL     OW25519   2.600   5.753   6.593
 8207SOL    HW125520   2.602   5.775   6.496
 8207SOL    HW225521   2.661   5.676   6.611
 8208SOL     OW25522   1.269   4.355   0.722
 8208SOL    HW125523   1.300   4.427   0.783
 8208SOL    HW225524   1.180   4.381   0.683
 8209SOL     OW25525   0.669   0.183   5.217
 8209SOL    HW125526   0.604   0.217   5.149
 8209SOL    HW225527   0.651   0.086   5.235
 8210SOL     OW25528   2.441   1.014   0.021
 8210SOL    HW125529   2.527   1.051   7.003
 8210SOL    HW225530   2.366   1.039   6.977
 8211SOL     OW25531   3.487   2.940   4.577
 8211SOL    HW125532   3.569   2.907   4.531
 8211SOL    HW225533   3.472   2.887   4.661
 8212SOL     OW25534   3.488   0.284   1.278
 8212SOL    HW125535   3.390   0.273   1.262
 8212SOL    HW225536   3.519   0.371   1.238
 8213SOL     OW25537   4.478   3.972   1.690
 8213SOL    HW125538   4.563   3.931   1.723
 8213SOL    HW225539   4.460   4.057   1.739
 8214SOL     OW25540   3.792   5.722   4.565
 8214SOL    HW125541   3.772   5.801   4.507
 8214SOL    HW225542   3.711   5.664   4.572
 8215SOL     OW25543   4.437   6.675   6.646
 8215SOL    HW125544   4.352   6.725   6.630
 8215SOL    HW225545   4.515   6.734   6.624
 8216SOL     OW25546   5.418   5.188   1.643
 8216SOL    HW125547   5.429   5.164   1.547
 8216SOL    HW225548   5.494   5.151   1.696
 8217SOL     OW25549   2.056   5.908   3.739
 8217SOL    HW125550   1.992   5.946   3.672
 8217SOL    HW225551   2.069   5.973   3.814
 8218SOL     OW25552   1.307   6.971   5.090
 8218SOL    HW125553   1.303   0.012   5.010
 8218SOL    HW225554   1.277   0.005   5.171
 8219SOL     OW25555   3.695   3.547   1.209
 8219SOL    HW125556   3.751   3.629   1.205
 8219SOL    HW225557   3.598   3.573   1.202
 8220SOL     OW25558   4.116   3.347   4.149
 8220SOL    HW125559   4.049   3.411   4.188
 8220SOL    HW225560   4.145   3.380   4.059
 8221SOL     OW25561   5.481   3.167   3.322
 8221SOL    HW125562   5.524   3.093   3.269
 8221SOL    HW225563   5.494   3.151   3.419
 8222SOL     OW25564   6.436   3.164   0.734
 8222SOL    HW125565   6.403   3.152   0.828
 8222SOL    HW225566   6.369   3.126   0.670
 8223SOL     OW25567   0.672   5.751   5.324
 8223SOL    HW125568   0.663   5.687   5.248
 8223SOL    HW225569   0.699   5.701   5.406
 8224SOL     OW25570   5.496   2.015   0.518
 8224SOL    HW125571   5.448   2.103   0.516
 8224SOL    HW225572   5.428   1.941   0.519
 8225SOL     OW25573   5.167   1.646   0.712
 8225SOL    HW125574   5.089   1.708   0.702
 8225SOL    HW225575   5.163   1.576   0.641
 8226SOL     OW25576   4.338   0.382   0.251
 8226SOL    HW125577   4.253   0.329   0.256
 8226SOL    HW225578   4.322   0.465   0.197
 8227SOL     OW25579   5.045   2.241   2.825
 8227SOL    HW125580   5.126   2.267   2.878
 8227SOL    HW225581   5.011   2.320   2.775
 8228SOL     OW25582   1.695   0.472   5.446
 8228SOL    HW125583   1.747   0.530   5.508
 8228SOL    HW225584   1.606   0.452   5.487
 8229SOL     OW25585   4.671   4.391   1.255
 8229SOL    HW125586   4.615   4.474   1.259
 8229SOL    HW225587   4.671   4.355   1.162
 8230SOL     OW25588   5.656   0.368   5.847
 8230SOL    HW125589   5.667   0.281   5.798
 8230SOL    HW225590   5.731   0.429   5.822
 8231SOL     OW25591   2.732   1.229   2.963
 8231SOL    HW125592   2.641   1.268   2.978
 8231SOL    HW225593   2.802   1.296   2.989
 8232SOL     OW25594   3.545   6.380   2.806
 8232SOL    HW125595   3.540   6.475   2.776
 8232SOL    HW225596   3.610   6.331   2.748
 8233SOL     OW25597   1.093   0.837   5.993
 8233SOL    HW125598   1.126   0.824   6.086
 8233SOL    HW225599   1.065   0.932   5.980
 8234SOL     OW25600   1.701   1.578   0.616
 8234SOL    HW125601   1.710   1.583   0.716
 8234SOL    HW225602   1.770   1.636   0.573
 8235SOL     OW25603   0.427   5.713   1.004
 8235SOL    HW125604   0.353   5.666   1.052
 8235SOL    HW225605   0.503   5.730   1.068
 8236SOL     OW25606   0.783   6.149   0.711
 8236SOL    HW125607   0.828   6.072   0.666
 8236SOL    HW225608   0.839   6.231   0.701
 8237SOL     OW25609   4.206   4.918   6.909
 8237SOL    HW125610   4.243   5.010   6.921
 8237SOL    HW225611   4.271   4.862   6.857
 8238SOL     OW25612   0.688   4.256   0.326
 8238SOL    HW125613   0.764   4.320   0.316
 8238SOL    HW225614   0.601   4.307   0.327
 8239SOL     OW25615   1.531   1.178   5.574
 8239SOL    HW125616   1.465   1.222   5.635
 8239SOL    HW225617   1.515   1.079   5.574
 8240SOL     OW25618   3.700   3.838   4.391
 8240SOL    HW125619   3.785   3.890   4.380
 8240SOL    HW225620   3.685   3.817   4.487
 8241SOL     OW25621   2.197   3.928   6.056
 8241SOL    HW125622   2.102   3.897   6.053
 8241SOL    HW225623   2.256   3.852   6.085
 8242SOL     OW25624   0.620   3.493   3.931
 8242SOL    HW125625   0.656   3.581   3.900
 8242SOL    HW225626   0.690   3.445   3.983
 8243SOL     OW25627   0.415   4.676   4.726
 8243SOL    HW125628   0.486   4.720   4.672
 8243SOL    HW225629   0.455   4.638   4.810
 8244SOL     OW25630   1.103   0.289   4.759
 8244SOL    HW125631   1.034   0.303   4.688
 8244SOL    HW225632   1.083   0.349   4.837
 8245SOL     OW25633   5.337   1.644   3.630
 8245SOL    HW125634   5.399   1.603   3.563
 8245SOL    HW225635   5.377   1.638   3.721
 8246SOL     OW25636   2.275   5.386   6.527
 8246SOL    HW125637   2.327   5.465   6.557
 8246SOL    HW225638   2.210   5.360   6.598
 8247SOL     OW25639   3.043   5.490   2.971
 8247SOL    HW125640   2.944   5.478   2.984
 8247SOL    HW225641   3.089   5.402   2.983
 8248SOL     OW25642   0.172   5.210   3.239
 8248SOL    HW125643   0.252   5.165   3.278
 8248SOL    HW225644   0.185   5.309   3.242
 8249SOL     OW25645   2.902   1.885   6.117
 8249SOL    HW125646   2.914   1.952   6.191
 8249SOL    HW225647   2.900   1.933   6.029
 8250SOL     OW25648   1.574   1.436   6.915
 8250SOL    HW125649   1.537   1.526   6.935
 8250SOL    HW225650   1.621   1.437   6.827
 8251SOL     OW25651   0.396   1.865   4.157
 8251SOL    HW125652   0.371   1.907   4.070
 8251SOL    HW225653   0.361   1.772   4.161
 8252SOL     OW25654   1.183   2.139   6.760
 8252SOL    HW125655   1.210   2.226   6.800
 8252SOL    HW225656   1.174   2.149   6.661
 8253SOL     OW25657   4.754   6.135   1.027
 8253SOL    HW125658   4.664   6.109   0.993
 8253SOL    HW225659   4.750   6.229   1.061
 8254SOL     OW25660   4.996   4.925   6.852
 8254SOL    HW125661   5.031   4.929   6.759
 8254SOL    HW225662   4.903   4.888   6.852
 8255SOL     OW25663   0.726   6.509   6.623
 8255SOL    HW125664   0.730   6.564   6.706
 8255SOL    HW225665   0.808   6.452   6.617
 8256SOL     OW25666   1.659   5.729   3.635
 8256SOL    HW125667   1.569   5.771   3.622
 8256SOL    HW225668   1.691   5.689   3.549
 8257SOL     OW25669   4.936   3.292   3.097
 8257SOL    HW125670   4.931   3.361   3.025
 8257SOL    HW225671   4.956   3.336   3.184
 8258SOL     OW25672   6.804   3.299   2.232
 8258SOL    HW125673   6.705   3.291   2.244
 8258SOL    HW225674   6.846   3.210   2.244
 8259SOL     OW25675   5.099   1.155   4.529
 8259SOL    HW125676   5.003   1.174   4.508
 8259SOL    HW225677   5.121   1.191   4.620
 8260SOL     OW25678   4.211   1.401   1.321
 8260SOL    HW125679   4.270   1.345   1.263
 8260SOL    HW225680   4.139   1.442   1.265
 8261SOL     OW25681   5.745   0.417   2.898
 8261SOL    HW125682   5.818   0.349   2.887
 8261SOL    HW225683   5.704   0.437   2.809
 8262SOL     OW25684   6.060   3.451   2.140
 8262SOL    HW125685   5.965   3.430   2.119
 8262SOL    HW225686   6.068   3.475   2.236
 8263SOL     OW25687   0.071   2.465   5.961
 8263SOL    HW125688   0.120   2.550   5.978
 8263SOL    HW225689   0.058   2.453   5.862
 8264SOL     OW25690   2.684   6.829   2.533
 8264SOL    HW125691   2.630   6.851   2.452
 8264SOL    HW225692   2.642   6.752   2.581
 8265SOL     OW25693   5.330   0.094   0.568
 8265SOL    HW125694   5.331   0.008   0.619
 8265SOL    HW225695   5.246   0.099   0.513
 8266SOL     OW25696   2.530   0.754   3.817
 8266SOL    HW125697   2.464   0.802   3.760
 8266SOL    HW225698   2.554   0.812   3.896
 8267SOL     OW25699   1.414   4.243   2.923
 8267SOL    HW125700   1.341   4.202   2.978
 8267SOL    HW225701   1.374   4.288   2.843
 8268SOL     OW25702   3.092   4.779   6.327
 8268SOL    HW125703   3.087   4.783   6.227
 8268SOL    HW225704   3.002   4.753   6.363
 8269SOL     OW25705   5.805   2.583   3.711
 8269SOL    HW125706   5.800   2.572   3.612
 8269SOL    HW225707   5.869   2.516   3.749
 8270SOL     OW25708   3.788   0.290   6.173
 8270SOL    HW125709   3.776   0.344   6.256
 8270SOL    HW225710   3.830   0.202   6.196
 8271SOL     OW25711   3.866   6.033   5.621
 8271SOL    HW125712   3.794   5.968   5.597
 8271SOL    HW225713   3.884   6.029   5.719
 8272SOL     OW25714   0.622   0.285   1.480
 8272SOL    HW125715   0.551   0.353   1.499
 8272SOL    HW225716   0.582   0.193   1.485
 8273SOL     OW25717   3.525   0.397   6.927
 8273SOL    HW125718   3.615   0.371   6.963
 8273SOL    HW225719   3.520   0.374   6.830
 8274SOL     OW25720   5.443   6.047   5.888
 8274SOL    HW125721   5.500   6.045   5.806
 8274SOL    HW225722   5.449   6.137   5.931
 8275SOL     OW25723   5.400   0.194   3.552
 8275SOL    HW125724   5.365   0.142   3.629
 8275SOL    HW225725   5.378   0.291   3.564
 8276SOL     OW25726   0.189   2.714   6.051
 8276SOL    HW125727   0.273   2.768   6.061
 8276SOL    HW225728   0.157   2.685   6.141
 8277SOL     OW25729   1.028   5.931   6.459
 8277SOL    HW125730   0.943   5.975   6.487
 8277SOL    HW225731   1.094   5.935   6.534
 8278SOL     OW25732   3.894   1.131   0.455
 8278SOL    HW125733   3.945   1.047   0.471
 8278SOL    HW225734   3.957   1.204   0.430
 8279SOL     OW25735   4.813   4.884   5.996
 8279SOL    HW125736   4.874   4.952   6.036
 8279SOL    HW225737   4.721   4.897   6.032
 8280SOL     OW25738   5.363   3.291   7.008
 8280SOL    HW125739   5.300   3.368   7.014
 8280SOL    HW225740   5.340   3.223   0.060
 8281SOL     OW25741   2.331   5.032   6.980
 8281SOL    HW125742   2.372   5.113   0.003
 8281SOL    HW225743   2.244   5.011   0.007
 8282SOL     OW25744   2.972   1.880   0.398
 8282SOL    HW125745   3.004   1.872   0.492
 8282SOL    HW225746   3.048   1.907   0.338
 8283SOL     OW25747   0.240   5.473   3.141
 8283SOL    HW125748   0.198   5.522   3.065
 8283SOL    HW225749   0.333   5.507   3.155
 8284SOL     OW25750   2.750   1.921   2.019
 8284SOL    HW125751   2.669   1.862   2.027
 8284SOL    HW225752   2.743   1.975   1.935
 8285SOL     OW25753   3.054   4.149   6.092
 8285SOL    HW125754   3.046   4.200   6.178
 8285SOL    HW225755   3.041   4.052   6.110
 8286SOL     OW25756   5.722   1.141   5.494
 8286SOL    HW125757   5.624   1.158   5.478
 8286SOL    HW225758   5.734   1.092   5.580
 8287SOL     OW25759   2.166   0.611   3.344
 8287SOL    HW125760   2.206   0.687   3.292
 8287SOL    HW225761   2.088   0.643   3.396
 8288SOL     OW25762   1.854   1.064   2.972
 8288SOL    HW125763   1.887   0.996   3.037
 8288SOL    HW225764   1.917   1.141   2.969
 8289SOL     OW25765   6.694   1.574   5.996
 8289SOL    HW125766   6.710   1.501   5.929
 8289SOL    HW225767   6.688   1.662   5.948
 8290SOL     OW25768   4.457   2.848   1.692
 8290SOL    HW125769   4.493   2.923   1.748
 8290SOL    HW225770   4.432   2.882   1.602
 8291SOL     OW25771   4.278   4.901   6.140
 8291SOL    HW125772   4.298   4.942   6.229
 8291SOL    HW225773   4.364   4.885   6.091
 8292SOL     OW25774   0.801   4.145   4.450
 8292SOL    HW125775   0.800   4.116   4.545
 8292SOL    HW225776   0.712   4.126   4.408
 8293SOL     OW25777   3.196   4.863   4.139
 8293SOL    HW125778   3.181   4.805   4.060
 8293SOL    HW225779   3.112   4.868   4.194
 8294SOL     OW25780   4.777   3.194   5.806
 8294SOL    HW125781   4.690   3.190   5.855
 8294SOL    HW225782   4.762   3.238   5.717
 8295SOL     OW25783   5.121   4.043   2.106
 8295SOL    HW125784   5.181   3.988   2.047
 8295SOL    HW225785   5.027   4.010   2.097
 8296SOL     OW25786   3.625   6.321   1.725
 8296SOL    HW125787   3.684   6.345   1.648
 8296SOL    HW225788   3.599   6.403   1.775
 8297SOL     OW25789   5.755   4.327   3.070
 8297SOL    HW125790   5.850   4.353   3.050
 8297SOL    HW225791   5.700   4.333   2.987
 8298SOL     OW25792   6.623   0.031   5.815
 8298SOL    HW125793   6.647   0.105   5.878
 8298SOL    HW225794   6.705   0.000   5.767
 8299SOL     OW25795   0.415   3.508   0.959
 8299SOL    HW125796   0.387   3.604   0.963
 8299SOL    HW225797   0.441   3.484   0.866
 8300SOL     OW25798   5.371   4.555   2.523
 8300SOL    HW125799   5.420   4.600   2.598
 8300SOL    HW225800   5.356   4.620   2.449
 8301SOL     OW25801   4.735   6.657   0.504
 8301SOL    HW125802   4.697   6.749   0.504
 8301SOL    HW225803   4.766   6.633   0.596
 8302SOL     OW25804   3.500   6.765   5.495
 8302SOL    HW125805   3.442   6.809   5.426
 8302SOL    HW225806   3.557   6.834   5.540
 8303SOL     OW25807   0.140   6.437   2.806
 8303SOL    HW125808   0.158   6.359   2.746
 8303SOL    HW225809   0.081   6.503   2.760
 8304SOL     OW25810   5.244   3.959   3.078
 8304SOL    HW125811   5.263   4.047   3.035
 8304SOL    HW225812   5.238   3.971   3.177
 8305SOL     OW25813   4.859   6.272   4.816
 8305SOL    HW125814   4.796   6.340   4.780
 8305SOL    HW225815   4.934   6.258   4.750
 8306SOL     OW25816   0.033   0.846   2.198
 8306SOL    HW125817   0.084   0.775   2.246
 8306SOL    HW225818   0.041   0.832   2.099
 8307SOL     OW25819   1.268   3.676   2.827
 8307SOL    HW125820   1.219   3.763   2.822
 8307SOL    HW225821   1.223   3.616   2.893
 8308SOL     OW25822   1.435   5.596   0.971
 8308SOL    HW125823   1.371   5.519   0.970
 8308SOL    HW225824   1.393   5.675   0.927
 8309SOL     OW25825   5.773   4.492   4.269
 8309SOL    HW125826   5.843   4.500   4.198
 8309SOL    HW225827   5.683   4.503   4.228
 8310SOL     OW25828   0.894   0.087   0.502
 8310SOL    HW125829   0.868   0.174   0.546
 8310SOL    HW225830   0.916   0.020   0.573
 8311SOL     OW25831   5.917   6.695   3.206
 8311SOL    HW125832   5.994   6.687   3.143
 8311SOL    HW225833   5.921   6.784   3.252
 8312SOL     OW25834   5.575   1.553   0.543
 8312SOL    HW125835   5.655   1.610   0.524
 8312SOL    HW225836   5.501   1.579   0.480
 8313SOL     OW25837   5.341   2.390   4.954
 8313SOL    HW125838   5.267   2.393   4.887
 8313SOL    HW225839   5.362   2.483   4.984
 8314SOL     OW25840   5.065   6.079   4.634
 8314SOL    HW125841   5.128   6.138   4.582
 8314SOL    HW225842   5.027   6.010   4.573
 8315SOL     OW25843   3.731   4.250   5.178
 8315SOL    HW125844   3.760   4.172   5.122
 8315SOL    HW225845   3.736   4.333   5.123
 8316SOL     OW25846   2.441   2.481   6.096
 8316SOL    HW125847   2.441   2.385   6.066
 8316SOL    HW225848   2.445   2.484   6.196
 8317SOL     OW25849   2.089   1.317   3.942
 8317SOL    HW125850   2.091   1.236   4.000
 8317SOL    HW225851   2.000   1.363   3.952
 8318SOL     OW25852   4.350   0.107   0.236
 8318SOL    HW125853   4.442   0.114   0.197
 8318SOL    HW225854   4.331   0.187   0.292
 8319SOL     OW25855   1.144   6.575   0.051
 8319SOL    HW125856   1.082   6.545   6.996
 8319SOL    HW225857   1.230   6.606   0.010
 8320SOL     OW25858   3.093   3.026   4.690
 8320SOL    HW125859   3.027   2.974   4.635
 8320SOL    HW225860   3.085   3.000   4.786
 8321SOL     OW25861   0.424   6.698   1.767
 8321SOL    HW125862   0.496   6.638   1.802
 8321SOL    HW225863   0.344   6.693   1.828
 8322SOL     OW25864   0.953   6.960   6.959
 8322SOL    HW125865   1.014   6.984   6.884
 8322SOL    HW225866   0.902   6.877   6.936
 8323SOL     OW25867   5.539   4.120   0.269
 8323SOL    HW125868   5.534   4.089   0.363
 8323SOL    HW225869   5.493   4.209   0.261
 8324SOL     OW25870   4.967   5.711   6.190
 8324SOL    HW125871   4.985   5.809   6.185
 8324SOL    HW225872   5.014   5.665   6.115
 8325SOL     OW25873   1.326   5.560   6.135
 8325SOL    HW125874   1.293   5.604   6.218
 8325SOL    HW225875   1.415   5.600   6.110
 8326SOL     OW25876   1.320   3.645   1.041
 8326SOL    HW125877   1.268   3.567   1.076
 8326SOL    HW225878   1.406   3.614   1.003
 8327SOL     OW25879   0.814   0.088   4.912
 8327SOL    HW125880   0.771   0.175   4.936
 8327SOL    HW225881   0.748   0.031   4.862
 8328SOL     OW25882   1.564   0.033   0.315
 8328SOL    HW125883   1.560   0.118   0.368
 8328SOL    HW225884   1.569   6.973   0.378
 8329SOL     OW25885   1.606   3.018   4.822
 8329SOL    HW125886   1.581   3.060   4.909
 8329SOL    HW225887   1.686   2.959   4.835
 8330SOL     OW25888   3.847   1.334   6.316
 8330SOL    HW125889   3.910   1.331   6.394
 8330SOL    HW225890   3.760   1.294   6.343
 8331SOL     OW25891   1.816   2.362   6.127
 8331SOL    HW125892   1.731   2.392   6.085
 8331SOL    HW225893   1.797   2.285   6.189
 8332SOL     OW25894   6.041   5.087   1.647
 8332SOL    HW125895   6.024   5.044   1.735
 8332SOL    HW225896   6.001   5.179   1.646
 8333SOL     OW25897   1.940   4.651   0.844
 8333SOL    HW125898   1.877   4.631   0.919
 8333SOL    HW225899   2.029   4.677   0.882
 8334SOL     OW25900   3.625   1.807   6.352
 8334SOL    HW125901   3.617   1.723   6.406
 8334SOL    HW225902   3.722   1.829   6.340
 8335SOL     OW25903   5.415   3.692   6.224
 8335SOL    HW125904   5.395   3.603   6.263
 8335SOL    HW225905   5.513   3.699   6.204
 8336SOL     OW25906   1.057   4.285   3.609
 8336SOL    HW125907   0.969   4.293   3.656
 8336SOL    HW225908   1.129   4.326   3.666
 8337SOL     OW25909   0.644   1.273   5.039
 8337SOL    HW125910   0.731   1.285   4.992
 8337SOL    HW225911   0.657   1.216   5.120
 8338SOL     OW25912   4.203   5.755   2.221
 8338SOL    HW125913   4.286   5.729   2.171
 8338SOL    HW225914   4.128   5.695   2.194
 8339SOL     OW25915   6.055   6.715   0.684
 8339SOL    HW125916   6.031   6.636   0.739
 8339SOL    HW225917   6.152   6.709   0.658
 8340SOL     OW25918   6.075   2.300   6.831
 8340SOL    HW125919   6.148   2.325   6.767
 8340SOL    HW225920   6.104   2.321   6.925
 8341SOL     OW25921   3.222   0.656   0.703
 8341SOL    HW125922   3.306   0.630   0.654
 8341SOL    HW225923   3.209   0.594   0.781
 8342SOL     OW25924   4.827   0.483   0.205
 8342SOL    HW125925   4.768   0.435   0.270
 8342SOL    HW225926   4.773   0.551   0.155
 8343SOL     OW25927   6.033   4.163   3.510
 8343SOL    HW125928   5.946   4.163   3.558
 8343SOL    HW225929   6.076   4.073   3.518
 8344SOL     OW25930   1.209   5.229   5.370
 8344SOL    HW125931   1.201   5.248   5.272
 8344SOL    HW225932   1.260   5.145   5.383
 8345SOL     OW25933   4.202   1.299   3.638
 8345SOL    HW125934   4.229   1.386   3.595
 8345SOL    HW225935   4.118   1.312   3.690
 8346SOL     OW25936   5.876   3.369   5.100
 8346SOL    HW125937   5.785   3.345   5.134
 8346SOL    HW225938   5.872   3.386   5.001
 8347SOL     OW25939   2.744   0.266   0.177
 8347SOL    HW125940   2.839   0.295   0.171
 8347SOL    HW225941   2.730   0.215   0.262
 8348SOL     OW25942   3.631   6.631   2.080
 8348SOL    HW125943   3.666   6.724   2.088
 8348SOL    HW225944   3.573   6.623   1.999
 8349SOL     OW25945   0.443   6.256   1.712
 8349SOL    HW125946   0.441   6.162   1.748
 8349SOL    HW225947   0.451   6.252   1.612
 8350SOL     OW25948   2.683   0.488   0.769
 8350SOL    HW125949   2.756   0.518   0.707
 8350SOL    HW225950   2.636   0.568   0.806
 8351SOL     OW25951   6.403   3.102   2.968
 8351SOL    HW125952   6.427   3.059   3.055
 8351SOL    HW225953   6.473   3.080   2.900
 8352SOL     OW25954   2.116   6.059   1.625
 8352SOL    HW125955   2.120   6.148   1.671
 8352SOL    HW225956   2.070   6.069   1.537
 8353SOL     OW25957   1.551   4.349   1.829
 8353SOL    HW125958   1.589   4.260   1.855
 8353SOL    HW225959   1.461   4.361   1.871
 8354SOL     OW25960   2.785   0.266   3.233
 8354SOL    HW125961   2.811   0.323   3.311
 8354SOL    HW225962   2.685   0.253   3.234
 8355SOL     OW25963   2.395   5.934   6.640
 8355SOL    HW125964   2.419   6.023   6.677
 8355SOL    HW225965   2.478   5.880   6.627
 8356SOL     OW25966   1.652   5.706   0.851
 8356SOL    HW125967   1.599   5.648   0.913
 8356SOL    HW225968   1.741   5.663   0.833
 8357SOL     OW25969   4.277   5.900   5.765
 8357SOL    HW125970   4.253   5.946   5.679
 8357SOL    HW225971   4.232   5.811   5.769
 8358SOL     OW25972   0.809   1.754   4.922
 8358SOL    HW125973   0.718   1.713   4.928
 8358SOL    HW225974   0.866   1.700   4.859
 8359SOL     OW25975   3.352   2.019   5.403
 8359SOL    HW125976   3.443   2.044   5.367
 8359SOL    HW225977   3.299   2.103   5.417
 8360SOL     OW25978   4.644   6.856   1.728
 8360SOL    HW125979   4.557   6.811   1.747
 8360SOL    HW225980   4.632   6.924   1.656
 8361SOL     OW25981   3.741   0.267   6.792
 8361SOL    HW125982   3.676   0.217   6.735
 8361SOL    HW225983   3.818   0.208   6.816
 8362SOL     OW25984   0.079   3.937   1.573
 8362SOL    HW125985   0.112   3.843   1.569
 8362SOL    HW225986   0.140   3.996   1.522
 8363SOL     OW25987   2.790   3.172   0.011
 8363SOL    HW125988   2.875   3.119   0.002
 8363SOL    HW225989   2.766   3.211   6.940
 8364SOL     OW25990   6.891   3.196   4.265
 8364SOL    HW125991   6.859   3.104   4.244
 8364SOL    HW225992   6.873   3.217   4.361
 8365SOL     OW25993   1.679   2.739   2.542
 8365SOL    HW125994   1.741   2.740   2.621
 8365SOL    HW225995   1.678   2.647   2.501
 8366SOL     OW25996   4.842   5.305   2.031
 8366SOL    HW125997   4.863   5.283   2.126
 8366SOL    HW225998   4.800   5.225   1.988
 8367SOL     OW25999   3.757   5.171   4.651
 8367SOL    HW126000   3.672   5.220   4.636
 8367SOL    HW226001   3.748   5.113   4.732
 8368SOL     OW26002   6.836   6.456   0.235
 8368SOL    HW126003   6.898   6.392   0.190
 8368SOL    HW226004   6.827   6.431   0.332
 8369SOL     OW26005   2.719   0.158   1.263
 8369SOL    HW126006   2.707   0.206   1.177
 8369SOL    HW226007   2.710   0.222   1.339
 8370SOL     OW26008   2.570   3.001   0.311
 8370SOL    HW126009   2.596   3.074   0.375
 8370SOL    HW226010   2.645   2.985   0.247
 8371SOL     OW26011   1.768   4.416   6.180
 8371SOL    HW126012   1.811   4.332   6.212
 8371SOL    HW226013   1.743   4.407   6.084
 8372SOL     OW26014   2.295   5.703   2.713
 8372SOL    HW126015   2.269   5.695   2.809
 8372SOL    HW226016   2.377   5.649   2.696
 8373SOL     OW26017   6.745   1.212   4.171
 8373SOL    HW126018   6.660   1.179   4.212
 8373SOL    HW226019   6.823   1.171   4.218
 8374SOL     OW26020   1.686   0.146   4.523
 8374SOL    HW126021   1.594   0.181   4.507
 8374SOL    HW226022   1.739   0.150   4.439
 8375SOL     OW26023   4.060   1.063   4.490
 8375SOL    HW126024   4.088   1.135   4.426
 8375SOL    HW226025   4.053   0.976   4.441
 8376SOL     OW26026   2.243   0.851   3.217
 8376SOL    HW126027   2.266   0.905   3.136
 8376SOL    HW226028   2.311   0.867   3.289
 8377SOL     OW26029   4.398   5.717   0.213
 8377SOL    HW126030   4.331   5.730   0.139
 8377SOL    HW226031   4.487   5.693   0.174
 8378SOL     OW26032   5.493   5.532   3.836
 8378SOL    HW126033   5.475   5.544   3.933
 8378SOL    HW226034   5.514   5.621   3.794
 8379SOL     OW26035   5.853   1.224   1.747
 8379SOL    HW126036   5.849   1.277   1.662
 8379SOL    HW226037   5.888   1.132   1.726
 8380SOL     OW26038   6.546   5.925   0.831
 8380SOL    HW126039   6.462   5.886   0.794
 8380SOL    HW226040   6.620   5.916   0.764
 8381SOL     OW26041   0.265   2.428   1.813
 8381SOL    HW126042   0.208   2.511   1.819
 8381SOL    HW226043   0.360   2.451   1.835
 8382SOL     OW26044   2.730   0.285   0.978
 8382SOL    HW126045   2.707   0.356   1.045
 8382SOL    HW226046   2.740   0.328   0.888
 8383SOL     OW26047   2.666   6.123   6.509
 8383SOL    HW126048   2.691   6.027   6.493
 8383SOL    HW226049   2.712   6.155   6.592
 8384SOL     OW26050   0.505   2.348   1.159
 8384SOL    HW126051   0.516   2.425   1.221
 8384SOL    HW226052   0.566   2.358   1.081
 8385SOL     OW26053   3.399   3.793   1.215
 8385SOL    HW126054   3.330   3.831   1.277
 8385SOL    HW226055   3.473   3.860   1.202
 8386SOL     OW26056   1.707   5.698   2.218
 8386SOL    HW126057   1.729   5.615   2.269
 8386SOL    HW226058   1.691   5.774   2.282
 8387SOL     OW26059   1.626   0.958   2.321
 8387SOL    HW126060   1.571   0.898   2.263
 8387SOL    HW226061   1.581   1.046   2.331
 8388SOL     OW26062   4.118   6.576   0.879
 8388SOL    HW126063   4.022   6.603   0.876
 8388SOL    HW226064   4.167   6.623   0.805
 8389SOL     OW26065   0.475   2.559   3.971
 8389SOL    HW126066   0.564   2.561   3.925
 8389SOL    HW226067   0.482   2.606   4.059
 8390SOL     OW26068   3.007   0.974   5.790
 8390SOL    HW126069   3.061   0.899   5.827
 8390SOL    HW226070   2.935   0.999   5.855
 8391SOL     OW26071   5.244   5.912   1.254
 8391SOL    HW126072   5.243   5.837   1.188
 8391SOL    HW226073   5.287   5.881   1.339
 8392SOL     OW26074   5.530   6.331   5.137
 8392SOL    HW126075   5.564   6.314   5.230
 8392SOL    HW226076   5.589   6.283   5.072
 8393SOL     OW26077   6.978   6.022   3.111
 8393SOL    HW126078   6.989   6.122   3.108
 8393SOL    HW226079   0.004   5.987   3.194
 8394SOL     OW26080   0.555   2.262   2.803
 8394SOL    HW126081   0.459   2.290   2.808
 8394SOL    HW226082   0.561   2.162   2.808
 8395SOL     OW26083   6.705   5.776   5.192
 8395SOL    HW126084   6.651   5.693   5.178
 8395SOL    HW226085   6.802   5.752   5.201
 8396SOL     OW26086   4.863   3.582   2.100
 8396SOL    HW126087   4.897   3.491   2.076
 8396SOL    HW226088   4.764   3.578   2.114
 8397SOL     OW26089   2.054   5.876   3.377
 8397SOL    HW126090   2.103   5.929   3.308
 8397SOL    HW226091   2.014   5.795   3.335
 8398SOL     OW26092   4.346   1.647   0.359
 8398SOL    HW126093   4.357   1.605   0.269
 8398SOL    HW226094   4.262   1.700   0.362
 8399SOL     OW26095   5.937   6.102   0.136
 8399SOL    HW126096   5.893   6.162   0.203
 8399SOL    HW226097   5.939   6.009   0.171
 8400SOL     OW26098   6.566   0.823   2.519
 8400SOL    HW126099   6.605   0.897   2.463
 8400SOL    HW226100   6.521   0.757   2.459
 8401SOL     OW26101   3.094   4.724   6.639
 8401SOL    HW126102   3.018   4.713   6.576
 8401SOL    HW226103   3.061   4.719   6.733
 8402SOL     OW26104   4.517   1.828   6.846
 8402SOL    HW126105   4.571   1.745   6.858
 8402SOL    HW226106   4.473   1.852   6.933
 8403SOL     OW26107   1.660   1.303   4.603
 8403SOL    HW126108   1.664   1.238   4.527
 8403SOL    HW226109   1.632   1.254   4.686
 8404SOL     OW26110   4.810   5.511   5.813
 8404SOL    HW126111   4.753   5.593   5.804
 8404SOL    HW226112   4.756   5.438   5.856
 8405SOL     OW26113   0.260   2.588   5.711
 8405SOL    HW126114   0.304   2.566   5.624
 8405SOL    HW226115   0.328   2.625   5.774
 8406SOL     OW26116   5.036   3.273   1.687
 8406SOL    HW126117   4.962   3.278   1.754
 8406SOL    HW226118   5.076   3.364   1.675
 8407SOL     OW26119   4.814   3.961   2.904
 8407SOL    HW126120   4.813   4.024   2.982
 8407SOL    HW226121   4.895   3.903   2.909
 8408SOL     OW26122   4.922   2.226   4.868
 8408SOL    HW126123   4.903   2.270   4.955
 8408SOL    HW226124   5.007   2.263   4.830
 8409SOL     OW26125   1.496   1.533   3.669
 8409SOL    HW126126   1.546   1.580   3.742
 8409SOL    HW226127   1.557   1.514   3.593
 8410SOL     OW26128   4.216   6.828   1.874
 8410SOL    HW126129   4.161   6.831   1.790
 8410SOL    HW226130   4.284   6.756   1.866
 8411SOL     OW26131   1.485   3.670   4.943
 8411SOL    HW126132   1.503   3.763   4.912
 8411SOL    HW226133   1.386   3.653   4.945
 8412SOL     OW26134   5.078   2.349   3.245
 8412SOL    HW126135   5.126   2.425   3.287
 8412SOL    HW226136   4.980   2.368   3.244
 8413SOL     OW26137   3.595   4.959   0.705
 8413SOL    HW126138   3.557   4.873   0.671
 8413SOL    HW226139   3.683   4.977   0.661
 8414SOL     OW26140   3.968   6.617   3.137
 8414SOL    HW126141   3.942   6.660   3.050
 8414SOL    HW226142   4.016   6.684   3.194
 8415SOL     OW26143   6.432   3.950   2.714
 8415SOL    HW126144   6.367   3.973   2.787
 8415SOL    HW226145   6.503   4.021   2.709
 8416SOL     OW26146   5.789   3.519   2.147
 8416SOL    HW126147   5.804   3.549   2.053
 8416SOL    HW226148   5.795   3.598   2.208
 8417SOL     OW26149   2.429   6.379   5.955
 8417SOL    HW126150   2.370   6.357   5.877
 8417SOL    HW226151   2.406   6.470   5.990
 8418SOL     OW26152   6.774   5.651   3.196
 8418SOL    HW126153   6.742   5.593   3.121
 8418SOL    HW226154   6.873   5.639   3.207
 8419SOL     OW26155   4.381   0.847   2.968
 8419SOL    HW126156   4.331   0.907   3.030
 8419SOL    HW226157   4.357   0.870   2.873
 8420SOL     OW26158   3.774   0.657   6.404
 8420SOL    HW126159   3.854   0.657   6.345
 8420SOL    HW226160   3.696   0.696   6.355
 8421SOL     OW26161   1.591   6.821   1.997
 8421SOL    HW126162   1.643   6.737   2.015
 8421SOL    HW226163   1.651   6.900   2.009
 8422SOL     OW26164   4.563   6.883   0.503
 8422SOL    HW126165   4.602   6.975   0.508
 8422SOL    HW226166   4.478   6.885   0.451
 8423SOL     OW26167   3.371   4.102   0.806
 8423SOL    HW126168   3.443   4.141   0.863
 8423SOL    HW226169   3.371   4.002   0.816
 8424SOL     OW26170   3.564   1.190   2.896
 8424SOL    HW126171   3.505   1.264   2.928
 8424SOL    HW226172   3.641   1.228   2.845
 8425SOL     OW26173   6.434   4.787   0.248
 8425SOL    HW126174   6.473   4.858   0.307
 8425SOL    HW226175   6.335   4.799   0.244
 8426SOL     OW26176   4.000   3.835   3.223
 8426SOL    HW126177   4.045   3.765   3.278
 8426SOL    HW226178   3.929   3.880   3.278
 8427SOL     OW26179   2.291   3.931   6.649
 8427SOL    HW126180   2.390   3.947   6.656
 8427SOL    HW226181   2.265   3.924   6.553
 8428SOL     OW26182   6.776   3.965   2.005
 8428SOL    HW126183   6.778   3.950   2.104
 8428SOL    HW226184   6.805   4.059   1.985
 8429SOL     OW26185   1.812   6.183   3.939
 8429SOL    HW126186   1.763   6.172   3.853
 8429SOL    HW226187   1.765   6.132   4.011
 8430SOL     OW26188   4.253   5.091   2.774
 8430SOL    HW126189   4.155   5.094   2.796
 8430SOL    HW226190   4.288   4.999   2.791
 8431SOL     OW26191   3.078   4.723   1.447
 8431SOL    HW126192   3.022   4.762   1.375
 8431SOL    HW226193   3.127   4.796   1.495
 8432SOL     OW26194   4.200   6.625   6.311
 8432SOL    HW126195   4.217   6.595   6.217
 8432SOL    HW226196   4.189   6.724   6.314
 8433SOL     OW26197   1.076   2.140   6.494
 8433SOL    HW126198   1.135   2.071   6.451
 8433SOL    HW226199   0.987   2.140   6.448
 8434SOL     OW26200   5.289   7.016   5.441
 8434SOL    HW126201   5.292   0.071   5.509
 8434SOL    HW226202   5.382   6.991   5.415
 8435SOL     OW26203   4.253   1.932   1.293
 8435SOL    HW126204   4.184   2.000   1.318
 8435SOL    HW226205   4.294   1.894   1.376
 8436SOL     OW26206   4.289   4.385   1.679
 8436SOL    HW126207   4.353   4.391   1.602
 8436SOL    HW226208   4.320   4.316   1.744
 8437SOL     OW26209   0.780   1.784   0.859
 8437SOL    HW126210   0.829   1.729   0.792
 8437SOL    HW226211   0.690   1.744   0.875
 8438SOL     OW26212   1.661   5.418   2.302
 8438SOL    HW126213   1.727   5.354   2.261
 8438SOL    HW226214   1.647   5.393   2.398
 8439SOL     OW26215   6.984   5.344   2.430
 8439SOL    HW126216   7.011   5.304   2.518
 8439SOL    HW226217   6.979   5.444   2.439
 8440SOL     OW26218   0.785   1.099   2.172
 8440SOL    HW126219   0.785   1.067   2.266
 8440SOL    HW226220   0.746   1.028   2.112
 8441SOL     OW26221   4.313   5.505   6.388
 8441SOL    HW126222   4.385   5.451   6.344
 8441SOL    HW226223   4.245   5.532   6.320
 8442SOL     OW26224   2.303   4.633   6.791
 8442SOL    HW126225   2.237   4.673   6.728
 8442SOL    HW226226   2.300   4.683   6.878
 8443SOL     OW26227   1.460   0.504   3.052
 8443SOL    HW126228   1.540   0.445   3.060
 8443SOL    HW226229   1.409   0.480   2.969
 8444SOL     OW26230   3.190   6.187   3.167
 8444SOL    HW126231   3.220   6.190   3.072
 8444SOL    HW226232   3.237   6.259   3.219
 8445SOL     OW26233   3.751   5.051   2.911
 8445SOL    HW126234   3.758   5.151   2.914
 8445SOL    HW226235   3.671   5.025   2.857
 8446SOL     OW26236   5.774   4.546   2.100
 8446SOL    HW126237   5.865   4.573   2.132
 8446SOL    HW226238   5.774   4.449   2.078
 8447SOL     OW26239   4.705   2.444   1.900
 8447SOL    HW126240   4.686   2.531   1.855
 8447SOL    HW226241   4.797   2.413   1.874
 8448SOL     OW26242   0.838   3.622   6.884
 8448SOL    HW126243   0.889   3.700   6.919
 8448SOL    HW226244   0.743   3.628   6.914
 8449SOL     OW26245   1.334   3.360   4.595
 8449SOL    HW126246   1.361   3.434   4.657
 8449SOL    HW226247   1.313   3.278   4.648
 8450SOL     OW26248   2.457   5.464   2.970
 8450SOL    HW126249   2.549   5.427   2.983
 8450SOL    HW226250   2.412   5.418   2.894
 8451SOL     OW26251   3.655   2.579   1.325
 8451SOL    HW126252   3.747   2.579   1.285
 8451SOL    HW226253   3.646   2.502   1.387
 8452SOL     OW26254   6.931   0.094   0.746
 8452SOL    HW126255   6.955   0.145   0.829
 8452SOL    HW226256   6.957   7.016   0.756
 8453SOL     OW26257   6.599   3.987   6.057
 8453SOL    HW126258   6.557   3.925   5.991
 8453SOL    HW226259   6.600   4.080   6.020
 8454SOL     OW26260   1.824   0.105   4.045
 8454SOL    HW126261   1.766   0.184   4.025
 8454SOL    HW226262   1.886   0.127   4.120
 8455SOL     OW26263   4.803   1.568   0.810
 8455SOL    HW126264   4.835   1.521   0.892
 8455SOL    HW226265   4.818   1.510   0.730
 8456SOL     OW26266   5.364   5.370   2.965
 8456SOL    HW126267   5.273   5.329   2.962
 8456SOL    HW226268   5.378   5.414   3.053
 8457SOL     OW26269   0.042   6.055   5.890
 8457SOL    HW126270   0.137   6.074   5.868
 8457SOL    HW226271   7.015   6.139   5.919
 8458SOL     OW26272   1.571   1.626   0.380
 8458SOL    HW126273   1.627   1.598   0.458
 8458SOL    HW226274   1.496   1.683   0.412
 8459SOL     OW26275   3.472   5.852   2.012
 8459SOL    HW126276   3.429   5.840   1.923
 8459SOL    HW226277   3.480   5.949   2.033
 8460SOL     OW26278   4.884   1.729   0.454
 8460SOL    HW126279   4.957   1.797   0.460
 8460SOL    HW226280   4.796   1.774   0.466
 8461SOL     OW26281   6.848   3.820   1.585
 8461SOL    HW126282   6.779   3.872   1.635
 8461SOL    HW226283   6.935   3.870   1.586
 8462SOL     OW26284   3.540   4.481   6.426
 8462SOL    HW126285   3.595   4.436   6.497
 8462SOL    HW226286   3.574   4.574   6.412
 8463SOL     OW26287   6.473   1.543   0.354
 8463SOL    HW126288   6.481   1.622   0.415
 8463SOL    HW226289   6.540   1.551   0.280
 8464SOL     OW26290   0.284   3.154   0.162
 8464SOL    HW126291   0.207   3.095   0.187
 8464SOL    HW226292   0.300   3.148   0.064
 8465SOL     OW26293   4.300   3.156   1.150
 8465SOL    HW126294   4.338   3.198   1.233
 8465SOL    HW226295   4.216   3.107   1.174
 8466SOL     OW26296   5.737   0.555   5.439
 8466SOL    HW126297   5.637   0.552   5.447
 8466SOL    HW226298   5.763   0.623   5.371
 8467SOL     OW26299   3.612   1.278   1.395
 8467SOL    HW126300   3.588   1.194   1.443
 8467SOL    HW226301   3.631   1.256   1.299
 8468SOL     OW26302   6.534   3.190   6.853
 8468SOL    HW126303   6.506   3.195   6.757
 8468SOL    HW226304   6.515   3.277   6.899
 8469SOL     OW26305   3.593   2.716   5.818
 8469SOL    HW126306   3.633   2.781   5.883
 8469SOL    HW226307   3.498   2.740   5.801
 8470SOL     OW26308   1.539   4.817   1.363
 8470SOL    HW126309   1.541   4.857   1.454
 8470SOL    HW226310   1.446   4.823   1.326
 8471SOL     OW26311   3.582   2.123   5.316
 8471SOL    HW126312   3.670   2.112   5.362
 8471SOL    HW226313   3.598   2.137   5.218
 8472SOL     OW26314   5.562   1.389   5.722
 8472SOL    HW126315   5.595   1.458   5.657
 8472SOL    HW226316   5.609   1.400   5.810
 8473SOL     OW26317   4.843   4.053   6.355
 8473SOL    HW126318   4.745   4.032   6.363
 8473SOL    HW226319   4.896   3.970   6.367
 8474SOL     OW26320   3.364   3.678   2.616
 8474SOL    HW126321   3.377   3.588   2.657
 8474SOL    HW226322   3.293   3.728   2.666
 8475SOL     OW26323   6.583   2.950   1.869
 8475SOL    HW126324   6.526   3.006   1.929
 8475SOL    HW226325   6.560   2.969   1.773
 8476SOL     OW26326   5.980   0.334   1.650
 8476SOL    HW126327   5.982   0.313   1.748
 8476SOL    HW226328   5.886   0.328   1.617
 8477SOL     OW26329   6.014   6.751   1.497
 8477SOL    HW126330   6.047   6.809   1.423
 8477SOL    HW226331   6.090   6.701   1.537
 8478SOL     OW26332   0.196   6.877   4.939
 8478SOL    HW126333   0.242   6.810   4.997
 8478SOL    HW226334   0.109   6.839   4.906
 8479SOL     OW26335   0.923   2.271   1.425
 8479SOL    HW126336   0.952   2.178   1.450
 8479SOL    HW226337   0.874   2.269   1.338
 8480SOL     OW26338   4.847   4.446   0.156
 8480SOL    HW126339   4.819   4.360   0.114
 8480SOL    HW226340   4.839   4.520   0.089
 8481SOL     OW26341   3.907   2.124   3.645
 8481SOL    HW126342   4.000   2.135   3.680
 8481SOL    HW226343   3.901   2.161   3.553
 8482SOL     OW26344   4.680   1.421   0.124
 8482SOL    HW126345   4.587   1.392   0.101
 8482SOL    HW226346   4.746   1.367   0.073
 8483SOL     OW26347   2.766   5.884   3.572
 8483SOL    HW126348   2.735   5.833   3.653
 8483SOL    HW226349   2.692   5.945   3.541
 8484SOL     OW26350   6.094   5.880   4.158
 8484SOL    HW126351   5.994   5.882   4.160
 8484SOL    HW226352   6.129   5.972   4.173
 8485SOL     OW26353   2.540   2.249   0.276
 8485SOL    HW126354   2.612   2.266   0.343
 8485SOL    HW226355   2.540   2.322   0.208
 8486SOL     OW26356   1.014   0.958   2.640
 8486SOL    HW126357   1.000   0.859   2.629
 8486SOL    HW226358   1.072   0.991   2.566
 8487SOL     OW26359   5.717   1.820   5.719
 8487SOL    HW126360   5.766   1.879   5.654
 8487SOL    HW226361   5.757   1.729   5.717
 8488SOL     OW26362   4.922   5.315   1.760
 8488SOL    HW126363   5.019   5.292   1.771
 8488SOL    HW226364   4.880   5.323   1.851
 8489SOL     OW26365   5.143   0.987   1.547
 8489SOL    HW126366   5.235   0.957   1.518
 8489SOL    HW226367   5.086   1.001   1.466
 8490SOL     OW26368   2.274   0.258   6.779
 8490SOL    HW126369   2.189   0.292   6.739
 8490SOL    HW226370   2.312   0.186   6.721
 8491SOL     OW26371   3.244   5.803   2.421
 8491SOL    HW126372   3.178   5.777   2.350
 8491SOL    HW226373   3.239   5.901   2.437
 8492SOL     OW26374   5.889   5.172   4.389
 8492SOL    HW126375   5.837   5.211   4.313
 8492SOL    HW226376   5.890   5.237   4.465
 8493SOL     OW26377   3.856   0.228   0.135
 8493SOL    HW126378   3.809   0.147   0.101
 8493SOL    HW226379   3.813   0.259   0.219
 8494SOL     OW26380   5.855   5.268   2.089
 8494SOL    HW126381   5.951   5.250   2.067
 8494SOL    HW226382   5.823   5.202   2.156
 8495SOL     OW26383   6.644   6.063   0.279
 8495SOL    HW126384   6.715   6.095   0.342
 8495SOL    HW226385   6.680   6.063   0.186
 8496SOL     OW26386   5.078   2.010   2.333
 8496SOL    HW126387   5.111   1.938   2.271
 8496SOL    HW226388   4.986   1.987   2.364
 8497SOL     OW26389   6.566   0.694   3.790
 8497SOL    HW126390   6.520   0.748   3.719
 8497SOL    HW226391   6.513   0.611   3.808
 8498SOL     OW26392   4.814   6.935   4.480
 8498SOL    HW126393   4.859   6.980   4.557
 8498SOL    HW226394   4.831   6.986   4.396
 8499SOL     OW26395   6.531   6.110   6.499
 8499SOL    HW126396   6.582   6.181   6.548
 8499SOL    HW226397   6.526   6.132   6.402
 8500SOL     OW26398   1.847   0.635   5.612
 8500SOL    HW126399   1.896   0.672   5.534
 8500SOL    HW226400   1.788   0.705   5.652
 8501SOL     OW26401   0.575   1.409   0.238
 8501SOL    HW126402   0.619   1.464   0.167
 8501SOL    HW226403   0.537   1.469   0.308
 8502SOL     OW26404   0.606   2.826   6.758
 8502SOL    HW126405   0.579   2.817   6.854
 8502SOL    HW226406   0.530   2.866   6.706
 8503SOL     OW26407   6.127   6.200   4.095
 8503SOL    HW126408   6.124   6.280   4.154
 8503SOL    HW226409   6.212   6.199   4.044
 8504SOL     OW26410   2.511   4.871   2.888
 8504SOL    HW126411   2.481   4.858   2.794
 8504SOL    HW226412   2.562   4.790   2.918
 8505SOL     OW26413   5.217   3.379   2.694
 8505SOL    HW126414   5.260   3.411   2.778
 8505SOL    HW226415   5.229   3.280   2.686
 8506SOL     OW26416   2.546   0.072   7.008
 8506SOL    HW126417   2.644   0.051   6.999
 8506SOL    HW226418   2.531   0.168   6.986
 8507SOL     OW26419   4.775   6.107   5.496
 8507SOL    HW126420   4.822   6.123   5.583
 8507SOL    HW226421   4.807   6.173   5.428
 8508SOL     OW26422   4.125   1.962   6.929
 8508SOL    HW126423   4.181   1.948   6.847
 8508SOL    HW226424   4.106   2.060   6.940
 8509SOL     OW26425   5.328   0.520   3.587
 8509SOL    HW126426   5.272   0.537   3.668
 8509SOL    HW226427   5.422   0.498   3.615
 8510SOL     OW26428   6.054   2.132   4.501
 8510SOL    HW126429   5.954   2.136   4.507
 8510SOL    HW226430   6.094   2.193   4.570
 8511SOL     OW26431   5.902   2.922   1.609
 8511SOL    HW126432   5.874   2.907   1.514
 8511SOL    HW226433   5.909   3.021   1.626
 8512SOL     OW26434   1.556   6.805   4.846
 8512SOL    HW126435   1.477   6.744   4.855
 8512SOL    HW226436   1.555   6.848   4.756
 8513SOL     OW26437   6.026   6.264   6.511
 8513SOL    HW126438   6.098   6.278   6.579
 8513SOL    HW226439   5.942   6.309   6.540
 8514SOL     OW26440   2.376   6.693   4.398
 8514SOL    HW126441   2.351   6.786   4.371
 8514SOL    HW226442   2.466   6.694   4.442
 8515SOL     OW26443   4.834   2.098   1.741
 8515SOL    HW126444   4.783   2.026   1.693
 8515SOL    HW226445   4.877   2.060   1.823
 8516SOL     OW26446   6.724   2.705   2.219
 8516SOL    HW126447   6.794   2.731   2.285
 8516SOL    HW226448   6.656   2.646   2.262
 8517SOL     OW26449   1.805   2.590   6.516
 8517SOL    HW126450   1.769   2.633   6.598
 8517SOL    HW226451   1.733   2.585   6.447
 8518SOL     OW26452   4.115   5.470   0.240
 8518SOL    HW126453   4.061   5.546   0.277
 8518SOL    HW226454   4.088   5.453   0.146
 8519SOL     OW26455   0.594   5.545   2.617
 8519SOL    HW126456   0.675   5.494   2.587
 8519SOL    HW226457   0.585   5.628   2.561
 8520SOL     OW26458   4.041   0.807   0.058
 8520SOL    HW126459   3.954   0.759   0.061
 8520SOL    HW226460   4.040   0.883   0.123
 8521SOL     OW26461   1.409   5.902   6.097
 8521SOL    HW126462   1.314   5.931   6.106
 8521SOL    HW226463   1.451   5.899   6.188
 8522SOL     OW26464   1.364   6.090   5.302
 8522SOL    HW126465   1.391   6.021   5.368
 8522SOL    HW226466   1.389   6.059   5.210
 8523SOL     OW26467   1.375   6.723   0.175
 8523SOL    HW126468   1.313   6.673   0.235
 8523SOL    HW226469   1.324   6.764   0.100
 8524SOL     OW26470   1.230   3.275   6.726
 8524SOL    HW126471   1.235   3.374   6.734
 8524SOL    HW226472   1.321   3.236   6.743
 8525SOL     OW26473   6.170   3.110   3.226
 8525SOL    HW126474   6.152   3.189   3.167
 8525SOL    HW226475   6.228   3.044   3.177
 8526SOL     OW26476   2.252   2.783   2.522
 8526SOL    HW126477   2.170   2.741   2.561
 8526SOL    HW226478   2.237   2.801   2.425
 8527SOL     OW26479   4.498   0.773   4.738
 8527SOL    HW126480   4.573   0.755   4.674
 8527SOL    HW226481   4.444   0.851   4.705
 8528SOL     OW26482   5.058   2.834   6.304
 8528SOL    HW126483   5.077   2.918   6.254
 8528SOL    HW226484   5.076   2.755   6.246
 8529SOL     OW26485   0.812   4.856   0.228
 8529SOL    HW126486   0.717   4.874   0.254
 8529SOL    HW226487   0.826   4.758   0.217
 8530SOL     OW26488   2.016   3.820   5.510
 8530SOL    HW126489   2.102   3.825   5.560
 8530SOL    HW226490   2.033   3.794   5.415
 8531SOL     OW26491   5.069   4.526   2.333
 8531SOL    HW126492   5.023   4.513   2.421
 8531SOL    HW226493   5.027   4.467   2.264
 8532SOL     OW26494   2.974   3.891   6.184
 8532SOL    HW126495   2.993   3.794   6.170
 8532SOL    HW226496   2.928   3.903   6.272
 8533SOL     OW26497   3.428   0.823   4.801
 8533SOL    HW126498   3.421   0.724   4.789
 8533SOL    HW226499   3.524   0.849   4.806
 8534SOL     OW26500   1.340   2.804   2.895
 8534SOL    HW126501   1.427   2.763   2.867
 8534SOL    HW226502   1.331   2.895   2.853
 8535SOL     OW26503   0.307   2.220   4.590
 8535SOL    HW126504   0.264   2.309   4.574
 8535SOL    HW226505   0.320   2.173   4.503
 8536SOL     OW26506   0.312   1.727   6.298
 8536SOL    HW126507   0.278   1.805   6.349
 8536SOL    HW226508   0.236   1.680   6.253
 8537SOL     OW26509   5.694   0.577   2.274
 8537SOL    HW126510   5.607   0.577   2.323
 8537SOL    HW226511   5.678   0.598   2.177
 8538SOL     OW26512   5.746   0.619   4.459
 8538SOL    HW126513   5.742   0.688   4.386
 8538SOL    HW226514   5.780   0.533   4.421
 8539SOL     OW26515   0.405   3.624   1.972
 8539SOL    HW126516   0.464   3.583   1.902
 8539SOL    HW226517   0.351   3.553   2.016
 8540SOL     OW26518   4.003   0.446   0.110
 8540SOL    HW126519   3.987   0.508   0.186
 8540SOL    HW226520   3.951   0.361   0.124
 8541SOL     OW26521   2.975   0.809   4.967
 8541SOL    HW126522   3.054   0.849   4.921
 8541SOL    HW226523   2.940   0.874   5.035
 8542SOL     OW26524   1.886   4.320   6.893
 8542SOL    HW126525   1.809   4.267   6.926
 8542SOL    HW226526   1.873   4.417   6.918
 8543SOL     OW26527   2.433   1.803   6.498
 8543SOL    HW126528   2.517   1.849   6.526
 8543SOL    HW226529   2.414   1.823   6.402
 8544SOL     OW26530   5.223   3.611   5.157
 8544SOL    HW126531   5.250   3.626   5.062
 8544SOL    HW226532   5.161   3.533   5.162
 8545SOL     OW26533   2.855   0.566   6.458
 8545SOL    HW126534   2.853   0.585   6.556
 8545SOL    HW226535   2.779   0.613   6.413
 8546SOL     OW26536   5.515   0.171   1.344
 8546SOL    HW126537   5.440   0.214   1.395
 8546SOL    HW226538   5.571   0.117   1.407
 8547SOL     OW26539   5.880   6.267   5.521
 8547SOL    HW126540   5.889   6.193   5.587
 8547SOL    HW226541   5.866   6.354   5.569
 8548SOL     OW26542   0.707   3.014   6.286
 8548SOL    HW126543   0.715   3.074   6.207
 8548SOL    HW226544   0.720   3.067   6.370
 8549SOL     OW26545   1.473   0.920   2.967
 8549SOL    HW126546   1.535   0.867   3.024
 8549SOL    HW226547   1.525   0.988   2.915
 8550SOL     OW26548   6.892   4.737   6.554
 8550SOL    HW126549   6.936   4.699   6.636
 8550SOL    HW226550   6.837   4.667   6.510
 8551SOL     OW26551   2.297   1.523   5.999
 8551SOL    HW126552   2.239   1.585   5.947
 8551SOL    HW226553   2.389   1.562   6.006
 8552SOL     OW26554   2.786   2.019   3.178
 8552SOL    HW126555   2.873   2.060   3.206
 8552SOL    HW226556   2.802   1.927   3.143
 8553SOL     OW26557   5.336   3.146   6.758
 8553SOL    HW126558   5.329   3.047   6.770
 8553SOL    HW226559   5.318   3.191   6.846
 8554SOL     OW26560   1.362   0.615   0.325
 8554SOL    HW126561   1.381   0.517   0.333
 8554SOL    HW226562   1.283   0.638   0.382
 8555SOL     OW26563   4.797   0.990   4.453
 8555SOL    HW126564   4.885   0.962   4.414
 8555SOL    HW226565   4.745   1.041   4.385
 8556SOL     OW26566   1.568   6.342   0.795
 8556SOL    HW126567   1.546   6.274   0.725
 8556SOL    HW226568   1.583   6.296   0.883
 8557SOL     OW26569   0.620   0.779   0.203
 8557SOL    HW126570   0.592   0.829   0.285
 8557SOL    HW226571   0.706   0.815   0.169
 8558SOL     OW26572   2.913   5.171   4.018
 8558SOL    HW126573   2.925   5.245   4.084
 8558SOL    HW226574   2.816   5.153   4.006
 8559SOL     OW26575   1.169   5.396   2.867
 8559SOL    HW126576   1.109   5.457   2.918
 8559SOL    HW226577   1.118   5.315   2.838
 8560SOL     OW26578   2.931   4.343   1.654
 8560SOL    HW126579   2.982   4.269   1.699
 8560SOL    HW226580   2.894   4.405   1.723
 8561SOL     OW26581   4.557   6.858   2.073
 8561SOL    HW126582   4.586   6.904   2.158
 8561SOL    HW226583   4.614   6.778   2.058
 8562SOL     OW26584   4.447   1.319   0.025
 8562SOL    HW126585   4.353   1.342   7.017
 8562SOL    HW226586   4.492   1.271   6.968
 8563SOL     OW26587   2.435   5.194   2.477
 8563SOL    HW126588   2.490   5.241   2.407
 8563SOL    HW226589   2.478   5.106   2.499
 8564SOL     OW26590   4.467   0.591   6.620
 8564SOL    HW126591   4.532   0.658   6.584
 8564SOL    HW226592   4.516   0.522   6.672
 8565SOL     OW26593   2.652   5.188   1.001
 8565SOL    HW126594   2.691   5.276   1.026
 8565SOL    HW226595   2.553   5.198   0.986
 8566SOL     OW26596   3.268   1.006   3.126
 8566SOL    HW126597   3.361   0.986   3.096
 8566SOL    HW226598   3.241   1.097   3.093
 8567SOL     OW26599   2.298   1.985   1.699
 8567SOL    HW126600   2.264   1.943   1.783
 8567SOL    HW226601   2.302   2.084   1.710
 8568SOL     OW26602   6.606   0.868   6.994
 8568SOL    HW126603   6.602   0.956   0.024
 8568SOL    HW226604   6.684   0.815   0.010
 8569SOL     OW26605   4.926   2.170   6.348
 8569SOL    HW126606   4.882   2.154   6.260
 8569SOL    HW226607   4.870   2.231   6.403
 8570SOL     OW26608   1.688   2.934   4.060
 8570SOL    HW126609   1.746   3.006   4.021
 8570SOL    HW226610   1.612   2.976   4.110
 8571SOL     OW26611   1.736   0.679   3.779
 8571SOL    HW126612   1.693   0.638   3.699
 8571SOL    HW226613   1.672   0.743   3.822
 8572SOL     OW26614   3.054   4.291   5.854
 8572SOL    HW126615   3.089   4.238   5.778
 8572SOL    HW226616   3.060   4.238   5.938
 8573SOL     OW26617   4.318   6.072   0.706
 8573SOL    HW126618   4.272   6.044   0.790
 8573SOL    HW226619   4.323   5.995   0.643
 8574SOL     OW26620   5.590   6.742   5.347
 8574SOL    HW126621   5.594   6.723   5.249
 8574SOL    HW226622   5.577   6.840   5.363
 8575SOL     OW26623   3.051   6.467   3.407
 8575SOL    HW126624   2.955   6.439   3.408
 8575SOL    HW226625   3.076   6.497   3.315
 8576SOL     OW26626   0.934   4.506   3.499
 8576SOL    HW126627   0.984   4.420   3.505
 8576SOL    HW226628   0.973   4.563   3.427
 8577SOL     OW26629   1.657   1.821   0.218
 8577SOL    HW126630   1.589   1.764   0.264
 8577SOL    HW226631   1.611   1.895   0.168
 8578SOL     OW26632   6.874   6.927   5.735
 8578SOL    HW126633   6.901   6.833   5.716
 8578SOL    HW226634   6.914   6.988   5.667
 8579SOL     OW26635   3.242   6.301   2.704
 8579SOL    HW126636   3.283   6.257   2.784
 8579SOL    HW226637   3.306   6.299   2.628
 8580SOL     OW26638   2.272   0.515   1.626
 8580SOL    HW126639   2.283   0.576   1.705
 8580SOL    HW226640   2.182   0.531   1.584
 8581SOL     OW26641   3.149   4.849   1.121
 8581SOL    HW126642   3.052   4.825   1.125
 8581SOL    HW226643   3.204   4.766   1.120
 8582SOL     OW26644   3.890   4.578   5.950
 8582SOL    HW126645   3.821   4.626   6.004
 8582SOL    HW226646   3.976   4.628   5.954
 8583SOL     OW26647   4.475   0.587   2.871
 8583SOL    HW126648   4.556   0.575   2.813
 8583SOL    HW226649   4.480   0.676   2.916
 8584SOL     OW26650   6.489   1.141   4.307
 8584SOL    HW126651   6.519   1.211   4.372
 8584SOL    HW226652   6.420   1.082   4.350
 8585SOL     OW26653   5.338   1.892   2.406
 8585SOL    HW126654   5.340   1.913   2.503
 8585SOL    HW226655   5.245   1.907   2.371
 8586SOL     OW26656   6.149   5.676   1.275
 8586SOL    HW126657   6.168   5.756   1.332
 8586SOL    HW226658   6.211   5.602   1.301
 8587SOL     OW26659   2.034   1.562   6.136
 8587SOL    HW126660   2.126   1.536   6.106
 8587SOL    HW226661   1.966   1.515   6.080
 8588SOL     OW26662   2.908   1.311   6.774
 8588SOL    HW126663   2.919   1.380   6.702
 8588SOL    HW226664   2.914   1.220   6.734
 8589SOL     OW26665   6.776   2.893   6.384
 8589SOL    HW126666   6.816   2.944   6.308
 8589SOL    HW226667   6.677   2.884   6.370
 8590SOL     OW26668   1.594   1.385   2.862
 8590SOL    HW126669   1.687   1.404   2.833
 8590SOL    HW226670   1.533   1.386   2.782
 8591SOL     OW26671   6.621   4.408   0.210
 8591SOL    HW126672   6.651   4.484   0.267
 8591SOL    HW226673   6.684   4.332   0.219
 8592SOL     OW26674   1.255   1.661   6.423
 8592SOL    HW126675   1.300   1.574   6.443
 8592SOL    HW226676   1.324   1.729   6.400
 8593SOL     OW26677   3.532   1.055   6.641
 8593SOL    HW126678   3.449   1.085   6.688
 8593SOL    HW226679   3.524   1.072   6.543
 8594SOL     OW26680   6.727   2.652   5.501
 8594SOL    HW126681   6.683   2.601   5.576
 8594SOL    HW226682   6.825   2.635   5.503
 8595SOL     OW26683   5.894   6.434   2.195
 8595SOL    HW126684   5.930   6.427   2.288
 8595SOL    HW226685   5.969   6.454   2.132
 8596SOL     OW26686   0.521   1.747   3.553
 8596SOL    HW126687   0.614   1.730   3.522
 8596SOL    HW226688   0.456   1.703   3.490
 8597SOL     OW26689   6.008   3.570   0.203
 8597SOL    HW126690   6.096   3.553   0.248
 8597SOL    HW226691   5.938   3.588   0.273
 8598SOL     OW26692   5.921   6.435   3.856
 8598SOL    HW126693   6.014   6.447   3.891
 8598SOL    HW226694   5.856   6.477   3.920
 8599SOL     OW26695   1.040   3.307   3.542
 8599SOL    HW126696   1.067   3.282   3.448
 8599SOL    HW226697   1.021   3.223   3.594
 8600SOL     OW26698   3.915   2.595   1.261
 8600SOL    HW126699   4.005   2.639   1.258
 8600SOL    HW226700   3.900   2.544   1.176
 8601SOL     OW26701   0.937   6.956   3.614
 8601SOL    HW126702   1.032   6.940   3.638
 8601SOL    HW226703   0.879   6.888   3.660
 8602SOL     OW26704   2.120   6.580   4.459
 8602SOL    HW126705   2.220   6.581   4.458
 8602SOL    HW226706   2.087   6.661   4.509
 8603SOL     OW26707   0.031   0.693   0.747
 8603SOL    HW126708   6.960   0.738   0.750
 8603SOL    HW226709   0.078   0.719   0.663
 8604SOL     OW26710   0.552   4.250   6.217
 8604SOL    HW126711   0.542   4.310   6.297
 8604SOL    HW226712   0.576   4.158   6.247
 8605SOL     OW26713   6.994   5.099   4.345
 8605SOL    HW126714   0.069   5.088   4.309
 8605SOL    HW226715   6.971   5.197   4.346
 8606SOL     OW26716   2.034   3.252   6.959
 8606SOL    HW126717   2.082   3.337   6.980
 8606SOL    HW226718   2.083   3.175   7.000
 8607SOL     OW26719   2.685   3.980   1.667
 8607SOL    HW126720   2.735   3.911   1.615
 8607SOL    HW226721   2.608   3.937   1.713
 8608SOL     OW26722   2.338   5.430   3.210
 8608SOL    HW126723   2.352   5.466   3.118
 8608SOL    HW226724   2.391   5.346   3.221
 8609SOL     OW26725   4.695   1.096   4.213
 8609SOL    HW126726   4.765   1.074   4.145
 8609SOL    HW226727   4.605   1.082   4.172
 8610SOL     OW26728   0.737   6.564   2.790
 8610SOL    HW126729   0.743   6.467   2.813
 8610SOL    HW226730   0.643   6.586   2.763
 8611SOL     OW26731   2.525   1.237   4.508
 8611SOL    HW126732   2.450   1.301   4.494
 8611SOL    HW226733   2.499   1.169   4.577
 8612SOL     OW26734   3.823   3.927   3.397
 8612SOL    HW126735   3.753   3.997   3.384
 8612SOL    HW226736   3.869   3.942   3.485
 8613SOL     OW26737   3.308   2.878   1.509
 8613SOL    HW126738   3.234   2.814   1.491
 8613SOL    HW226739   3.396   2.831   1.496
 8614SOL     OW26740   1.013   2.440   2.767
 8614SOL    HW126741   1.010   2.493   2.682
 8614SOL    HW226742   0.957   2.357   2.756
 8615SOL     OW26743   4.015   1.105   3.700
 8615SOL    HW126744   4.081   1.166   3.657
 8615SOL    HW226745   3.924   1.146   3.696
 8616SOL     OW26746   4.199   4.736   2.948
 8616SOL    HW126747   4.262   4.781   2.885
 8616SOL    HW226748   4.106   4.772   2.934
 8617SOL     OW26749   3.954   0.436   3.925
 8617SOL    HW126750   3.963   0.489   3.841
 8617SOL    HW226751   4.044   0.408   3.957
 8618SOL     OW26752   5.665   4.295   0.751
 8618SOL    HW126753   5.716   4.320   0.669
 8618SOL    HW226754   5.728   4.278   0.827
 8619SOL     OW26755   5.108   4.567   0.827
 8619SOL    HW126756   5.026   4.582   0.772
 8619SOL    HW226757   5.134   4.470   0.823
 8620SOL     OW26758   1.804   0.241   4.282
 8620SOL    HW126759   1.770   0.306   4.351
 8620SOL    HW226760   1.889   0.276   4.243
 8621SOL     OW26761   5.012   2.634   1.472
 8621SOL    HW126762   5.007   2.734   1.466
 8621SOL    HW226763   4.919   2.597   1.480
 8622SOL     OW26764   6.406   4.908   2.890
 8622SOL    HW126765   6.465   4.841   2.846
 8622SOL    HW226766   6.395   4.884   2.987
 8623SOL     OW26767   0.016   3.450   4.223
 8623SOL    HW126768   0.033   3.475   4.319
 8623SOL    HW226769   7.004   3.355   4.218
 8624SOL     OW26770   3.016   3.914   5.727
 8624SOL    HW126771   2.940   3.932   5.790
 8624SOL    HW226772   2.986   3.934   5.633
 8625SOL     OW26773   3.538   2.210   5.843
 8625SOL    HW126774   3.457   2.254   5.804
 8625SOL    HW226775   3.617   2.272   5.833
 8626SOL     OW26776   4.071   4.255   0.625
 8626SOL    HW126777   4.021   4.341   0.613
 8626SOL    HW226778   4.165   4.275   0.653
 8627SOL     OW26779   1.830   0.600   3.051
 8627SOL    HW126780   1.901   0.612   2.981
 8627SOL    HW226781   1.740   0.615   3.010
 8628SOL     OW26782   0.920   6.392   0.625
 8628SOL    HW126783   0.911   6.458   0.699
 8628SOL    HW226784   1.016   6.384   0.599
 8629SOL     OW26785   0.216   0.159   4.429
 8629SOL    HW126786   0.244   0.224   4.358
 8629SOL    HW226787   0.297   0.122   4.475
 8630SOL     OW26788   5.134   2.959   2.252
 8630SOL    HW126789   5.188   2.944   2.169
 8630SOL    HW226790   5.039   2.933   2.235
 8631SOL     OW26791   3.100   6.581   0.079
 8631SOL    HW126792   3.107   6.549   7.003
 8631SOL    HW226793   3.076   6.504   0.139
 8632SOL     OW26794   4.838   4.423   5.526
 8632SOL    HW126795   4.885   4.402   5.612
 8632SOL    HW226796   4.793   4.512   5.533
 8633SOL     OW26797   5.396   3.440   6.342
 8633SOL    HW126798   5.457   3.427   6.420
 8633SOL    HW226799   5.306   3.468   6.374
 8634SOL     OW26800   5.196   4.515   0.272
 8634SOL    HW126801   5.205   4.482   0.366
 8634SOL    HW226802   5.113   4.477   0.231
 8635SOL     OW26803   5.709   2.546   6.414
 8635SOL    HW126804   5.742   2.591   6.497
 8635SOL    HW226805   5.610   2.560   6.406
 8636SOL     OW26806   5.032   6.658   1.103
 8636SOL    HW126807   5.052   6.748   1.143
 8636SOL    HW226808   5.107   6.595   1.123
 8637SOL     OW26809   2.274   1.533   6.764
 8637SOL    HW126810   2.305   1.615   6.812
 8637SOL    HW226811   2.185   1.505   6.801
 8638SOL     OW26812   4.535   2.672   5.044
 8638SOL    HW126813   4.594   2.705   4.970
 8638SOL    HW226814   4.529   2.742   5.115
 8639SOL     OW26815   3.941   3.913   6.365
 8639SOL    HW126816   3.899   3.971   6.296
 8639SOL    HW226817   3.869   3.865   6.417
 8640SOL     OW26818   2.496   3.646   1.303
 8640SOL    HW126819   2.544   3.615   1.221
 8640SOL    HW226820   2.447   3.568   1.344
 8641SOL     OW26821   4.265   5.978   2.340
 8641SOL    HW126822   4.225   5.897   2.299
 8641SOL    HW226823   4.362   5.961   2.359
 8642SOL     OW26824   1.056   6.136   4.268
 8642SOL    HW126825   1.068   6.092   4.357
 8642SOL    HW226826   1.059   6.236   4.280
 8643SOL     OW26827   4.309   6.969   0.856
 8643SOL    HW126828   4.385   0.016   0.849
 8643SOL    HW226829   4.247   6.999   0.929
 8644SOL     OW26830   5.926   1.892   6.798
 8644SOL    HW126831   5.881   1.887   6.888
 8644SOL    HW226832   5.906   1.809   6.746
 8645SOL     OW26833   5.633   3.303   2.243
 8645SOL    HW126834   5.566   3.270   2.176
 8645SOL    HW226835   5.684   3.379   2.203
 8646SOL     OW26836   0.111   1.770   5.176
 8646SOL    HW126837   0.046   1.845   5.189
 8646SOL    HW226838   0.109   1.711   5.257
 8647SOL     OW26839   2.414   4.760   2.182
 8647SOL    HW126840   2.469   4.843   2.178
 8647SOL    HW226841   2.473   4.680   2.176
 8648SOL     OW26842   5.836   5.346   0.826
 8648SOL    HW126843   5.901   5.340   0.901
 8648SOL    HW226844   5.794   5.257   0.811
 8649SOL     OW26845   4.455   6.985   1.322
 8649SOL    HW126846   4.382   6.919   1.303
 8649SOL    HW226847   4.423   0.033   1.389
 8650SOL     OW26848   1.908   6.903   4.311
 8650SOL    HW126849   1.954   6.925   4.397
 8650SOL    HW226850   1.811   6.883   4.329
 8651SOL     OW26851   3.722   1.729   0.729
 8651SOL    HW126852   3.772   1.808   0.762
 8651SOL    HW226853   3.709   1.664   0.804
 8652SOL     OW26854   1.340   3.712   3.521
 8652SOL    HW126855   1.287   3.794   3.499
 8652SOL    HW226856   1.359   3.710   3.619
 8653SOL     OW26857   0.086   1.596   6.137
 8653SOL    HW126858   0.071   1.503   6.170
 8653SOL    HW226859   0.006   1.652   6.158
 8654SOL     OW26860   0.857   4.557   1.365
 8654SOL    HW126861   0.849   4.491   1.440
 8654SOL    HW226862   0.951   4.590   1.359
 8655SOL     OW26863   0.637   0.873   5.445
 8655SOL    HW126864   0.573   0.813   5.397
 8655SOL    HW226865   0.729   0.860   5.407
 8656SOL     OW26866   4.879   0.189   1.445
 8656SOL    HW126867   4.861   0.283   1.474
 8656SOL    HW226868   4.937   0.191   1.363
 8657SOL     OW26869   4.935   1.299   2.811
 8657SOL    HW126870   4.962   1.312   2.715
 8657SOL    HW226871   5.017   1.283   2.866
 8658SOL     OW26872   0.037   4.904   0.979
 8658SOL    HW126873   0.123   4.953   0.994
 8658SOL    HW226874   7.016   4.930   0.892
 8659SOL     OW26875   4.595   0.963   2.410
 8659SOL    HW126876   4.508   0.915   2.413
 8659SOL    HW226877   4.615   1.002   2.501
 8660SOL     OW26878   0.202   3.710   1.531
 8660SOL    HW126879   0.222   3.685   1.436
 8660SOL    HW226880   0.275   3.676   1.590
 8661SOL     OW26881   6.587   3.368   3.171
 8661SOL    HW126882   6.631   3.329   3.091
 8661SOL    HW226883   6.535   3.297   3.219
 8662SOL     OW26884   2.691   4.924   3.235
 8662SOL    HW126885   2.736   4.882   3.314
 8662SOL    HW226886   2.610   4.870   3.211
 8663SOL     OW26887   3.807   5.959   3.039
 8663SOL    HW126888   3.711   5.939   3.020
 8663SOL    HW226889   3.821   5.961   3.138
 8664SOL     OW26890   2.910   5.359   3.815
 8664SOL    HW126891   2.910   5.275   3.869
 8664SOL    HW226892   2.966   5.346   3.733
 8665SOL     OW26893   5.379   3.166   6.012
 8665SOL    HW126894   5.356   3.138   6.105
 8665SOL    HW226895   5.458   3.115   5.980
 8666SOL     OW26896   4.338   6.233   2.733
 8666SOL    HW126897   4.432   6.199   2.730
 8666SOL    HW226898   4.320   6.272   2.823
 8667SOL     OW26899   5.077   2.102   4.184
 8667SOL    HW126900   5.113   2.083   4.093
 8667SOL    HW226901   5.153   2.109   4.249
 8668SOL     OW26902   4.765   2.842   5.622
 8668SOL    HW126903   4.722   2.755   5.645
 8668SOL    HW226904   4.694   2.911   5.608
 8669SOL     OW26905   6.310   6.187   5.657
 8669SOL    HW126906   6.354   6.121   5.719
 8669SOL    HW226907   6.299   6.145   5.567
 8670SOL     OW26908   6.002   4.587   5.921
 8670SOL    HW126909   5.956   4.578   6.009
 8670SOL    HW226910   5.963   4.522   5.856
 8671SOL     OW26911   6.981   1.709   2.577
 8671SOL    HW126912   6.952   1.784   2.518
 8671SOL    HW226913   6.921   1.704   2.658
 8672SOL     OW26914   0.500   1.463   3.624
 8672SOL    HW126915   0.418   1.485   3.570
 8672SOL    HW226916   0.522   1.540   3.684
 8673SOL     OW26917   0.908   1.695   1.094
 8673SOL    HW126918   0.855   1.761   1.147
 8673SOL    HW226919   0.891   1.709   0.996
 8674SOL     OW26920   6.464   4.837   3.155
 8674SOL    HW126921   6.534   4.909   3.153
 8674SOL    HW226922   6.497   4.761   3.211
 8675SOL     OW26923   3.990   1.871   5.834
 8675SOL    HW126924   4.049   1.837   5.908
 8675SOL    HW226925   3.923   1.934   5.872
 8676SOL     OW26926   5.348   0.779   0.948
 8676SOL    HW126927   5.383   0.703   0.894
 8676SOL    HW226928   5.401   0.861   0.927
 8677SOL     OW26929   1.675   6.672   5.907
 8677SOL    HW126930   1.604   6.630   5.851
 8677SOL    HW226931   1.704   6.758   5.866
 8678SOL     OW26932   1.601   1.123   1.328
 8678SOL    HW126933   1.577   1.212   1.367
 8678SOL    HW226934   1.685   1.089   1.372
 8679SOL     OW26935   1.849   1.598   4.797
 8679SOL    HW126936   1.898   1.677   4.759
 8679SOL    HW226937   1.911   1.545   4.855
 8680SOL     OW26938   6.647   2.055   6.352
 8680SOL    HW126939   6.716   2.046   6.424
 8680SOL    HW226940   6.692   2.047   6.263
 8681SOL     OW26941   5.394   5.812   1.471
 8681SOL    HW126942   5.371   5.717   1.448
 8681SOL    HW226943   5.483   5.835   1.433
 8682SOL     OW26944   0.924   1.160   1.090
 8682SOL    HW126945   0.934   1.257   1.070
 8682SOL    HW226946   1.013   1.115   1.084
 8683SOL     OW26947   2.404   4.391   4.378
 8683SOL    HW126948   2.374   4.298   4.399
 8683SOL    HW226949   2.333   4.437   4.324
 8684SOL     OW26950   0.809   3.759   4.418
 8684SOL    HW126951   0.780   3.685   4.357
 8684SOL    HW226952   0.849   3.833   4.363
 8685SOL     OW26953   4.931   2.408   5.085
 8685SOL    HW126954   4.835   2.431   5.100
 8685SOL    HW226955   4.977   2.399   5.173
 8686SOL     OW26956   6.913   5.796   2.931
 8686SOL    HW126957   6.902   5.879   2.985
 8686SOL    HW226958   6.827   5.745   2.930
 8687SOL     OW26959   6.061   3.430   3.542
 8687SOL    HW126960   6.005   3.507   3.575
 8687SOL    HW226961   6.140   3.418   3.601
 8688SOL     OW26962   1.170   4.781   6.395
 8688SOL    HW126963   1.111   4.703   6.417
 8688SOL    HW226964   1.117   4.865   6.402
 8689SOL     OW26965   4.796   3.783   6.612
 8689SOL    HW126966   4.716   3.842   6.600
 8689SOL    HW226967   4.878   3.830   6.581
 8690SOL     OW26968   2.020   2.234   3.743
 8690SOL    HW126969   1.966   2.237   3.827
 8690SOL    HW226970   1.960   2.251   3.664
 8691SOL     OW26971   2.936   2.094   4.985
 8691SOL    HW126972   2.994   2.168   4.949
 8691SOL    HW226973   2.971   2.066   5.074
 8692SOL     OW26974   4.261   2.091   5.628
 8692SOL    HW126975   4.359   2.102   5.610
 8692SOL    HW226976   4.213   2.175   5.605
 8693SOL     OW26977   6.822   0.076   6.273
 8693SOL    HW126978   6.771   0.151   6.314
 8693SOL    HW226979   6.919   0.101   6.266
 8694SOL     OW26980   5.437   2.926   4.042
 8694SOL    HW126981   5.381   2.902   4.121
 8694SOL    HW226982   5.486   3.012   4.060
 8695SOL     OW26983   3.447   4.524   6.026
 8695SOL    HW126984   3.396   4.467   5.961
 8695SOL    HW226985   3.500   4.465   6.087
 8696SOL     OW26986   3.400   5.881   6.335
 8696SOL    HW126987   3.475   5.816   6.328
 8696SOL    HW226988   3.314   5.832   6.353
 8697SOL     OW26989   1.558   3.179   5.927
 8697SOL    HW126990   1.596   3.246   5.990
 8697SOL    HW226991   1.595   3.194   5.835
 8698SOL     OW26992   5.408   5.445   4.774
 8698SOL    HW126993   5.427   5.359   4.820
 8698SOL    HW226994   5.332   5.492   4.819
 8699SOL     OW26995   1.622   3.198   0.077
 8699SOL    HW126996   1.703   3.204   0.135
 8699SOL    HW226997   1.540   3.198   0.134
 8700SOL     OW26998   0.904   0.332   5.183
 8700SOL    HW126999   0.825   0.270   5.181
 8700SOL    HW227000   0.918   0.370   5.092
 8701SOL     OW27001   0.772   2.172   6.872
 8701SOL    HW127002   0.799   2.076   6.869
 8701SOL    HW227003   0.850   2.228   6.901
 8702SOL     OW27004   5.941   4.073   1.285
 8702SOL    HW127005   5.887   4.156   1.300
 8702SOL    HW227006   5.903   4.022   1.209
 8703SOL     OW27007   2.727   4.635   1.193
 8703SOL    HW127008   2.766   4.691   1.267
 8703SOL    HW227009   2.685   4.553   1.232
 8704SOL     OW27010   1.155   2.244   3.551
 8704SOL    HW127011   1.095   2.181   3.500
 8704SOL    HW227012   1.241   2.198   3.571
 8705SOL     OW27013   4.074   2.717   6.994
 8705SOL    HW127014   4.075   2.646   0.046
 8705SOL    HW227015   4.129   2.795   0.007
 8706SOL     OW27016   4.533   3.571   6.473
 8706SOL    HW127017   4.440   3.569   6.510
 8706SOL    HW227018   4.580   3.652   6.506
 8707SOL     OW27019   1.653   2.016   5.149
 8707SOL    HW127020   1.572   2.070   5.129
 8707SOL    HW227021   1.640   1.922   5.117
 8708SOL     OW27022   5.709   2.496   1.871
 8708SOL    HW127023   5.656   2.413   1.887
 8708SOL    HW227024   5.803   2.471   1.844
 8709SOL     OW27025   6.879   0.265   5.521
 8709SOL    HW127026   6.915   0.181   5.481
 8709SOL    HW227027   6.845   0.325   5.449
 8710SOL     OW27028   2.438   1.230   3.838
 8710SOL    HW127029   2.429   1.262   3.932
 8710SOL    HW227030   2.530   1.252   3.804
 8711SOL     OW27031   1.749   0.700   1.861
 8711SOL    HW127032   1.694   0.749   1.929
 8711SOL    HW227033   1.840   0.740   1.858
 8712SOL     OW27034   1.443   2.960   6.080
 8712SOL    HW127035   1.477   3.039   6.029
 8712SOL    HW227036   1.415   2.888   6.017
 8713SOL     OW27037   0.777   4.868   2.073
 8713SOL    HW127038   0.744   4.799   2.137
 8713SOL    HW227039   0.741   4.958   2.099
 8714SOL     OW27040   6.987   6.196   0.026
 8714SOL    HW127041   6.891   6.185   0.001
 8714SOL    HW227042   0.026   6.140   6.984
 8715SOL     OW27043   2.215   2.601   0.928
 8715SOL    HW127044   2.269   2.626   1.008
 8715SOL    HW227045   2.193   2.504   0.930
 8716SOL     OW27046   6.633   6.381   1.626
 8716SOL    HW127047   6.687   6.339   1.552
 8716SOL    HW227048   6.655   6.337   1.712
 8717SOL     OW27049   2.787   4.118   0.567
 8717SOL    HW127050   2.706   4.076   0.607
 8717SOL    HW227051   2.852   4.140   0.640
 8718SOL     OW27052   2.530   4.632   6.415
 8718SOL    HW127053   2.545   4.569   6.339
 8718SOL    HW227054   2.545   4.584   6.501
 8719SOL     OW27055   4.194   1.067   5.608
 8719SOL    HW127056   4.140   0.996   5.562
 8719SOL    HW227057   4.144   1.100   5.688
 8720SOL     OW27058   6.824   4.155   4.913
 8720SOL    HW127059   6.751   4.109   4.964
 8720SOL    HW227060   6.852   4.098   4.836
 8721SOL     OW27061   0.693   6.704   6.205
 8721SOL    HW127062   0.638   6.725   6.286
 8721SOL    HW227063   0.759   6.778   6.189
 8722SOL     OW27064   4.106   0.905   1.324
 8722SOL    HW127065   4.179   0.945   1.268
 8722SOL    HW227066   4.144   0.875   1.412
 8723SOL     OW27067   4.519   6.713   2.589
 8723SOL    HW127068   4.495   6.675   2.678
 8723SOL    HW227069   4.607   6.676   2.560
 8724SOL     OW27070   4.341   0.958   4.956
 8724SOL    HW127071   4.321   0.951   4.859
 8724SOL    HW227072   4.440   0.954   4.970
 8725SOL     OW27073   0.197   6.205   3.599
 8725SOL    HW127074   0.219   6.180   3.693
 8725SOL    HW227075   0.161   6.298   3.596
 8726SOL     OW27076   0.747   1.170   0.607
 8726SOL    HW127077   0.743   1.080   0.563
 8726SOL    HW227078   0.657   1.213   0.602
 8727SOL     OW27079   4.485   5.301   6.269
 8727SOL    HW127080   4.472   5.253   6.356
 8727SOL    HW227081   4.581   5.299   6.243
 8728SOL     OW27082   6.935   0.527   3.081
 8728SOL    HW127083   6.885   0.606   3.046
 8728SOL    HW227084   0.015   0.540   3.065
 8729SOL     OW27085   3.523   6.008   6.653
 8729SOL    HW127086   3.466   6.022   6.733
 8729SOL    HW227087   3.479   6.049   6.573
 8730SOL     OW27088   4.868   4.748   2.386
 8730SOL    HW127089   4.812   4.737   2.304
 8730SOL    HW227090   4.954   4.698   2.374
 8731SOL     OW27091   0.959   2.047   3.458
 8731SOL    HW127092   0.952   1.992   3.541
 8731SOL    HW227093   0.956   1.987   3.378
 8732SOL     OW27094   5.619   5.727   0.661
 8732SOL    HW127095   5.639   5.790   0.736
 8732SOL    HW227096   5.590   5.779   0.581
 8733SOL     OW27097   6.385   5.148   1.922
 8733SOL    HW127098   6.461   5.209   1.899
 8733SOL    HW227099   6.394   5.063   1.872
 8734SOL     OW27100   0.203   3.447   2.157
 8734SOL    HW127101   0.181   3.480   2.248
 8734SOL    HW227102   0.122   3.454   2.098
 8735SOL     OW27103   1.731   3.654   5.889
 8735SOL    HW127104   1.699   3.724   5.953
 8735SOL    HW227105   1.713   3.685   5.795
 8736SOL     OW27106   1.344   5.919   2.507
 8736SOL    HW127107   1.279   5.973   2.454
 8736SOL    HW227108   1.383   5.976   2.579
 8737SOL     OW27109   1.711   6.122   6.865
 8737SOL    HW127110   1.756   6.199   6.911
 8737SOL    HW227111   1.769   6.041   6.871
 8738SOL     OW27112   1.041   3.567   3.418
 8738SOL    HW127113   1.136   3.550   3.444
 8738SOL    HW227114   1.036   3.651   3.364
 8739SOL     OW27115   5.513   4.424   4.940
 8739SOL    HW127116   5.516   4.327   4.917
 8739SOL    HW227117   5.467   4.436   5.029
 8740SOL     OW27118   3.175   1.629   4.405
 8740SOL    HW127119   3.130   1.547   4.369
 8740SOL    HW227120   3.211   1.610   4.497
 8741SOL     OW27121   0.866   6.965   2.741
 8741SOL    HW127122   0.923   6.998   2.816
 8741SOL    HW227123   0.789   6.913   2.777
 8742SOL     OW27124   3.235   1.690   2.819
 8742SOL    HW127125   3.178   1.772   2.807
 8742SOL    HW227126   3.325   1.706   2.778
 8743SOL     OW27127   1.216   1.393   1.496
 8743SOL    HW127128   1.255   1.309   1.536
 8743SOL    HW227129   1.185   1.453   1.569
 8744SOL     OW27130   3.524   4.862   6.740
 8744SOL    HW127131   3.452   4.854   6.670
 8744SOL    HW227132   3.603   4.908   6.701
 8745SOL     OW27133   6.068   1.511   6.184
 8745SOL    HW127134   6.073   1.471   6.092
 8745SOL    HW227135   6.068   1.610   6.177
 8746SOL     OW27136   4.421   5.024   4.443
 8746SOL    HW127137   4.437   5.103   4.503
 8746SOL    HW227138   4.322   5.012   4.431
 8747SOL     OW27139   0.501   0.992   1.682
 8747SOL    HW127140   0.422   1.053   1.678
 8747SOL    HW227141   0.530   0.967   1.590
 8748SOL     OW27142   0.833   2.210   3.780
 8748SOL    HW127143   0.808   2.227   3.684
 8748SOL    HW227144   0.821   2.113   3.802
 8749SOL     OW27145   2.997   1.443   5.153
 8749SOL    HW127146   2.928   1.512   5.175
 8749SOL    HW227147   2.992   1.421   5.055
 8750SOL     OW27148   3.966   2.839   5.879
 8750SOL    HW127149   4.026   2.897   5.934
 8750SOL    HW227150   3.870   2.858   5.903
 8751SOL     OW27151   0.862   5.851   1.996
 8751SOL    HW127152   0.922   5.831   2.074
 8751SOL    HW227153   0.873   5.780   1.927
 8752SOL     OW27154   4.660   3.455   6.703
 8752SOL    HW127155   4.605   3.394   6.759
 8752SOL    HW227156   4.605   3.491   6.628
 8753SOL     OW27157   2.129   2.823   0.221
 8753SOL    HW127158   2.049   2.765   0.234
 8753SOL    HW227159   2.198   2.773   0.170
 8754SOL     OW27160   2.742   5.236   0.050
 8754SOL    HW127161   2.755   5.145   0.010
 8754SOL    HW227162   2.660   5.237   0.107
 8755SOL     OW27163   0.044   2.239   2.432
 8755SOL    HW127164   0.065   2.330   2.395
 8755SOL    HW227165   0.064   2.238   2.530
 8756SOL     OW27166   2.240   1.839   3.059
 8756SOL    HW127167   2.172   1.913   3.061
 8756SOL    HW227168   2.312   1.862   2.994
 8757SOL     OW27169   5.308   6.473   5.183
 8757SOL    HW127170   5.394   6.423   5.173
 8757SOL    HW227171   5.232   6.408   5.184
 8758SOL     OW27172   3.480   6.672   4.406
 8758SOL    HW127173   3.463   6.720   4.319
 8758SOL    HW227174   3.417   6.707   4.475
 8759SOL     OW27175   5.810   1.301   0.429
 8759SOL    HW127176   5.902   1.335   0.450
 8759SOL    HW227177   5.742   1.370   0.453
 8760SOL     OW27178   2.141   2.462   4.320
 8760SOL    HW127179   2.199   2.538   4.349
 8760SOL    HW227180   2.066   2.451   4.385
 8761SOL     OW27181   4.752   0.684   2.269
 8761SOL    HW127182   4.676   0.699   2.206
 8761SOL    HW227183   4.833   0.731   2.235
 8762SOL     OW27184   1.517   4.979   2.987
 8762SOL    HW127185   1.447   4.929   3.037
 8762SOL    HW227186   1.488   5.074   2.975
 8763SOL     OW27187   0.688   1.276   6.279
 8763SOL    HW127188   0.600   1.249   6.318
 8763SOL    HW227189   0.678   1.290   6.181
 8764SOL     OW27190   3.465   4.908   5.712
 8764SOL    HW127191   3.410   4.879   5.790
 8764SOL    HW227192   3.467   4.835   5.643
 8765SOL     OW27193   4.896   0.262   5.104
 8765SOL    HW127194   4.941   0.182   5.145
 8765SOL    HW227195   4.832   0.301   5.169
 8766SOL     OW27196   5.042   4.784   5.456
 8766SOL    HW127197   5.017   4.856   5.392
 8766SOL    HW227198   5.019   4.813   5.549
 8767SOL     OW27199   2.944   0.932   4.115
 8767SOL    HW127200   2.953   0.885   4.027
 8767SOL    HW227201   2.908   0.868   4.183
 8768SOL     OW27202   6.342   2.215   0.298
 8768SOL    HW127203   6.391   2.243   0.215
 8768SOL    HW227204   6.246   2.242   0.291
 8769SOL     OW27205   6.447   0.788   0.510
 8769SOL    HW127206   6.433   0.814   0.414
 8769SOL    HW227207   6.412   0.696   0.526
 8770SOL     OW27208   4.860   4.061   1.650
 8770SOL    HW127209   4.799   4.125   1.696
 8770SOL    HW227210   4.816   3.972   1.643
 8771SOL     OW27211   0.173   3.489   0.128
 8771SOL    HW127212   0.130   3.415   0.075
 8771SOL    HW227213   0.179   3.462   0.224
 8772SOL     OW27214   5.666   6.648   3.801
 8772SOL    HW127215   5.592   6.705   3.765
 8772SOL    HW227216   5.673   6.565   3.746
 8773SOL     OW27217   6.999   1.766   3.667
 8773SOL    HW127218   6.906   1.733   3.677
 8773SOL    HW227219   0.028   1.760   3.755
 8774SOL     OW27220   1.807   1.088   0.899
 8774SOL    HW127221   1.905   1.076   0.917
 8774SOL    HW227222   1.754   1.042   0.970
 8775SOL     OW27223   5.105   1.794   4.380
 8775SOL    HW127224   5.180   1.729   4.385
 8775SOL    HW227225   5.085   1.816   4.285
 8776SOL     OW27226   4.003   3.004   0.105
 8776SOL    HW127227   3.952   2.946   0.169
 8776SOL    HW227228   3.938   3.050   0.044
 8777SOL     OW27229   1.153   2.493   3.323
 8777SOL    HW127230   1.211   2.435   3.380
 8777SOL    HW227231   1.124   2.442   3.242
 8778SOL     OW27232   3.999   5.023   6.714
 8778SOL    HW127233   4.064   4.961   6.757
 8778SOL    HW227234   3.976   5.097   6.777
 8779SOL     OW27235   3.414   4.914   3.055
 8779SOL    HW127236   3.450   4.920   3.148
 8779SOL    HW227237   3.451   4.832   3.010
 8780SOL     OW27238   5.878   5.049   3.363
 8780SOL    HW127239   5.852   4.953   3.349
 8780SOL    HW227240   5.925   5.082   3.281
 8781SOL     OW27241   3.376   6.567   2.209
 8781SOL    HW127242   3.382   6.473   2.243
 8781SOL    HW227243   3.466   6.596   2.177
 8782SOL     OW27244   5.138   0.805   1.758
 8782SOL    HW127245   5.138   0.873   1.831
 8782SOL    HW227246   5.140   0.850   1.669
 8783SOL     OW27247   5.001   3.456   5.141
 8783SOL    HW127248   4.943   3.487   5.066
 8783SOL    HW227249   5.025   3.360   5.128
 8784SOL     OW27250   5.772   6.126   0.640
 8784SOL    HW127251   5.766   6.147   0.738
 8784SOL    HW227252   5.762   6.210   0.587
 8785SOL     OW27253   0.601   5.548   6.667
 8785SOL    HW127254   0.602   5.472   6.602
 8785SOL    HW227255   0.627   5.632   6.621
 8786SOL     OW27256   4.317   2.152   2.020
 8786SOL    HW127257   4.306   2.125   2.115
 8786SOL    HW227258   4.235   2.125   1.968
 8787SOL     OW27259   3.708   0.047   1.205
 8787SOL    HW127260   3.747   0.133   1.239
 8787SOL    HW227261   3.763   6.988   1.237
 8788SOL     OW27262   0.822   0.564   4.240
 8788SOL    HW127263   0.756   0.488   4.249
 8788SOL    HW227264   0.912   0.533   4.271
 8789SOL     OW27265   7.014   2.786   4.770
 8789SOL    HW127266   6.968   2.827   4.849
 8789SOL    HW227267   0.054   2.855   4.726
 8790SOL     OW27268   5.441   2.603   6.398
 8790SOL    HW127269   5.345   2.586   6.375
 8790SOL    HW227270   5.446   2.657   6.482
 8791SOL     OW27271   4.004   5.323   6.090
 8791SOL    HW127272   4.067   5.255   6.055
 8791SOL    HW227273   4.049   5.413   6.092
 8792SOL     OW27274   5.570   5.387   1.259
 8792SOL    HW127275   5.520   5.302   1.243
 8792SOL    HW227276   5.625   5.409   1.178
 8793SOL     OW27277   0.224   5.020   4.257
 8793SOL    HW127278   0.256   5.010   4.351
 8793SOL    HW227279   0.275   4.958   4.198
 8794SOL     OW27280   0.533   0.816   2.351
 8794SOL    HW127281   0.632   0.829   2.350
 8794SOL    HW227282   0.490   0.878   2.286
 8795SOL     OW27283   1.737   5.390   5.956
 8795SOL    HW127284   1.755   5.488   5.964
 8795SOL    HW227285   1.784   5.342   6.030
 8796SOL     OW27286   6.525   3.917   3.490
 8796SOL    HW127287   6.463   3.844   3.460
 8796SOL    HW227288   6.598   3.928   3.423
 8797SOL     OW27289   4.813   6.741   4.152
 8797SOL    HW127290   4.822   6.774   4.246
 8797SOL    HW227291   4.879   6.667   4.137
 8798SOL     OW27292   3.717   6.436   5.824
 8798SOL    HW127293   3.709   6.502   5.898
 8798SOL    HW227294   3.764   6.354   5.856
 8799SOL     OW27295   1.789   5.538   1.789
 8799SOL    HW127296   1.863   5.473   1.806
 8799SOL    HW227297   1.806   5.586   1.703
 8800SOL     OW27298   0.221   5.973   5.609
 8800SOL    HW127299   0.261   5.930   5.690
 8800SOL    HW227300   0.273   6.055   5.586
 8801SOL     OW27301   6.661   2.833   5.135
 8801SOL    HW127302   6.652   2.759   5.068
 8801SOL    HW227303   6.602   2.909   5.108
 8802SOL     OW27304   1.340   6.752   5.964
 8802SOL    HW127305   1.439   6.741   5.977
 8802SOL    HW227306   1.295   6.663   5.975
 8803SOL     OW27307   6.605   0.325   6.778
 8803SOL    HW127308   6.507   0.313   6.763
 8803SOL    HW227309   6.654   0.302   6.693
 8804SOL     OW27310   1.493   6.392   2.694
 8804SOL    HW127311   1.525   6.340   2.773
 8804SOL    HW227312   1.400   6.425   2.710
 8805SOL     OW27313   4.843   5.020   3.126
 8805SOL    HW127314   4.760   5.038   3.072
 8805SOL    HW227315   4.888   5.107   3.145
 8806SOL     OW27316   2.087   6.931   0.663
 8806SOL    HW127317   2.022   6.895   0.730
 8806SOL    HW227318   2.162   6.866   0.650
 8807SOL     OW27319   4.913   3.088   0.906
 8807SOL    HW127320   5.008   3.111   0.927
 8807SOL    HW227321   4.859   3.089   0.990
 8808SOL     OW27322   2.154   2.363   1.029
 8808SOL    HW127323   2.074   2.317   0.992
 8808SOL    HW227324   2.141   2.382   1.126
 8809SOL     OW27325   1.125   3.899   2.816
 8809SOL    HW127326   1.108   3.983   2.764
 8809SOL    HW227327   1.046   3.878   2.873
 8810SOL     OW27328   0.725   0.649   6.112
 8810SOL    HW127329   0.710   0.671   6.209
 8810SOL    HW227330   0.822   0.630   6.097
 8811SOL     OW27331   3.425   5.558   2.472
 8811SOL    HW127332   3.478   5.625   2.421
 8811SOL    HW227333   3.439   5.571   2.570
 8812SOL     OW27334   4.462   1.331   6.597
 8812SOL    HW127335   4.396   1.401   6.623
 8812SOL    HW227336   4.508   1.296   6.679
 8813SOL     OW27337   2.406   4.756   3.529
 8813SOL    HW127338   2.425   4.779   3.625
 8813SOL    HW227339   2.312   4.721   3.522
 8814SOL     OW27340   5.316   6.383   6.550
 8814SOL    HW127341   5.401   6.330   6.548
 8814SOL    HW227342   5.247   6.332   6.602
 8815SOL     OW27343   5.644   1.120   0.170
 8815SOL    HW127344   5.666   1.087   0.261
 8815SOL    HW227345   5.552   1.159   0.169
 8816SOL     OW27346   0.749   6.399   4.975
 8816SOL    HW127347   0.822   6.349   4.928
 8816SOL    HW227348   0.788   6.481   5.017
 8817SOL     OW27349   1.767   3.191   4.246
 8817SOL    HW127350   1.674   3.165   4.272
 8817SOL    HW227351   1.831   3.162   4.317
 8818SOL     OW27352   1.505   6.927   4.601
 8818SOL    HW127353   1.501   6.844   4.546
 8818SOL    HW227354   1.560   6.996   4.553
 8819SOL     OW27355   5.862   4.304   5.888
 8819SOL    HW127356   5.858   4.238   5.813
 8819SOL    HW227357   5.822   4.390   5.859
 8820SOL     OW27358   3.187   0.292   4.502
 8820SOL    HW127359   3.099   0.340   4.508
 8820SOL    HW227360   3.257   0.355   4.469
 8821SOL     OW27361   0.765   4.372   6.938
 8821SOL    HW127362   0.735   4.282   6.970
 8821SOL    HW227363   0.694   4.440   6.957
 8822SOL     OW27364   6.595   6.864   3.964
 8822SOL    HW127365   6.546   6.937   4.011
 8822SOL    HW227366   6.658   6.904   3.897
 8823SOL     OW27367   3.919   0.757   2.873
 8823SOL    HW127368   3.883   0.792   2.787
 8823SOL    HW227369   3.911   0.826   2.944
 8824SOL     OW27370   2.293   1.063   2.051
 8824SOL    HW127371   2.205   1.065   2.003
 8824SOL    HW227372   2.357   1.126   2.008
 8825SOL     OW27373   0.094   6.436   0.047
 8825SOL    HW127374   0.111   6.460   6.969
 8825SOL    HW227375   0.048   6.348   0.052
 8826SOL     OW27376   1.148   3.335   0.834
 8826SOL    HW127377   1.184   3.412   0.782
 8826SOL    HW227378   1.209   3.256   0.824
 8827SOL     OW27379   3.990   6.795   2.187
 8827SOL    HW127380   4.026   6.702   2.174
 8827SOL    HW227381   4.067   6.859   2.196
 8828SOL     OW27382   3.385   3.292   6.080
 8828SOL    HW127383   3.448   3.366   6.105
 8828SOL    HW227384   3.372   3.231   6.158
 8829SOL     OW27385   0.299   1.599   2.274
 8829SOL    HW127386   0.374   1.561   2.220
 8829SOL    HW227387   0.288   1.696   2.253
 8830SOL     OW27388   2.904   1.737   4.078
 8830SOL    HW127389   2.810   1.767   4.099
 8830SOL    HW227390   2.968   1.808   4.106
 8831SOL     OW27391   0.242   2.707   2.196
 8831SOL    HW127392   0.263   2.749   2.108
 8831SOL    HW227393   0.243   2.778   2.267
 8832SOL     OW27394   6.179   0.491   4.227
 8832SOL    HW127395   6.102   0.553   4.211
 8832SOL    HW227396   6.191   0.432   4.147
 8833SOL     OW27397   3.227   2.680   0.889
 8833SOL    HW127398   3.251   2.671   0.986
 8833SOL    HW227399   3.188   2.771   0.872
 8834SOL     OW27400   5.030   3.075   5.750
 8834SOL    HW127401   5.069   3.036   5.833
 8834SOL    HW227402   4.947   3.126   5.773
 8835SOL     OW27403   6.290   1.104   5.767
 8835SOL    HW127404   6.304   1.103   5.667
 8835SOL    HW227405   6.354   1.040   5.810
 8836SOL     OW27406   5.060   1.899   0.506
 8836SOL    HW127407   5.125   1.958   0.458
 8836SOL    HW227408   5.077   1.905   0.604
 8837SOL     OW27409   5.731   6.737   1.317
 8837SOL    HW127410   5.639   6.750   1.352
 8837SOL    HW227411   5.736   6.650   1.267
 8838SOL     OW27412   0.684   4.259   2.899
 8838SOL    HW127413   0.742   4.333   2.933
 8838SOL    HW227414   0.635   4.217   2.976
 8839SOL     OW27415   5.087   5.946   3.366
 8839SOL    HW127416   5.107   5.864   3.313
 8839SOL    HW227417   5.129   6.025   3.322
 8840SOL     OW27418   7.015   1.288   1.360
 8840SOL    HW127419   0.064   1.347   1.405
 8840SOL    HW227420   6.927   1.296   1.407
 8841SOL     OW27421   3.519   1.051   1.529
 8841SOL    HW127422   3.506   1.066   1.627
 8841SOL    HW227423   3.554   0.958   1.514
 8842SOL     OW27424   3.908   3.546   4.241
 8842SOL    HW127425   3.886   3.489   4.319
 8842SOL    HW227426   3.908   3.642   4.269
 8843SOL     OW27427   1.860   4.418   5.783
 8843SOL    HW127428   1.825   4.401   5.691
 8843SOL    HW227429   1.946   4.469   5.777
 8844SOL     OW27430   4.663   1.804   5.071
 8844SOL    HW127431   4.674   1.848   5.160
 8844SOL    HW227432   4.628   1.711   5.084
 8845SOL     OW27433   0.534   4.666   2.089
 8845SOL    HW127434   0.486   4.745   2.128
 8845SOL    HW227435   0.552   4.599   2.161
 8846SOL     OW27436   5.540   4.679   3.512
 8846SOL    HW127437   5.458   4.635   3.476
 8846SOL    HW227438   5.520   4.720   3.601
 8847SOL     OW27439   2.355   2.231   3.057
 8847SOL    HW127440   2.381   2.320   3.019
 8847SOL    HW227441   2.303   2.180   2.988
 8848SOL     OW27442   3.977   2.037   1.157
 8848SOL    HW127443   3.886   2.077   1.150
 8848SOL    HW227444   4.035   2.098   1.212
 8849SOL     OW27445   2.830   5.557   4.848
 8849SOL    HW127446   2.814   5.492   4.922
 8849SOL    HW227447   2.786   5.524   4.764
 8850SOL     OW27448   3.000   1.688   1.440
 8850SOL    HW127449   3.060   1.661   1.515
 8850SOL    HW227450   3.017   1.784   1.417
 8851SOL     OW27451   6.799   5.268   2.903
 8851SOL    HW127452   6.885   5.279   2.854
 8851SOL    HW227453   6.811   5.202   2.978
 8852SOL     OW27454   5.367   2.497   5.503
 8852SOL    HW127455   5.347   2.478   5.407
 8852SOL    HW227456   5.358   2.412   5.556
 8853SOL     OW27457   4.697   0.825   5.628
 8853SOL    HW127458   4.605   0.864   5.624
 8853SOL    HW227459   4.762   0.897   5.652
 8854SOL     OW27460   1.722   1.506   6.187
 8854SOL    HW127461   1.756   1.548   6.271
 8854SOL    HW227462   1.657   1.433   6.209
 8855SOL     OW27463   6.205   5.239   6.269
 8855SOL    HW127464   6.266   5.275   6.198
 8855SOL    HW227465   6.228   5.281   6.357
 8856SOL     OW27466   5.558   0.778   4.650
 8856SOL    HW127467   5.609   0.692   4.642
 8856SOL    HW227468   5.596   0.845   4.586
 8857SOL     OW27469   6.322   2.011   3.752
 8857SOL    HW127470   6.393   2.033   3.686
 8857SOL    HW227471   6.249   2.079   3.745
 8858SOL     OW27472   0.228   3.391   6.342
 8858SOL    HW127473   0.313   3.398   6.289
 8858SOL    HW227474   0.232   3.310   6.401
 8859SOL     OW27475   1.764   5.990   5.959
 8859SOL    HW127476   1.727   5.933   5.885
 8859SOL    HW227477   1.775   6.084   5.927
 8860SOL     OW27478   1.542   1.786   2.838
 8860SOL    HW127479   1.530   1.875   2.883
 8860SOL    HW227480   1.596   1.798   2.755
 8861SOL     OW27481   4.003   3.347   0.032
 8861SOL    HW127482   3.986   3.311   0.124
 8861SOL    HW227483   4.030   3.443   0.038
 8862SOL     OW27484   5.732   1.392   4.369
 8862SOL    HW127485   5.634   1.411   4.373
 8862SOL    HW227486   5.758   1.368   4.275
 8863SOL     OW27487   2.038   5.863   5.513
 8863SOL    HW127488   1.994   5.888   5.599
 8863SOL    HW227489   2.124   5.815   5.533
 8864SOL     OW27490   1.273   2.660   7.004
 8864SOL    HW127491   1.345   2.702   6.949
 8864SOL    HW227492   1.290   2.561   7.011
 8865SOL     OW27493   2.668   2.189   6.013
 8865SOL    HW127494   2.648   2.277   5.970
 8865SOL    HW227495   2.755   2.154   5.977
 8866SOL     OW27496   2.843   6.251   4.166
 8866SOL    HW127497   2.828   6.222   4.072
 8866SOL    HW227498   2.940   6.271   4.180
 8867SOL     OW27499   6.459   3.058   3.589
 8867SOL    HW127500   6.522   3.124   3.549
 8867SOL    HW227501   6.453   3.073   3.688
 8868SOL     OW27502   4.430   4.166   0.090
 8868SOL    HW127503   4.458   4.222   0.012
 8868SOL    HW227504   4.356   4.212   0.139
 8869SOL     OW27505   4.999   2.503   3.502
 8869SOL    HW127506   5.082   2.537   3.459
 8869SOL    HW227507   5.022   2.430   3.567
 8870SOL     OW27508   4.245   1.236   0.773
 8870SOL    HW127509   4.261   1.246   0.675
 8870SOL    HW227510   4.326   1.266   0.823
 8871SOL     OW27511   2.598   2.228   3.546
 8871SOL    HW127512   2.567   2.222   3.451
 8871SOL    HW227513   2.519   2.237   3.606
 8872SOL     OW27514   1.252   3.900   4.056
 8872SOL    HW127515   1.184   3.941   3.995
 8872SOL    HW227516   1.217   3.900   4.150
 8873SOL     OW27517   0.324   5.300   4.525
 8873SOL    HW127518   0.392   5.267   4.590
 8873SOL    HW227519   0.370   5.336   4.444
 8874SOL     OW27520   2.658   0.458   1.171
 8874SOL    HW127521   2.581   0.456   1.107
 8874SOL    HW227522   2.673   0.552   1.202
 8875SOL     OW27523   1.894   2.893   4.248
 8875SOL    HW127524   1.873   2.838   4.328
 8875SOL    HW227525   1.813   2.897   4.188
 8876SOL     OW27526   0.805   0.604   4.915
 8876SOL    HW127527   0.719   0.635   4.956
 8876SOL    HW227528   0.857   0.683   4.883
 8877SOL     OW27529   2.977   0.484   4.580
 8877SOL    HW127530   3.018   0.564   4.623
 8877SOL    HW227531   2.911   0.443   4.643
 8878SOL     OW27532   6.793   4.258   6.534
 8878SOL    HW127533   6.853   4.210   6.471
 8878SOL    HW227534   6.698   4.237   6.513
 8879SOL     OW27535   5.663   6.416   6.315
 8879SOL    HW127536   5.639   6.508   6.344
 8879SOL    HW227537   5.709   6.420   6.226
 8880SOL     OW27538   6.922   4.903   4.813
 8880SOL    HW127539   6.833   4.856   4.815
 8880SOL    HW227540   6.922   4.971   4.740
 8881SOL     OW27541   6.433   1.369   1.184
 8881SOL    HW127542   6.513   1.351   1.127
 8881SOL    HW227543   6.447   1.454   1.236
 8882SOL     OW27544   5.476   1.733   6.393
 8882SOL    HW127545   5.479   1.641   6.432
 8882SOL    HW227546   5.559   1.783   6.418
 8883SOL     OW27547   6.629   1.046   5.488
 8883SOL    HW127548   6.639   0.951   5.457
 8883SOL    HW227549   6.585   1.100   5.416
 8884SOL     OW27550   6.489   0.613   6.327
 8884SOL    HW127551   6.536   0.643   6.243
 8884SOL    HW227552   6.403   0.570   6.303
 8885SOL     OW27553   5.597   3.634   1.862
 8885SOL    HW127554   5.603   3.534   1.864
 8885SOL    HW227555   5.629   3.668   1.774
 8886SOL     OW27556   3.028   6.861   5.858
 8886SOL    HW127557   3.113   6.908   5.831
 8886SOL    HW227558   3.051   6.777   5.907
 8887SOL     OW27559   2.864   1.129   0.801
 8887SOL    HW127560   2.844   1.032   0.815
 8887SOL    HW227561   2.963   1.143   0.803
 8888SOL     OW27562   3.212   1.905   1.931
 8888SOL    HW127563   3.295   1.960   1.939
 8888SOL    HW227564   3.132   1.965   1.942
 8889SOL     OW27565   3.767   6.600   4.421
 8889SOL    HW127566   3.769   6.553   4.333
 8889SOL    HW227567   3.676   6.639   4.436
 8890SOL     OW27568   1.086   5.215   4.525
 8890SOL    HW127569   1.033   5.255   4.600
 8890SOL    HW227570   1.134   5.288   4.476
 8891SOL     OW27571   4.765   2.815   6.358
 8891SOL    HW127572   4.722   2.902   6.334
 8891SOL    HW227573   4.864   2.823   6.349
 8892SOL     OW27574   1.821   0.113   2.737
 8892SOL    HW127575   1.824   0.191   2.800
 8892SOL    HW227576   1.900   0.054   2.754
 8893SOL     OW27577   0.350   1.640   1.275
 8893SOL    HW127578   0.330   1.730   1.235
 8893SOL    HW227579   0.443   1.640   1.311
 8894SOL     OW27580   3.883   2.971   6.481
 8894SOL    HW127581   3.913   2.878   6.502
 8894SOL    HW227582   3.795   2.968   6.434
 8895SOL     OW27583   0.328   0.030   1.987
 8895SOL    HW127584   0.266   0.011   1.911
 8895SOL    HW227585   0.418   7.008   1.966
 8896SOL     OW27586   1.632   4.044   4.925
 8896SOL    HW127587   1.685   4.054   5.010
 8896SOL    HW227588   1.538   4.075   4.941
 8897SOL     OW27589   1.398   1.899   1.802
 8897SOL    HW127590   1.407   1.995   1.828
 8897SOL    HW227591   1.472   1.874   1.741
 8898SOL     OW27592   5.766   3.786   4.092
 8898SOL    HW127593   5.864   3.778   4.108
 8898SOL    HW227594   5.720   3.703   4.124
 8899SOL     OW27595   1.417   4.648   0.583
 8899SOL    HW127596   1.475   4.581   0.631
 8899SOL    HW227597   1.352   4.687   0.647
 8900SOL     OW27598   5.185   2.154   3.444
 8900SOL    HW127599   5.285   2.159   3.435
 8900SOL    HW227600   5.143   2.208   3.371
 8901SOL     OW27601   1.316   0.503   2.820
 8901SOL    HW127602   1.304   0.412   2.781
 8901SOL    HW227603   1.300   0.572   2.750
 8902SOL     OW27604   1.316   5.504   6.709
 8902SOL    HW127605   1.246   5.467   6.649
 8902SOL    HW227606   1.281   5.586   6.754
 8903SOL     OW27607   2.199   1.945   3.613
 8903SOL    HW127608   2.228   2.028   3.660
 8903SOL    HW227609   2.103   1.925   3.637
 8904SOL     OW27610   0.489   6.461   3.792
 8904SOL    HW127611   0.562   6.490   3.854
 8904SOL    HW227612   0.426   6.537   3.777
 8905SOL     OW27613   2.494   3.751   5.410
 8905SOL    HW127614   2.492   3.802   5.325
 8905SOL    HW227615   2.470   3.656   5.393
 8906SOL     OW27616   6.622   6.316   5.591
 8906SOL    HW127617   6.579   6.405   5.600
 8906SOL    HW227618   6.661   6.307   5.500
 8907SOL     OW27619   3.152   2.669   5.339
 8907SOL    HW127620   3.091   2.591   5.353
 8907SOL    HW227621   3.244   2.636   5.319
 8908SOL     OW27622   1.035   2.270   1.687
 8908SOL    HW127623   0.971   2.204   1.726
 8908SOL    HW227624   1.000   2.300   1.598
 8909SOL     OW27625   2.160   0.617   6.904
 8909SOL    HW127626   2.155   0.545   6.973
 8909SOL    HW227627   2.244   0.669   6.917
 8910SOL     OW27628   3.092   3.573   6.640
 8910SOL    HW127629   3.052   3.628   6.567
 8910SOL    HW227630   3.085   3.622   6.726
 8911SOL     OW27631   4.071   2.097   4.411
 8911SOL    HW127632   4.003   2.058   4.348
 8911SOL    HW227633   4.123   2.024   4.453
 8912SOL     OW27634   4.494   2.317   5.970
 8912SOL    HW127635   4.444   2.403   5.964
 8912SOL    HW227636   4.571   2.318   5.906
 8913SOL     OW27637   5.367   4.289   1.567
 8913SOL    HW127638   5.426   4.231   1.624
 8913SOL    HW227639   5.412   4.307   1.480
 8914SOL     OW27640   3.551   1.793   4.554
 8914SOL    HW127641   3.475   1.793   4.618
 8914SOL    HW227642   3.556   1.882   4.508
 8915SOL     OW27643   1.811   3.944   2.352
 8915SOL    HW127644   1.861   3.967   2.436
 8915SOL    HW227645   1.763   4.025   2.319
 8916SOL     OW27646   6.616   3.405   2.702
 8916SOL    HW127647   6.558   3.476   2.742
 8916SOL    HW227648   6.618   3.415   2.603
 8917SOL     OW27649   6.201   6.172   0.033
 8917SOL    HW127650   6.195   6.272   0.030
 8917SOL    HW227651   6.120   6.134   0.077
 8918SOL     OW27652   5.315   5.185   6.517
 8918SOL    HW127653   5.393   5.232   6.474
 8918SOL    HW227654   5.316   5.201   6.615
 8919SOL     OW27655   3.033   5.107   1.303
 8919SOL    HW127656   3.111   5.159   1.268
 8919SOL    HW227657   2.986   5.161   1.374
 8920SOL     OW27658   5.886   5.659   5.040
 8920SOL    HW127659   5.946   5.662   5.119
 8920SOL    HW227660   5.820   5.735   5.045
 8921SOL     OW27661   1.323   0.645   3.627
 8921SOL    HW127662   1.243   0.641   3.567
 8921SOL    HW227663   1.295   0.620   3.720
 8922SOL     OW27664   1.069   4.154   0.814
 8922SOL    HW127665   1.055   4.087   0.741
 8922SOL    HW227666   1.156   4.201   0.800
 8923SOL     OW27667   2.143   4.076   6.374
 8923SOL    HW127668   2.140   4.116   6.282
 8923SOL    HW227669   2.090   4.132   6.436
 8924SOL     OW27670   2.865   5.285   5.538
 8924SOL    HW127671   2.949   5.339   5.527
 8924SOL    HW227672   2.849   5.231   5.456
 8925SOL     OW27673   6.960   0.436   2.358
 8925SOL    HW127674   6.911   0.353   2.331
 8925SOL    HW227675   6.895   0.510   2.373
 8926SOL     OW27676   5.103   2.577   1.229
 8926SOL    HW127677   5.078   2.608   1.321
 8926SOL    HW227678   5.096   2.653   1.165
 8927SOL     OW27679   2.234   2.649   4.771
 8927SOL    HW127680   2.293   2.695   4.838
 8927SOL    HW227681   2.157   2.606   4.819
 8928SOL     OW27682   0.552   6.420   5.534
 8928SOL    HW127683   0.623   6.484   5.565
 8928SOL    HW227684   0.469   6.434   5.586
 8929SOL     OW27685   6.442   4.088   3.707
 8929SOL    HW127686   6.471   4.004   3.661
 8929SOL    HW227687   6.480   4.167   3.660
 8930SOL     OW27688   1.490   4.894   4.777
 8930SOL    HW127689   1.413   4.831   4.788
 8930SOL    HW227690   1.547   4.864   4.701
 8931SOL     OW27691   4.616   1.535   1.013
 8931SOL    HW127692   4.568   1.602   1.069
 8931SOL    HW227693   4.653   1.580   0.931
 8932SOL     OW27694   6.909   0.340   6.602
 8932SOL    HW127695   6.923   0.416   6.667
 8932SOL    HW227696   6.925   0.373   6.509
 8933SOL     OW27697   1.597   0.677   5.040
 8933SOL    HW127698   1.650   0.753   5.002
 8933SOL    HW227699   1.566   0.701   5.132
 8934SOL     OW27700   3.080   5.814   2.690
 8934SOL    HW127701   3.176   5.789   2.684
 8934SOL    HW227702   3.062   5.857   2.779
 8935SOL     OW27703   4.917   2.577   2.964
 8935SOL    HW127704   4.926   2.557   2.866
 8935SOL    HW227705   4.836   2.634   2.979
 8936SOL     OW27706   1.011   5.659   1.729
 8936SOL    HW127707   1.084   5.727   1.731
 8936SOL    HW227708   1.027   5.594   1.655
 8937SOL     OW27709   6.372   0.044   4.099
 8937SOL    HW127710   6.359   0.002   4.189
 8937SOL    HW227711   6.302   0.010   4.036
 8938SOL     OW27712   6.127   0.653   0.658
 8938SOL    HW127713   6.127   0.666   0.558
 8938SOL    HW227714   6.193   0.716   0.699
 8939SOL     OW27715   0.892   3.143   3.765
 8939SOL    HW127716   0.800   3.178   3.746
 8939SOL    HW227717   0.925   3.092   3.686
 8940SOL     OW27718   6.615   2.864   1.299
 8940SOL    HW127719   6.620   2.881   1.397
 8940SOL    HW227720   6.631   2.767   1.281
 8941SOL     OW27721   4.759   2.606   1.220
 8941SOL    HW127722   4.765   2.508   1.202
 8941SOL    HW227723   4.730   2.621   1.315
 8942SOL     OW27724   5.848   4.723   3.940
 8942SOL    HW127725   5.844   4.767   4.030
 8942SOL    HW227726   5.823   4.789   3.870
 8943SOL     OW27727   4.813   4.062   6.845
 8943SOL    HW127728   4.878   3.986   6.840
 8943SOL    HW227729   4.794   4.083   6.941
 8944SOL     OW27730   5.025   5.379   4.247
 8944SOL    HW127731   5.029   5.401   4.149
 8944SOL    HW227732   5.114   5.393   4.288
 8945SOL     OW27733   5.938   3.944   5.475
 8945SOL    HW127734   5.879   3.897   5.409
 8945SOL    HW227735   5.907   3.923   5.567
 8946SOL     OW27736   5.355   0.520   4.964
 8946SOL    HW127737   5.391   0.515   4.870
 8946SOL    HW227738   5.287   0.447   4.977
 8947SOL     OW27739   2.141   5.211   6.712
 8947SOL    HW127740   2.082   5.287   6.740
 8947SOL    HW227741   2.107   5.126   6.752
 8948SOL     OW27742   6.766   0.737   2.991
 8948SOL    HW127743   6.766   0.836   3.006
 8948SOL    HW227744   6.766   0.718   2.892
 8949SOL     OW27745   3.159   6.131   0.831
 8949SOL    HW127746   3.140   6.228   0.842
 8949SOL    HW227747   3.248   6.109   0.869
 8950SOL     OW27748   4.995   4.099   1.160
 8950SOL    HW127749   4.995   4.199   1.162
 8950SOL    HW227750   5.032   4.065   1.246
 8951SOL     OW27751   1.649   2.126   4.799
 8951SOL    HW127752   1.684   2.032   4.797
 8951SOL    HW227753   1.694   2.176   4.873
 8952SOL     OW27754   2.017   4.465   3.818
 8952SOL    HW127755   1.989   4.538   3.756
 8952SOL    HW227756   2.115   4.450   3.810
 8953SOL     OW27757   1.521   4.958   1.854
 8953SOL    HW127758   1.469   5.043   1.868
 8953SOL    HW227759   1.503   4.895   1.930
 8954SOL     OW27760   1.565   5.479   4.885
 8954SOL    HW127761   1.615   5.477   4.971
 8954SOL    HW227762   1.486   5.419   4.891
 8955SOL     OW27763   5.700   2.535   4.139
 8955SOL    HW127764   5.682   2.573   4.048
 8955SOL    HW227765   5.658   2.594   4.208
 8956SOL     OW27766   0.755   5.825   6.276
 8956SOL    HW127767   0.851   5.840   6.298
 8956SOL    HW227768   0.711   5.913   6.260
 8957SOL     OW27769   1.142   6.090   2.859
 8957SOL    HW127770   1.159   6.152   2.782
 8957SOL    HW227771   1.105   6.143   2.936
 8958SOL     OW27772   1.756   4.055   5.187
 8958SOL    HW127773   1.849   4.075   5.157
 8958SOL    HW227774   1.743   3.956   5.194
 8959SOL     OW27775   0.365   3.072   2.801
 8959SOL    HW127776   0.280   3.102   2.845
 8959SOL    HW227777   0.347   3.048   2.706
 8960SOL     OW27778   5.347   4.141   3.606
 8960SOL    HW127779   5.432   4.190   3.624
 8960SOL    HW227780   5.279   4.166   3.676
 8961SOL     OW27781   2.617   6.444   5.389
 8961SOL    HW127782   2.717   6.448   5.380
 8961SOL    HW227783   2.592   6.449   5.485
 8962SOL     OW27784   0.624   5.928   1.562
 8962SOL    HW127785   0.656   5.929   1.657
 8962SOL    HW227786   0.620   5.834   1.529
 8963SOL     OW27787   4.117   6.104   4.551
 8963SOL    HW127788   4.167   6.031   4.505
 8963SOL    HW227789   4.177   6.183   4.564
 8964SOL     OW27790   0.643   3.252   4.172
 8964SOL    HW127791   0.576   3.215   4.236
 8964SOL    HW227792   0.646   3.195   4.090
 8965SOL     OW27793   4.145   4.920   0.650
 8965SOL    HW127794   4.176   4.978   0.574
 8965SOL    HW227795   4.204   4.934   0.729
 8966SOL     OW27796   4.739   4.575   6.176
 8966SOL    HW127797   4.733   4.620   6.087
 8966SOL    HW227798   4.834   4.554   6.197
 8967SOL     OW27799   2.983   6.923   3.542
 8967SOL    HW127800   2.984   6.823   3.545
 8967SOL    HW227801   2.935   6.955   3.461
 8968SOL     OW27802   3.313   5.146   1.806
 8968SOL    HW127803   3.266   5.060   1.827
 8968SOL    HW227804   3.334   5.149   1.708
 8969SOL     OW27805   0.243   1.494   2.858
 8969SOL    HW127806   0.291   1.408   2.873
 8969SOL    HW227807   0.308   1.570   2.858
 8970SOL     OW27808   1.732   0.928   5.353
 8970SOL    HW127809   1.664   0.855   5.354
 8970SOL    HW227810   1.699   1.003   5.296
 8971SOL     OW27811   4.566   5.158   0.449
 8971SOL    HW127812   4.635   5.183   0.517
 8971SOL    HW227813   4.559   5.230   0.380
 8972SOL     OW27814   6.531   4.598   0.599
 8972SOL    HW127815   6.548   4.564   0.506
 8972SOL    HW227816   6.527   4.698   0.598
 8973SOL     OW27817   1.234   2.831   2.557
 8973SOL    HW127818   1.175   2.901   2.598
 8973SOL    HW227819   1.329   2.861   2.562
 8974SOL     OW27820   2.283   4.325   4.725
 8974SOL    HW127821   2.213   4.297   4.791
 8974SOL    HW227822   2.286   4.259   4.650
 8975SOL     OW27823   0.275   6.546   6.097
 8975SOL    HW127824   0.311   6.604   6.024
 8975SOL    HW227825   0.309   6.453   6.085
 8976SOL     OW27826   6.842   6.783   1.706
 8976SOL    HW127827   6.767   6.796   1.770
 8976SOL    HW227828   6.892   6.869   1.694
 8977SOL     OW27829   6.946   5.083   5.822
 8977SOL    HW127830   0.012   5.122   5.784
 8977SOL    HW227831   6.938   5.107   5.919
 8978SOL     OW27832   5.519   5.604   6.036
 8978SOL    HW127833   5.574   5.660   6.097
 8978SOL    HW227834   5.508   5.651   5.948
 8979SOL     OW27835   1.083   4.896   5.846
 8979SOL    HW127836   1.008   4.963   5.847
 8979SOL    HW227837   1.114   4.881   5.940
 8980SOL     OW27838   3.456   0.549   5.165
 8980SOL    HW127839   3.457   0.641   5.128
 8980SOL    HW227840   3.388   0.542   5.238
 8981SOL     OW27841   3.829   2.812   6.933
 8981SOL    HW127842   3.909   2.751   6.930
 8981SOL    HW227843   3.857   2.905   6.910
 8982SOL     OW27844   0.803   1.442   1.189
 8982SOL    HW127845   0.846   1.396   1.266
 8982SOL    HW227846   0.862   1.517   1.158
 8983SOL     OW27847   1.061   0.177   2.096
 8983SOL    HW127848   1.093   0.134   2.180
 8983SOL    HW227849   1.001   0.254   2.119
 8984SOL     OW27850   6.351   0.413   3.655
 8984SOL    HW127851   6.392   0.402   3.745
 8984SOL    HW227852   6.254   0.388   3.660
 8985SOL     OW27853   4.452   2.794   0.548
 8985SOL    HW127854   4.539   2.767   0.507
 8985SOL    HW227855   4.393   2.714   0.557
 8986SOL     OW27856   0.080   5.634   0.263
 8986SOL    HW127857   0.116   5.608   0.352
 8986SOL    HW227858   0.063   5.732   0.261
 8987SOL     OW27859   2.333   0.860   1.688
 8987SOL    HW127860   2.430   0.835   1.687
 8987SOL    HW227861   2.290   0.827   1.772
 8988SOL     OW27862   1.516   5.538   1.750
 8988SOL    HW127863   1.496   5.585   1.836
 8988SOL    HW227864   1.612   5.511   1.748
 8989SOL     OW27865   4.946   1.465   1.687
 8989SOL    HW127866   5.010   1.398   1.648
 8989SOL    HW227867   4.945   1.455   1.787
 8990SOL     OW27868   3.884   0.344   1.831
 8990SOL    HW127869   3.808   0.285   1.860
 8990SOL    HW227870   3.969   0.311   1.871
 8991SOL     OW27871   2.127   2.568   6.862
 8991SOL    HW127872   2.101   2.623   6.783
 8991SOL    HW227873   2.218   2.529   6.848
 8992SOL     OW27874   0.408   3.743   0.322
 8992SOL    HW127875   0.507   3.731   0.312
 8992SOL    HW227876   0.367   3.756   0.232
 8993SOL     OW27877   5.744   3.126   3.842
 8993SOL    HW127878   5.762   3.030   3.819
 8993SOL    HW227879   5.828   3.179   3.832
 8994SOL     OW27880   0.726   5.511   3.273
 8994SOL    HW127881   0.650   5.528   3.210
 8994SOL    HW227882   0.796   5.582   3.262
 8995SOL     OW27883   1.957   3.874   4.792
 8995SOL    HW127884   1.884   3.811   4.822
 8995SOL    HW227885   2.038   3.860   4.848
 8996SOL     OW27886   0.572   4.312   2.654
 8996SOL    HW127887   0.619   4.392   2.615
 8996SOL    HW227888   0.605   4.297   2.747
 8997SOL     OW27889   4.706   1.708   5.401
 8997SOL    HW127890   4.630   1.645   5.382
 8997SOL    HW227891   4.681   1.800   5.370
 8998SOL     OW27892   1.538   2.954   6.462
 8998SOL    HW127893   1.559   2.858   6.481
 8998SOL    HW227894   1.607   3.012   6.506
 8999SOL     OW27895   6.455   1.289   4.084
 8999SOL    HW127896   6.477   1.382   4.114
 8999SOL    HW227897   6.455   1.228   4.164
 9000SOL     OW27898   3.192   3.774   0.506
 9000SOL    HW127899   3.122   3.832   0.549
 9000SOL    HW227900   3.281   3.818   0.514
 9001SOL     OW27901   1.638   5.137   3.604
 9001SOL    HW127902   1.620   5.123   3.701
 9001SOL    HW227903   1.667   5.231   3.589
 9002SOL     OW27904   5.433   4.426   5.440
 9002SOL    HW127905   5.463   4.400   5.532
 9002SOL    HW227906   5.404   4.522   5.441
 9003SOL     OW27907   5.823   2.684   6.655
 9003SOL    HW127908   5.767   2.618   6.706
 9003SOL    HW227909   5.916   2.685   6.693
 9004SOL     OW27910   4.525   6.529   1.124
 9004SOL    HW127911   4.575   6.555   1.041
 9004SOL    HW227912   4.571   6.568   1.204
 9005SOL     OW27913   4.873   1.670   3.197
 9005SOL    HW127914   4.949   1.728   3.228
 9005SOL    HW227915   4.910   1.588   3.153
 9006SOL     OW27916   0.959   5.439   1.080
 9006SOL    HW127917   0.944   5.462   0.984
 9006SOL    HW227918   0.872   5.441   1.129
 9007SOL     OW27919   2.654   7.007   4.297
 9007SOL    HW127920   2.623   6.958   4.378
 9007SOL    HW227921   2.753   6.995   4.287
 9008SOL     OW27922   6.772   4.434   2.585
 9008SOL    HW127923   6.814   4.367   2.645
 9008SOL    HW227924   6.726   4.504   2.641
 9009SOL     OW27925   2.936   6.091   0.989
 9009SOL    HW127926   3.006   6.098   0.918
 9009SOL    HW227927   2.851   6.129   0.955
 9010SOL     OW27928   1.185   6.357   5.327
 9010SOL    HW127929   1.244   6.284   5.291
 9010SOL    HW227930   1.130   6.321   5.403
 9011SOL     OW27931   4.651   2.344   1.228
 9011SOL    HW127932   4.602   2.285   1.292
 9011SOL    HW227933   4.741   2.365   1.266
 9012SOL     OW27934   6.992   5.260   1.713
 9012SOL    HW127935   0.058   5.314   1.716
 9012SOL    HW227936   6.949   5.259   1.803
 9013SOL     OW27937   5.949   5.653   3.510
 9013SOL    HW127938   5.922   5.748   3.519
 9013SOL    HW227939   6.021   5.644   3.442
 9014SOL     OW27940   3.082   0.756   1.036
 9014SOL    HW127941   3.068   0.795   1.127
 9014SOL    HW227942   3.114   0.662   1.044
 9015SOL     OW27943   0.415   0.908   5.881
 9015SOL    HW127944   0.478   0.980   5.855
 9015SOL    HW227945   0.327   0.922   5.834
 9016SOL     OW27946   6.086   5.908   6.557
 9016SOL    HW127947   6.051   5.953   6.475
 9016SOL    HW227948   6.182   5.932   6.570
 9017SOL     OW27949   6.505   2.821   3.357
 9017SOL    HW127950   6.489   2.860   3.448
 9017SOL    HW227951   6.603   2.820   3.338
 9018SOL     OW27952   3.714   2.482   5.398
 9018SOL    HW127953   3.680   2.512   5.309
 9018SOL    HW227954   3.665   2.529   5.471
 9019SOL     OW27955   2.184   0.162   0.835
 9019SOL    HW127956   2.280   0.145   0.857
 9019SOL    HW227957   2.128   0.087   0.871
 9020SOL     OW27958   0.389   4.764   3.226
 9020SOL    HW127959   0.346   4.680   3.195
 9020SOL    HW227960   0.485   4.765   3.199
 9021SOL     OW27961   6.549   5.563   5.131
 9021SOL    HW127962   6.451   5.556   5.150
 9021SOL    HW227963   6.591   5.472   5.136
 9022SOL     OW27964   3.533   0.746   0.330
 9022SOL    HW127965   3.434   0.759   0.319
 9022SOL    HW227966   3.580   0.781   0.249
 9023SOL     OW27967   3.234   3.323   3.364
 9023SOL    HW127968   3.135   3.339   3.362
 9023SOL    HW227969   3.269   3.324   3.270
 9024SOL     OW27970   2.093   6.333   0.132
 9024SOL    HW127971   2.171   6.271   0.122
 9024SOL    HW227972   2.123   6.416   0.180
 9025SOL     OW27973   6.193   5.128   0.849
 9025SOL    HW127974   6.144   5.207   0.885
 9025SOL    HW227975   6.269   5.105   0.911
 9026SOL     OW27976   3.485   2.830   5.155
 9026SOL    HW127977   3.584   2.832   5.165
 9026SOL    HW227978   3.448   2.751   5.203
 9027SOL     OW27979   1.956   3.071   3.507
 9027SOL    HW127980   2.003   3.026   3.431
 9027SOL    HW227981   1.867   3.028   3.520
 9028SOL     OW27982   2.907   5.102   5.036
 9028SOL    HW127983   2.823   5.090   4.983
 9028SOL    HW227984   2.939   5.013   5.069
 9029SOL     OW27985   5.188   6.195   3.242
 9029SOL    HW127986   5.265   6.226   3.186
 9029SOL    HW227987   5.109   6.177   3.184
 9030SOL     OW27988   2.909   1.063   2.014
 9030SOL    HW127989   2.972   0.987   1.996
 9030SOL    HW227990   2.820   1.043   1.974
 9031SOL     OW27991   2.530   6.177   6.285
 9031SOL    HW127992   2.595   6.178   6.361
 9031SOL    HW227993   2.458   6.244   6.302
 9032SOL     OW27994   2.174   1.815   1.903
 9032SOL    HW127995   2.216   1.739   1.854
 9032SOL    HW227996   2.089   1.785   1.947
 9033SOL     OW27997   1.981   3.968   2.588
 9033SOL    HW127998   1.928   4.010   2.661
 9033SOL    HW227999   2.006   3.875   2.614
 9034SOL     OW28000   3.076   6.425   5.750
 9034SOL    HW128001   3.061   6.454   5.845
 9034SOL    HW228002   3.094   6.326   5.748
 9035SOL     OW28003   7.002   1.124   4.271
 9035SOL    HW128004   0.040   1.135   4.189
 9035SOL    HW228005   0.000   1.034   4.311
 9036SOL     OW28006   0.763   2.135   5.605
 9036SOL    HW128007   0.785   2.057   5.663
 9036SOL    HW228008   0.832   2.142   5.532
 9037SOL     OW28009   1.996   4.281   6.518
 9037SOL    HW128010   2.051   4.332   6.585
 9037SOL    HW228011   1.900   4.310   6.526
 9038SOL     OW28012   4.898   6.185   5.242
 9038SOL    HW128013   4.851   6.260   5.195
 9038SOL    HW228014   4.953   6.221   5.317
 9039SOL     OW28015   2.014   5.935   5.799
 9039SOL    HW128016   1.919   5.903   5.802
 9039SOL    HW228017   2.071   5.874   5.855
 9040SOL     OW28018   1.974   1.172   2.634
 9040SOL    HW128019   2.011   1.084   2.663
 9040SOL    HW228020   1.981   1.180   2.535
 9041SOL     OW28021   1.977   2.989   0.507
 9041SOL    HW128022   2.017   3.078   0.529
 9041SOL    HW228023   1.986   2.972   0.409
 9042SOL     OW28024   2.564   4.536   3.978
 9042SOL    HW128025   2.649   4.483   3.985
 9042SOL    HW228026   2.559   4.602   4.053
 9043SOL     OW28027   0.443   2.253   5.660
 9043SOL    HW128028   0.425   2.320   5.588
 9043SOL    HW228029   0.533   2.212   5.646
 9044SOL     OW28030   6.362   6.686   1.003
 9044SOL    HW128031   6.359   6.699   0.904
 9044SOL    HW228032   6.397   6.594   1.024
 9045SOL     OW28033   2.743   6.737   3.541
 9045SOL    HW128034   2.742   6.776   3.449
 9045SOL    HW228035   2.836   6.711   3.565
 9046SOL     OW28036   3.357   4.143   4.724
 9046SOL    HW128037   3.360   4.199   4.807
 9046SOL    HW228038   3.405   4.057   4.740
 9047SOL     OW28039   1.264   4.759   4.843
 9047SOL    HW128040   1.270   4.718   4.934
 9047SOL    HW228041   1.261   4.687   4.774
 9048SOL     OW28042   0.601   3.475   4.620
 9048SOL    HW128043   0.567   3.537   4.548
 9048SOL    HW228044   0.696   3.451   4.601
 9049SOL     OW28045   5.400   5.269   6.784
 9049SOL    HW128046   5.499   5.274   6.768
 9049SOL    HW228047   5.365   5.359   6.809
 9050SOL     OW28048   0.095   5.357   6.175
 9050SOL    HW128049   0.116   5.343   6.271
 9050SOL    HW228050   0.053   5.274   6.138
 9051SOL     OW28051   5.369   6.092   6.801
 9051SOL    HW128052   5.453   6.084   6.856
 9051SOL    HW228053   5.316   6.170   6.833
 9052SOL     OW28054   2.461   5.291   4.799
 9052SOL    HW128055   2.408   5.350   4.860
 9052SOL    HW228056   2.535   5.344   4.758
 9053SOL     OW28057   2.583   2.482   3.925
 9053SOL    HW128058   2.545   2.572   3.903
 9053SOL    HW228059   2.619   2.483   4.018
 9054SOL     OW28060   2.920   0.443   1.334
 9054SOL    HW128061   2.947   0.371   1.398
 9054SOL    HW228062   2.830   0.422   1.296
 9055SOL     OW28063   1.146   2.804   4.006
 9055SOL    HW128064   1.211   2.872   3.973
 9055SOL    HW228065   1.076   2.788   3.936
 9056SOL     OW28066   5.597   0.294   3.102
 9056SOL    HW128067   5.643   0.324   3.018
 9056SOL    HW228068   5.499   0.285   3.085
 9057SOL     OW28069   5.591   5.332   6.134
 9057SOL    HW128070   5.560   5.427   6.129
 9057SOL    HW228071   5.667   5.318   6.070
 9058SOL     OW28072   1.402   2.962   4.654
 9058SOL    HW128073   1.479   2.985   4.715
 9058SOL    HW228074   1.340   2.900   4.702
 9059SOL     OW28075   6.998   1.941   2.933
 9059SOL    HW128076   0.059   1.893   2.893
 9059SOL    HW228077   6.963   1.888   3.010
 9060SOL     OW28078   0.675   3.863   1.663
 9060SOL    HW128079   0.617   3.782   1.656
 9060SOL    HW228080   0.736   3.868   1.583
 9061SOL     OW28081   5.254   5.126   1.972
 9061SOL    HW128082   5.246   5.152   2.068
 9061SOL    HW228083   5.343   5.084   1.956
 9062SOL     OW28084   0.937   5.436   3.466
 9062SOL    HW128085   0.947   5.341   3.495
 9062SOL    HW228086   0.854   5.445   3.410
 9063SOL     OW28087   3.672   0.824   2.395
 9063SOL    HW128088   3.620   0.874   2.325
 9063SOL    HW228089   3.612   0.756   2.438
 9064SOL     OW28090   0.576   4.833   3.567
 9064SOL    HW128091   0.661   4.797   3.528
 9064SOL    HW228092   0.555   4.784   3.652
 9065SOL     OW28093   2.557   5.355   5.497
 9065SOL    HW128094   2.514   5.265   5.503
 9065SOL    HW228095   2.650   5.349   5.533
 9066SOL     OW28096   5.292   4.666   5.484
 9066SOL    HW128097   5.199   4.697   5.467
 9066SOL    HW228098   5.314   4.677   5.581
 9067SOL     OW28099   7.010   0.600   4.643
 9067SOL    HW128100   0.004   0.510   4.600
 9067SOL    HW228101   0.060   0.664   4.607
 9068SOL     OW28102   4.871   6.203   4.457
 9068SOL    HW128103   4.876   6.129   4.525
 9068SOL    HW228104   4.935   6.275   4.481
 9069SOL     OW28105   5.108   1.818   2.110
 9069SOL    HW128106   5.111   1.720   2.131
 9069SOL    HW228107   5.158   1.835   2.024
 9070SOL     OW28108   1.396   1.870   5.757
 9070SOL    HW128109   1.446   1.945   5.714
 9070SOL    HW228110   1.459   1.794   5.774
 9071SOL     OW28111   5.276   1.167   5.593
 9071SOL    HW128112   5.206   1.095   5.597
 9071SOL    HW228113   5.295   1.198   5.686
 9072SOL     OW28114   5.107   0.998   2.804
 9072SOL    HW128115   5.091   0.902   2.829
 9072SOL    HW228116   5.096   1.056   2.886
 9073SOL     OW28117   4.719   0.752   6.526
 9073SOL    HW128118   4.745   0.712   6.439
 9073SOL    HW228119   4.713   0.851   6.517
 9074SOL     OW28120   1.636   0.193   1.736
 9074SOL    HW128121   1.723   0.174   1.691
 9074SOL    HW228122   1.637   0.286   1.773
 9075SOL     OW28123   6.791   0.234   1.702
 9075SOL    HW128124   6.847   0.316   1.693
 9075SOL    HW228125   6.709   0.244   1.644
 9076SOL     OW28126   6.496   0.358   1.924
 9076SOL    HW128127   6.502   0.452   1.892
 9076SOL    HW228128   6.420   0.350   1.989
 9077SOL     OW28129   6.414   1.403   5.995
 9077SOL    HW128130   6.342   1.399   5.925
 9077SOL    HW228131   6.457   1.494   5.992
 9078SOL     OW28132   5.667   5.608   6.750
 9078SOL    HW128133   5.709   5.695   6.725
 9078SOL    HW228134   5.659   5.602   6.849
 9079SOL     OW28135   1.171   0.341   6.434
 9079SOL    HW128136   1.240   0.410   6.456
 9079SOL    HW228137   1.087   0.360   6.486
 9080SOL     OW28138   6.464   3.675   0.950
 9080SOL    HW128139   6.422   3.709   1.034
 9080SOL    HW228140   6.415   3.594   0.918
 9081SOL     OW28141   3.920   1.796   0.528
 9081SOL    HW128142   3.895   1.732   0.601
 9081SOL    HW228143   3.850   1.794   0.456
 9082SOL     OW28144   3.148   5.719   5.877
 9082SOL    HW128145   3.187   5.752   5.791
 9082SOL    HW228146   3.077   5.782   5.908
 9083SOL     OW28147   4.542   4.826   6.588
 9083SOL    HW128148   4.454   4.808   6.633
 9083SOL    HW228149   4.569   4.747   6.533
 9084SOL     OW28150   0.650   2.860   5.576
 9084SOL    HW128151   0.621   2.844   5.482
 9084SOL    HW228152   0.620   2.950   5.606
 9085SOL     OW28153   2.485   5.057   6.748
 9085SOL    HW128154   2.439   5.025   6.830
 9085SOL    HW228155   2.532   5.143   6.767
 9086SOL     OW28156   6.691   4.368   0.647
 9086SOL    HW128157   6.678   4.467   0.645
 9086SOL    HW228158   6.780   4.345   0.609
 9087SOL     OW28159   5.822   1.386   1.519
 9087SOL    HW128160   5.724   1.363   1.514
 9087SOL    HW228161   5.832   1.485   1.520
 9088SOL     OW28162   6.289   0.480   1.062
 9088SOL    HW128163   6.217   0.465   0.994
 9088SOL    HW228164   6.314   0.577   1.063
 9089SOL     OW28165   4.403   5.724   3.818
 9089SOL    HW128166   4.377   5.685   3.729
 9089SOL    HW228167   4.391   5.823   3.815
 9090SOL     OW28168   5.653   6.141   4.691
 9090SOL    HW128169   5.694   6.212   4.748
 9090SOL    HW228170   5.716   6.115   4.618
 9091SOL     OW28171   2.926   1.741   1.022
 9091SOL    HW128172   2.843   1.771   0.975
 9091SOL    HW228173   2.984   1.690   0.959
 9092SOL     OW28174   1.510   6.513   5.771
 9092SOL    HW128175   1.562   6.435   5.805
 9092SOL    HW228176   1.531   6.528   5.674
 9093SOL     OW28177   1.500   5.284   0.507
 9093SOL    HW128178   1.543   5.216   0.448
 9093SOL    HW228179   1.524   5.376   0.475
 9094SOL     OW28180   0.058   5.640   2.311
 9094SOL    HW128181   0.135   5.639   2.247
 9094SOL    HW228182   6.996   5.677   2.265
 9095SOL     OW28183   4.178   3.815   6.460
 9095SOL    HW128184   4.199   3.868   6.542
 9095SOL    HW228185   4.109   3.863   6.405
 9096SOL     OW28186   6.088   2.670   2.738
 9096SOL    HW128187   6.038   2.596   2.784
 9096SOL    HW228188   6.044   2.757   2.758
 9097SOL     OW28189   1.401   3.779   6.693
 9097SOL    HW128190   1.410   3.862   6.637
 9097SOL    HW228191   1.439   3.796   6.784
 9098SOL     OW28192   3.672   4.145   2.008
 9098SOL    HW128193   3.673   4.196   1.922
 9098SOL    HW228194   3.739   4.071   2.003
 9099SOL     OW28195   2.460   3.469   1.072
 9099SOL    HW128196   2.473   3.373   1.048
 9099SOL    HW228197   2.494   3.526   0.997
 9100SOL     OW28198   0.339   3.245   1.046
 9100SOL    HW128199   0.245   3.276   1.055
 9100SOL    HW228200   0.395   3.318   1.007
 9101SOL     OW28201   1.476   2.456   2.745
 9101SOL    HW128202   1.385   2.449   2.785
 9101SOL    HW228203   1.538   2.393   2.792
 9102SOL     OW28204   3.851   5.412   1.738
 9102SOL    HW128205   3.836   5.347   1.663
 9102SOL    HW228206   3.820   5.372   1.824
 9103SOL     OW28207   0.003   3.785   0.856
 9103SOL    HW128208   6.959   3.864   0.858
 9103SOL    HW228209   6.984   3.712   0.914
 9104SOL     OW28210   4.622   6.231   1.416
 9104SOL    HW128211   4.545   6.266   1.362
 9104SOL    HW228212   4.654   6.145   1.376
 9105SOL     OW28213   1.640   0.901   6.337
 9105SOL    HW128214   1.617   0.883   6.432
 9105SOL    HW228215   1.739   0.897   6.325
 9106SOL     OW28216   5.705   4.979   6.708
 9106SOL    HW128217   5.649   4.977   6.625
 9106SOL    HW228218   5.695   4.893   6.758
 9107SOL     OW28219   3.700   6.968   0.349
 9107SOL    HW128220   3.674   6.978   0.445
 9107SOL    HW228221   3.672   0.031   0.298
 9108SOL     OW28222   4.888   4.265   5.325
 9108SOL    HW128223   4.868   4.323   5.403
 9108SOL    HW228224   4.880   4.318   5.241
 9109SOL     OW28225   2.264   2.739   3.347
 9109SOL    HW128226   2.296   2.692   3.265
 9109SOL    HW228227   2.306   2.698   3.428
 9110SOL     OW28228   1.951   4.735   3.690
 9110SOL    HW128229   1.996   4.800   3.750
 9110SOL    HW228230   1.855   4.760   3.679
 9111SOL     OW28231   3.737   4.334   1.242
 9111SOL    HW128232   3.806   4.302   1.178
 9111SOL    HW228233   3.681   4.256   1.273
 9112SOL     OW28234   1.088   4.415   2.951
 9112SOL    HW128235   1.059   4.332   2.903
 9112SOL    HW228236   1.087   4.492   2.887
 9113SOL     OW28237   5.202   0.534   0.591
 9113SOL    HW128238   5.248   0.475   0.525
 9113SOL    HW228239   5.111   0.558   0.556
 9114SOL     OW28240   2.368   4.351   2.135
 9114SOL    HW128241   2.304   4.351   2.059
 9114SOL    HW228242   2.411   4.441   2.143
 9115SOL     OW28243   1.160   5.002   4.299
 9115SOL    HW128244   1.180   5.100   4.305
 9115SOL    HW228245   1.237   4.955   4.256
 9116SOL     OW28246   6.484   1.562   6.841
 9116SOL    HW128247   6.499   1.661   6.837
 9116SOL    HW228248   6.401   1.538   6.790
 9117SOL     OW28249   6.351   2.847   6.068
 9117SOL    HW128250   6.372   2.755   6.100
 9117SOL    HW228251   6.263   2.847   6.022
 9118SOL     OW28252   6.448   0.092   1.049
 9118SOL    HW128253   6.504   0.175   1.053
 9118SOL    HW228254   6.359   0.114   1.010
 9119SOL     OW28255   5.972   0.831   2.096
 9119SOL    HW128256   5.995   0.733   2.098
 9119SOL    HW228257   5.944   0.860   2.188
 9120SOL     OW28258   6.123   2.145   6.022
 9120SOL    HW128259   6.122   2.099   6.111
 9120SOL    HW228260   6.105   2.243   6.034
 9121SOL     OW28261   1.004   2.820   4.969
 9121SOL    HW128262   0.954   2.767   5.037
 9121SOL    HW228263   0.960   2.810   4.879
 9122SOL     OW28264   1.625   2.825   2.255
 9122SOL    HW128265   1.640   2.766   2.176
 9122SOL    HW228266   1.662   2.781   2.337
 9123SOL     OW28267   3.244   6.341   4.876
 9123SOL    HW128268   3.272   6.268   4.813
 9123SOL    HW228269   3.165   6.312   4.929
 9124SOL     OW28270   6.354   5.626   5.383
 9124SOL    HW128271   6.374   5.723   5.399
 9124SOL    HW228272   6.334   5.612   5.286
 9125SOL     OW28273   4.849   4.407   3.719
 9125SOL    HW128274   4.847   4.442   3.625
 9125SOL    HW228275   4.931   4.351   3.731
 9126SOL     OW28276   6.463   1.016   1.525
 9126SOL    HW128277   6.398   1.072   1.475
 9126SOL    HW228278   6.536   1.074   1.562
 9127SOL     OW28279   5.972   6.771   6.196
 9127SOL    HW128280   5.953   6.857   6.150
 9127SOL    HW228281   6.072   6.759   6.203
 9128SOL     OW28282   4.268   1.434   5.158
 9128SOL    HW128283   4.238   1.450   5.064
 9128SOL    HW228284   4.221   1.354   5.195
 9129SOL     OW28285   1.777   3.383   6.922
 9129SOL    HW128286   1.865   3.338   6.935
 9129SOL    HW228287   1.705   3.329   6.965
 9130SOL     OW28288   6.997   4.643   6.784
 9130SOL    HW128289   0.005   4.651   6.880
 9130SOL    HW228290   6.978   4.547   6.762
 9131SOL     OW28291   0.409   4.330   5.072
 9131SOL    HW128292   0.418   4.281   5.159
 9131SOL    HW228293   0.317   4.368   5.064
 9132SOL     OW28294   6.861   4.218   3.897
 9132SOL    HW128295   6.814   4.135   3.926
 9132SOL    HW228296   6.917   4.253   3.973
 9133SOL     OW28297   2.497   4.702   0.520
 9133SOL    HW128298   2.461   4.622   0.568
 9133SOL    HW228299   2.536   4.674   0.433
 9134SOL     OW28300   3.693   6.104   0.613
 9134SOL    HW128301   3.717   6.188   0.564
 9134SOL    HW228302   3.607   6.068   0.577
 9135SOL     OW28303   0.207   6.972   2.319
 9135SOL    HW128304   0.291   6.962   2.265
 9135SOL    HW228305   0.229   7.012   2.408
 9136SOL     OW28306   5.173   5.025   5.817
 9136SOL    HW128307   5.111   5.056   5.889
 9136SOL    HW228308   5.223   5.103   5.779
 9137SOL     OW28309   5.433   1.013   0.855
 9137SOL    HW128310   5.352   1.037   0.802
 9137SOL    HW228311   5.514   1.021   0.797
 9138SOL     OW28312   6.244   5.313   5.702
 9138SOL    HW128313   6.204   5.238   5.755
 9138SOL    HW228314   6.342   5.319   5.720
 9139SOL     OW28315   2.596   1.223   5.358
 9139SOL    HW128316   2.635   1.252   5.270
 9139SOL    HW228317   2.656   1.254   5.432
 9140SOL     OW28318   6.647   2.450   2.979
 9140SOL    HW128319   6.608   2.358   2.976
 9140SOL    HW228320   6.586   2.510   3.030
 9141SOL     OW28321   5.381   6.626   6.650
 9141SOL    HW128322   5.316   6.691   6.609
 9141SOL    HW228323   5.355   6.533   6.625
 9142SOL     OW28324   0.195   2.578   5.093
 9142SOL    HW128325   0.242   2.634   5.161
 9142SOL    HW228326   0.208   2.481   5.115
 9143SOL     OW28327   4.406   3.722   0.235
 9143SOL    HW128328   4.387   3.755   0.328
 9143SOL    HW228329   4.484   3.660   0.238
 9144SOL     OW28330   2.174   6.129   6.397
 9144SOL    HW128331   2.108   6.073   6.347
 9144SOL    HW228332   2.204   6.080   6.479
 9145SOL     OW28333   0.322   5.380   0.960
 9145SOL    HW128334   0.413   5.377   1.002
 9145SOL    HW228335   0.273   5.462   0.991
 9146SOL     OW28336   5.005   2.186   1.502
 9146SOL    HW128337   5.071   2.248   1.544
 9146SOL    HW228338   4.951   2.142   1.573
 9147SOL     OW28339   5.487   6.387   4.417
 9147SOL    HW128340   5.431   6.428   4.488
 9147SOL    HW228341   5.535   6.458   4.366
 9148SOL     OW28342   6.078   6.538   2.045
 9148SOL    HW128343   6.072   6.530   1.946
 9148SOL    HW228344   6.045   6.629   2.073
 9149SOL     OW28345   4.907   2.598   4.248
 9149SOL    HW128346   4.930   2.513   4.200
 9149SOL    HW228347   4.811   2.620   4.234
 9150SOL     OW28348   3.940   6.211   3.305
 9150SOL    HW128349   3.867   6.279   3.297
 9150SOL    HW228350   3.900   6.119   3.300
 9151SOL     OW28351   1.315   3.980   2.474
 9151SOL    HW128352   1.340   4.068   2.515
 9151SOL    HW228353   1.393   3.917   2.481
 9152SOL     OW28354   2.407   6.011   4.019
 9152SOL    HW128355   2.374   5.953   3.945
 9152SOL    HW228356   2.374   5.976   4.107
 9153SOL     OW28357   1.721   2.945   0.383
 9153SOL    HW128358   1.652   2.878   0.357
 9153SOL    HW228359   1.783   2.906   0.451
 9154SOL     OW28360   2.593   5.685   6.296
 9154SOL    HW128361   2.496   5.693   6.272
 9154SOL    HW228362   2.635   5.776   6.294
 9155SOL     OW28363   2.167   3.536   0.329
 9155SOL    HW128364   2.145   3.613   0.269
 9155SOL    HW228365   2.109   3.457   0.305
 9156SOL     OW28366   3.350   3.144   1.321
 9156SOL    HW128367   3.293   3.117   1.398
 9156SOL    HW228368   3.434   3.090   1.321
 9157SOL     OW28369   5.589   4.662   5.259
 9157SOL    HW128370   5.653   4.625   5.192
 9157SOL    HW228371   5.640   4.691   5.340
 9158SOL     OW28372   6.325   3.210   4.610
 9158SOL    HW128373   6.231   3.229   4.582
 9158SOL    HW228374   6.374   3.296   4.624
 9159SOL     OW28375   0.050   6.112   3.382
 9159SOL    HW128376   6.986   6.166   3.366
 9159SOL    HW228377   0.099   6.149   3.461
 9160SOL     OW28378   0.041   0.085   4.795
 9160SOL    HW128379   0.117   0.022   4.809
 9160SOL    HW228380   0.069   0.178   4.818
 9161SOL     OW28381   4.876   3.864   4.645
 9161SOL    HW128382   4.922   3.832   4.561
 9161SOL    HW228383   4.890   3.797   4.718
 9162SOL     OW28384   4.770   2.358   3.013
 9162SOL    HW128385   4.827   2.437   2.995
 9162SOL    HW228386   4.767   2.300   2.931
 9163SOL     OW28387   2.105   3.200   3.904
 9163SOL    HW128388   2.126   3.278   3.963
 9163SOL    HW228389   2.101   3.229   3.809
 9164SOL     OW28390   2.788   0.847   0.007
 9164SOL    HW128391   2.724   0.876   0.078
 9164SOL    HW228392   2.809   0.749   0.018
 9165SOL     OW28393   6.325   1.405   6.256
 9165SOL    HW128394   6.358   1.411   6.162
 9165SOL    HW228395   6.229   1.435   6.260
 9166SOL     OW28396   4.827   6.407   0.925
 9166SOL    HW128397   4.891   6.458   0.867
 9166SOL    HW228398   4.857   6.413   1.021
 9167SOL     OW28399   1.701   3.442   6.230
 9167SOL    HW128400   1.737   3.519   6.281
 9167SOL    HW228401   1.615   3.411   6.271
 9168SOL     OW28402   1.549   6.546   5.490
 9168SOL    HW128403   1.591   6.616   5.432
 9168SOL    HW228404   1.451   6.565   5.498
 9169SOL     OW28405   6.927   1.123   5.084
 9169SOL    HW128406   6.914   1.208   5.033
 9169SOL    HW228407   6.974   1.057   5.025
 9170SOL     OW28408   0.358   4.757   0.163
 9170SOL    HW128409   0.298   4.768   0.084
 9170SOL    HW228410   0.307   4.716   0.239
 9171SOL     OW28411   3.196   5.570   0.499
 9171SOL    HW128412   3.277   5.520   0.469
 9171SOL    HW228413   3.160   5.624   0.424
 9172SOL     OW28414   3.184   0.945   4.823
 9172SOL    HW128415   3.181   1.045   4.818
 9172SOL    HW228416   3.275   0.914   4.796
 9173SOL     OW28417   5.905   4.523   4.860
 9173SOL    HW128418   5.844   4.492   4.933
 9173SOL    HW228419   5.874   4.612   4.826
 9174SOL     OW28420   6.281   4.266   0.713
 9174SOL    HW128421   6.366   4.290   0.759
 9174SOL    HW228422   6.229   4.202   0.770
 9175SOL     OW28423   1.594   6.614   4.526
 9175SOL    HW128424   1.643   6.610   4.439
 9175SOL    HW228425   1.530   6.537   4.531
 9176SOL     OW28426   2.583   0.806   5.944
 9176SOL    HW128427   2.680   0.824   5.957
 9176SOL    HW228428   2.530   0.883   5.981
 9177SOL     OW28429   1.350   5.059   4.590
 9177SOL    HW128430   1.354   5.002   4.672
 9177SOL    HW228431   1.256   5.090   4.575
 9178SOL     OW28432   1.985   5.285   0.882
 9178SOL    HW128433   2.068   5.231   0.866
 9178SOL    HW228434   2.008   5.363   0.940
 9179SOL     OW28435   2.712   5.957   3.992
 9179SOL    HW128436   2.614   5.936   4.001
 9179SOL    HW228437   2.761   5.923   4.071
 9180SOL     OW28438   6.236   2.213   3.390
 9180SOL    HW128439   6.202   2.306   3.377
 9180SOL    HW228440   6.159   2.151   3.400
 9181SOL     OW28441   4.413   2.178   3.347
 9181SOL    HW128442   4.329   2.195   3.398
 9181SOL    HW228443   4.471   2.259   3.350
 9182SOL     OW28444   2.618   0.167   2.538
 9182SOL    HW128445   2.614   0.105   2.616
 9182SOL    HW228446   2.711   0.199   2.525
 9183SOL     OW28447   5.465   5.816   0.433
 9183SOL    HW128448   5.519   5.876   0.374
 9183SOL    HW228449   5.374   5.804   0.394
 9184SOL     OW28450   5.057   1.589   0.253
 9184SOL    HW128451   4.990   1.664   0.249
 9184SOL    HW228452   5.149   1.626   0.239
 9185SOL     OW28453   4.440   6.688   4.452
 9185SOL    HW128454   4.423   6.719   4.359
 9185SOL    HW228455   4.352   6.678   4.500
 9186SOL     OW28456   5.562   0.788   3.875
 9186SOL    HW128457   5.532   0.867   3.821
 9186SOL    HW228458   5.629   0.736   3.822
 9187SOL     OW28459   2.641   0.341   1.446
 9187SOL    HW128460   2.571   0.404   1.413
 9187SOL    HW228461   2.673   0.370   1.536
 9188SOL     OW28462   2.278   6.982   2.308
 9188SOL    HW128463   2.210   0.020   2.261
 9188SOL    HW228464   2.262   6.987   2.407
 9189SOL     OW28465   5.491   6.114   1.790
 9189SOL    HW128466   5.515   6.019   1.812
 9189SOL    HW228467   5.574   6.169   1.784
 9190SOL     OW28468   0.985   5.005   0.371
 9190SOL    HW128469   1.074   5.016   0.325
 9190SOL    HW228470   0.925   4.950   0.313
 9191SOL     OW28471   6.109   0.668   6.042
 9191SOL    HW128472   6.029   0.720   6.071
 9191SOL    HW228473   6.192   0.712   6.075
 9192SOL     OW28474   0.565   4.030   5.927
 9192SOL    HW128475   0.649   4.074   5.959
 9192SOL    HW228476   0.574   3.931   5.939
 9193SOL     OW28477   4.764   4.600   0.361
 9193SOL    HW128478   4.774   4.524   0.297
 9193SOL    HW228479   4.837   4.666   0.346
 9194SOL     OW28480   3.242   0.920   3.488
 9194SOL    HW128481   3.173   0.985   3.522
 9194SOL    HW228482   3.297   0.964   3.417
 9195SOL     OW28483   1.587   2.143   4.241
 9195SOL    HW128484   1.641   2.226   4.226
 9195SOL    HW228485   1.599   2.113   4.336
 9196SOL     OW28486   3.994   0.650   4.720
 9196SOL    HW128487   3.910   0.671   4.670
 9196SOL    HW228488   4.027   0.559   4.693
 9197SOL     OW28489   1.495   4.260   1.454
 9197SOL    HW128490   1.453   4.338   1.502
 9197SOL    HW228491   1.585   4.287   1.420
 9198SOL     OW28492   6.480   5.222   5.556
 9198SOL    HW128493   6.415   5.147   5.540
 9198SOL    HW228494   6.493   5.273   5.471
 9199SOL     OW28495   1.078   3.688   6.287
 9199SOL    HW128496   0.985   3.654   6.277
 9199SOL    HW228497   1.075   3.787   6.303
 9200SOL     OW28498   3.058   0.369   0.823
 9200SOL    HW128499   3.062   0.403   0.729
 9200SOL    HW228500   3.149   0.341   0.853
 9201SOL     OW28501   0.681   2.807   0.641
 9201SOL    HW128502   0.688   2.772   0.735
 9201SOL    HW228503   0.773   2.819   0.603
 9202SOL     OW28504   2.117   0.270   3.342
 9202SOL    HW128505   2.067   0.187   3.367
 9202SOL    HW228506   2.214   0.259   3.367
 9203SOL     OW28507   0.331   5.387   6.745
 9203SOL    HW128508   0.403   5.355   6.684
 9203SOL    HW228509   0.318   5.486   6.732
 9204SOL     OW28510   4.521   2.744   6.723
 9204SOL    HW128511   4.423   2.729   6.737
 9204SOL    HW228512   4.544   2.728   6.627
 9205SOL     OW28513   5.980   4.211   2.665
 9205SOL    HW128514   5.973   4.197   2.764
 9205SOL    HW228515   6.076   4.223   2.640
 9206SOL     OW28516   4.007   5.394   1.476
 9206SOL    HW128517   4.058   5.478   1.462
 9206SOL    HW228518   4.052   5.338   1.546
 9207SOL     OW28519   4.138   5.323   0.470
 9207SOL    HW128520   4.159   5.232   0.435
 9207SOL    HW228521   4.167   5.392   0.404
 9208SOL     OW28522   5.704   4.368   3.930
 9208SOL    HW128523   5.729   4.285   3.980
 9208SOL    HW228524   5.787   4.411   3.894
 9209SOL     OW28525   2.892   0.581   0.032
 9209SOL    HW128526   2.975   0.619   0.074
 9209SOL    HW228527   2.918   0.504   6.992
 9210SOL     OW28528   6.800   1.214   2.970
 9210SOL    HW128529   6.792   1.146   2.897
 9210SOL    HW228530   6.877   1.275   2.951
 9211SOL     OW28531   6.635   2.858   4.333
 9211SOL    HW128532   6.730   2.863   4.364
 9211SOL    HW228533   6.633   2.858   4.233
 9212SOL     OW28534   4.008   5.468   4.423
 9212SOL    HW128535   3.987   5.517   4.339
 9212SOL    HW228536   4.018   5.533   4.498
 9213SOL     OW28537   5.564   2.935   5.412
 9213SOL    HW128538   5.465   2.947   5.404
 9213SOL    HW228539   5.600   2.998   5.481
 9214SOL     OW28540   0.300   5.745   5.459
 9214SOL    HW128541   0.271   5.822   5.515
 9214SOL    HW228542   0.221   5.688   5.437
 9215SOL     OW28543   1.285   2.240   0.221
 9215SOL    HW128544   1.367   2.252   0.277
 9215SOL    HW228545   1.204   2.268   0.273
 9216SOL     OW28546   2.682   0.591   3.190
 9216SOL    HW128547   2.745   0.665   3.215
 9216SOL    HW228548   2.707   0.555   3.100
 9217SOL     OW28549   0.277   0.675   5.593
 9217SOL    HW128550   0.227   0.740   5.536
 9217SOL    HW228551   0.254   0.691   5.689
 9218SOL     OW28552   3.870   6.286   0.426
 9218SOL    HW128553   3.884   6.293   0.524
 9218SOL    HW228554   3.905   6.198   0.393
 9219SOL     OW28555   0.320   2.660   0.006
 9219SOL    HW128556   0.280   2.746   6.990
 9219SOL    HW228557   0.246   2.599   0.035
 9220SOL     OW28558   2.471   6.804   1.402
 9220SOL    HW128559   2.466   6.904   1.409
 9220SOL    HW228560   2.557   6.777   1.360
 9221SOL     OW28561   3.199   0.663   4.406
 9221SOL    HW128562   3.106   0.697   4.410
 9221SOL    HW228563   3.253   0.705   4.479
 9222SOL     OW28564   2.715   6.777   6.886
 9222SOL    HW128565   2.772   6.851   6.920
 9222SOL    HW228566   2.623   6.785   6.924
 9223SOL     OW28567   1.395   1.915   4.875
 9223SOL    HW128568   1.378   1.993   4.815
 9223SOL    HW228569   1.490   1.885   4.864
 9224SOL     OW28570   3.169   5.116   4.964
 9224SOL    HW128571   3.087   5.134   5.019
 9224SOL    HW228572   3.223   5.200   4.957
 9225SOL     OW28573   3.707   6.960   6.011
 9225SOL    HW128574   3.735   0.016   5.949
 9225SOL    HW228575   3.677   6.882   5.957
 9226SOL     OW28576   5.356   6.680   1.697
 9226SOL    HW128577   5.262   6.644   1.700
 9226SOL    HW228578   5.376   6.710   1.604
 9227SOL     OW28579   0.824   5.418   2.624
 9227SOL    HW128580   0.864   5.353   2.687
 9227SOL    HW228581   0.893   5.485   2.596
 9228SOL     OW28582   1.590   0.403   5.963
 9228SOL    HW128583   1.673   0.368   5.920
 9228SOL    HW228584   1.555   0.481   5.910
 9229SOL     OW28585   1.390   5.482   4.402
 9229SOL    HW128586   1.462   5.501   4.468
 9229SOL    HW228587   1.301   5.493   4.446
 9230SOL     OW28588   6.193   0.460   2.634
 9230SOL    HW128589   6.281   0.414   2.646
 9230SOL    HW228590   6.187   0.496   2.541
 9231SOL     OW28591   1.839   4.111   3.969
 9231SOL    HW128592   1.895   4.187   4.003
 9231SOL    HW228593   1.882   4.072   3.888
 9232SOL     OW28594   3.114   5.278   0.856
 9232SOL    HW128595   3.069   5.333   0.926
 9232SOL    HW228596   3.098   5.318   0.766
 9233SOL     OW28597   5.771   4.969   1.436
 9233SOL    HW128598   5.855   5.018   1.412
 9233SOL    HW228599   5.736   5.004   1.523
 9234SOL     OW28600   3.459   5.246   4.718
 9234SOL    HW128601   3.459   5.244   4.818
 9234SOL    HW228602   3.397   5.176   4.684
 9235SOL     OW28603   1.874   2.343   3.517
 9235SOL    HW128604   1.845   2.253   3.486
 9235SOL    HW228605   1.900   2.399   3.438
 9236SOL     OW28606   3.582   4.089   5.353
 9236SOL    HW128607   3.617   3.995   5.356
 9236SOL    HW228608   3.640   4.145   5.295
 9237SOL     OW28609   2.183   4.802   4.797
 9237SOL    HW128610   2.211   4.767   4.886
 9237SOL    HW228611   2.200   4.901   4.793
 9238SOL     OW28612   4.198   2.434   5.793
 9238SOL    HW128613   4.212   2.339   5.820
 9238SOL    HW228614   4.202   2.442   5.694
 9239SOL     OW28615   0.339   4.041   1.453
 9239SOL    HW128616   0.359   4.138   1.446
 9239SOL    HW228617   0.409   3.988   1.405
 9240SOL     OW28618   5.696   1.054   0.431
 9240SOL    HW128619   5.759   0.980   0.455
 9240SOL    HW228620   5.744   1.142   0.435
 9241SOL     OW28621   0.042   5.763   5.726
 9241SOL    HW128622   0.115   5.832   5.727
 9241SOL    HW228623   0.047   5.708   5.809
 9242SOL     OW28624   6.624   5.733   0.590
 9242SOL    HW128625   6.692   5.801   0.615
 9242SOL    HW228626   6.589   5.752   0.498
 9243SOL     OW28627   6.041   5.781   2.945
 9243SOL    HW128628   5.978   5.853   2.975
 9243SOL    HW228629   6.013   5.694   2.987
 9244SOL     OW28630   4.430   5.363   5.803
 9244SOL    HW128631   4.398   5.390   5.894
 9244SOL    HW228632   4.357   5.376   5.736
 9245SOL     OW28633   1.618   5.386   2.577
 9245SOL    HW128634   1.647   5.295   2.608
 9245SOL    HW228635   1.530   5.409   2.620
 9246SOL     OW28636   5.824   4.750   3.123
 9246SOL    HW128637   5.797   4.677   3.059
 9246SOL    HW228638   5.924   4.755   3.127
 9247SOL     OW28639   0.635   6.677   3.179
 9247SOL    HW128640   0.732   6.668   3.160
 9247SOL    HW228641   0.586   6.596   3.145
 9248SOL     OW28642   2.239   2.930   6.036
 9248SOL    HW128643   2.292   2.880   5.967
 9248SOL    HW228644   2.143   2.934   6.009
 9249SOL     OW28645   5.479   2.646   6.109
 9249SOL    HW128646   5.403   2.601   6.063
 9249SOL    HW228647   5.476   2.628   6.207
 9250SOL     OW28648   5.250   3.749   4.926
 9250SOL    HW128649   5.227   3.725   4.832
 9250SOL    HW228650   5.279   3.844   4.930
 9251SOL     OW28651   3.571   2.155   3.351
 9251SOL    HW128652   3.545   2.127   3.259
 9251SOL    HW228653   3.663   2.194   3.349
 9252SOL     OW28654   6.215   0.272   4.017
 9252SOL    HW128655   6.306   0.231   4.022
 9252SOL    HW228656   6.187   0.280   3.921
 9253SOL     OW28657   4.634   5.969   5.894
 9253SOL    HW128658   4.672   6.049   5.845
 9253SOL    HW228659   4.608   5.996   5.986
 9254SOL     OW28660   6.321   3.903   1.284
 9254SOL    HW128661   6.389   3.845   1.328
 9254SOL    HW228662   6.229   3.869   1.305
 9255SOL     OW28663   4.977   2.809   0.038
 9255SOL    HW128664   4.878   2.798   0.037
 9255SOL    HW228665   5.000   2.907   0.041
 9256SOL     OW28666   3.530   4.938   3.274
 9256SOL    HW128667   3.502   4.933   3.370
 9256SOL    HW228668   3.623   4.902   3.264
 9257SOL     OW28669   0.989   4.319   2.406
 9257SOL    HW128670   1.077   4.290   2.369
 9257SOL    HW228671   1.003   4.394   2.471
 9258SOL     OW28672   3.954   3.194   3.812
 9258SOL    HW128673   3.976   3.203   3.715
 9258SOL    HW228674   4.008   3.259   3.865
 9259SOL     OW28675   1.472   2.564   1.040
 9259SOL    HW128676   1.445   2.538   0.947
 9259SOL    HW228677   1.546   2.632   1.036
 9260SOL     OW28678   5.204   1.652   5.511
 9260SOL    HW128679   5.208   1.726   5.578
 9260SOL    HW228680   5.265   1.578   5.539
 9261SOL     OW28681   4.285   6.915   6.358
 9261SOL    HW128682   4.376   6.952   6.336
 9261SOL    HW228683   4.217   6.959   6.299
 9262SOL     OW28684   6.521   2.878   5.441
 9262SOL    HW128685   6.515   2.972   5.473
 9262SOL    HW228686   6.455   2.822   5.491
 9263SOL     OW28687   6.190   4.043   0.920
 9263SOL    HW128688   6.146   4.123   0.960
 9263SOL    HW228689   6.282   4.033   0.958
 9264SOL     OW28690   6.221   3.880   0.410
 9264SOL    HW128691   6.193   3.914   0.320
 9264SOL    HW228692   6.318   3.859   0.409
 9265SOL     OW28693   3.472   1.390   0.607
 9265SOL    HW128694   3.546   1.450   0.575
 9265SOL    HW228695   3.483   1.299   0.566
 9266SOL     OW28696   2.396   6.367   2.663
 9266SOL    HW128697   2.309   6.395   2.623
 9266SOL    HW228698   2.380   6.319   2.749
 9267SOL     OW28699   0.303   3.940   5.507
 9267SOL    HW128700   0.206   3.917   5.504
 9267SOL    HW228701   0.350   3.898   5.429
 9268SOL     OW28702   0.990   6.290   2.343
 9268SOL    HW128703   0.907   6.330   2.382
 9268SOL    HW228704   1.008   6.330   2.253
 9269SOL     OW28705   2.720   2.451   6.631
 9269SOL    HW128706   2.724   2.405   6.542
 9269SOL    HW228707   2.629   2.438   6.671
 9270SOL     OW28708   5.002   6.357   5.440
 9270SOL    HW128709   5.096   6.350   5.475
 9270SOL    HW228710   4.963   6.445   5.467
 9271SOL     OW28711   1.314   6.138   0.983
 9271SOL    HW128712   1.414   6.139   0.984
 9271SOL    HW228713   1.280   6.230   0.999
 9272SOL     OW28714   2.980   4.861   6.059
 9272SOL    HW128715   2.890   4.825   6.080
 9272SOL    HW228716   2.974   4.921   5.979
 9273SOL     OW28717   5.177   5.696   3.817
 9273SOL    HW128718   5.202   5.792   3.835
 9273SOL    HW228719   5.193   5.675   3.721
 9274SOL     OW28720   6.190   1.967   6.771
 9274SOL    HW128721   6.236   2.019   6.843
 9274SOL    HW228722   6.098   1.942   6.800
 9275SOL     OW28723   0.450   1.563   0.475
 9275SOL    HW128724   0.416   1.592   0.564
 9275SOL    HW228725   0.397   1.607   0.402
 9276SOL     OW28726   2.392   4.951   4.373
 9276SOL    HW128727   2.466   4.996   4.323
 9276SOL    HW228728   2.326   5.019   4.403
 9277SOL     OW28729   3.838   3.884   0.089
 9277SOL    HW128730   3.936   3.891   0.071
 9277SOL    HW228731   3.823   3.865   0.186
 9278SOL     OW28732   1.875   1.129   3.945
 9278SOL    HW128733   1.785   1.153   3.982
 9278SOL    HW228734   1.869   1.120   3.846
 9279SOL     OW28735   4.768   0.877   1.671
 9279SOL    HW128736   4.679   0.904   1.637
 9279SOL    HW228737   4.805   0.949   1.730
 9280SOL     OW28738   1.960   0.316   3.692
 9280SOL    HW128739   1.950   0.389   3.759
 9280SOL    HW228740   1.935   0.349   3.601
 9281SOL     OW28741   2.975   3.624   0.801
 9281SOL    HW128742   3.041   3.675   0.856
 9281SOL    HW228743   2.995   3.526   0.807
 9282SOL     OW28744   4.946   2.341   4.119
 9282SOL    HW128745   4.959   2.348   4.020
 9282SOL    HW228746   5.001   2.266   4.155
 9283SOL     OW28747   6.362   1.105   2.477
 9283SOL    HW128748   6.391   1.042   2.405
 9283SOL    HW228749   6.372   1.060   2.566
 9284SOL     OW28750   3.952   5.053   0.401
 9284SOL    HW128751   3.912   4.969   0.366
 9284SOL    HW228752   4.039   5.070   0.355
 9285SOL     OW28753   4.946   3.146   0.346
 9285SOL    HW128754   4.925   3.226   0.289
 9285SOL    HW228755   4.868   3.085   0.348
 9286SOL     OW28756   5.986   0.302   5.806
 9286SOL    HW128757   5.944   0.391   5.785
 9286SOL    HW228758   5.933   0.229   5.762
 9287SOL     OW28759   3.036   5.733   1.038
 9287SOL    HW128760   3.093   5.723   1.120
 9287SOL    HW228761   3.094   5.759   0.961
 9288SOL     OW28762   2.851   1.215   5.522
 9288SOL    HW128763   2.927   1.279   5.513
 9288SOL    HW228764   2.869   1.134   5.466
 9289SOL     OW28765   3.815   1.905   2.526
 9289SOL    HW128766   3.837   1.807   2.527
 9289SOL    HW228767   3.886   1.956   2.575
 9290SOL     OW28768   4.468   1.502   4.839
 9290SOL    HW128769   4.513   1.432   4.893
 9290SOL    HW228770   4.412   1.560   4.898
 9291SOL     OW28771   2.379   0.375   5.808
 9291SOL    HW128772   2.477   0.384   5.794
 9291SOL    HW228773   2.343   0.458   5.850
 9292SOL     OW28774   6.265   3.691   6.060
 9292SOL    HW128775   6.165   3.690   6.059
 9292SOL    HW228776   6.299   3.602   6.031
 9293SOL     OW28777   6.635   3.872   0.910
 9293SOL    HW128778   6.584   3.940   0.963
 9293SOL    HW228779   6.595   3.782   0.924
 9294SOL     OW28780   3.915   6.314   5.541
 9294SOL    HW128781   3.893   6.223   5.577
 9294SOL    HW228782   3.972   6.363   5.606
 9295SOL     OW28783   4.914   2.109   3.238
 9295SOL    HW128784   4.854   2.041   3.280
 9295SOL    HW228785   4.963   2.069   3.161
 9296SOL     OW28786   6.752   6.302   6.248
 9296SOL    HW128787   6.850   6.286   6.255
 9296SOL    HW228788   6.734   6.369   6.176
 9297SOL     OW28789   0.341   0.664   1.097
 9297SOL    HW128790   0.413   0.619   1.149
 9297SOL    HW228791   0.301   0.598   1.033
 9298SOL     OW28792   1.700   6.319   5.840
 9298SOL    HW128793   1.791   6.334   5.879
 9298SOL    HW228794   1.707   6.252   5.765
 9299SOL     OW28795   0.895   3.396   4.610
 9299SOL    HW128796   0.962   3.470   4.604
 9299SOL    HW228797   0.924   3.320   4.552
 9300SOL     OW28798   6.641   4.988   4.355
 9300SOL    HW128799   6.633   5.051   4.278
 9300SOL    HW228800   6.733   4.949   4.357
 9301SOL     OW28801   4.730   4.678   3.425
 9301SOL    HW128802   4.818   4.714   3.395
 9301SOL    HW228803   4.708   4.596   3.372
 9302SOL     OW28804   2.299   2.970   3.900
 9302SOL    HW128805   2.231   3.043   3.888
 9302SOL    HW228806   2.320   2.961   3.998
 9303SOL     OW28807   3.924   5.950   0.632
 9303SOL    HW128808   3.904   5.856   0.606
 9303SOL    HW228809   3.839   6.000   0.644
 9304SOL     OW28810   4.345   4.284   1.158
 9304SOL    HW128811   4.430   4.257   1.113
 9304SOL    HW228812   4.314   4.210   1.217
 9305SOL     OW28813   4.808   1.321   1.493
 9305SOL    HW128814   4.784   1.345   1.399
 9305SOL    HW228815   4.878   1.384   1.527
 9306SOL     OW28816   0.405   4.971   4.775
 9306SOL    HW128817   0.471   4.983   4.849
 9306SOL    HW228818   0.381   4.875   4.766
 9307SOL     OW28819   0.947   3.194   1.350
 9307SOL    HW128820   0.955   3.294   1.344
 9307SOL    HW228821   0.939   3.167   1.445
 9308SOL     OW28822   0.882   4.087   1.198
 9308SOL    HW128823   0.842   4.052   1.114
 9308SOL    HW228824   0.933   4.170   1.179
 9309SOL     OW28825   3.773   5.199   5.540
 9309SOL    HW128826   3.754   5.296   5.524
 9309SOL    HW228827   3.820   5.161   5.460
 9310SOL     OW28828   4.307   5.824   6.310
 9310SOL    HW128829   4.236   5.895   6.314
 9310SOL    HW228830   4.316   5.792   6.216
 9311SOL     OW28831   6.347   4.565   1.274
 9311SOL    HW128832   6.409   4.561   1.353
 9311SOL    HW228833   6.300   4.653   1.273
 9312SOL     OW28834   2.153   4.152   0.932
 9312SOL    HW128835   2.154   4.084   1.005
 9312SOL    HW228836   2.102   4.116   0.854
 9313SOL     OW28837   0.407   0.926   1.149
 9313SOL    HW128838   0.477   0.967   1.091
 9313SOL    HW228839   0.413   0.827   1.144
 9314SOL     OW28840   4.280   5.382   6.638
 9314SOL    HW128841   4.276   5.427   6.549
 9314SOL    HW228842   4.224   5.432   6.704
 9315SOL     OW28843   6.541   0.548   5.040
 9315SOL    HW128844   6.500   0.616   5.101
 9315SOL    HW228845   6.492   0.546   4.953
 9316SOL     OW28846   4.515   6.100   5.548
 9316SOL    HW128847   4.499   6.054   5.635
 9316SOL    HW228848   4.608   6.082   5.517
 9317SOL     OW28849   6.635   5.820   2.863
 9317SOL    HW128850   6.576   5.845   2.940
 9317SOL    HW228851   6.579   5.795   2.784
 9318SOL     OW28852   6.834   1.296   4.845
 9318SOL    HW128853   6.749   1.255   4.811
 9318SOL    HW228854   6.908   1.277   4.781
 9319SOL     OW28855   0.475   2.747   5.784
 9319SOL    HW128856   0.516   2.738   5.875
 9319SOL    HW228857   0.544   2.784   5.721
 9320SOL     OW28858   4.525   1.699   6.318
 9320SOL    HW128859   4.545   1.759   6.396
 9320SOL    HW228860   4.579   1.615   6.326
 9321SOL     OW28861   6.731   6.911   2.409
 9321SOL    HW128862   6.644   6.881   2.370
 9321SOL    HW228863   6.796   6.931   2.335
 9322SOL     OW28864   0.107   6.261   6.199
 9322SOL    HW128865   0.069   6.288   6.110
 9322SOL    HW228866   0.203   6.233   6.187
 9323SOL     OW28867   1.603   0.232   5.660
 9323SOL    HW128868   1.581   0.167   5.588
 9323SOL    HW228869   1.558   0.204   5.745
 9324SOL     OW28870   1.609   5.083   0.356
 9324SOL    HW128871   1.689   5.087   0.297
 9324SOL    HW228872   1.606   4.994   0.403
 9325SOL     OW28873   4.924   2.117   0.896
 9325SOL    HW128874   4.964   2.092   0.984
 9325SOL    HW228875   4.908   2.035   0.842
 9326SOL     OW28876   3.052   6.796   1.125
 9326SOL    HW128877   2.990   6.852   1.180
 9326SOL    HW228878   3.007   6.771   1.039
 9327SOL     OW28879   5.347   6.525   2.779
 9327SOL    HW128880   5.274   6.513   2.846
 9327SOL    HW228881   5.333   6.611   2.730
 9328SOL     OW28882   4.096   1.562   6.180
 9328SOL    HW128883   4.012   1.532   6.135
 9328SOL    HW228884   4.151   1.482   6.205
 9329SOL     OW28885   0.165   3.966   2.838
 9329SOL    HW128886   0.101   3.943   2.912
 9329SOL    HW228887   0.212   3.883   2.808
 9330SOL     OW28888   0.150   6.177   0.400
 9330SOL    HW128889   0.155   6.225   0.488
 9330SOL    HW228890   0.203   6.227   0.332
 9331SOL     OW28891   0.732   1.335   6.023
 9331SOL    HW128892   0.709   1.432   6.032
 9331SOL    HW228893   0.816   1.325   5.969
 9332SOL     OW28894   3.298   3.911   2.984
 9332SOL    HW128895   3.200   3.915   3.002
 9332SOL    HW228896   3.323   3.979   2.915
 9333SOL     OW28897   5.171   3.871   1.665
 9333SOL    HW128898   5.140   3.781   1.636
 9333SOL    HW228899   5.240   3.905   1.601
 9334SOL     OW28900   3.515   6.754   3.596
 9334SOL    HW128901   3.606   6.794   3.608
 9334SOL    HW228902   3.521   6.676   3.534
 9335SOL     OW28903   1.313   1.090   6.275
 9335SOL    HW128904   1.247   1.015   6.277
 9335SOL    HW228905   1.405   1.054   6.262
 9336SOL     OW28906   3.238   6.082   6.864
 9336SOL    HW128907   3.253   6.169   6.912
 9336SOL    HW228908   3.228   6.099   6.766
 9337SOL     OW28909   5.087   0.722   2.801
 9337SOL    HW128910   4.988   0.712   2.798
 9337SOL    HW228911   5.130   0.635   2.776
 9338SOL     OW28912   4.676   0.652   1.808
 9338SOL    HW128913   4.586   0.617   1.784
 9338SOL    HW228914   4.694   0.736   1.757
 9339SOL     OW28915   5.615   0.047   0.304
 9339SOL    HW128916   5.543   0.084   0.245
 9339SOL    HW228917   5.691   0.111   0.308
 9340SOL     OW28918   5.271   3.809   5.416
 9340SOL    HW128919   5.352   3.811   5.357
 9340SOL    HW228920   5.292   3.759   5.500
 9341SOL     OW28921   0.874   5.769   6.677
 9341SOL    HW128922   0.788   5.789   6.631
 9341SOL    HW228923   0.923   5.698   6.627
 9342SOL     OW28924   2.247   0.937   4.581
 9342SOL    HW128925   2.218   0.871   4.650
 9342SOL    HW228926   2.323   0.991   4.615
 9343SOL     OW28927   6.165   4.586   3.617
 9343SOL    HW128928   6.098   4.658   3.632
 9343SOL    HW228929   6.167   4.561   3.520
 9344SOL     OW28930   4.433   5.796   1.696
 9344SOL    HW128931   4.445   5.714   1.752
 9344SOL    HW228932   4.510   5.805   1.633
 9345SOL     OW28933   6.206   3.129   1.930
 9345SOL    HW128934   6.187   3.074   1.848
 9345SOL    HW228935   6.247   3.070   2.000
 9346SOL     OW28936   6.102   0.467   0.853
 9346SOL    HW128937   6.020   0.411   0.842
 9346SOL    HW228938   6.104   0.537   0.781
 9347SOL     OW28939   1.738   5.468   1.203
 9347SOL    HW128940   1.768   5.396   1.265
 9347SOL    HW228941   1.666   5.434   1.143
 9348SOL     OW28942   4.492   5.380   1.323
 9348SOL    HW128943   4.489   5.388   1.423
 9348SOL    HW228944   4.458   5.290   1.296
 9349SOL     OW28945   0.653   0.188   2.241
 9349SOL    HW128946   0.717   0.131   2.293
 9349SOL    HW228947   0.637   0.274   2.291
 9350SOL     OW28948   0.733   2.239   5.979
 9350SOL    HW128949   0.653   2.179   5.982
 9350SOL    HW228950   0.746   2.283   6.068
 9351SOL     OW28951   3.281   1.345   6.949
 9351SOL    HW128952   3.353   1.357   6.881
 9351SOL    HW228953   3.321   1.312   0.017
 9352SOL     OW28954   2.824   3.520   6.996
 9352SOL    HW128955   2.889   3.453   6.962
 9352SOL    HW228956   2.820   3.515   0.078
 9353SOL     OW28957   1.081   4.892   1.667
 9353SOL    HW128958   0.989   4.889   1.628
 9353SOL    HW228959   1.077   4.927   1.761
 9354SOL     OW28960   6.998   2.605   6.505
 9354SOL    HW128961   6.927   2.539   6.482
 9354SOL    HW228962   6.972   2.654   6.589
 9355SOL     OW28963   0.778   2.189   4.562
 9355SOL    HW128964   0.848   2.175   4.632
 9355SOL    HW228965   0.821   2.212   4.475
 9356SOL     OW28966   4.267   6.871   1.139
 9356SOL    HW128967   4.275   6.816   1.056
 9356SOL    HW228968   4.205   6.948   1.122
 9357SOL     OW28969   1.316   2.355   6.989
 9357SOL    HW128970   1.329   2.311   0.059
 9357SOL    HW228971   1.404   2.365   6.943
 9358SOL     OW28972   0.291   4.377   2.635
 9358SOL    HW128973   0.214   4.350   2.693
 9358SOL    HW228974   0.375   4.339   2.672
 9359SOL     OW28975   1.764   6.056   6.370
 9359SOL    HW128976   1.824   6.034   6.293
 9359SOL    HW228977   1.759   6.155   6.382
 9360SOL     OW28978   1.467   6.582   6.486
 9360SOL    HW128979   1.415   6.630   6.415
 9360SOL    HW228980   1.454   6.483   6.476
 9361SOL     OW28981   1.854   6.462   3.934
 9361SOL    HW128982   1.785   6.513   3.882
 9361SOL    HW228983   1.833   6.364   3.929
 9362SOL     OW28984   1.923   1.281   2.047
 9362SOL    HW128985   1.872   1.196   2.031
 9362SOL    HW228986   1.972   1.306   1.963
 9363SOL     OW28987   3.140   5.497   2.146
 9363SOL    HW128988   3.071   5.566   2.124
 9363SOL    HW228989   3.145   5.486   2.245
 9364SOL     OW28990   2.538   2.558   1.714
 9364SOL    HW128991   2.597   2.498   1.769
 9364SOL    HW228992   2.454   2.576   1.764
 9365SOL     OW28993   2.897   2.091   4.348
 9365SOL    HW128994   2.967   2.024   4.375
 9365SOL    HW228995   2.806   2.050   4.361
 9366SOL     OW28996   3.831   5.684   0.620
 9366SOL    HW128997   3.739   5.659   0.592
 9366SOL    HW228998   3.852   5.642   0.709
 9367SOL     OW28999   5.055   6.950   1.098
 9367SOL    HW129000   4.987   6.986   1.034
 9367SOL    HW229001   5.053   7.002   1.183
 9368SOL     OW29002   3.828   0.194   2.485
 9368SOL    HW129003   3.828   0.196   2.585
 9368SOL    HW229004   3.812   0.100   2.453
 9369SOL     OW29005   0.990   5.559   5.890
 9369SOL    HW129006   1.064   5.624   5.906
 9369SOL    HW229007   0.902   5.606   5.896
 9370SOL     OW29008   4.276   1.380   4.200
 9370SOL    HW129009   4.260   1.325   4.282
 9370SOL    HW229010   4.248   1.475   4.218
 9371SOL     OW29011   3.456   5.631   1.116
 9371SOL    HW129012   3.412   5.549   1.080
 9371SOL    HW229013   3.554   5.628   1.097
 9372SOL     OW29014   4.420   6.641   1.787
 9372SOL    HW129015   4.480   6.610   1.860
 9372SOL    HW229016   4.415   6.572   1.715
 9373SOL     OW29017   5.880   2.542   6.963
 9373SOL    HW129018   5.845   2.560   0.037
 9373SOL    HW229019   5.808   2.499   6.908
 9374SOL     OW29020   0.505   4.480   5.483
 9374SOL    HW129021   0.451   4.486   5.568
 9374SOL    HW229022   0.522   4.384   5.461
 9375SOL     OW29023   6.503   1.871   0.155
 9375SOL    HW129024   6.591   1.918   0.143
 9375SOL    HW229025   6.516   1.773   0.140
 9376SOL     OW29026   2.108   3.337   2.251
 9376SOL    HW129027   2.179   3.355   2.183
 9376SOL    HW229028   2.029   3.395   2.233
 9377SOL     OW29029   1.922   5.257   2.294
 9377SOL    HW129030   2.006   5.311   2.291
 9377SOL    HW229031   1.934   5.182   2.359
 9378SOL     OW29032   3.868   0.889   3.848
 9378SOL    HW129033   3.776   0.874   3.811
 9378SOL    HW229034   3.931   0.910   3.774
 9379SOL     OW29035   3.701   6.917   4.688
 9379SOL    HW129036   3.649   6.993   4.725
 9379SOL    HW229037   3.700   6.922   4.588
 9380SOL     OW29038   4.164   5.543   6.108
 9380SOL    HW129039   4.207   5.630   6.085
 9380SOL    HW229040   4.232   5.470   6.104
 9381SOL     OW29041   5.181   1.399   4.377
 9381SOL    HW129042   5.174   1.301   4.395
 9381SOL    HW229043   5.207   1.446   4.461
 9382SOL     OW29044   3.585   0.776   4.218
 9382SOL    HW129045   3.571   0.875   4.210
 9382SOL    HW229046   3.500   0.729   4.195
 9383SOL     OW29047   4.909   3.727   3.399
 9383SOL    HW129048   4.959   3.713   3.484
 9383SOL    HW229049   4.841   3.799   3.412
 9384SOL     OW29050   1.770   7.009   1.948
 9384SOL    HW129051   1.863   0.023   1.966
 9384SOL    HW229052   1.724   0.056   1.888
 9385SOL     OW29053   4.022   1.640   3.692
 9385SOL    HW129054   3.995   1.729   3.729
 9385SOL    HW229055   4.120   1.626   3.705
 9386SOL     OW29056   4.246   5.598   5.329
 9386SOL    HW129057   4.248   5.686   5.379
 9386SOL    HW229058   4.202   5.612   5.240
 9387SOL     OW29059   3.781   2.080   6.722
 9387SOL    HW129060   3.683   2.097   6.730
 9387SOL    HW229061   3.799   2.030   6.637
 9388SOL     OW29062   2.236   0.135   3.986
 9388SOL    HW129063   2.184   0.056   4.017
 9388SOL    HW229064   2.277   0.115   3.897
 9389SOL     OW29065   3.718   5.250   2.240
 9389SOL    HW129066   3.636   5.242   2.298
 9389SOL    HW229067   3.764   5.161   2.236
 9390SOL     OW29068   5.097   4.393   5.646
 9390SOL    HW129069   5.127   4.318   5.587
 9390SOL    HW229070   5.100   4.479   5.594
 9391SOL     OW29071   1.253   6.385   4.694
 9391SOL    HW129072   1.198   6.451   4.641
 9391SOL    HW229073   1.246   6.295   4.651
 9392SOL     OW29074   5.081   3.957   2.646
 9392SOL    HW129075   5.066   3.934   2.742
 9392SOL    HW229076   5.001   3.931   2.592
 9393SOL     OW29077   3.015   6.282   6.130
 9393SOL    HW129078   2.967   6.308   6.213
 9393SOL    HW229079   3.036   6.184   6.133
 9394SOL     OW29080   5.026   0.243   1.184
 9394SOL    HW129081   5.104   0.280   1.133
 9394SOL    HW229082   4.954   0.217   1.120
 9395SOL     OW29083   2.867   1.456   0.660
 9395SOL    HW129084   2.837   1.525   0.594
 9395SOL    HW229085   2.885   1.370   0.613
 9396SOL     OW29086   1.856   5.897   6.807
 9396SOL    HW129087   1.883   5.889   6.711
 9396SOL    HW229088   1.836   5.805   6.843
 9397SOL     OW29089   3.976   0.448   6.376
 9397SOL    HW129090   3.976   0.354   6.408
 9397SOL    HW229091   3.925   0.505   6.440
 9398SOL     OW29092   6.931   1.571   6.650
 9398SOL    HW129093   7.007   1.630   6.625
 9398SOL    HW229094   6.885   1.606   6.732
 9399SOL     OW29095   1.992   2.876   3.849
 9399SOL    HW129096   1.978   2.960   3.901
 9399SOL    HW229097   2.044   2.811   3.904
 9400SOL     OW29098   5.284   0.972   0.612
 9400SOL    HW129099   5.191   0.948   0.639
 9400SOL    HW229100   5.329   0.892   0.571
 9401SOL     OW29101   1.058   1.770   2.807
 9401SOL    HW129102   1.068   1.843   2.740
 9401SOL    HW229103   1.088   1.803   2.897
 9402SOL     OW29104   1.448   5.892   3.518
 9402SOL    HW129105   1.390   5.832   3.463
 9402SOL    HW229106   1.478   5.970   3.464
 9403SOL     OW29107   6.455   1.974   1.925
 9403SOL    HW129108   6.442   2.036   2.002
 9403SOL    HW229109   6.549   1.941   1.924
 9404SOL     OW29110   2.058   3.284   1.034
 9404SOL    HW129111   1.961   3.271   1.015
 9404SOL    HW229112   2.105   3.310   0.950
 9405SOL     OW29113   0.219   4.715   5.115
 9405SOL    HW129114   0.192   4.811   5.107
 9405SOL    HW229115   0.290   4.705   5.185
 9406SOL     OW29116   0.135   2.891   6.701
 9406SOL    HW129117   0.042   2.872   6.670
 9406SOL    HW229118   0.135   2.908   6.800
 9407SOL     OW29119   1.744   4.771   5.019
 9407SOL    HW129120   1.816   4.820   5.068
 9407SOL    HW229121   1.766   4.769   4.921
 9408SOL     OW29122   6.595   4.433   4.893
 9408SOL    HW129123   6.626   4.471   4.806
 9408SOL    HW229124   6.663   4.367   4.927
 9409SOL     OW29125   6.695   4.954   2.497
 9409SOL    HW129126   6.746   5.022   2.444
 9409SOL    HW229127   6.757   4.880   2.525
 9410SOL     OW29128   3.855   0.596   1.773
 9410SOL    HW129129   3.871   0.501   1.800
 9410SOL    HW229130   3.767   0.602   1.726
 9411SOL     OW29131   3.978   3.269   3.515
 9411SOL    HW129132   3.973   3.185   3.461
 9411SOL    HW229133   3.911   3.335   3.480
 9412SOL     OW29134   0.138   0.711   1.280
 9412SOL    HW129135   0.056   0.758   1.247
 9412SOL    HW229136   0.206   0.707   1.207
 9413SOL     OW29137   3.866   4.914   3.847
 9413SOL    HW129138   3.954   4.897   3.890
 9413SOL    HW229139   3.873   4.994   3.787
 9414SOL     OW29140   2.165   2.170   5.263
 9414SOL    HW129141   2.259   2.149   5.289
 9414SOL    HW229142   2.160   2.185   5.165
 9415SOL     OW29143   3.756   0.657   2.145
 9415SOL    HW129144   3.704   0.574   2.123
 9415SOL    HW229145   3.724   0.694   2.233
 9416SOL     OW29146   6.989   5.618   6.034
 9416SOL    HW129147   0.008   5.526   6.045
 9416SOL    HW229148   6.942   5.645   6.118
 9417SOL     OW29149   3.097   6.045   1.224
 9417SOL    HW129150   3.027   6.066   1.156
 9417SOL    HW229151   3.116   5.947   1.223
 9418SOL     OW29152   2.956   1.917   4.723
 9418SOL    HW129153   2.928   2.012   4.737
 9418SOL    HW229154   3.027   1.894   4.789
 9419SOL     OW29155   2.954   2.751   7.011
 9419SOL    HW129156   2.999   2.662   7.012
 9419SOL    HW229157   2.956   2.790   0.085
 9420SOL     OW29158   5.621   3.351   0.031
 9420SOL    HW129159   5.690   3.288   7.015
 9420SOL    HW229160   5.531   3.325   7.015
 9421SOL     OW29161   3.733   6.582   5.607
 9421SOL    HW129162   3.735   6.515   5.680
 9421SOL    HW229163   3.825   6.622   5.595
 9422SOL     OW29164   2.446   5.938   4.518
 9422SOL    HW129165   2.527   5.995   4.503
 9422SOL    HW229166   2.475   5.849   4.553
 9423SOL     OW29167   4.151   5.850   3.256
 9423SOL    HW129168   4.184   5.879   3.166
 9423SOL    HW229169   4.121   5.755   3.252
 9424SOL     OW29170   5.452   0.438   4.499
 9424SOL    HW129171   5.512   0.360   4.482
 9424SOL    HW229172   5.474   0.512   4.436
 9425SOL     OW29173   6.911   5.022   0.749
 9425SOL    HW129174   6.951   4.993   0.662
 9425SOL    HW229175   6.864   5.109   0.737
 9426SOL     OW29176   0.136   2.284   6.428
 9426SOL    HW129177   0.182   2.345   6.364
 9426SOL    HW229178   0.110   2.335   6.510
 9427SOL     OW29179   3.103   5.879   2.943
 9427SOL    HW129180   3.027   5.834   2.991
 9427SOL    HW229181   3.175   5.902   3.008
 9428SOL     OW29182   6.552   0.302   6.435
 9428SOL    HW129183   6.565   0.397   6.464
 9428SOL    HW229184   6.490   0.299   6.356
 9429SOL     OW29185   1.898   2.454   4.451
 9429SOL    HW129186   1.827   2.427   4.516
 9429SOL    HW229187   1.902   2.554   4.445
 9430SOL     OW29188   0.729   1.992   4.066
 9430SOL    HW129189   0.659   2.023   4.002
 9430SOL    HW229190   0.690   1.984   4.158
 9431SOL     OW29191   0.421   4.910   6.270
 9431SOL    HW129192   0.392   4.823   6.311
 9431SOL    HW229193   0.344   4.952   6.223
 9432SOL     OW29194   6.907   1.792   3.159
 9432SOL    HW129195   6.867   1.853   3.227
 9432SOL    HW229196   6.956   1.718   3.206
 9433SOL     OW29197   3.714   6.277   3.014
 9433SOL    HW129198   3.678   6.335   2.941
 9433SOL    HW229199   3.777   6.210   2.975
 9434SOL     OW29200   5.324   5.304   3.986
 9434SOL    HW129201   5.404   5.264   3.941
 9434SOL    HW229202   5.354   5.367   4.058
 9435SOL     OW29203   0.723   3.251   1.766
 9435SOL    HW129204   0.783   3.294   1.833
 9435SOL    HW229205   0.778   3.213   1.691
 9436SOL     OW29206   1.208   0.256   3.597
 9436SOL    HW129207   1.155   0.250   3.682
 9436SOL    HW229208   1.194   0.345   3.555
 9437SOL     OW29209   6.874   5.058   4.603
 9437SOL    HW129210   6.929   5.049   4.520
 9437SOL    HW229211   6.817   5.140   4.597
 9438SOL     OW29212   2.790   6.320   1.662
 9438SOL    HW129213   2.766   6.298   1.756
 9438SOL    HW229214   2.774   6.241   1.603
 9439SOL     OW29215   1.303   2.775   0.228
 9439SOL    HW129216   1.255   2.863   0.219
 9439SOL    HW229217   1.313   2.734   0.137
 9440SOL     OW29218   3.021   5.180   3.025
 9440SOL    HW129219   2.926   5.160   3.046
 9440SOL    HW229220   3.074   5.095   3.021
 9441SOL     OW29221   6.588   6.356   4.505
 9441SOL    HW129222   6.555   6.424   4.571
 9441SOL    HW229223   6.650   6.293   4.551
 9442SOL     OW29224   4.613   3.978   0.214
 9442SOL    HW129225   4.570   4.049   0.158
 9442SOL    HW229226   4.557   3.962   0.296
 9443SOL     OW29227   2.276   4.515   3.112
 9443SOL    HW129228   2.307   4.462   3.191
 9443SOL    HW229229   2.296   4.464   3.028
 9444SOL     OW29230   1.237   4.157   0.351
 9444SOL    HW129231   1.304   4.121   0.415
 9444SOL    HW229232   1.165   4.089   0.335
 9445SOL     OW29233   0.070   2.024   4.074
 9445SOL    HW129234   0.073   1.935   4.031
 9445SOL    HW229235   0.043   2.093   4.007
 9446SOL     OW29236   6.463   5.155   3.210
 9446SOL    HW129237   6.511   5.158   3.298
 9446SOL    HW229238   6.530   5.164   3.136
 9447SOL     OW29239   5.820   4.847   2.197
 9447SOL    HW129240   5.897   4.787   2.175
 9447SOL    HW229241   5.736   4.793   2.203
 9448SOL     OW29242   5.517   0.202   6.019
 9448SOL    HW129243   5.581   0.154   6.078
 9448SOL    HW229244   5.563   0.278   5.973
 9449SOL     OW29245   6.359   7.006   1.869
 9449SOL    HW129246   6.441   6.998   1.812
 9449SOL    HW229247   6.278   7.007   1.811
 9450SOL     OW29248   1.713   6.049   4.404
 9450SOL    HW129249   1.796   6.025   4.454
 9450SOL    HW229250   1.633   6.019   4.455
 9451SOL     OW29251   3.657   5.892   6.985
 9451SOL    HW129252   3.716   5.896   6.905
 9451SOL    HW229253   3.684   5.962   0.033
 9452SOL     OW29254   6.977   4.228   1.001
 9452SOL    HW129255   0.044   4.219   1.053
 9452SOL    HW229256   6.977   4.163   0.925
 9453SOL     OW29257   3.921   5.674   3.585
 9453SOL    HW129258   3.973   5.590   3.597
 9453SOL    HW229259   3.826   5.652   3.566
 9454SOL     OW29260   4.667   4.229   0.665
 9454SOL    HW129261   4.746   4.182   0.625
 9454SOL    HW229262   4.602   4.162   0.700
 9455SOL     OW29263   2.739   2.216   2.153
 9455SOL    HW129264   2.755   2.119   2.174
 9455SOL    HW229265   2.820   2.254   2.107
 9456SOL     OW29266   6.234   2.841   2.314
 9456SOL    HW129267   6.186   2.929   2.310
 9456SOL    HW229268   6.250   2.807   2.221
 9457SOL     OW29269   0.313   5.036   3.928
 9457SOL    HW129270   0.380   5.089   3.876
 9457SOL    HW229271   0.242   5.097   3.962
 9458SOL     OW29272   6.432   3.712   6.824
 9458SOL    HW129273   6.488   3.775   6.878
 9458SOL    HW229274   6.434   3.741   6.728
 9459SOL     OW29275   5.007   5.040   4.795
 9459SOL    HW129276   5.027   5.066   4.889
 9459SOL    HW229277   5.082   4.984   4.759
 9460SOL     OW29278   0.962   2.227   3.071
 9460SOL    HW129279   1.050   2.193   3.105
 9460SOL    HW229280   0.889   2.165   3.100
 9461SOL     OW29281   1.234   2.519   2.085
 9461SOL    HW129282   1.193   2.602   2.123
 9461SOL    HW229283   1.207   2.509   1.990
 9462SOL     OW29284   1.690   1.859   4.803
 9462SOL    HW129285   1.690   1.792   4.877
 9462SOL    HW229286   1.763   1.836   4.738
 9463SOL     OW29287   5.700   5.846   0.931
 9463SOL    HW129288   5.754   5.793   0.996
 9463SOL    HW229289   5.618   5.881   0.976
 9464SOL     OW29290   0.471   1.245   1.362
 9464SOL    HW129291   0.381   1.227   1.322
 9464SOL    HW229292   0.508   1.160   1.399
 9465SOL     OW29293   0.027   3.941   1.274
 9465SOL    HW129294   0.021   3.889   1.360
 9465SOL    HW229295   6.953   3.971   1.248
 9466SOL     OW29296   3.833   5.329   0.107
 9466SOL    HW129297   3.791   5.359   0.193
 9466SOL    HW229298   3.777   5.257   0.066
 9467SOL     OW29299   2.589   3.213   1.134
 9467SOL    HW129300   2.612   3.217   1.037
 9467SOL    HW229301   2.659   3.161   1.183
 9468SOL     OW29302   6.303   2.979   0.491
 9468SOL    HW129303   6.238   2.949   0.561
 9468SOL    HW229304   6.274   3.068   0.455
 9469SOL     OW29305   0.568   6.436   1.008
 9469SOL    HW129306   0.604   6.471   1.095
 9469SOL    HW229307   0.471   6.456   1.001
 9470SOL     OW29308   3.900   3.962   0.977
 9470SOL    HW129309   3.811   4.006   0.963
 9470SOL    HW229310   3.954   3.969   0.893
 9471SOL     OW29311   6.116   2.702   5.189
 9471SOL    HW129312   6.109   2.627   5.255
 9471SOL    HW229313   6.054   2.686   5.113
 9472SOL     OW29314   1.768   3.653   6.390
 9472SOL    HW129315   1.862   3.628   6.411
 9472SOL    HW229316   1.712   3.643   6.473
 9473SOL     OW29317   3.086   4.517   0.292
 9473SOL    HW129318   3.126   4.440   0.340
 9473SOL    HW229319   3.028   4.484   0.218
 9474SOL     OW29320   5.613   3.358   1.886
 9474SOL    HW129321   5.559   3.278   1.858
 9474SOL    HW229322   5.710   3.337   1.879
 9475SOL     OW29323   4.454   3.635   6.101
 9475SOL    HW129324   4.432   3.559   6.162
 9475SOL    HW229325   4.436   3.607   6.006
 9476SOL     OW29326   3.623   3.836   6.096
 9476SOL    HW129327   3.538   3.794   6.127
 9476SOL    HW229328   3.604   3.925   6.056
 9477SOL     OW29329   1.851   3.858   1.453
 9477SOL    HW129330   1.951   3.854   1.449
 9477SOL    HW229331   1.821   3.953   1.439
 9478SOL     OW29332   5.335   2.560   0.217
 9478SOL    HW129333   5.367   2.592   0.128
 9478SOL    HW229334   5.235   2.561   0.219
 9479SOL     OW29335   4.127   0.604   1.678
 9479SOL    HW129336   4.049   0.620   1.739
 9479SOL    HW229337   4.094   0.583   1.586
 9480SOL     OW29338   6.173   6.688   6.715
 9480SOL    HW129339   6.181   6.641   6.626
 9480SOL    HW229340   6.170   6.786   6.700
 9481SOL     OW29341   4.211   1.881   2.621
 9481SOL    HW129342   4.118   1.844   2.626
 9481SOL    HW229343   4.230   1.909   2.527
 9482SOL     OW29344   6.167   0.140   1.003
 9482SOL    HW129345   6.102   0.152   1.079
 9482SOL    HW229346   6.121   0.091   0.929
 9483SOL     OW29347   0.200   0.988   0.922
 9483SOL    HW129348   0.240   1.072   0.959
 9483SOL    HW229349   0.205   0.916   0.991
 9484SOL     OW29350   3.317   6.060   4.495
 9484SOL    HW129351   3.414   6.082   4.483
 9484SOL    HW229352   3.263   6.143   4.485
 9485SOL     OW29353   6.599   1.368   0.011
 9485SOL    HW129354   6.531   1.436   7.002
 9485SOL    HW229355   6.688   1.392   6.989
 9486SOL     OW29356   4.986   5.765   0.148
 9486SOL    HW129357   5.064   5.725   0.194
 9486SOL    HW229358   4.947   5.699   0.084
 9487SOL     OW29359   3.532   3.134   3.920
 9487SOL    HW129360   3.605   3.067   3.905
 9487SOL    HW229361   3.458   3.092   3.972
 9488SOL     OW29362   1.569   1.734   1.055
 9488SOL    HW129363   1.491   1.680   1.024
 9488SOL    HW229364   1.539   1.827   1.078
 9489SOL     OW29365   4.580   4.418   0.452
 9489SOL    HW129366   4.611   4.364   0.530
 9489SOL    HW229367   4.638   4.498   0.441
 9490SOL     OW29368   5.791   3.809   3.445
 9490SOL    HW129369   5.749   3.751   3.375
 9490SOL    HW229370   5.719   3.850   3.501
 9491SOL     OW29371   5.090   6.492   2.931
 9491SOL    HW129372   5.088   6.592   2.919
 9491SOL    HW229373   5.003   6.461   2.969
 9492SOL     OW29374   4.784   2.459   4.519
 9492SOL    HW129375   4.774   2.370   4.563
 9492SOL    HW229376   4.694   2.503   4.511
 9493SOL     OW29377   4.303   6.757   3.162
 9493SOL    HW129378   4.350   6.675   3.195
 9493SOL    HW229379   4.218   6.769   3.213
 9494SOL     OW29380   5.295   2.310   1.926
 9494SOL    HW129381   5.339   2.370   1.859
 9494SOL    HW229382   5.309   2.215   1.898
 9495SOL     OW29383   0.770   0.689   2.712
 9495SOL    HW129384   0.843   0.640   2.664
 9495SOL    HW229385   0.807   0.736   2.791
 9496SOL     OW29386   4.089   2.200   2.481
 9496SOL    HW129387   4.127   2.289   2.455
 9496SOL    HW229388   4.149   2.127   2.450
 9497SOL     OW29389   5.847   4.869   4.219
 9497SOL    HW129390   5.905   4.832   4.291
 9497SOL    HW229391   5.760   4.900   4.258
 9498SOL     OW29392   6.428   5.028   4.052
 9498SOL    HW129393   6.401   5.042   3.956
 9498SOL    HW229394   6.348   4.999   4.105
 9499SOL     OW29395   5.643   5.913   5.428
 9499SOL    HW129396   5.608   5.820   5.423
 9499SOL    HW229397   5.730   5.918   5.379
 9500SOL     OW29398   4.168   0.979   0.878
 9500SOL    HW129399   4.202   1.070   0.855
 9500SOL    HW229400   4.217   0.910   0.825
 9501SOL     OW29401   1.531   2.705   4.653
 9501SOL    HW129402   1.563   2.728   4.744
 9501SOL    HW229403   1.502   2.788   4.606
 9502SOL     OW29404   5.870   4.413   5.611
 9502SOL    HW129405   5.838   4.346   5.545
 9502SOL    HW229406   5.912   4.490   5.564
 9503SOL     OW29407   0.484   2.520   6.551
 9503SOL    HW129408   0.454   2.509   6.646
 9503SOL    HW229409   0.577   2.555   6.549
 9504SOL     OW29410   6.102   5.180   2.020
 9504SOL    HW129411   6.124   5.270   1.984
 9504SOL    HW229412   6.182   5.120   2.010
 9505SOL     OW29413   4.362   4.855   5.159
 9505SOL    HW129414   4.397   4.931   5.214
 9505SOL    HW229415   4.294   4.889   5.094
 9506SOL     OW29416   3.305   2.100   1.219
 9506SOL    HW129417   3.300   2.026   1.151
 9506SOL    HW229418   3.337   2.184   1.175
 9507SOL     OW29419   5.945   0.248   1.952
 9507SOL    HW129420   5.870   0.188   1.926
 9507SOL    HW229421   6.020   0.194   1.989
 9508SOL     OW29422   5.003   1.419   3.139
 9508SOL    HW129423   5.034   1.343   3.083
 9508SOL    HW229424   5.074   1.445   3.204
 9509SOL     OW29425   6.661   0.086   2.598
 9509SOL    HW129426   6.706   0.030   2.529
 9509SOL    HW229427   6.589   0.032   2.643
 9510SOL     OW29428   0.615   2.911   3.535
 9510SOL    HW129429   0.584   2.961   3.615
 9510SOL    HW229430   0.538   2.895   3.474
 9511SOL     OW29431   1.218   1.204   0.458
 9511SOL    HW129432   1.186   1.116   0.493
 9511SOL    HW229433   1.149   1.275   0.478
 9512SOL     OW29434   6.182   2.282   1.193
 9512SOL    HW129435   6.211   2.246   1.104
 9512SOL    HW229436   6.096   2.332   1.181
 9513SOL     OW29437   4.026   5.164   6.985
 9513SOL    HW129438   4.002   5.239   0.027
 9513SOL    HW229439   3.982   5.080   7.017
 9514SOL     OW29440   3.463   3.282   6.598
 9514SOL    HW129441   3.416   3.369   6.616
 9514SOL    HW229442   3.396   3.208   6.595
 9515SOL     OW29443   2.642   5.132   3.934
 9515SOL    HW129444   2.556   5.101   3.975
 9515SOL    HW229445   2.628   5.151   3.837
 9516SOL     OW29446   6.820   3.940   0.311
 9516SOL    HW129447   6.900   3.886   0.336
 9516SOL    HW229448   6.750   3.879   0.273
 9517SOL     OW29449   0.740   4.701   1.179
 9517SOL    HW129450   0.788   4.635   1.238
 9517SOL    HW229451   0.720   4.658   1.091
 9518SOL     OW29452   2.301   1.507   0.444
 9518SOL    HW129453   2.384   1.473   0.399
 9518SOL    HW229454   2.264   1.435   0.502
 9519SOL     OW29455   0.806   3.052   5.390
 9519SOL    HW129456   0.833   3.092   5.303
 9519SOL    HW229457   0.844   2.959   5.397
 9520SOL     OW29458   1.975   6.741   2.789
 9520SOL    HW129459   2.003   6.739   2.693
 9520SOL    HW229460   1.890   6.690   2.801
 9521SOL     OW29461   5.407   5.547   4.149
 9521SOL    HW129462   5.462   5.517   4.227
 9521SOL    HW229463   5.401   5.647   4.149
 9522SOL     OW29464   3.406   6.070   0.991
 9522SOL    HW129465   3.484   6.119   0.953
 9522SOL    HW229466   3.410   6.074   1.091
 9523SOL     OW29467   3.733   5.042   4.888
 9523SOL    HW129468   3.778   4.965   4.842
 9523SOL    HW229469   3.647   5.011   4.928
 9524SOL     OW29470   4.043   3.527   0.985
 9524SOL    HW129471   4.141   3.510   0.974
 9524SOL    HW229472   3.998   3.443   1.014
 9525SOL     OW29473   2.604   0.805   6.381
 9525SOL    HW129474   2.545   0.749   6.439
 9525SOL    HW229475   2.559   0.893   6.363
 9526SOL     OW29476   4.885   5.515   2.945
 9526SOL    HW129477   4.961   5.553   2.892
 9526SOL    HW229478   4.881   5.560   3.034
 9527SOL     OW29479   0.400   1.303   2.156
 9527SOL    HW129480   0.475   1.367   2.140
 9527SOL    HW229481   0.381   1.297   2.254
 9528SOL     OW29482   6.728   0.566   2.393
 9528SOL    HW129483   6.656   0.592   2.329
 9528SOL    HW229484   6.766   0.648   2.435
 9529SOL     OW29485   0.646   2.900   6.004
 9529SOL    HW129486   0.637   2.997   6.029
 9529SOL    HW229487   0.716   2.890   5.934
 9530SOL     OW29488   1.510   2.435   3.486
 9530SOL    HW129489   1.590   2.473   3.532
 9530SOL    HW229490   1.504   2.473   3.393
 9531SOL     OW29491   3.540   0.188   3.329
 9531SOL    HW129492   3.536   0.150   3.237
 9531SOL    HW229493   3.565   0.285   3.324
 9532SOL     OW29494   2.115   0.083   1.941
 9532SOL    HW129495   2.075   0.130   2.019
 9532SOL    HW229496   2.106   0.140   1.859
 9533SOL     OW29497   1.733   1.267   5.989
 9533SOL    HW129498   1.714   1.261   6.087
 9533SOL    HW229499   1.828   1.297   5.976
 9534SOL     OW29500   5.798   2.334   5.326
 9534SOL    HW129501   5.816   2.241   5.294
 9534SOL    HW229502   5.701   2.355   5.315
 9535SOL     OW29503   2.668   0.951   5.359
 9535SOL    HW129504   2.723   0.919   5.435
 9535SOL    HW229505   2.659   1.051   5.364
 9536SOL     OW29506   1.449   5.936   5.814
 9536SOL    HW129507   1.421   5.916   5.908
 9536SOL    HW229508   1.473   5.851   5.767
 9537SOL     OW29509   2.597   0.331   1.846
 9537SOL    HW129510   2.596   0.242   1.801
 9537SOL    HW229511   2.507   0.351   1.884
 9538SOL     OW29512   6.640   2.221   4.686
 9538SOL    HW129513   6.635   2.230   4.586
 9538SOL    HW229514   6.736   2.215   4.713
 9539SOL     OW29515   0.558   5.881   0.432
 9539SOL    HW129516   0.616   5.914   0.358
 9539SOL    HW229517   0.547   5.782   0.424
 9540SOL     OW29518   4.625   4.717   4.210
 9540SOL    HW129519   4.552   4.735   4.143
 9540SOL    HW229520   4.708   4.690   4.161
 9541SOL     OW29521   2.081   2.792   4.091
 9541SOL    HW129522   1.998   2.810   4.144
 9541SOL    HW229523   2.157   2.845   4.130
 9542SOL     OW29524   4.844   3.310   4.601
 9542SOL    HW129525   4.916   3.291   4.534
 9542SOL    HW229526   4.800   3.397   4.579
 9543SOL     OW29527   5.497   1.476   3.143
 9543SOL    HW129528   5.480   1.564   3.099
 9543SOL    HW229529   5.586   1.479   3.189
 9544SOL     OW29530   5.000   1.634   2.819
 9544SOL    HW129531   5.023   1.568   2.891
 9544SOL    HW229532   5.052   1.613   2.736
 9545SOL     OW29533   6.802   1.047   3.449
 9545SOL    HW129534   6.801   1.052   3.349
 9545SOL    HW229535   6.786   0.952   3.478
 9546SOL     OW29536   2.597   5.208   0.468
 9546SOL    HW129537   2.653   5.289   0.452
 9546SOL    HW229538   2.506   5.236   0.500
 9547SOL     OW29539   0.583   6.646   4.004
 9547SOL    HW129540   0.520   6.667   4.079
 9547SOL    HW229541   0.585   6.722   3.940
 9548SOL     OW29542   4.821   5.715   4.136
 9548SOL    HW129543   4.744   5.726   4.199
 9548SOL    HW229544   4.803   5.640   4.073
 9549SOL     OW29545   2.562   6.143   0.615
 9549SOL    HW129546   2.493   6.213   0.633
 9549SOL    HW229547   2.521   6.066   0.568
 9550SOL     OW29548   1.257   1.460   0.059
 9550SOL    HW129549   1.277   1.362   0.046
 9550SOL    HW229550   1.339   1.513   0.040
 9551SOL     OW29551   1.070   6.498   4.913
 9551SOL    HW129552   1.016   6.477   4.831
 9551SOL    HW229553   1.137   6.425   4.927
 9552SOL     OW29554   1.793   5.950   3.317
 9552SOL    HW129555   1.879   5.923   3.361
 9552SOL    HW229556   1.777   5.893   3.237
 9553SOL     OW29557   5.717   4.145   5.710
 9553SOL    HW129558   5.674   4.091   5.637
 9553SOL    HW229559   5.666   4.230   5.723
 9554SOL     OW29560   2.338   1.438   2.052
 9554SOL    HW129561   2.366   1.507   1.985
 9554SOL    HW229562   2.261   1.473   2.106
 9555SOL     OW29563   6.842   2.465   0.722
 9555SOL    HW129564   6.778   2.530   0.681
 9555SOL    HW229565   6.872   2.399   0.653
 9556SOL     OW29566   1.867   1.732   1.595
 9556SOL    HW129567   1.861   1.726   1.695
 9556SOL    HW229568   1.960   1.758   1.569
 9557SOL     OW29569   5.184   0.426   2.237
 9557SOL    HW129570   5.235   0.505   2.271
 9557SOL    HW229571   5.239   0.376   2.170
 9558SOL     OW29572   6.435   4.993   2.596
 9558SOL    HW129573   6.383   4.988   2.511
 9558SOL    HW229574   6.532   5.003   2.576
 9559SOL     OW29575   6.808   3.231   1.955
 9559SOL    HW129576   6.836   3.240   2.050
 9559SOL    HW229577   6.825   3.138   1.923
 9560SOL     OW29578   3.060   1.671   3.750
 9560SOL    HW129579   3.089   1.767   3.750
 9560SOL    HW229580   3.099   1.625   3.830
 9561SOL     OW29581   4.589   6.430   0.709
 9561SOL    HW129582   4.638   6.382   0.636
 9561SOL    HW229583   4.570   6.366   0.784
 9562SOL     OW29584   5.040   5.043   2.412
 9562SOL    HW129585   5.073   5.096   2.490
 9562SOL    HW229586   5.055   4.946   2.429
 9563SOL     OW29587   6.411   5.995   6.942
 9563SOL    HW129588   6.371   5.905   6.958
 9563SOL    HW229589   6.365   6.063   6.999
 9564SOL     OW29590   2.847   6.628   0.270
 9564SOL    HW129591   2.831   6.726   0.256
 9564SOL    HW229592   2.945   6.612   0.281
 9565SOL     OW29593   3.648   5.726   5.122
 9565SOL    HW129594   3.736   5.751   5.082
 9565SOL    HW229595   3.591   5.682   5.053
 9566SOL     OW29596   2.714   4.402   5.389
 9566SOL    HW129597   2.730   4.303   5.389
 9566SOL    HW229598   2.784   4.447   5.333
 9567SOL     OW29599   5.889   5.458   5.472
 9567SOL    HW129600   5.865   5.477   5.567
 9567SOL    HW229601   5.988   5.459   5.462
 9568SOL     OW29602   4.765   3.460   6.330
 9568SOL    HW129603   4.680   3.503   6.362
 9568SOL    HW229604   4.761   3.362   6.348
 9569SOL     OW29605   6.360   0.797   0.216
 9569SOL    HW129606   6.430   0.727   0.210
 9569SOL    HW229607   6.331   0.823   0.124
 9570SOL     OW29608   0.985   1.140   0.250
 9570SOL    HW129609   0.980   1.203   0.328
 9570SOL    HW229610   1.081   1.119   0.231
 9571SOL     OW29611   2.045   3.819   0.297
 9571SOL    HW129612   1.977   3.788   0.232
 9571SOL    HW229613   2.091   3.901   0.262
 9572SOL     OW29614   1.728   4.419   1.368
 9572SOL    HW129615   1.823   4.388   1.374
 9572SOL    HW229616   1.695   4.446   1.458
 9573SOL     OW29617   1.788   1.633   0.884
 9573SOL    HW129618   1.808   1.541   0.919
 9573SOL    HW229619   1.737   1.684   0.953
 9574SOL     OW29620   2.626   2.454   5.903
 9574SOL    HW129621   2.585   2.480   5.815
 9574SOL    HW229622   2.567   2.484   5.977
 9575SOL     OW29623   5.656   0.945   2.374
 9575SOL    HW129624   5.645   0.861   2.428
 9575SOL    HW229625   5.751   0.976   2.381
 9576SOL     OW29626   3.215   1.635   5.308
 9576SOL    HW129627   3.218   1.696   5.229
 9576SOL    HW229628   3.170   1.682   5.384
 9577SOL     OW29629   0.967   6.617   3.534
 9577SOL    HW129630   0.877   6.645   3.565
 9577SOL    HW229631   0.962   6.525   3.495
 9578SOL     OW29632   6.133   3.106   2.316
 9578SOL    HW129633   6.198   3.156   2.259
 9578SOL    HW229634   6.040   3.137   2.296
 9579SOL     OW29635   1.164   6.484   2.459
 9579SOL    HW129636   1.186   6.566   2.406
 9579SOL    HW229637   1.115   6.419   2.401
 9580SOL     OW29638   4.170   3.070   5.888
 9580SOL    HW129639   4.082   3.107   5.917
 9580SOL    HW229640   4.208   3.128   5.816
 9581SOL     OW29641   0.957   4.470   5.903
 9581SOL    HW129642   0.975   4.462   6.001
 9581SOL    HW229643   0.946   4.379   5.863
 9582SOL     OW29644   4.131   4.838   4.580
 9582SOL    HW129645   4.141   4.818   4.482
 9582SOL    HW229646   4.199   4.786   4.631
 9583SOL     OW29647   1.901   4.203   1.676
 9583SOL    HW129648   1.893   4.301   1.693
 9583SOL    HW229649   1.986   4.184   1.627
 9584SOL     OW29650   6.057   6.011   6.028
 9584SOL    HW129651   6.075   6.057   6.115
 9584SOL    HW229652   6.048   5.913   6.044
 9585SOL     OW29653   5.845   0.275   4.675
 9585SOL    HW129654   5.844   0.181   4.642
 9585SOL    HW229655   5.917   0.326   4.628
 9586SOL     OW29656   5.930   3.603   3.090
 9586SOL    HW129657   6.024   3.575   3.072
 9586SOL    HW229658   5.869   3.562   3.023
 9587SOL     OW29659   4.796   6.622   2.522
 9587SOL    HW129660   4.819   6.651   2.430
 9587SOL    HW229661   4.841   6.681   2.589
 9588SOL     OW29662   0.558   0.620   1.906
 9588SOL    HW129663   0.585   0.701   1.958
 9588SOL    HW229664   0.590   0.628   1.812
 9589SOL     OW29665   2.649   1.227   6.421
 9589SOL    HW129666   2.566   1.274   6.391
 9589SOL    HW229667   2.729   1.274   6.384
 9590SOL     OW29668   6.640   3.983   4.296
 9590SOL    HW129669   6.660   4.069   4.342
 9590SOL    HW229670   6.588   4.001   4.212
 9591SOL     OW29671   1.530   5.005   1.572
 9591SOL    HW129672   1.596   5.076   1.546
 9591SOL    HW229673   1.521   5.003   1.672
 9592SOL     OW29674   4.751   5.078   1.906
 9592SOL    HW129675   4.744   5.087   1.807
 9592SOL    HW229676   4.707   4.993   1.935
 9593SOL     OW29677   0.775   2.954   4.188
 9593SOL    HW129678   0.811   2.868   4.225
 9593SOL    HW229679   0.850   3.008   4.150
 9594SOL     OW29680   6.496   6.845   2.306
 9594SOL    HW129681   6.453   6.925   2.349
 9594SOL    HW229682   6.477   6.846   2.208
 9595SOL     OW29683   1.145   5.180   3.983
 9595SOL    HW129684   1.097   5.211   4.065
 9595SOL    HW229685   1.218   5.245   3.960
 9596SOL     OW29686   5.426   6.176   4.876
 9596SOL    HW129687   5.506   6.154   4.821
 9596SOL    HW229688   5.354   6.109   4.857
 9597SOL     OW29689   1.963   3.700   0.891
 9597SOL    HW129690   1.988   3.722   0.985
 9597SOL    HW229691   1.937   3.783   0.843
 9598SOL     OW29692   0.051   5.366   5.639
 9598SOL    HW129693   0.102   5.428   5.698
 9598SOL    HW229694   0.100   5.279   5.631
 9599SOL     OW29695   4.851   1.565   4.888
 9599SOL    HW129696   4.802   1.497   4.943
 9599SOL    HW229697   4.843   1.655   4.931
 9600SOL     OW29698   1.322   6.946   6.968
 9600SOL    HW129699   1.301   6.979   0.042
 9600SOL    HW229700   1.245   6.966   6.907
 9601SOL     OW29701   0.503   5.187   5.499
 9601SOL    HW129702   0.562   5.113   5.529
 9601SOL    HW229703   0.494   5.184   5.399
 9602SOL     OW29704   1.176   5.562   0.453
 9602SOL    HW129705   1.229   5.517   0.525
 9602SOL    HW229706   1.122   5.636   0.492
 9603SOL     OW29707   1.686   5.783   4.105
 9603SOL    HW129708   1.698   5.700   4.159
 9603SOL    HW229709   1.775   5.818   4.078
 9604SOL     OW29710   6.341   1.146   6.688
 9604SOL    HW129711   6.287   1.084   6.631
 9604SOL    HW229712   6.409   1.193   6.632
 9605SOL     OW29713   2.035   6.104   6.657
 9605SOL    HW129714   2.041   6.008   6.685
 9605SOL    HW229715   2.053   6.110   6.559
 9606SOL     OW29716   6.178   6.508   3.973
 9606SOL    HW129717   6.217   6.481   4.062
 9606SOL    HW229718   6.237   6.474   3.900
 9607SOL     OW29719   0.850   2.088   1.774
 9607SOL    HW129720   0.757   2.064   1.804
 9607SOL    HW229721   0.862   2.062   1.678
 9608SOL     OW29722   0.474   6.843   2.238
 9608SOL    HW129723   0.564   6.838   2.195
 9608SOL    HW229724   0.483   6.881   2.330
 9609SOL     OW29725   1.241   3.397   4.340
 9609SOL    HW129726   1.168   3.465   4.333
 9609SOL    HW229727   1.265   3.383   4.436
 9610SOL     OW29728   2.758   1.682   6.525
 9610SOL    HW129729   2.682   1.629   6.563
 9610SOL    HW229730   2.746   1.778   6.548
 9611SOL     OW29731   6.700   6.929   1.470
 9611SOL    HW129732   6.784   6.931   1.524
 9611SOL    HW229733   6.702   7.001   1.401
 9612SOL     OW29734   5.492   2.682   1.491
 9612SOL    HW129735   5.509   2.702   1.588
 9612SOL    HW229736   5.403   2.716   1.465
 9613SOL     OW29737   5.663   6.183   5.329
 9613SOL    HW129738   5.609   6.106   5.364
 9613SOL    HW229739   5.718   6.222   5.404
 9614SOL     OW29740   3.805   3.238   2.361
 9614SOL    HW129741   3.869   3.174   2.403
 9614SOL    HW229742   3.812   3.232   2.262
 9615SOL     OW29743   0.924   6.326   3.478
 9615SOL    HW129744   0.864   6.294   3.551
 9615SOL    HW229745   0.905   6.276   3.394
 9616SOL     OW29746   3.067   3.247   0.613
 9616SOL    HW129747   3.049   3.291   0.524
 9616SOL    HW229748   3.124   3.307   0.669
 9617SOL     OW29749   0.761   4.648   3.842
 9617SOL    HW129750   0.840   4.684   3.793
 9617SOL    HW229751   0.677   4.690   3.806
 9618SOL     OW29752   4.598   6.126   6.725
 9618SOL    HW129753   4.600   6.170   6.815
 9618SOL    HW229754   4.690   6.129   6.684
 9619SOL     OW29755   2.728   6.868   0.286
 9619SOL    HW129756   2.630   6.885   0.273
 9619SOL    HW229757   2.756   6.900   0.377
 9620SOL     OW29758   3.489   1.137   6.370
 9620SOL    HW129759   3.413   1.097   6.320
 9620SOL    HW229760   3.528   1.212   6.317
 9621SOL     OW29761   1.271   1.330   0.932
 9621SOL    HW129762   1.254   1.343   1.030
 9621SOL    HW229763   1.277   1.232   0.912
 9622SOL     OW29764   6.462   0.276   5.941
 9622SOL    HW129765   6.560   0.261   5.948
 9622SOL    HW229766   6.443   0.374   5.941
 9623SOL     OW29767   3.921   6.281   6.794
 9623SOL    HW129768   3.911   6.210   6.724
 9623SOL    HW229769   3.869   6.257   6.875
 9624SOL     OW29770   4.331   5.235   4.787
 9624SOL    HW129771   4.422   5.225   4.745
 9624SOL    HW229772   4.267   5.172   4.741
 9625SOL     OW29773   4.742   3.702   6.197
 9625SOL    HW129774   4.655   3.694   6.149
 9625SOL    HW229775   4.769   3.612   6.232
 9626SOL     OW29776   2.187   3.388   6.317
 9626SOL    HW129777   2.161   3.444   6.396
 9626SOL    HW229778   2.163   3.436   6.233
 9627SOL     OW29779   0.866   5.329   0.262
 9627SOL    HW129780   0.931   5.361   0.192
 9627SOL    HW229781   0.781   5.300   0.218
 9628SOL     OW29782   5.898   2.144   6.685
 9628SOL    HW129783   5.937   2.214   6.744
 9628SOL    HW229784   5.922   2.053   6.719
 9629SOL     OW29785   6.567   5.810   3.580
 9629SOL    HW129786   6.524   5.719   3.575
 9629SOL    HW229787   6.575   5.837   3.676
 9630SOL     OW29788   6.031   6.052   6.319
 9630SOL    HW129789   5.940   6.042   6.278
 9630SOL    HW229790   6.033   6.135   6.374
 9631SOL     OW29791   4.474   1.012   0.052
 9631SOL    HW129792   4.538   0.977   0.121
 9631SOL    HW229793   4.443   1.104   0.078
 9632SOL     OW29794   3.636   6.183   2.066
 9632SOL    HW129795   3.679   6.123   2.133
 9632SOL    HW229796   3.630   6.136   1.978
 9633SOL     OW29797   3.302   3.116   2.249
 9633SOL    HW129798   3.367   3.138   2.176
 9633SOL    HW229799   3.323   3.026   2.287
 9634SOL     OW29800   5.411   4.323   2.400
 9634SOL    HW129801   5.342   4.259   2.433
 9634SOL    HW229802   5.397   4.412   2.444
 9635SOL     OW29803   0.414   4.335   4.058
 9635SOL    HW129804   0.327   4.383   4.065
 9635SOL    HW229805   0.421   4.267   4.131
 9636SOL     OW29806   4.766   2.940   4.924
 9636SOL    HW129807   4.705   3.014   4.896
 9636SOL    HW229808   4.832   2.974   4.991
 9637SOL     OW29809   2.426   2.707   0.456
 9637SOL    HW129810   2.391   2.773   0.389
 9637SOL    HW229811   2.359   2.693   0.528
 9638SOL     OW29812   6.596   4.920   5.619
 9638SOL    HW129813   6.629   4.972   5.541
 9638SOL    HW229814   6.643   4.831   5.623
 9639SOL     OW29815   3.755   1.313   2.753
 9639SOL    HW129816   3.679   1.367   2.717
 9639SOL    HW229817   3.840   1.365   2.745
 9640SOL     OW29818   4.414   0.561   3.298
 9640SOL    HW129819   4.403   0.501   3.378
 9640SOL    HW229820   4.472   0.516   3.231
 9641SOL     OW29821   6.005   3.799   2.889
 9641SOL    HW129822   5.945   3.810   2.810
 9641SOL    HW229823   5.950   3.776   2.970
 9642SOL     OW29824   1.460   0.348   3.859
 9642SOL    HW129825   1.383   0.285   3.857
 9642SOL    HW229826   1.539   0.305   3.816
 9643SOL     OW29827   4.916   4.982   3.934
 9643SOL    HW129828   4.891   4.971   3.837
 9643SOL    HW229829   5.011   4.953   3.947
 9644SOL     OW29830   1.370   6.085   5.025
 9644SOL    HW129831   1.367   5.987   5.007
 9644SOL    HW229832   1.279   6.125   5.012
 9645SOL     OW29833   0.414   5.274   7.017
 9645SOL    HW129834   0.363   5.309   0.077
 9645SOL    HW229835   0.398   5.332   6.938
 9646SOL     OW29836   3.771   6.116   6.141
 9646SOL    HW129837   3.804   6.201   6.184
 9646SOL    HW229838   3.681   6.131   6.102
 9647SOL     OW29839   6.152   6.773   3.056
 9647SOL    HW129840   6.206   6.694   3.026
 9647SOL    HW229841   6.195   6.815   3.136
 9648SOL     OW29842   4.089   2.263   1.352
 9648SOL    HW129843   4.010   2.297   1.403
 9648SOL    HW229844   4.151   2.216   1.415
 9649SOL     OW29845   1.462   5.043   6.908
 9649SOL    HW129846   1.381   5.007   6.955
 9649SOL    HW229847   1.520   5.090   6.974
 9650SOL     OW29848   0.001   5.459   4.856
 9650SOL    HW129849   0.025   5.435   4.762
 9650SOL    HW229850   7.000   5.376   4.909
 9651SOL     OW29851   3.988   1.477   0.243
 9651SOL    HW129852   3.893   1.506   0.253
 9651SOL    HW229853   4.036   1.541   0.183
 9652SOL     OW29854   0.312   3.733   0.075
 9652SOL    HW129855   0.250   3.801   0.037
 9652SOL    HW229856   0.265   3.645   0.085
 9653SOL     OW29857   3.723   4.373   6.144
 9653SOL    HW129858   3.712   4.388   6.046
 9653SOL    HW229859   3.818   4.348   6.164
 9654SOL     OW29860   3.802   3.464   3.442
 9654SOL    HW129861   3.790   3.438   3.346
 9654SOL    HW229862   3.775   3.559   3.454
 9655SOL     OW29863   4.129   1.452   1.821
 9655SOL    HW129864   4.104   1.430   1.727
 9655SOL    HW229865   4.221   1.418   1.840
 9656SOL     OW29866   5.930   3.722   0.673
 9656SOL    HW129867   5.850   3.724   0.734
 9656SOL    HW229868   5.972   3.812   0.671
 9657SOL     OW29869   5.607   3.414   3.364
 9657SOL    HW129870   5.541   3.342   3.346
 9657SOL    HW229871   5.688   3.400   3.306
 9658SOL     OW29872   5.480   2.190   2.346
 9658SOL    HW129873   5.516   2.120   2.408
 9658SOL    HW229874   5.381   2.195   2.354
 9659SOL     OW29875   2.707   2.993   0.697
 9659SOL    HW129876   2.612   2.976   0.725
 9659SOL    HW229877   2.708   3.034   0.606
 9660SOL     OW29878   0.427   6.089   1.474
 9660SOL    HW129879   0.446   6.109   1.378
 9660SOL    HW229880   0.506   6.042   1.514
 9661SOL     OW29881   5.541   4.887   0.795
 9661SOL    HW129882   5.574   4.793   0.785
 9661SOL    HW229883   5.442   4.889   0.778
 9662SOL     OW29884   5.382   4.865   6.210
 9662SOL    HW129885   5.327   4.933   6.258
 9662SOL    HW229886   5.446   4.912   6.149
 9663SOL     OW29887   0.651   5.245   3.313
 9663SOL    HW129888   0.685   5.336   3.291
 9663SOL    HW229889   0.729   5.185   3.334
 9664SOL     OW29890   5.096   3.827   2.917
 9664SOL    HW129891   5.142   3.882   2.987
 9664SOL    HW229892   5.087   3.733   2.948
 9665SOL     OW29893   5.602   5.733   6.278
 9665SOL    HW129894   5.624   5.666   6.349
 9665SOL    HW229895   5.682   5.790   6.261
 9666SOL     OW29896   5.556   3.498   0.251
 9666SOL    HW129897   5.457   3.506   0.260
 9666SOL    HW229898   5.578   3.440   0.172
 9667SOL     OW29899   5.864   5.846   6.711
 9667SOL    HW129900   5.943   5.855   6.650
 9667SOL    HW229901   5.896   5.817   6.801
 9668SOL     OW29902   0.179   6.916   5.690
 9668SOL    HW129903   0.203   6.975   5.767
 9668SOL    HW229904   0.135   6.833   5.724
 9669SOL     OW29905   4.093   0.254   0.301
 9669SOL    HW129906   4.071   0.176   0.359
 9669SOL    HW229907   4.011   0.284   0.252
 9670SOL     OW29908   0.325   0.046   6.511
 9670SOL    HW129909   0.370   7.012   6.439
 9670SOL    HW229910   0.380   0.042   6.595
 9671SOL     OW29911   1.453   5.384   6.312
 9671SOL    HW129912   1.393   5.376   6.391
 9671SOL    HW229913   1.402   5.423   6.235
 9672SOL     OW29914   0.505   3.220   4.630
 9672SOL    HW129915   0.518   3.318   4.615
 9672SOL    HW229916   0.505   3.172   4.542
 9673SOL     OW29917   2.414   3.991   1.220
 9673SOL    HW129918   2.456   3.929   1.287
 9673SOL    HW229919   2.353   4.054   1.267
 9674SOL     OW29920   2.730   6.481   3.952
 9674SOL    HW129921   2.656   6.418   3.975
 9674SOL    HW229922   2.818   6.439   3.973
 9675SOL     OW29923   4.786   3.821   1.440
 9675SOL    HW129924   4.760   3.895   1.378
 9675SOL    HW229925   4.853   3.762   1.396
 9676SOL     OW29926   0.961   2.912   6.217
 9676SOL    HW129927   0.864   2.932   6.231
 9676SOL    HW229928   1.010   2.920   6.304
 9677SOL     OW29929   6.830   5.589   0.730
 9677SOL    HW129930   6.812   5.491   0.737
 9677SOL    HW229931   6.753   5.634   0.685
 9678SOL     OW29932   3.652   3.371   4.951
 9678SOL    HW129933   3.684   3.462   4.976
 9678SOL    HW229934   3.725   3.304   4.966
 9679SOL     OW29935   2.152   1.615   4.919
 9679SOL    HW129936   2.176   1.571   4.833
 9679SOL    HW229937   2.181   1.558   4.995
 9680SOL     OW29938   4.444   5.582   2.817
 9680SOL    HW129939   4.434   5.484   2.807
 9680SOL    HW229940   4.450   5.606   2.914
 9681SOL     OW29941   1.661   1.809   2.611
 9681SOL    HW129942   1.695   1.725   2.568
 9681SOL    HW229943   1.645   1.877   2.540
 9682SOL     OW29944   4.997   5.395   5.014
 9682SOL    HW129945   5.031   5.451   4.939
 9682SOL    HW229946   4.897   5.404   5.019
 9683SOL     OW29947   2.439   6.163   1.714
 9683SOL    HW129948   2.508   6.138   1.646
 9683SOL    HW229949   2.385   6.081   1.737
 9684SOL     OW29950   1.202   4.241   5.592
 9684SOL    HW129951   1.195   4.141   5.588
 9684SOL    HW229952   1.261   4.267   5.668
 9685SOL     OW29953   3.900   5.004   1.660
 9685SOL    HW129954   3.861   5.081   1.609
 9685SOL    HW229955   3.967   4.957   1.604
 9686SOL     OW29956   0.179   1.824   5.896
 9686SOL    HW129957   0.212   1.732   5.917
 9686SOL    HW229958   0.079   1.824   5.896
 9687SOL     OW29959   5.545   0.727   2.043
 9687SOL    HW129960   5.509   0.796   2.106
 9687SOL    HW229961   5.504   0.740   1.953
 9688SOL     OW29962   0.522   4.325   1.180
 9688SOL    HW129963   0.490   4.391   1.248
 9688SOL    HW229964   0.570   4.251   1.227
 9689SOL     OW29965   1.083   6.871   0.896
 9689SOL    HW129966   1.110   6.954   0.946
 9689SOL    HW229967   1.047   6.804   0.961
 9690SOL     OW29968   5.933   5.249   5.148
 9690SOL    HW129969   5.875   5.182   5.101
 9690SOL    HW229970   5.923   5.237   5.247
 9691SOL     OW29971   3.121   3.843   1.671
 9691SOL    HW129972   3.126   3.744   1.654
 9691SOL    HW229973   3.105   3.859   1.769
 9692SOL     OW29974   5.256   4.887   0.757
 9692SOL    HW129975   5.216   4.842   0.837
 9692SOL    HW229976   5.191   4.885   0.682
 9693SOL     OW29977   5.239   3.627   4.134
 9693SOL    HW129978   5.153   3.577   4.139
 9693SOL    HW229979   5.225   3.713   4.086
 9694SOL     OW29980   3.391   6.694   2.470
 9694SOL    HW129981   3.378   6.685   2.371
 9694SOL    HW229982   3.449   6.772   2.490
 9695SOL     OW29983   0.962   2.664   3.842
 9695SOL    HW129984   0.864   2.664   3.860
 9695SOL    HW229985   0.983   2.594   3.774
 9696SOL     OW29986   5.560   1.700   2.491
 9696SOL    HW129987   5.474   1.749   2.476
 9696SOL    HW229988   5.557   1.612   2.444
 9697SOL     OW29989   0.476   6.145   0.178
 9697SOL    HW129990   0.568   6.163   0.212
 9697SOL    HW229991   0.414   6.215   0.211
 9698SOL     OW29992   5.893   3.725   7.011
 9698SOL    HW129993   5.825   3.727   0.066
 9698SOL    HW229994   5.984   3.711   0.033
 9699SOL     OW29995   1.029   5.174   1.000
 9699SOL    HW129996   1.024   5.248   1.067
 9699SOL    HW229997   0.955   5.185   0.933
 9700SOL     OW29998   5.910   6.813   4.874
 9700SOL    HW129999   5.844   6.886   4.887
 9700SOL    HW230000   5.992   6.849   4.829
 9701SOL     OW30001   4.617   3.206   6.445
 9701SOL    HW130002   4.539   3.211   6.382
 9701SOL    HW230003   4.584   3.192   6.538
 9702SOL     OW30004   3.871   3.100   1.400
 9702SOL    HW130005   3.903   3.005   1.405
 9702SOL    HW230006   3.838   3.128   1.490
 9703SOL     OW30007   6.399   4.003   4.966
 9703SOL    HW130008   6.458   3.990   5.046
 9703SOL    HW230009   6.418   4.093   4.926
 9704SOL     OW30010   2.267   4.076   3.167
 9704SOL    HW130011   2.232   4.038   3.082
 9704SOL    HW230012   2.236   4.019   3.244
 9705SOL     OW30013   6.144   3.580   5.647
 9705SOL    HW130014   6.121   3.600   5.552
 9705SOL    HW230015   6.123   3.660   5.704
 9706SOL     OW30016   1.407   1.847   2.319
 9706SOL    HW130017   1.497   1.884   2.341
 9706SOL    HW230018   1.336   1.901   2.365
 9707SOL     OW30019   6.603   5.210   2.740
 9707SOL    HW130020   6.675   5.244   2.801
 9707SOL    HW230021   6.626   5.232   2.645
 9708SOL     OW30022   2.106   0.623   2.076
 9708SOL    HW130023   2.150   0.647   1.989
 9708SOL    HW230024   2.164   0.651   2.152
 9709SOL     OW30025   5.672   1.968   2.497
 9709SOL    HW130026   5.643   1.876   2.468
 9709SOL    HW230027   5.751   1.997   2.444
 9710SOL     OW30028   6.004   5.652   4.294
 9710SOL    HW130029   6.002   5.574   4.232
 9710SOL    HW230030   6.074   5.717   4.264
 9711SOL     OW30031   3.942   0.091   6.865
 9711SOL    HW130032   3.983   0.066   6.953
 9711SOL    HW230033   3.990   0.045   6.791
 9712SOL     OW30034   5.724   2.256   0.062
 9712SOL    HW130035   5.745   2.207   0.146
 9712SOL    HW230036   5.701   2.351   0.084
 9713SOL     OW30037   1.249   6.337   4.021
 9713SOL    HW130038   1.321   6.402   3.995
 9713SOL    HW230039   1.187   6.324   3.944
 9714SOL     OW30040   2.848   4.785   4.820
 9714SOL    HW130041   2.756   4.821   4.805
 9714SOL    HW230042   2.851   4.737   4.908
 9715SOL     OW30043   6.494   3.944   0.400
 9715SOL    HW130044   6.543   3.872   0.449
 9715SOL    HW230045   6.507   4.031   0.447
 9716SOL     OW30046   3.049   5.005   0.009
 9716SOL    HW130047   3.020   4.993   6.932
 9716SOL    HW230048   2.980   4.966   0.070
 9717SOL     OW30049   4.537   0.971   5.392
 9717SOL    HW130050   4.522   1.039   5.320
 9717SOL    HW230051   4.534   1.016   5.481
 9718SOL     OW30052   2.695   1.834   0.369
 9718SOL    HW130053   2.781   1.870   0.404
 9718SOL    HW230054   2.622   1.902   0.380
 9719SOL     OW30055   4.801   6.381   5.062
 9719SOL    HW130056   4.708   6.407   5.091
 9719SOL    HW230057   4.797   6.343   4.969
 9720SOL     OW30058   1.964   3.766   3.005
 9720SOL    HW130059   1.883   3.707   3.003
 9720SOL    HW230060   2.023   3.744   2.927
 9721SOL     OW30061   0.529   2.145   0.812
 9721SOL    HW130062   0.468   2.196   0.872
 9721SOL    HW230063   0.534   2.191   0.723
 9722SOL     OW30064   3.860   3.193   5.043
 9722SOL    HW130065   3.862   3.154   4.951
 9722SOL    HW230066   3.911   3.134   5.106
 9723SOL     OW30067   6.325   5.754   4.061
 9723SOL    HW130068   6.234   5.784   4.089
 9723SOL    HW230069   6.330   5.749   3.961
 9724SOL     OW30070   0.571   5.439   0.358
 9724SOL    HW130071   0.508   5.503   0.313
 9724SOL    HW230072   0.633   5.400   0.290
 9725SOL     OW30073   3.470   5.363   5.672
 9725SOL    HW130074   3.505   5.279   5.632
 9725SOL    HW230075   3.419   5.342   5.756
 9726SOL     OW30076   5.930   1.192   4.368
 9726SOL    HW130077   5.882   1.106   4.388
 9726SOL    HW230078   5.900   1.262   4.433
 9727SOL     OW30079   1.166   1.342   6.732
 9727SOL    HW130080   1.071   1.316   6.749
 9727SOL    HW230081   1.224   1.305   6.804
 9728SOL     OW30082   5.254   0.192   6.147
 9728SOL    HW130083   5.289   0.217   6.237
 9728SOL    HW230084   5.330   0.184   6.082
 9729SOL     OW30085   0.388   5.050   3.287
 9729SOL    HW130086   0.480   5.075   3.315
 9729SOL    HW230087   0.386   4.952   3.264
 9730SOL     OW30088   0.196   4.335   3.384
 9730SOL    HW130089   0.221   4.246   3.346
 9730SOL    HW230090   0.107   4.364   3.349
 9731SOL     OW30091   5.293   3.777   2.566
 9731SOL    HW130092   5.251   3.692   2.534
 9731SOL    HW230093   5.222   3.836   2.605
 9732SOL     OW30094   1.246   3.408   2.303
 9732SOL    HW130095   1.154   3.419   2.340
 9732SOL    HW230096   1.241   3.389   2.205
 9733SOL     OW30097   6.323   5.312   2.661
 9733SOL    HW130098   6.234   5.273   2.683
 9733SOL    HW230099   6.317   5.365   2.576
 9734SOL     OW30100   6.072   6.568   5.748
 9734SOL    HW130101   6.043   6.650   5.797
 9734SOL    HW230102   5.993   6.512   5.725
 9735SOL     OW30103   1.195   2.303   2.290
 9735SOL    HW130104   1.271   2.319   2.354
 9735SOL    HW230105   1.199   2.371   2.217
 9736SOL     OW30106   4.665   2.464   5.146
 9736SOL    HW130107   4.669   2.482   5.245
 9736SOL    HW230108   4.618   2.539   5.100
 9737SOL     OW30109   6.130   1.983   2.659
 9737SOL    HW130110   6.037   2.018   2.650
 9737SOL    HW230111   6.141   1.900   2.604
 9738SOL     OW30112   1.514   6.066   2.331
 9738SOL    HW130113   1.474   5.986   2.376
 9738SOL    HW230114   1.451   6.142   2.337
 9739SOL     OW30115   6.034   6.864   0.165
 9739SOL    HW130116   6.037   6.822   0.256
 9739SOL    HW230117   6.025   6.963   0.174
 9740SOL     OW30118   6.733   1.098   2.455
 9740SOL    HW130119   6.666   1.150   2.401
 9740SOL    HW230120   6.814   1.155   2.470
 9741SOL     OW30121   3.135   1.376   4.566
 9741SOL    HW130122   3.187   1.302   4.610
 9741SOL    HW230123   3.089   1.341   4.485
 9742SOL     OW30124   3.978   2.534   5.927
 9742SOL    HW130125   4.029   2.596   5.987
 9742SOL    HW230126   4.041   2.492   5.861
 9743SOL     OW30127   6.142   3.122   3.496
 9743SOL    HW130128   6.168   3.145   3.403
 9743SOL    HW230129   6.138   3.205   3.551
 9744SOL     OW30130   2.024   0.024   3.644
 9744SOL    HW130131   2.016   0.122   3.665
 9744SOL    HW230132   1.981   6.989   3.717
 9745SOL     OW30133   6.504   0.621   5.689
 9745SOL    HW130134   6.461   0.596   5.775
 9745SOL    HW230135   6.585   0.564   5.673
 9746SOL     OW30136   4.335   5.358   6.070
 9746SOL    HW130137   4.282   5.280   6.035
 9746SOL    HW230138   4.392   5.328   6.146
 9747SOL     OW30139   2.549   2.526   2.450
 9747SOL    HW130140   2.594   2.460   2.510
 9747SOL    HW230141   2.523   2.607   2.504
 9748SOL     OW30142   1.213   0.959   3.391
 9748SOL    HW130143   1.242   0.867   3.365
 9748SOL    HW230144   1.145   0.953   3.464
 9749SOL     OW30145   6.739   1.957   2.056
 9749SOL    HW130146   6.746   2.021   1.979
 9749SOL    HW230147   6.821   1.899   2.058
 9750SOL     OW30148   6.543   4.565   3.910
 9750SOL    HW130149   6.484   4.638   3.876
 9750SOL    HW230150   6.606   4.536   3.838
 9751SOL     OW30151   2.670   0.987   1.845
 9751SOL    HW130152   2.707   0.943   1.764
 9751SOL    HW230153   2.630   1.075   1.820
 9752SOL     OW30154   3.662   3.075   0.377
 9752SOL    HW130155   3.718   3.038   0.302
 9752SOL    HW230156   3.707   3.055   0.464
 9753SOL     OW30157   6.144   5.873   5.018
 9753SOL    HW130158   6.114   5.870   4.923
 9753SOL    HW230159   6.239   5.904   5.023
 9754SOL     OW30160   3.945   0.520   1.477
 9754SOL    HW130161   3.879   0.579   1.431
 9754SOL    HW230162   3.901   0.436   1.507
 9755SOL     OW30163   3.113   4.414   6.630
 9755SOL    HW130164   3.152   4.496   6.672
 9755SOL    HW230165   3.047   4.372   6.693
 9756SOL     OW30166   6.037   0.653   6.327
 9756SOL    HW130167   5.950   0.637   6.373
 9756SOL    HW230168   6.058   0.751   6.330
 9757SOL     OW30169   4.993   3.711   3.671
 9757SOL    HW130170   5.092   3.700   3.671
 9757SOL    HW230171   4.950   3.622   3.689
 9758SOL     OW30172   1.886   0.593   0.893
 9758SOL    HW130173   1.961   0.529   0.879
 9758SOL    HW230174   1.858   0.630   0.804
 9759SOL     OW30175   1.175   1.643   0.276
 9759SOL    HW130176   1.229   1.580   0.219
 9759SOL    HW230177   1.217   1.651   0.366
 9760SOL     OW30178   4.491   2.106   0.499
 9760SOL    HW130179   4.587   2.130   0.514
 9760SOL    HW230180   4.434   2.188   0.505
 9761SOL     OW30181   1.690   1.599   1.931
 9761SOL    HW130182   1.626   1.579   2.005
 9761SOL    HW230183   1.745   1.518   1.911
 9762SOL     OW30184   2.522   1.941   5.963
 9762SOL    HW130185   2.422   1.940   5.970
 9762SOL    HW230186   2.553   2.035   5.943
 9763SOL     OW30187   6.235   1.723   1.152
 9763SOL    HW130188   6.293   1.656   1.197
 9763SOL    HW230189   6.254   1.814   1.189
 9764SOL     OW30190   5.786   1.421   2.211
 9764SOL    HW130191   5.723   1.363   2.261
 9764SOL    HW230192   5.846   1.364   2.154
 9765SOL     OW30193   6.805   1.431   1.568
 9765SOL    HW130194   6.711   1.462   1.585
 9765SOL    HW230195   6.826   1.354   1.628
 9766SOL     OW30196   2.006   1.064   4.553
 9766SOL    HW130197   1.944   1.004   4.604
 9766SOL    HW230198   2.088   1.014   4.529
 9767SOL     OW30199   2.250   3.287   5.735
 9767SOL    HW130200   2.159   3.271   5.696
 9767SOL    HW230201   2.250   3.262   5.832
 9768SOL     OW30202   6.129   2.715   0.843
 9768SOL    HW130203   6.179   2.742   0.925
 9768SOL    HW230204   6.065   2.642   0.866
 9769SOL     OW30205   2.919   1.740   4.946
 9769SOL    HW130206   2.882   1.831   4.967
 9769SOL    HW230207   2.895   1.676   5.019
 9770SOL     OW30208   3.349   2.496   6.610
 9770SOL    HW130209   3.443   2.462   6.612
 9770SOL    HW230210   3.323   2.518   6.516
 9771SOL     OW30211   2.657   6.243   2.982
 9771SOL    HW130212   2.696   6.201   2.900
 9771SOL    HW230213   2.563   6.272   2.964
 9772SOL     OW30214   0.874   6.302   1.655
 9772SOL    HW130215   0.808   6.279   1.727
 9772SOL    HW230216   0.879   6.226   1.589
 9773SOL     OW30217   4.692   5.508   1.876
 9773SOL    HW130218   4.725   5.432   1.933
 9773SOL    HW230219   4.592   5.507   1.876
 9774SOL     OW30220   0.786   5.810   4.461
 9774SOL    HW130221   0.782   5.785   4.557
 9774SOL    HW230222   0.694   5.828   4.427
 9775SOL     OW30223   2.231   0.898   4.096
 9775SOL    HW130224   2.197   0.807   4.073
 9775SOL    HW230225   2.263   0.943   4.013
 9776SOL     OW30226   1.673   5.565   6.535
 9776SOL    HW130227   1.725   5.651   6.538
 9776SOL    HW230228   1.700   5.514   6.453
 9777SOL     OW30229   5.080   7.004   6.127
 9777SOL    HW130230   5.124   0.076   6.135
 9777SOL    HW230231   5.129   6.950   6.058
 9778SOL     OW30232   0.655   2.289   4.256
 9778SOL    HW130233   0.579   2.277   4.193
 9778SOL    HW230234   0.665   2.206   4.312
 9779SOL     OW30235   0.998   1.818   3.664
 9779SOL    HW130236   0.920   1.860   3.711
 9779SOL    HW230237   0.967   1.735   3.616
 9780SOL     OW30238   1.970   2.103   1.209
 9780SOL    HW130239   1.878   2.073   1.235
 9780SOL    HW230240   2.037   2.044   1.253
 9781SOL     OW30241   1.591   3.253   3.841
 9781SOL    HW130242   1.671   3.218   3.890
 9781SOL    HW230243   1.517   3.270   3.906
 9782SOL     OW30244   6.901   2.623   1.181
 9782SOL    HW130245   6.991   2.656   1.155
 9782SOL    HW230246   6.843   2.618   1.099
 9783SOL     OW30247   3.552   1.580   3.161
 9783SOL    HW130248   3.554   1.506   3.228
 9783SOL    HW230249   3.640   1.585   3.114
 9784SOL     OW30250   2.094   1.404   0.631
 9784SOL    HW130251   2.149   1.330   0.669
 9784SOL    HW230252   2.004   1.369   0.606
 9785SOL     OW30253   6.901   2.050   4.464
 9785SOL    HW130254   6.993   2.013   4.449
 9785SOL    HW230255   6.859   2.073   4.376
 9786SOL     OW30256   2.126   4.544   1.216
 9786SOL    HW130257   2.066   4.624   1.212
 9786SOL    HW230258   2.143   4.511   1.124
 9787SOL     OW30259   3.887   3.093   2.846
 9787SOL    HW130260   3.863   3.013   2.900
 9787SOL    HW230261   3.862   3.077   2.750
 9788SOL     OW30262   0.101   6.666   1.777
 9788SOL    HW130263   0.101   6.598   1.850
 9788SOL    HW230264   0.007   6.683   1.747
 9789SOL     OW30265   3.429   0.257   6.693
 9789SOL    HW130266   3.403   0.178   6.749
 9789SOL    HW230267   3.347   0.305   6.663
 9790SOL     OW30268   6.754   4.207   4.484
 9790SOL    HW130269   6.680   4.260   4.444
 9790SOL    HW230270   6.837   4.263   4.489
 9791SOL     OW30271   1.237   6.396   1.005
 9791SOL    HW130272   1.147   6.364   1.034
 9791SOL    HW230273   1.281   6.447   1.079
 9792SOL     OW30274   4.176   5.746   0.986
 9792SOL    HW130275   4.145   5.740   0.892
 9792SOL    HW230276   4.100   5.772   1.045
 9793SOL     OW30277   4.859   1.867   2.418
 9793SOL    HW130278   4.865   1.930   2.495
 9793SOL    HW230279   4.766   1.868   2.381
 9794SOL     OW30280   4.784   4.423   4.743
 9794SOL    HW130281   4.688   4.448   4.728
 9794SOL    HW230282   4.789   4.334   4.788
 9795SOL     OW30283   0.980   3.758   3.633
 9795SOL    HW130284   1.060   3.754   3.692
 9795SOL    HW230285   0.996   3.701   3.552
 9796SOL     OW30286   3.311   3.848   3.525
 9796SOL    HW130287   3.342   3.756   3.499
 9796SOL    HW230288   3.375   3.888   3.589
 9797SOL     OW30289   2.837   6.731   6.353
 9797SOL    HW130290   2.870   6.803   6.291
 9797SOL    HW230291   2.856   6.757   6.448
 9798SOL     OW30292   1.353   3.151   0.817
 9798SOL    HW130293   1.422   3.164   0.746
 9798SOL    HW230294   1.340   3.053   0.832
 9799SOL     OW30295   2.819   6.471   5.987
 9799SOL    HW130296   2.873   6.402   6.035
 9799SOL    HW230297   2.741   6.497   6.043
 9800SOL     OW30298   5.781   3.181   4.462
 9800SOL    HW130299   5.732   3.155   4.379
 9800SOL    HW230300   5.878   3.191   4.442
 9801SOL     OW30301   5.984   5.175   6.090
 9801SOL    HW130302   5.939   5.089   6.113
 9801SOL    HW230303   6.041   5.204   6.168
 9802SOL     OW30304   4.561   4.989   1.431
 9802SOL    HW130305   4.496   4.913   1.443
 9802SOL    HW230306   4.649   4.953   1.399
 9803SOL     OW30307   0.831   3.994   6.492
 9803SOL    HW130308   0.737   4.003   6.461
 9803SOL    HW230309   0.839   4.028   6.586
 9804SOL     OW30310   6.419   5.761   2.666
 9804SOL    HW130311   6.450   5.667   2.681
 9804SOL    HW230312   6.380   5.797   2.751
 9805SOL     OW30313   0.315   6.915   3.928
 9805SOL    HW130314   0.281   6.988   3.869
 9805SOL    HW230315   0.414   6.916   3.929
 9806SOL     OW30316   3.089   2.637   6.138
 9806SOL    HW130317   2.999   2.613   6.101
 9806SOL    HW230318   3.132   2.706   6.079
 9807SOL     OW30319   2.903   3.694   1.942
 9807SOL    HW130320   2.964   3.616   1.926
 9807SOL    HW230321   2.826   3.688   1.879
 9808SOL     OW30322   4.123   6.607   3.554
 9808SOL    HW130323   4.137   6.599   3.653
 9808SOL    HW230324   4.037   6.562   3.530
 9809SOL     OW30325   0.060   2.564   0.825
 9809SOL    HW130326   0.054   2.651   0.775
 9809SOL    HW230327   6.997   2.509   0.806
 9810SOL     OW30328   1.870   1.651   6.370
 9810SOL    HW130329   1.917   1.637   6.283
 9810SOL    HW230330   1.880   1.746   6.399
 9811SOL     OW30331   6.202   3.701   4.021
 9811SOL    HW130332   6.204   3.782   3.963
 9811SOL    HW230333   6.293   3.659   4.024
 9812SOL     OW30334   2.558   6.895   4.516
 9812SOL    HW130335   2.573   6.805   4.557
 9812SOL    HW230336   2.478   6.937   4.558
 9813SOL     OW30337   5.142   2.291   0.820
 9813SOL    HW130338   5.063   2.235   0.847
 9813SOL    HW230339   5.110   2.370   0.768
 9814SOL     OW30340   5.818   1.673   0.286
 9814SOL    HW130341   5.850   1.581   0.308
 9814SOL    HW230342   5.789   1.719   0.370
 9815SOL     OW30343   4.525   2.558   4.532
 9815SOL    HW130344   4.538   2.621   4.609
 9815SOL    HW230345   4.435   2.516   4.539
 9816SOL     OW30346   1.337   0.527   0.781
 9816SOL    HW130347   1.418   0.579   0.751
 9816SOL    HW230348   1.355   0.429   0.771
 9817SOL     OW30349   0.309   0.275   3.554
 9817SOL    HW130350   0.368   0.355   3.539
 9817SOL    HW230351   0.259   0.255   3.470
 9818SOL     OW30352   6.189   2.330   4.690
 9818SOL    HW130353   6.270   2.300   4.739
 9818SOL    HW230354   6.117   2.354   4.755
 9819SOL     OW30355   3.699   1.875   3.459
 9819SOL    HW130356   3.630   1.878   3.387
 9819SOL    HW230357   3.731   1.968   3.479
 9820SOL     OW30358   3.642   4.568   5.741
 9820SOL    HW130359   3.609   4.647   5.793
 9820SOL    HW230360   3.596   4.485   5.774
 9821SOL     OW30361   5.209   5.747   6.877
 9821SOL    HW130362   5.272   5.768   6.802
 9821SOL    HW230363   5.123   5.712   6.839
 9822SOL     OW30364   0.505   0.083   2.731
 9822SOL    HW130365   0.556   0.166   2.706
 9822SOL    HW230366   0.509   0.070   2.830
 9823SOL     OW30367   3.404   0.773   2.715
 9823SOL    HW130368   3.460   0.856   2.716
 9823SOL    HW230369   3.462   0.693   2.726
 9824SOL     OW30370   1.075   4.475   5.617
 9824SOL    HW130371   1.122   4.387   5.624
 9824SOL    HW230372   0.991   4.473   5.671
 9825SOL     OW30373   3.682   5.045   5.764
 9825SOL    HW130374   3.610   4.992   5.719
 9825SOL    HW230375   3.736   5.093   5.694
 9826SOL     OW30376   4.464   6.197   6.133
 9826SOL    HW130377   4.532   6.128   6.159
 9826SOL    HW230378   4.412   6.225   6.214
 9827SOL     OW30379   2.043   4.177   4.849
 9827SOL    HW130380   2.069   4.084   4.824
 9827SOL    HW230381   1.964   4.205   4.793
 9828SOL     OW30382   3.991   2.586   6.742
 9828SOL    HW130383   4.025   2.619   6.830
 9828SOL    HW230384   3.974   2.488   6.747
 9829SOL     OW30385   2.907   6.294   0.390
 9829SOL    HW130386   2.834   6.324   0.329
 9829SOL    HW230387   2.885   6.203   0.426
 9830SOL     OW30388   5.504   1.640   0.826
 9830SOL    HW130389   5.517   1.595   0.737
 9830SOL    HW230390   5.591   1.643   0.874
 9831SOL     OW30391   1.163   6.373   1.483
 9831SOL    HW130392   1.121   6.461   1.503
 9831SOL    HW230393   1.259   6.386   1.460
 9832SOL     OW30394   4.501   5.484   2.192
 9832SOL    HW130395   4.516   5.583   2.192
 9832SOL    HW230396   4.406   5.464   2.214
 9833SOL     OW30397   3.388   3.911   4.834
 9833SOL    HW130398   3.420   3.891   4.927
 9833SOL    HW230399   3.331   3.836   4.801
 9834SOL     OW30400   2.498   3.821   5.925
 9834SOL    HW130401   2.516   3.903   5.871
 9834SOL    HW230402   2.454   3.752   5.868
 9835SOL     OW30403   4.995   1.447   4.178
 9835SOL    HW130404   5.049   1.489   4.105
 9835SOL    HW230405   5.052   1.434   4.259
 9836SOL     OW30406   5.650   3.673   3.261
 9836SOL    HW130407   5.576   3.700   3.322
 9836SOL    HW230408   5.652   3.573   3.254
 9837SOL     OW30409   2.365   0.273   4.185
 9837SOL    HW130410   2.341   0.219   4.104
 9837SOL    HW230411   2.429   0.221   4.241
 9838SOL     OW30412   1.195   6.528   6.073
 9838SOL    HW130413   1.099   6.555   6.072
 9838SOL    HW230414   1.201   6.429   6.057
 9839SOL     OW30415   0.053   1.956   1.802
 9839SOL    HW130416   0.144   1.915   1.797
 9839SOL    HW230417   7.006   1.898   1.752
 9840SOL     OW30418   0.360   0.901   0.645
 9840SOL    HW130419   0.272   0.937   0.677
 9840SOL    HW230420   0.434   0.948   0.693
 9841SOL     OW30421   1.185   3.978   4.836
 9841SOL    HW130422   1.107   3.940   4.886
 9841SOL    HW230423   1.173   4.077   4.827
 9842SOL     OW30424   3.439   3.225   3.599
 9842SOL    HW130425   3.526   3.274   3.595
 9842SOL    HW230426   3.370   3.276   3.548
 9843SOL     OW30427   6.254   1.990   1.188
 9843SOL    HW130428   6.284   2.043   1.109
 9843SOL    HW230429   6.205   2.050   1.252
 9844SOL     OW30430   4.197   6.785   2.862
 9844SOL    HW130431   4.100   6.802   2.844
 9844SOL    HW230432   4.209   6.765   2.960
 9845SOL     OW30433   2.655   1.773   4.841
 9845SOL    HW130434   2.610   1.710   4.904
 9845SOL    HW230435   2.753   1.752   4.837
 9846SOL     OW30436   3.049   3.982   3.174
 9846SOL    HW130437   2.994   3.903   3.204
 9846SOL    HW230438   3.084   4.029   3.255
 9847SOL     OW30439   3.095   3.267   6.261
 9847SOL    HW130440   3.028   3.259   6.334
 9847SOL    HW230441   3.165   3.334   6.287
 9848SOL     OW30442   4.310   2.647   6.243
 9848SOL    HW130443   4.366   2.644   6.159
 9848SOL    HW230444   4.352   2.708   6.309
 9849SOL     OW30445   6.375   0.566   6.592
 9849SOL    HW130446   6.432   0.529   6.518
 9849SOL    HW230447   6.411   0.655   6.621
 9850SOL     OW30448   4.004   6.428   2.718
 9850SOL    HW130449   3.996   6.346   2.773
 9850SOL    HW230450   3.979   6.407   2.623
 9851SOL     OW30451   4.287   1.811   5.107
 9851SOL    HW130452   4.295   1.773   5.199
 9851SOL    HW230453   4.209   1.769   5.060
 9852SOL     OW30454   4.414   1.611   3.270
 9852SOL    HW130455   4.508   1.641   3.288
 9852SOL    HW230456   4.352   1.688   3.279
 9853SOL     OW30457   5.273   3.865   2.293
 9853SOL    HW130458   5.251   3.849   2.389
 9853SOL    HW230459   5.222   3.944   2.259
 9854SOL     OW30460   6.032   4.863   4.899
 9854SOL    HW130461   6.050   4.843   4.802
 9854SOL    HW230462   5.933   4.877   4.912
 9855SOL     OW30463   0.566   4.548   1.386
 9855SOL    HW130464   0.570   4.581   1.480
 9855SOL    HW230465   0.657   4.550   1.345
 9856SOL     OW30466   3.950   4.025   0.702
 9856SOL    HW130467   3.859   4.014   0.661
 9856SOL    HW230468   3.995   4.105   0.663
 9857SOL     OW30469   5.261   1.731   3.044
 9857SOL    HW130470   5.217   1.648   3.079
 9857SOL    HW230471   5.192   1.791   3.004
 9858SOL     OW30472   5.024   0.655   1.951
 9858SOL    HW130473   4.981   0.700   2.029
 9858SOL    HW230474   5.042   0.722   1.879
 9859SOL     OW30475   6.512   0.027   1.631
 9859SOL    HW130476   6.571   7.001   1.564
 9859SOL    HW230477   6.416   0.006   1.612
 9860SOL     OW30478   0.308   1.165   1.647
 9860SOL    HW130479   0.233   1.165   1.581
 9860SOL    HW230480   0.340   1.259   1.660
 9861SOL     OW30481   3.576   6.645   4.699
 9861SOL    HW130482   3.595   6.742   4.683
 9861SOL    HW230483   3.557   6.600   4.612
 9862SOL     OW30484   2.404   3.229   0.626
 9862SOL    HW130485   2.441   3.148   0.671
 9862SOL    HW230486   2.451   3.244   0.539
 9863SOL     OW30487   2.945   6.983   2.878
 9863SOL    HW130488   2.938   0.001   2.785
 9863SOL    HW230489   2.955   0.040   2.943
 9864SOL     OW30490   4.258   6.206   3.653
 9864SOL    HW130491   4.221   6.154   3.576
 9864SOL    HW230492   4.201   6.191   3.734
 9865SOL     OW30493   0.607   0.450   3.435
 9865SOL    HW130494   0.705   0.456   3.413
 9865SOL    HW230495   0.562   0.390   3.369
 9866SOL     OW30496   5.013   4.407   4.535
 9866SOL    HW130497   4.931   4.440   4.582
 9866SOL    HW230498   5.011   4.307   4.529
 9867SOL     OW30499   4.016   0.889   0.463
 9867SOL    HW130500   3.966   0.803   0.451
 9867SOL    HW230501   4.114   0.871   0.468
 9868SOL     OW30502   0.933   4.901   6.607
 9868SOL    HW130503   0.864   4.962   6.646
 9868SOL    HW230504   0.985   4.858   6.682
 9869SOL     OW30505   1.942   3.992   3.523
 9869SOL    HW130506   1.904   3.909   3.563
 9869SOL    HW230507   1.929   4.068   3.585
 9870SOL     OW30508   4.777   5.851   2.330
 9870SOL    HW130509   4.854   5.794   2.303
 9870SOL    HW230510   4.800   5.947   2.316
 9871SOL     OW30511   1.281   0.300   6.127
 9871SOL    HW130512   1.364   0.264   6.168
 9871SOL    HW230513   1.249   0.379   6.179
 9872SOL     OW30514   2.561   5.172   2.886
 9872SOL    HW130515   2.524   5.079   2.878
 9872SOL    HW230516   2.498   5.236   2.842
 9873SOL     OW30517   2.283   2.578   0.655
 9873SOL    HW130518   2.284   2.597   0.753
 9873SOL    HW230519   2.188   2.568   0.624
 9874SOL     OW30520   0.892   1.622   4.137
 9874SOL    HW130521   0.912   1.657   4.229
 9874SOL    HW230522   0.793   1.622   4.123
 9875SOL     OW30523   0.844   0.669   2.095
 9875SOL    HW130524   0.766   0.732   2.101
 9875SOL    HW230525   0.913   0.696   2.162
 9876SOL     OW30526   6.856   0.853   2.421
 9876SOL    HW130527   6.907   0.844   2.336
 9876SOL    HW230528   6.801   0.937   2.418
 9877SOL     OW30529   1.976   6.147   2.603
 9877SOL    HW130530   2.027   6.062   2.615
 9877SOL    HW230531   1.984   6.178   2.508
 9878SOL     OW30532   2.007   5.614   5.848
 9878SOL    HW130533   2.103   5.621   5.823
 9878SOL    HW230534   1.957   5.569   5.775
 9879SOL     OW30535   5.649   5.021   4.357
 9879SOL    HW130536   5.575   5.055   4.415
 9879SOL    HW230537   5.733   5.071   4.378
 9880SOL     OW30538   1.737   3.114   5.274
 9880SOL    HW130539   1.743   3.206   5.236
 9880SOL    HW230540   1.800   3.054   5.226
 9881SOL     OW30541   1.648   2.710   4.900
 9881SOL    HW130542   1.722   2.722   4.966
 9881SOL    HW230543   1.591   2.633   4.927
 9882SOL     OW30544   1.408   2.121   3.466
 9882SOL    HW130545   1.437   2.214   3.489
 9882SOL    HW230546   1.476   2.078   3.407
 9883SOL     OW30547   0.883   5.772   1.150
 9883SOL    HW130548   0.963   5.755   1.092
 9883SOL    HW230549   0.833   5.852   1.116
 9884SOL     OW30550   3.985   1.539   3.426
 9884SOL    HW130551   4.071   1.573   3.386
 9884SOL    HW230552   3.988   1.551   3.525
 9885SOL     OW30553   0.401   3.556   5.492
 9885SOL    HW130554   0.401   3.559   5.592
 9885SOL    HW230555   0.311   3.525   5.460
 9886SOL     OW30556   0.577   5.013   2.810
 9886SOL    HW130557   0.631   5.065   2.877
 9886SOL    HW230558   0.571   5.065   2.725
 9887SOL     OW30559   3.829   1.509   6.095
 9887SOL    HW130560   3.836   1.433   6.159
 9887SOL    HW230561   3.747   1.563   6.115
 9888SOL     OW30562   0.320   4.223   1.006
 9888SOL    HW130563   0.399   4.243   1.063
 9888SOL    HW230564   0.245   4.189   1.063
 9889SOL     OW30565   6.820   5.288   0.922
 9889SOL    HW130566   6.817   5.287   0.822
 9889SOL    HW230567   6.915   5.297   0.951
 9890SOL     OW30568   1.871   1.990   0.300
 9890SOL    HW130569   1.793   1.933   0.276
 9890SOL    HW230570   1.946   1.974   0.236
 9891SOL     OW30571   6.010   2.783   0.404
 9891SOL    HW130572   6.062   2.840   0.468
 9891SOL    HW230573   6.069   2.712   0.366
 9892SOL     OW30574   6.680   6.009   7.014
 9892SOL    HW130575   6.694   6.043   6.921
 9892SOL    HW230576   6.584   5.987   0.010
 9893SOL     OW30577   1.677   0.421   0.995
 9893SOL    HW130578   1.714   0.510   0.969
 9893SOL    HW230579   1.653   0.422   1.092
 9894SOL     OW30580   2.205   2.437   1.462
 9894SOL    HW130581   2.166   2.505   1.524
 9894SOL    HW230582   2.156   2.439   1.375
 9895SOL     OW30583   5.409   3.367   5.220
 9895SOL    HW130584   5.418   3.459   5.260
 9895SOL    HW230585   5.474   3.358   5.144
 9896SOL     OW30586   6.196   6.989   6.291
 9896SOL    HW130587   6.264   6.973   6.219
 9896SOL    HW230588   6.235   6.961   6.379
 9897SOL     OW30589   5.492   5.621   2.890
 9897SOL    HW130590   5.539   5.689   2.947
 9897SOL    HW230591   5.410   5.663   2.850
 9898SOL     OW30592   2.178   5.841   6.499
 9898SOL    HW130593   2.270   5.865   6.529
 9898SOL    HW230594   2.183   5.783   6.418
 9899SOL     OW30595   0.061   5.837   0.601
 9899SOL    HW130596   0.111   5.845   0.515
 9899SOL    HW230597   0.123   5.857   0.677
 9900SOL     OW30598   1.533   3.852   3.770
 9900SOL    HW130599   1.452   3.807   3.809
 9900SOL    HW230600   1.508   3.944   3.739
 9901SOL     OW30601   3.283   1.330   6.070
 9901SOL    HW130602   3.233   1.296   6.150
 9901SOL    HW230603   3.250   1.285   5.988
 9902SOL     OW30604   2.511   5.201   0.183
 9902SOL    HW130605   2.442   5.257   0.228
 9902SOL    HW230606   2.516   5.112   0.228
 9903SOL     OW30607   5.039   1.204   2.182
 9903SOL    HW130608   5.107   1.156   2.237
 9903SOL    HW230609   4.960   1.144   2.167
 9904SOL     OW30610   1.317   2.924   6.658
 9904SOL    HW130611   1.358   2.988   6.723
 9904SOL    HW230612   1.372   2.920   6.575
 9905SOL     OW30613   3.635   0.893   6.910
 9905SOL    HW130614   3.608   0.989   6.901
 9905SOL    HW230615   3.561   0.835   6.877
 9906SOL     OW30616   3.075   3.572   1.620
 9906SOL    HW130617   2.985   3.536   1.643
 9906SOL    HW230618   3.145   3.508   1.649
 9907SOL     OW30619   6.323   0.852   6.949
 9907SOL    HW130620   6.327   0.952   6.941
 9907SOL    HW230621   6.414   0.814   6.930
 9908SOL     OW30622   5.098   1.520   3.612
 9908SOL    HW130623   5.095   1.447   3.681
 9908SOL    HW230624   5.181   1.575   3.625
 9909SOL     OW30625   3.998   0.003   4.083
 9909SOL    HW130626   4.036   0.094   4.099
 9909SOL    HW230627   3.902   0.001   4.112
 9910SOL     OW30628   0.593   3.818   2.051
 9910SOL    HW130629   0.582   3.897   2.110
 9910SOL    HW230630   0.503   3.788   2.019
 9911SOL     OW30631   3.293   6.783   2.062
 9911SOL    HW130632   3.297   6.861   2.125
 9911SOL    HW230633   3.315   6.699   2.111
 9912SOL     OW30634   3.762   1.849   1.704
 9912SOL    HW130635   3.787   1.877   1.797
 9912SOL    HW230636   3.845   1.823   1.654
 9913SOL     OW30637   6.504   4.171   0.519
 9913SOL    HW130638   6.434   4.166   0.590
 9913SOL    HW230639   6.553   4.258   0.526
 9914SOL     OW30640   5.905   3.014   5.073
 9914SOL    HW130641   5.894   3.022   5.172
 9914SOL    HW230642   5.838   2.949   5.037
 9915SOL     OW30643   4.729   0.593   3.536
 9915SOL    HW130644   4.683   0.601   3.624
 9915SOL    HW230645   4.672   0.635   3.465
 9916SOL     OW30646   2.160   3.248   2.857
 9916SOL    HW130647   2.201   3.339   2.858
 9916SOL    HW230648   2.190   3.197   2.938
 9917SOL     OW30649   6.016   3.615   6.798
 9917SOL    HW130650   5.982   3.647   6.886
 9917SOL    HW230651   6.031   3.694   6.738
 9918SOL     OW30652   3.428   1.431   2.971
 9918SOL    HW130653   3.359   1.386   3.026
 9918SOL    HW230654   3.482   1.493   3.028
 9919SOL     OW30655   5.898   5.627   1.426
 9919SOL    HW130656   5.927   5.653   1.518
 9919SOL    HW230657   5.977   5.630   1.364
 9920SOL     OW30658   4.483   1.922   1.721
 9920SOL    HW130659   4.538   1.946   1.801
 9920SOL    HW230660   4.389   1.953   1.735
 9921SOL     OW30661   4.684   5.703   6.172
 9921SOL    HW130662   4.777   5.737   6.182
 9921SOL    HW230663   4.667   5.633   6.242
 9922SOL     OW30664   1.593   4.822   0.469
 9922SOL    HW130665   1.633   4.838   0.560
 9922SOL    HW230666   1.528   4.747   0.475
 9923SOL     OW30667   4.766   4.474   6.897
 9923SOL    HW130668   4.697   4.544   6.919
 9923SOL    HW230669   4.786   4.477   6.799
 9924SOL     OW30670   6.915   2.254   4.671
 9924SOL    HW130671   6.913   2.191   4.593
 9924SOL    HW230672   7.002   2.246   4.718
 9925SOL     OW30673   6.650   3.760   3.995
 9925SOL    HW130674   6.632   3.752   3.897
 9925SOL    HW230675   6.725   3.699   4.020
 9926SOL     OW30676   2.623   3.246   0.441
 9926SOL    HW130677   2.656   3.270   0.350
 9926SOL    HW230678   2.663   3.307   0.509
 9927SOL     OW30679   6.929   0.282   1.307
 9927SOL    HW130680   6.982   0.331   1.376
 9927SOL    HW230681   6.987   0.214   1.262
 9928SOL     OW30682   4.783   6.002   1.702
 9928SOL    HW130683   4.864   5.980   1.757
 9928SOL    HW230684   4.741   5.917   1.669
 9929SOL     OW30685   2.158   5.250   5.353
 9929SOL    HW130686   2.155   5.186   5.430
 9929SOL    HW230687   2.118   5.207   5.272
 9930SOL     OW30688   6.314   0.141   5.162
 9930SOL    HW130689   6.347   0.218   5.217
 9930SOL    HW230690   6.319   0.057   5.216
 9931SOL     OW30691   1.316   4.548   4.640
 9931SOL    HW130692   1.310   4.536   4.541
 9931SOL    HW230693   1.396   4.499   4.675
 9932SOL     OW30694   2.037   4.983   6.819
 9932SOL    HW130695   1.937   4.975   6.813
 9932SOL    HW230696   2.066   4.966   6.914
 9933SOL     OW30697   1.607   4.899   2.700
 9933SOL    HW130698   1.642   4.992   2.685
 9933SOL    HW230699   1.584   4.887   2.796
 9934SOL     OW30700   6.288   1.552   5.373
 9934SOL    HW130701   6.238   1.625   5.325
 9934SOL    HW230702   6.274   1.561   5.471
 9935SOL     OW30703   3.303   0.379   0.033
 9935SOL    HW130704   3.244   0.322   6.995
 9935SOL    HW230705   3.393   0.386   7.008
 9936SOL     OW30706   6.673   5.102   5.814
 9936SOL    HW130707   6.769   5.075   5.810
 9936SOL    HW230708   6.624   5.062   5.736
 9937SOL     OW30709   6.652   2.056   5.814
 9937SOL    HW130710   6.618   1.965   5.833
 9937SOL    HW230711   6.580   2.123   5.830
 9938SOL     OW30712   6.703   5.429   3.344
 9938SOL    HW130713   6.703   5.523   3.308
 9938SOL    HW230714   6.784   5.381   3.311
 9939SOL     OW30715   3.753   2.054   0.104
 9939SOL    HW130716   3.793   2.083   0.191
 9939SOL    HW230717   3.733   2.135   0.048
 9940SOL     OW30718   0.977   1.027   0.846
 9940SOL    HW130719   0.921   1.109   0.858
 9940SOL    HW230720   1.006   1.021   0.750
 9941SOL     OW30721   3.275   3.877   5.165
 9941SOL    HW130722   3.213   3.805   5.134
 9941SOL    HW230723   3.245   3.965   5.126
 9942SOL     OW30724   1.982   5.390   2.844
 9942SOL    HW130725   2.012   5.412   2.751
 9942SOL    HW230726   1.958   5.293   2.849
 9943SOL     OW30727   6.962   5.739   5.293
 9943SOL    HW130728   7.010   5.656   5.265
 9943SOL    HW230729   6.927   5.728   5.386
 9944SOL     OW30730   2.240   4.396   6.239
 9944SOL    HW130731   2.316   4.449   6.276
 9944SOL    HW230732   2.276   4.324   6.180
 9945SOL     OW30733   6.360   5.538   6.970
 9945SOL    HW130734   6.413   5.453   6.965
 9945SOL    HW230735   6.365   5.585   6.882
 9946SOL     OW30736   5.201   0.959   4.853
 9946SOL    HW130737   5.161   0.921   4.770
 9946SOL    HW230738   5.156   1.046   4.875
 9947SOL     OW30739   1.263   3.952   5.581
 9947SOL    HW130740   1.223   3.861   5.578
 9947SOL    HW230741   1.322   3.966   5.501
 9948SOL     OW30742   4.833   4.682   4.042
 9948SOL    HW130743   4.806   4.711   3.951
 9948SOL    HW230744   4.920   4.634   4.037
 9949SOL     OW30745   4.932   4.796   3.299
 9949SOL    HW130746   4.938   4.881   3.247
 9949SOL    HW230747   5.024   4.768   3.329
 9950SOL     OW30748   5.896   5.928   5.330
 9950SOL    HW130749   5.938   5.943   5.420
 9950SOL    HW230750   5.939   5.850   5.285
 9951SOL     OW30751   6.076   1.642   4.252
 9951SOL    HW130752   6.009   1.575   4.221
 9951SOL    HW230753   6.057   1.731   4.210
 9952SOL     OW30754   0.026   3.434   0.796
 9952SOL    HW130755   7.001   3.493   0.864
 9952SOL    HW230756   0.093   3.487   0.744
 9953SOL     OW30757   6.106   2.678   3.656
 9953SOL    HW130758   6.086   2.755   3.596
 9953SOL    HW230759   6.021   2.644   3.696
 9954SOL     OW30760   5.896   6.194   5.891
 9954SOL    HW130761   5.937   6.113   5.932
 9954SOL    HW230762   5.953   6.274   5.911
 9955SOL     OW30763   6.456   3.441   4.657
 9955SOL    HW130764   6.460   3.475   4.750
 9955SOL    HW230765   6.547   3.411   4.628
 9956SOL     OW30766   2.494   6.868   1.937
 9956SOL    HW130767   2.574   6.808   1.933
 9956SOL    HW230768   2.411   6.813   1.926
 9957SOL     OW30769   5.140   5.248   2.596
 9957SOL    HW130770   5.226   5.295   2.617
 9957SOL    HW230771   5.077   5.312   2.551
 9958SOL     OW30772   3.152   5.125   0.428
 9958SOL    HW130773   3.079   5.087   0.371
 9958SOL    HW230774   3.234   5.138   0.372
 9959SOL     OW30775   4.216   3.606   5.759
 9959SOL    HW130776   4.173   3.677   5.815
 9959SOL    HW230777   4.219   3.635   5.664
 9960SOL     OW30778   0.091   0.431   1.881
 9960SOL    HW130779   0.125   0.519   1.912
 9960SOL    HW230780   0.077   0.371   1.959
 9961SOL     OW30781   1.975   6.355   4.367
 9961SOL    HW130782   2.016   6.440   4.402
 9961SOL    HW230783   1.881   6.349   4.401
 9962SOL     OW30784   6.747   6.571   3.271
 9962SOL    HW130785   6.831   6.518   3.280
 9962SOL    HW230786   6.726   6.584   3.174
 9963SOL     OW30787   3.192   3.111   6.660
 9963SOL    HW130788   3.164   3.090   6.566
 9963SOL    HW230789   3.123   3.169   6.703
 9964SOL     OW30790   4.437   5.178   5.042
 9964SOL    HW130791   4.360   5.182   5.106
 9964SOL    HW230792   4.402   5.180   4.948
 9965SOL     OW30793   3.718   6.461   6.681
 9965SOL    HW130794   3.813   6.459   6.712
 9965SOL    HW230795   3.710   6.527   6.606
 9966SOL     OW30796   1.259   5.062   1.475
 9966SOL    HW130797   1.359   5.062   1.472
 9966SOL    HW230798   1.228   4.994   1.542
 9967SOL     OW30799   0.064   5.588   2.747
 9967SOL    HW130800   0.128   5.632   2.684
 9967SOL    HW230801   0.086   5.615   2.841
 9968SOL     OW30802   3.834   4.485   1.493
 9968SOL    HW130803   3.929   4.457   1.478
 9968SOL    HW230804   3.791   4.505   1.406
 9969SOL     OW30805   2.141   3.720   2.559
 9969SOL    HW130806   2.177   3.767   2.479
 9969SOL    HW230807   2.126   3.623   2.537
 9970SOL     OW30808   5.211   4.395   1.898
 9970SOL    HW130809   5.173   4.325   1.837
 9970SOL    HW230810   5.153   4.403   1.979
 9971SOL     OW30811   1.584   5.069   1.213
 9971SOL    HW130812   1.571   4.984   1.264
 9971SOL    HW230813   1.554   5.055   1.118
 9972SOL     OW30814   6.003   4.471   1.349
 9972SOL    HW130815   6.045   4.542   1.293
 9972SOL    HW230816   6.068   4.442   1.420
 9973SOL     OW30817   5.700   1.931   3.574
 9973SOL    HW130818   5.798   1.911   3.580
 9973SOL    HW230819   5.657   1.913   3.663
 9974SOL     OW30820   0.561   2.377   2.538
 9974SOL    HW130821   0.483   2.435   2.563
 9974SOL    HW230822   0.605   2.343   2.621
 9975SOL     OW30823   6.210   3.248   0.406
 9975SOL    HW130824   6.160   3.235   0.321
 9975SOL    HW230825   6.150   3.289   0.474
 9976SOL     OW30826   1.060   5.971   5.386
 9976SOL    HW130827   1.051   6.047   5.451
 9976SOL    HW230828   1.152   5.972   5.347
 9977SOL     OW30829   6.044   5.677   5.302
 9977SOL    HW130830   6.138   5.658   5.330
 9977SOL    HW230831   5.982   5.617   5.352
 9978SOL     OW30832   0.921   2.702   4.715
 9978SOL    HW130833   0.872   2.616   4.701
 9978SOL    HW230834   0.911   2.760   4.634
 9979SOL     OW30835   5.946   4.551   5.222
 9979SOL    HW130836   5.866   4.529   5.166
 9979SOL    HW230837   6.013   4.477   5.215
 9980SOL     OW30838   2.814   6.984   0.049
 9980SOL    HW130839   2.784   6.936   0.132
 9980SOL    HW230840   2.861   0.050   0.076
 9981SOL     OW30841   2.833   1.768   3.051
 9981SOL    HW130842   2.918   1.718   3.065
 9981SOL    HW230843   2.757   1.703   3.042
 9982SOL     OW30844   6.415   5.582   3.622
 9982SOL    HW130845   6.448   5.527   3.698
 9982SOL    HW230846   6.398   5.524   3.543
 9983SOL     OW30847   0.150   1.776   2.780
 9983SOL    HW130848   0.235   1.726   2.770
 9983SOL    HW230849   0.078   1.731   2.726
 9984SOL     OW30850   2.495   2.061   6.895
 9984SOL    HW130851   2.505   1.962   6.901
 9984SOL    HW230852   2.476   2.087   6.800
 9985SOL     OW30853   2.302   0.750   1.218
 9985SOL    HW130854   2.209   0.745   1.181
 9985SOL    HW230855   2.354   0.669   1.189
 9986SOL     OW30856   6.129   4.255   5.645
 9986SOL    HW130857   6.054   4.301   5.693
 9986SOL    HW230858   6.131   4.285   5.549
 9987SOL     OW30859   5.496   3.409   5.928
 9987SOL    HW130860   5.548   3.377   6.007
 9987SOL    HW230861   5.401   3.424   5.954
 9988SOL     OW30862   7.005   6.757   4.819
 9988SOL    HW130863   0.009   6.790   4.727
 9988SOL    HW230864   0.023   6.665   4.831
 9989SOL     OW30865   6.895   3.103   3.796
 9989SOL    HW130866   6.852   3.175   3.850
 9989SOL    HW230867   6.993   3.098   3.818
 9990SOL     OW30868   1.557   5.417   3.671
 9990SOL    HW130869   1.548   5.513   3.647
 9990SOL    HW230870   1.467   5.373   3.669
 9991SOL     OW30871   3.134   2.227   4.688
 9991SOL    HW130872   3.207   2.165   4.661
 9991SOL    HW230873   3.147   2.255   4.783
 9992SOL     OW30874   5.999   5.247   6.523
 9992SOL    HW130875   6.063   5.171   6.522
 9992SOL    HW230876   5.946   5.246   6.608
 9993SOL     OW30877   2.596   1.596   0.935
 9993SOL    HW130878   2.545   1.638   0.860
 9993SOL    HW230879   2.604   1.497   0.919
 9994SOL     OW30880   6.051   4.358   3.009
 9994SOL    HW130881   6.086   4.341   3.101
 9994SOL    HW230882   6.099   4.298   2.944
 9995SOL     OW30883   4.576   1.547   3.645
 9995SOL    HW130884   4.571   1.450   3.671
 9995SOL    HW230885   4.609   1.555   3.551
 9996SOL     OW30886   2.996   4.128   0.013
 9996SOL    HW130887   2.905   4.095   7.008
 9996SOL    HW230888   2.990   4.188   0.093
 9997SOL     OW30889   3.158   1.201   5.878
 9997SOL    HW130890   3.096   1.131   5.842
 9997SOL    HW230891   3.238   1.207   5.819
 9998SOL     OW30892   6.034   5.227   4.797
 9998SOL    HW130893   5.988   5.275   4.723
 9998SOL    HW230894   6.015   5.273   4.884
 9999SOL     OW30895   6.125   2.879   5.944
 9999SOL    HW130896   6.037   2.879   5.991
 9999SOL    HW230897   6.141   2.968   5.902
10000SOL     OW30898   6.648   2.976   0.126
10000SOL    HW130899   6.549   2.985   0.123
10000SOL    HW230900   6.691   3.064   0.105
10001SOL     OW30901   4.580   0.749   2.070
10001SOL    HW130902   4.616   0.717   1.982
10001SOL    HW230903   4.482   0.766   2.062
10002SOL     OW30904   1.505   6.557   2.112
10002SOL    HW130905   1.563   6.597   2.183
10002SOL    HW230906   1.495   6.459   2.129
10003SOL     OW30907   3.312   2.136   4.035
10003SOL    HW130908   3.371   2.152   3.956
10003SOL    HW230909   3.230   2.193   4.027
10004SOL     OW30910   6.592   2.550   3.621
10004SOL    HW130911   6.621   2.462   3.659
10004SOL    HW230912   6.497   2.567   3.647
10005SOL     OW30913   5.357   0.409   3.016
10005SOL    HW130914   5.371   0.501   3.054
10005SOL    HW230915   5.261   0.384   3.023
10006SOL     OW30916   4.077   0.256   4.162
10006SOL    HW130917   4.038   0.346   4.183
10006SOL    HW230918   4.161   0.267   4.110
10007SOL     OW30919   0.328   4.039   4.885
10007SOL    HW130920   0.277   4.119   4.853
10007SOL    HW230921   0.263   3.969   4.915
10008SOL     OW30922   3.615   0.640   4.445
10008SOL    HW130923   3.589   0.701   4.370
10008SOL    HW230924   3.665   0.692   4.514
10009SOL     OW30925   1.917   4.217   1.962
10009SOL    HW130926   1.917   4.209   1.863
10009SOL    HW230927   1.931   4.127   2.004
10010SOL     OW30928   2.240   1.073   6.824
10010SOL    HW130929   2.166   1.053   6.890
10010SOL    HW230930   2.256   0.993   6.767
10011SOL     OW30931   6.903   0.576   5.129
10011SOL    HW130932   6.857   0.631   5.059
10011SOL    HW230933   6.858   0.487   5.135
10012SOL     OW30934   6.054   1.213   2.954
10012SOL    HW130935   6.008   1.178   3.036
10012SOL    HW230936   6.152   1.218   2.970
10013SOL     OW30937   0.420   0.966   2.845
10013SOL    HW130938   0.467   0.906   2.782
10013SOL    HW230939   0.422   0.927   2.937
10014SOL     OW30940   1.081   3.953   6.318
10014SOL    HW130941   1.093   4.021   6.246
10014SOL    HW230942   0.988   3.960   6.356
10015SOL     OW30943   1.898   4.988   0.286
10015SOL    HW130944   1.913   4.996   0.384
10015SOL    HW230945   1.874   4.894   0.263
10016SOL     OW30946   1.649   1.139   6.588
10016SOL    HW130947   1.639   1.039   6.588
10016SOL    HW230948   1.746   1.162   6.597
10017SOL     OW30949   2.885   2.243   4.589
10017SOL    HW130950   2.972   2.242   4.639
10017SOL    HW230951   2.893   2.186   4.508
10018SOL     OW30952   5.620   0.021   6.438
10018SOL    HW130953   5.630   0.087   6.363
10018SOL    HW230954   5.523   0.006   6.457
10019SOL     OW30955   1.134   1.423   2.909
10019SOL    HW130956   1.207   1.469   2.859
10019SOL    HW230957   1.156   1.327   2.920
10020SOL     OW30958   1.298   2.764   1.684
10020SOL    HW130959   1.252   2.690   1.733
10020SOL    HW230960   1.369   2.804   1.743
10021SOL     OW30961   6.920   3.354   0.552
10021SOL    HW130962   6.946   3.371   0.648
10021SOL    HW230963   6.983   3.404   0.492
10022SOL     OW30964   1.724   1.142   6.237
10022SOL    HW130965   1.748   1.052   6.273
10022SOL    HW230966   1.671   1.193   6.306
10023SOL     OW30967   6.526   3.674   0.625
10023SOL    HW130968   6.444   3.628   0.590
10023SOL    HW230969   6.519   3.686   0.724
10024SOL     OW30970   1.246   5.475   3.913
10024SOL    HW130971   1.314   5.487   3.986
10024SOL    HW230972   1.285   5.420   3.840
10025SOL     OW30973   2.010   0.532   1.365
10025SOL    HW130974   2.063   0.463   1.316
10025SOL    HW230975   2.005   0.615   1.311
10026SOL     OW30976   5.710   0.374   3.369
10026SOL    HW130977   5.787   0.435   3.349
10026SOL    HW230978   5.670   0.342   3.283
10027SOL     OW30979   5.542   3.303   4.212
10027SOL    HW130980   5.610   3.372   4.189
10027SOL    HW230981   5.451   3.336   4.187
10028SOL     OW30982   1.739   0.777   0.442
10028SOL    HW130983   1.769   0.865   0.478
10028SOL    HW230984   1.676   0.792   0.366
10029SOL     OW30985   5.600   1.704   3.433
10029SOL    HW130986   5.662   1.633   3.401
10029SOL    HW230987   5.652   1.774   3.481
10030SOL     OW30988   2.154   0.638   4.030
10030SOL    HW130989   2.252   0.619   4.019
10030SOL    HW230990   2.102   0.590   3.959
10031SOL     OW30991   5.105   4.520   2.916
10031SOL    HW130992   5.078   4.616   2.925
10031SOL    HW230993   5.197   4.515   2.876
10032SOL     OW30994   2.564   1.703   5.364
10032SOL    HW130995   2.550   1.637   5.437
10032SOL    HW230996   2.643   1.760   5.386
10033SOL     OW30997   5.583   2.914   4.329
10033SOL    HW130998   5.501   2.871   4.291
10033SOL    HW230999   5.611   2.990   4.270
10034SOL     OW31000   3.817   0.293   5.305
10034SOL    HW131001   3.755   0.358   5.349
10034SOL    HW231002   3.818   0.309   5.206
10035SOL     OW31003   0.019   4.799   1.459
10035SOL    HW131004   6.957   4.745   1.434
10035SOL    HW231005   0.001   4.851   1.542
10036SOL     OW31006   6.705   1.597   0.198
10036SOL    HW131007   6.704   1.557   0.106
10036SOL    HW231008   6.768   1.674   0.200
10037SOL     OW31009   6.986   0.367   6.296
10037SOL    HW131010   0.021   0.282   6.296
10037SOL    HW231011   0.028   0.444   6.275
10038SOL     OW31012   6.583   6.511   1.336
10038SOL    HW131013   6.570   6.603   1.301
10038SOL    HW231014   6.675   6.502   1.375
10039SOL     OW31015   3.007   0.815   3.866
10039SOL    HW131016   2.925   0.828   3.809
10039SOL    HW231017   3.047   0.725   3.847
10040SOL     OW31018   6.643   3.348   0.679
10040SOL    HW131019   6.690   3.307   0.601
10040SOL    HW231020   6.597   3.277   0.732
10041SOL     OW31021   3.425   6.737   0.411
10041SOL    HW131022   3.437   6.779   0.322
10041SOL    HW231023   3.429   6.637   0.402
10042SOL     OW31024   6.896   2.328   2.726
10042SOL    HW131025   6.853   2.365   2.644
10042SOL    HW231026   6.931   2.236   2.707
10043SOL     OW31027   0.226   1.512   5.904
10043SOL    HW131028   0.253   1.422   5.939
10043SOL    HW231029   0.168   1.558   5.972
10044SOL     OW31030   2.394   2.329   5.370
10044SOL    HW131031   2.327   2.390   5.413
10044SOL    HW231032   2.412   2.252   5.432
10045SOL     OW31033   4.202   1.028   0.175
10045SOL    HW131034   4.190   0.958   0.245
10045SOL    HW231035   4.275   1.001   0.113
10046SOL     OW31036   1.291   5.311   1.321
10046SOL    HW131037   1.260   5.287   1.412
10046SOL    HW231038   1.315   5.408   1.318
10047SOL     OW31039   0.704   3.172   0.115
10047SOL    HW131040   0.689   3.084   0.069
10047SOL    HW231041   0.768   3.227   0.062
10048SOL     OW31042   5.989   6.697   2.376
10048SOL    HW131043   5.957   6.718   2.284
10048SOL    HW231044   6.089   6.702   2.379
10049SOL     OW31045   6.879   1.684   5.040
10049SOL    HW131046   6.787   1.708   5.010
10049SOL    HW231047   6.946   1.739   4.990
10050SOL     OW31048   5.656   3.393   5.482
10050SOL    HW131049   5.747   3.433   5.477
10050SOL    HW231050   5.662   3.301   5.521
10051SOL     OW31051   0.724   4.333   4.269
10051SOL    HW131052   0.818   4.312   4.245
10051SOL    HW231053   0.689   4.404   4.206
10052SOL     OW31054   1.519   0.152   3.475
10052SOL    HW131055   1.439   0.100   3.508
10052SOL    HW231056   1.534   0.230   3.535
10053SOL     OW31057   4.859   5.736   4.766
10053SOL    HW131058   4.842   5.660   4.704
10053SOL    HW231059   4.781   5.798   4.765
10054SOL     OW31060   5.483   3.902   4.475
10054SOL    HW131061   5.532   3.818   4.450
10054SOL    HW231062   5.461   3.953   4.392
10055SOL     OW31063   6.797   1.728   6.844
10055SOL    HW131064   6.700   1.729   6.822
10055SOL    HW231065   6.820   1.808   6.899
10056SOL     OW31066   5.596   2.968   3.169
10056SOL    HW131067   5.603   2.875   3.133
10056SOL    HW231068   5.688   3.005   3.184
10057SOL     OW31069   5.817   4.607   6.170
10057SOL    HW131070   5.747   4.545   6.135
10057SOL    HW231071   5.779   4.663   6.244
10058SOL     OW31072   6.477   3.832   4.760
10058SOL    HW131073   6.443   3.898   4.827
10058SOL    HW231074   6.451   3.740   4.787
10059SOL     OW31075   0.393   0.805   6.737
10059SOL    HW131076   0.452   0.824   6.659
10059SOL    HW231077   0.442   0.826   6.822
10060SOL     OW31078   2.527   2.156   2.731
10060SOL    HW131079   2.609   2.212   2.733
10060SOL    HW231080   2.536   2.085   2.661
10061SOL     OW31081   3.676   6.926   2.915
10061SOL    HW131082   3.601   6.862   2.897
10061SOL    HW231083   3.697   6.927   3.013
10062SOL     OW31084   6.726   0.262   4.000
10062SOL    HW131085   6.786   0.342   4.005
10062SOL    HW231086   6.690   0.241   4.091
10063SOL     OW31087   1.536   3.132   5.052
10063SOL    HW131088   1.573   3.212   5.098
10063SOL    HW231089   1.500   3.068   5.119
10064SOL     OW31090   3.074   6.469   0.569
10064SOL    HW131091   3.049   6.487   0.665
10064SOL    HW231092   3.001   6.418   0.524
10065SOL     OW31093   0.717   1.330   2.017
10065SOL    HW131094   0.653   1.278   1.961
10065SOL    HW231095   0.724   1.287   2.107
10066SOL     OW31096   6.365   3.583   3.644
10066SOL    HW131097   6.395   3.629   3.728
10066SOL    HW231098   6.339   3.488   3.666
10067SOL     OW31099   6.759   1.910   4.671
10067SOL    HW131100   6.805   1.961   4.744
10067SOL    HW231101   6.793   1.941   4.582
10068SOL     OW31102   2.110   2.374   2.663
10068SOL    HW131103   2.202   2.363   2.626
10068SOL    HW231104   2.043   2.359   2.590
10069SOL     OW31105   2.517   5.242   1.496
10069SOL    HW131106   2.455   5.311   1.459
10069SOL    HW231107   2.516   5.161   1.437
10070SOL     OW31108   3.650   5.840   5.614
10070SOL    HW131109   3.708   5.786   5.553
10070SOL    HW231110   3.575   5.782   5.648
10071SOL     OW31111   6.056   0.193   3.106
10071SOL    HW131112   6.146   0.208   3.148
10071SOL    HW231113   6.056   0.106   3.058
10072SOL     OW31114   6.710   2.366   2.072
10072SOL    HW131115   6.781   2.419   2.119
10072SOL    HW231116   6.734   2.357   1.975
10073SOL     OW31117   6.413   4.258   4.838
10073SOL    HW131118   6.420   4.224   4.744
10073SOL    HW231119   6.470   4.340   4.848
10074SOL     OW31120   1.228   4.597   0.394
10074SOL    HW131121   1.295   4.636   0.457
10074SOL    HW231122   1.173   4.671   0.354
10075SOL     OW31123   1.696   3.213   1.871
10075SOL    HW131124   1.644   3.279   1.816
10075SOL    HW231125   1.724   3.256   1.957
10076SOL     OW31126   5.057   5.700   4.249
10076SOL    HW131127   5.080   5.603   4.245
10076SOL    HW231128   4.973   5.716   4.196
10077SOL     OW31129   5.925   2.912   6.120
10077SOL    HW131130   5.863   2.991   6.120
10077SOL    HW231131   5.877   2.832   6.157
10078SOL     OW31132   6.740   6.578   4.761
10078SOL    HW131133   6.651   6.538   4.741
10078SOL    HW231134   6.811   6.508   4.755
10079SOL     OW31135   4.895   2.446   2.707
10079SOL    HW131136   4.832   2.368   2.715
10079SOL    HW231137   4.903   2.474   2.612
10080SOL     OW31138   5.362   0.269   6.395
10080SOL    HW131139   5.329   0.289   6.488
10080SOL    HW231140   5.442   0.325   6.376
10081SOL     OW31141   2.210   2.919   0.816
10081SOL    HW131142   2.199   2.869   0.901
10081SOL    HW231143   2.123   2.962   0.790
10082SOL     OW31144   1.110   4.301   1.168
10082SOL    HW131145   1.181   4.238   1.138
10082SOL    HW231146   1.150   4.392   1.184
10083SOL     OW31147   3.135   4.931   3.676
10083SOL    HW131148   3.147   5.027   3.700
10083SOL    HW231149   3.079   4.886   3.746
10084SOL     OW31150   0.833   0.772   4.663
10084SOL    HW131151   0.901   0.709   4.626
10084SOL    HW231152   0.745   0.756   4.619
10085SOL     OW31153   4.774   0.085   0.417
10085SOL    HW131154   4.688   0.119   0.454
10085SOL    HW231155   4.850   0.134   0.459
10086SOL     OW31156   0.105   6.683   2.357
10086SOL    HW131157   0.124   6.588   2.334
10086SOL    HW231158   0.118   6.741   2.276
10087SOL     OW31159   1.745   6.680   5.007
10087SOL    HW131160   1.741   6.689   5.106
10087SOL    HW231161   1.656   6.705   4.968
10088SOL     OW31162   0.251   2.329   6.923
10088SOL    HW131163   0.232   2.377   7.009
10088SOL    HW231164   0.325   2.375   6.875
10089SOL     OW31165   3.962   1.900   2.187
10089SOL    HW131166   3.886   1.846   2.225
10089SOL    HW231167   3.943   1.997   2.202
10090SOL     OW31168   2.294   6.014   2.386
10090SOL    HW131169   2.253   5.939   2.438
10090SOL    HW231170   2.385   6.034   2.423
10091SOL     OW31171   6.652   3.849   5.342
10091SOL    HW131172   6.595   3.925   5.373
10091SOL    HW231173   6.741   3.853   5.387
10092SOL     OW31174   0.329   1.596   4.216
10092SOL    HW131175   0.398   1.525   4.233
10092SOL    HW231176   0.238   1.557   4.225
10093SOL     OW31177   5.201   4.153   5.545
10093SOL    HW131178   5.137   4.077   5.532
10093SOL    HW231179   5.244   4.145   5.635
10094SOL     OW31180   3.539   1.251   0.905
10094SOL    HW131181   3.513   1.176   0.844
10094SOL    HW231182   3.466   1.266   0.972
10095SOL     OW31183   5.025   2.920   5.508
10095SOL    HW131184   5.031   2.999   5.570
10095SOL    HW231185   4.931   2.885   5.509
10096SOL     OW31186   5.523   1.725   3.000
10096SOL    HW131187   5.568   1.741   2.912
10096SOL    HW231188   5.424   1.732   2.989
10097SOL     OW31189   1.077   1.937   6.920
10097SOL    HW131190   0.986   1.905   6.893
10097SOL    HW231191   1.100   2.019   6.867
10098SOL     OW31192   3.507   5.737   3.814
10098SOL    HW131193   3.598   5.710   3.846
10098SOL    HW231194   3.455   5.777   3.889
10099SOL     OW31195   6.824   4.671   1.291
10099SOL    HW131196   6.787   4.590   1.335
10099SOL    HW231197   6.832   4.655   1.193
10100SOL     OW31198   4.479   5.147   4.125
10100SOL    HW131199   4.532   5.107   4.199
10100SOL    HW231200   4.382   5.145   4.148
10101SOL     OW31201   0.936   1.997   1.524
10101SOL    HW131202   1.029   1.976   1.556
10101SOL    HW231203   0.888   1.912   1.503
10102SOL     OW31204   6.692   6.116   2.887
10102SOL    HW131205   6.775   6.173   2.880
10102SOL    HW231206   6.718   6.022   2.907
10103SOL     OW31207   6.543   6.139   6.221
10103SOL    HW131208   6.633   6.183   6.222
10103SOL    HW231209   6.551   6.048   6.180
10104SOL     OW31210   2.047   0.302   4.818
10104SOL    HW131211   1.952   0.282   4.793
10104SOL    HW231212   2.049   0.340   4.911
10105SOL     OW31213   2.792   0.725   6.143
10105SOL    HW131214   2.874   0.781   6.155
10105SOL    HW231215   2.728   0.745   6.218
10106SOL     OW31216   5.363   5.546   1.439
10106SOL    HW131217   5.274   5.508   1.466
10106SOL    HW231218   5.417   5.476   1.393
10107SOL     OW31219   4.687   4.529   6.634
10107SOL    HW131220   4.611   4.483   6.587
10107SOL    HW231221   4.726   4.599   6.574
10108SOL     OW31222   2.018   2.763   6.661
10108SOL    HW131223   1.988   2.752   6.566
10108SOL    HW231224   2.036   2.860   6.679
10109SOL     OW31225   1.549   2.271   1.355
10109SOL    HW131226   1.493   2.189   1.369
10109SOL    HW231227   1.524   2.314   1.269
10110SOL     OW31228   5.272   6.271   2.640
10110SOL    HW131229   5.180   6.300   2.612
10110SOL    HW231230   5.323   6.350   2.674
10111SOL     OW31231   1.606   1.933   2.117
10111SOL    HW131232   1.533   1.871   2.090
10111SOL    HW231233   1.566   2.018   2.153
10112SOL     OW31234   6.939   2.383   3.406
10112SOL    HW131235   6.920   2.473   3.367
10112SOL    HW231236   6.907   2.380   3.501
10113SOL     OW31237   6.779   0.817   5.830
10113SOL    HW131238   6.848   0.889   5.828
10113SOL    HW231239   6.811   0.739   5.777
10114SOL     OW31240   4.685   1.765   1.971
10114SOL    HW131241   4.678   1.724   2.062
10114SOL    HW231242   4.681   1.865   1.979
10115SOL     OW31243   3.656   2.979   6.332
10115SOL    HW131244   3.591   3.052   6.354
10115SOL    HW231245   3.614   2.891   6.352
10116SOL     OW31246   6.576   0.869   4.571
10116SOL    HW131247   6.589   0.773   4.545
10116SOL    HW231248   6.658   0.902   4.618
10117SOL     OW31249   6.091   4.229   3.815
10117SOL    HW131250   6.185   4.264   3.816
10117SOL    HW231251   6.046   4.259   3.731
10118SOL     OW31252   4.226   5.879   4.430
10118SOL    HW131253   4.257   5.824   4.507
10118SOL    HW231254   4.143   5.840   4.392
10119SOL     OW31255   0.164   5.132   5.622
10119SOL    HW131256   0.097   5.078   5.570
10119SOL    HW231257   0.256   5.103   5.597
10120SOL     OW31258   2.066   3.055   2.358
10120SOL    HW131259   2.076   3.071   2.457
10120SOL    HW231260   2.063   3.144   2.311
10121SOL     OW31261   6.461   4.066   1.012
10121SOL    HW131262   6.459   4.138   0.942
10121SOL    HW231263   6.532   4.086   1.079
10122SOL     OW31264   1.029   0.220   3.802
10122SOL    HW131265   1.033   0.277   3.885
10122SOL    HW231266   0.935   0.192   3.786
10123SOL     OW31267   6.412   5.186   6.686
10123SOL    HW131268   6.337   5.125   6.711
10123SOL    HW231269   6.458   5.151   6.604
10124SOL     OW31270   1.402   5.223   2.987
10124SOL    HW131271   1.422   5.249   3.081
10124SOL    HW231272   1.370   5.303   2.936
10125SOL     OW31273   2.097   1.474   5.483
10125SOL    HW131274   2.183   1.429   5.461
10125SOL    HW231275   2.035   1.468   5.405
10126SOL     OW31276   6.643   6.576   6.813
10126SOL    HW131277   6.685   6.637   6.880
10126SOL    HW231278   6.585   6.509   6.860
10127SOL     OW31279   2.316   6.374   6.331
10127SOL    HW131280   2.265   6.288   6.335
10127SOL    HW231281   2.314   6.418   6.420
10128SOL     OW31282   2.673   1.941   6.602
10128SOL    HW131283   2.655   2.039   6.595
10128SOL    HW231284   2.682   1.915   6.698
10129SOL     OW31285   6.009   1.435   4.746
10129SOL    HW131286   6.019   1.534   4.755
10129SOL    HW231287   6.070   1.402   4.674
10130SOL     OW31288   1.320   1.637   2.846
10130SOL    HW131289   1.397   1.698   2.863
10130SOL    HW231290   1.235   1.689   2.845
10131SOL     OW31291   1.567   6.328   4.105
10131SOL    HW131292   1.635   6.268   4.062
10131SOL    HW231293   1.501   6.272   4.154
10132SOL     OW31294   6.906   0.941   1.584
10132SOL    HW131295   6.882   0.848   1.610
10132SOL    HW231296   7.005   0.953   1.589
10133SOL     OW31297   6.132   6.443   0.108
10133SOL    HW131298   6.174   6.527   0.074
10133SOL    HW231299   6.055   6.466   0.167
10134SOL     OW31300   6.407   6.803   2.054
10134SOL    HW131301   6.384   6.723   1.999
10134SOL    HW231302   6.361   6.883   2.018
10135SOL     OW31303   6.314   0.028   2.422
10135SOL    HW131304   6.367   0.085   2.485
10135SOL    HW231305   6.235   7.009   2.469
10136SOL     OW31306   5.354   1.403   2.200
10136SOL    HW131307   5.354   1.395   2.300
10136SOL    HW231308   5.421   1.472   2.172
10137SOL     OW31309   6.154   5.470   5.495
10137SOL    HW131310   6.234   5.509   5.451
10137SOL    HW231311   6.180   5.387   5.544
10138SOL     OW31312   0.694   2.133   0.355
10138SOL    HW131313   0.787   2.102   0.373
10138SOL    HW231314   0.660   2.183   0.435
10139SOL     OW31315   3.296   2.816   6.451
10139SOL    HW131316   3.283   2.846   6.546
10139SOL    HW231317   3.220   2.850   6.395
10140SOL     OW31318   0.818   6.521   5.545
10140SOL    HW131319   0.833   6.496   5.450
10140SOL    HW231320   0.769   6.608   5.549
10141SOL     OW31321   2.004   2.728   4.456
10141SOL    HW131322   2.104   2.718   4.450
10141SOL    HW231323   1.975   2.709   4.550
10142SOL     OW31324   3.878   6.421   3.925
10142SOL    HW131325   3.890   6.516   3.895
10142SOL    HW231326   3.820   6.373   3.859
10143SOL     OW31327   5.045   3.111   6.721
10143SOL    HW131328   5.022   3.176   6.648
10143SOL    HW231329   5.101   3.037   6.684
10144SOL     OW31330   3.885   6.873   6.426
10144SOL    HW131331   3.894   6.776   6.406
10144SOL    HW231332   3.822   6.885   6.503
10145SOL     OW31333   5.341   6.156   6.266
10145SOL    HW131334   5.419   6.195   6.316
10145SOL    HW231335   5.327   6.061   6.295
10146SOL     OW31336   0.329   2.700   4.389
10146SOL    HW131337   0.362   2.774   4.449
10146SOL    HW231338   0.398   2.681   4.319
10147SOL     OW31339   4.932   4.890   5.692
10147SOL    HW131340   4.902   4.981   5.662
10147SOL    HW231341   4.891   4.869   5.780
10148SOL     OW31342   1.039   4.471   0.595
10148SOL    HW131343   1.035   4.548   0.531
10148SOL    HW231344   1.011   4.502   0.686
10149SOL     OW31345   3.445   4.546   0.343
10149SOL    HW131346   3.393   4.611   0.288
10149SOL    HW231347   3.543   4.564   0.332
10150SOL     OW31348   4.080   4.480   0.889
10150SOL    HW131349   4.128   4.549   0.943
10150SOL    HW231350   3.996   4.520   0.852
10151SOL     OW31351   6.042   6.819   5.862
10151SOL    HW131352   6.102   6.897   5.881
10151SOL    HW231353   5.947   6.845   5.880
10152SOL     OW31354   4.059   6.617   2.441
10152SOL    HW131355   4.041   6.568   2.356
10152SOL    HW231356   4.124   6.565   2.496
10153SOL     OW31357   4.666   4.529   2.504
10153SOL    HW131358   4.605   4.541   2.582
10153SOL    HW231359   4.639   4.590   2.430
10154SOL     OW31360   5.020   5.151   5.481
10154SOL    HW131361   5.033   5.231   5.422
10154SOL    HW231362   4.929   5.112   5.464
10155SOL     OW31363   4.061   1.905   4.785
10155SOL    HW131364   4.147   1.945   4.751
10155SOL    HW231365   4.027   1.838   4.720
10156SOL     OW31366   5.055   2.343   0.249
10156SOL    HW131367   5.095   2.283   0.318
10156SOL    HW231368   5.057   2.438   0.282
10157SOL     OW31369   0.230   3.581   1.275
10157SOL    HW131370   0.304   3.515   1.282
10157SOL    HW231371   0.151   3.549   1.327
10158SOL     OW31372   6.158   4.865   0.226
10158SOL    HW131373   6.065   4.833   0.239
10158SOL    HW231374   6.175   4.882   0.129
10159SOL     OW31375   2.962   3.029   1.686
10159SOL    HW131376   2.888   3.086   1.724
10159SOL    HW231377   2.927   2.937   1.668
10160SOL     OW31378   1.247   4.910   2.898
10160SOL    HW131379   1.314   4.857   2.950
10160SOL    HW231380   1.260   4.893   2.800
10161SOL     OW31381   5.235   3.196   5.455
10161SOL    HW131382   5.278   3.275   5.411
10161SOL    HW231383   5.136   3.212   5.461
10162SOL     OW31384   1.728   3.110   2.278
10162SOL    HW131385   1.673   3.150   2.205
10162SOL    HW231386   1.684   3.026   2.310
10163SOL     OW31387   1.872   6.346   5.495
10163SOL    HW131388   1.909   6.389   5.577
10163SOL    HW231389   1.901   6.250   5.492
10164SOL     OW31390   1.299   2.575   3.043
10164SOL    HW131391   1.316   2.649   2.978
10164SOL    HW231392   1.201   2.568   3.060
10165SOL     OW31393   6.914   3.627   4.050
10165SOL    HW131394   6.995   3.637   3.992
10165SOL    HW231395   6.931   3.555   4.118
10166SOL     OW31396   2.612   0.717   1.704
10166SOL    HW131397   2.703   0.756   1.695
10166SOL    HW231398   2.600   0.643   1.637
10167SOL     OW31399   2.497   0.702   6.641
10167SOL    HW131400   2.531   0.608   6.649
10167SOL    HW231401   2.407   0.701   6.599
10168SOL     OW31402   6.539   0.856   6.709
10168SOL    HW131403   6.548   0.857   6.809
10168SOL    HW231404   6.606   0.919   6.669
10169SOL     OW31405   5.756   3.018   3.466
10169SOL    HW131406   5.780   2.971   3.550
10169SOL    HW231407   5.763   3.117   3.480
10170SOL     OW31408   5.662   5.565   6.488
10170SOL    HW131409   5.749   5.520   6.466
10170SOL    HW231410   5.645   5.559   6.586
10171SOL     OW31411   2.425   3.477   6.028
10171SOL    HW131412   2.474   3.422   6.096
10171SOL    HW231413   2.443   3.441   5.937
10172SOL     OW31414   5.935   0.440   3.088
10172SOL    HW131415   5.957   0.342   3.093
10172SOL    HW231416   5.847   0.452   3.043
10173SOL     OW31417   3.207   4.147   5.087
10173SOL    HW131418   3.146   4.188   5.155
10173SOL    HW231419   3.295   4.195   5.088
10174SOL     OW31420   4.104   5.594   3.166
10174SOL    HW131421   4.190   5.543   3.157
10174SOL    HW231422   4.063   5.607   3.076
10175SOL     OW31423   0.290   1.263   3.240
10175SOL    HW131424   0.319   1.353   3.208
10175SOL    HW231425   0.234   1.219   3.169
10176SOL     OW31426   6.697   1.382   5.776
10176SOL    HW131427   6.735   1.315   5.712
10176SOL    HW231428   6.707   1.474   5.737
10177SOL     OW31429   2.598   0.954   3.984
10177SOL    HW131430   2.504   0.971   3.953
10177SOL    HW231431   2.652   1.037   3.971
10178SOL     OW31432   1.171   2.099   0.606
10178SOL    HW131433   1.228   2.050   0.540
10178SOL    HW231434   1.159   2.042   0.688
10179SOL     OW31435   0.054   4.491   0.968
10179SOL    HW131436   0.004   4.406   0.985
10179SOL    HW231437   0.079   4.496   0.871
10180SOL     OW31438   4.551   6.891   5.385
10180SOL    HW131439   4.533   6.957   5.312
10180SOL    HW231440   4.591   6.808   5.346
10181SOL     OW31441   6.549   3.282   2.287
10181SOL    HW131442   6.499   3.225   2.352
10181SOL    HW231443   6.484   3.323   2.222
10182SOL     OW31444   5.537   2.425   0.314
10182SOL    HW131445   5.455   2.467   0.273
10182SOL    HW231446   5.548   2.458   0.408
10183SOL     OW31447   5.822   1.346   6.698
10183SOL    HW131448   5.888   1.407   6.654
10183SOL    HW231449   5.738   1.396   6.716
10184SOL     OW31450   5.708   2.265   5.779
10184SOL    HW131451   5.751   2.210   5.850
10184SOL    HW231452   5.625   2.220   5.747
10185SOL     OW31453   3.603   5.709   1.743
10185SOL    HW131454   3.638   5.647   1.812
10185SOL    HW231455   3.669   5.783   1.728
10186SOL     OW31456   3.390   3.638   5.807
10186SOL    HW131457   3.333   3.683   5.875
10186SOL    HW231458   3.354   3.658   5.715
10187SOL     OW31459   1.895   4.589   6.375
10187SOL    HW131460   1.832   4.571   6.299
10187SOL    HW231461   1.978   4.632   6.340
10188SOL     OW31462   3.352   0.686   6.416
10188SOL    HW131463   3.261   0.703   6.381
10188SOL    HW231464   3.351   0.690   6.516
10189SOL     OW31465   1.040   1.778   6.242
10189SOL    HW131466   1.032   1.710   6.315
10189SOL    HW231467   1.112   1.843   6.264
10190SOL     OW31468   3.898   5.640   1.909
10190SOL    HW131469   3.893   5.566   1.842
10190SOL    HW231470   3.992   5.671   1.918
10191SOL     OW31471   5.805   6.400   6.587
10191SOL    HW131472   5.746   6.426   6.510
10191SOL    HW231473   5.787   6.460   6.664
10192SOL     OW31474   1.913   1.848   4.398
10192SOL    HW131475   1.814   1.845   4.384
10192SOL    HW231476   1.942   1.943   4.404
10193SOL     OW31477   3.272   3.590   3.792
10193SOL    HW131478   3.338   3.520   3.818
10193SOL    HW231479   3.216   3.614   3.871
10194SOL     OW31480   2.870   0.401   3.473
10194SOL    HW131481   2.954   0.350   3.493
10194SOL    HW231482   2.892   0.498   3.460
10195SOL     OW31483   3.767   6.406   2.155
10195SOL    HW131484   3.703   6.335   2.127
10195SOL    HW231485   3.731   6.496   2.129
10196SOL     OW31486   5.995   2.119   3.550
10196SOL    HW131487   6.032   2.165   3.631
10196SOL    HW231488   5.912   2.165   3.519
10197SOL     OW31489   5.522   0.178   1.645
10197SOL    HW131490   5.553   0.137   1.731
10197SOL    HW231491   5.425   0.155   1.631
10198SOL     OW31492   2.760   6.931   0.893
10198SOL    HW131493   2.832   6.864   0.871
10198SOL    HW231494   2.802   7.010   0.937
10199SOL     OW31495   0.957   1.285   0.495
10199SOL    HW131496   0.922   1.367   0.449
10199SOL    HW231497   0.891   1.255   0.564
10200SOL     OW31498   5.073   4.078   4.355
10200SOL    HW131499   5.014   4.033   4.289
10200SOL    HW231500   5.020   4.103   4.436
10201SOL     OW31501   1.805   5.064   2.911
10201SOL    HW131502   1.884   5.049   2.969
10201SOL    HW231503   1.723   5.029   2.956
10202SOL     OW31504   0.986   3.453   2.366
10202SOL    HW131505   0.908   3.415   2.415
10202SOL    HW231506   0.954   3.506   2.288
10203SOL     OW31507   1.744   3.516   2.538
10203SOL    HW131508   1.664   3.535   2.595
10203SOL    HW231509   1.761   3.417   2.538
10204SOL     OW31510   2.953   4.845   5.171
10204SOL    HW131511   2.926   4.834   5.266
10204SOL    HW231512   2.930   4.761   5.120
10205SOL     OW31513   4.776   1.359   3.394
10205SOL    HW131514   4.853   1.321   3.341
10205SOL    HW231515   4.780   1.324   3.487
10206SOL     OW31516   5.359   6.806   6.865
10206SOL    HW131517   5.361   6.779   6.961
10206SOL    HW231518   5.365   6.725   6.807
10207SOL     OW31519   4.223   1.118   2.900
10207SOL    HW131520   4.262   1.140   2.811
10207SOL    HW231521   4.123   1.119   2.894
10208SOL     OW31522   5.555   4.125   4.899
10208SOL    HW131523   5.504   4.111   4.984
10208SOL    HW231524   5.643   4.077   4.904
10209SOL     OW31525   5.938   0.436   6.654
10209SOL    HW131526   6.013   0.422   6.719
10209SOL    HW231527   5.859   0.380   6.681
10210SOL     OW31528   4.921   5.631   1.943
10210SOL    HW131529   4.830   5.610   1.909
10210SOL    HW231530   4.989   5.601   1.876
10211SOL     OW31531   4.408   5.416   5.472
10211SOL    HW131532   4.352   5.483   5.423
10211SOL    HW231533   4.356   5.332   5.487
10212SOL     OW31534   0.198   0.393   5.297
10212SOL    HW131535   0.168   0.480   5.338
10212SOL    HW231536   0.120   0.330   5.294
10213SOL     OW31537   6.355   1.035   2.755
10213SOL    HW131538   6.420   1.069   2.823
10213SOL    HW231539   6.297   0.965   2.795
10214SOL     OW31540   0.085   0.760   1.741
10214SOL    HW131541   0.182   0.737   1.738
10214SOL    HW231542   0.036   0.708   1.670
10215SOL     OW31543   4.077   4.181   6.937
10215SOL    HW131544   4.099   4.085   6.953
10215SOL    HW231545   4.009   4.211   7.003
10216SOL     OW31546   5.229   6.888   1.481
10216SOL    HW131547   5.273   6.965   1.527
10216SOL    HW231548   5.131   6.906   1.472
10217SOL     OW31549   2.463   1.995   4.955
10217SOL    HW131550   2.496   1.984   5.049
10217SOL    HW231551   2.521   1.942   4.893
10218SOL     OW31552   2.589   1.640   0.583
10218SOL    HW131553   2.646   1.637   0.501
10218SOL    HW231554   2.522   1.714   0.575
10219SOL     OW31555   0.899   3.311   0.675
10219SOL    HW131556   0.873   3.407   0.664
10219SOL    HW231557   0.981   3.306   0.732
10220SOL     OW31558   4.299   1.996   1.006
10220SOL    HW131559   4.392   1.969   1.028
10220SOL    HW231560   4.243   1.996   1.089
10221SOL     OW31561   3.138   0.199   5.208
10221SOL    HW131562   3.179   0.288   5.227
10221SOL    HW231563   3.094   0.201   5.118
10222SOL     OW31564   1.859   5.437   5.678
10222SOL    HW131565   1.852   5.398   5.586
10222SOL    HW231566   1.792   5.393   5.738
10223SOL     OW31567   0.075   4.465   0.683
10223SOL    HW131568   0.124   4.377   0.677
10223SOL    HW231569   0.034   4.486   0.594
10224SOL     OW31570   1.261   0.174   3.968
10224SOL    HW131571   1.241   0.164   4.066
10224SOL    HW231572   1.180   0.151   3.915
10225SOL     OW31573   6.467   5.940   4.186
10225SOL    HW131574   6.411   5.871   4.140
10225SOL    HW231575   6.526   5.896   4.254
10226SOL     OW31576   1.492   1.256   0.530
10226SOL    HW131577   1.499   1.354   0.548
10226SOL    HW231578   1.398   1.232   0.506
10227SOL     OW31579   5.326   4.721   6.610
10227SOL    HW131580   5.277   4.734   6.696
10227SOL    HW231581   5.349   4.624   6.600
10228SOL     OW31582   0.730   5.580   2.909
10228SOL    HW131583   0.804   5.534   2.959
10228SOL    HW231584   0.721   5.539   2.818
10229SOL     OW31585   1.232   0.225   2.813
10229SOL    HW131586   1.325   0.240   2.781
10229SOL    HW231587   1.174   0.198   2.736
10230SOL     OW31588   6.487   0.754   3.349
10230SOL    HW131589   6.583   0.766   3.374
10230SOL    HW231590   6.480   0.682   3.280
10231SOL     OW31591   5.185   7.010   4.848
10231SOL    HW131592   5.269   6.972   4.809
10231SOL    HW231593   5.153   6.951   4.922
10232SOL     OW31594   3.305   2.039   4.905
10232SOL    HW131595   3.345   2.085   4.826
10232SOL    HW231596   3.233   2.096   4.944
10233SOL     OW31597   4.827   1.408   5.727
10233SOL    HW131598   4.863   1.498   5.752
10233SOL    HW231599   4.729   1.404   5.748
10234SOL     OW31600   4.835   6.247   1.591
10234SOL    HW131601   4.750   6.252   1.538
10234SOL    HW231602   4.834   6.164   1.647
10235SOL     OW31603   5.874   1.077   6.729
10235SOL    HW131604   5.877   1.061   6.828
10235SOL    HW231605   5.841   1.170   6.711
10236SOL     OW31606   2.329   5.544   2.206
10236SOL    HW131607   2.371   5.529   2.295
10236SOL    HW231608   2.377   5.491   2.136
10237SOL     OW31609   6.005   3.076   2.599
10237SOL    HW131610   5.920   3.050   2.554
10237SOL    HW231611   6.080   3.073   2.532
10238SOL     OW31612   4.852   4.678   4.662
10238SOL    HW131613   4.818   4.599   4.712
10238SOL    HW231614   4.821   4.673   4.567
10239SOL     OW31615   0.012   4.121   4.304
10239SOL    HW131616   0.094   4.109   4.359
10239SOL    HW231617   0.007   4.216   4.273
10240SOL     OW31618   6.921   4.004   4.070
10240SOL    HW131619   6.832   4.012   4.116
10240SOL    HW231620   6.994   4.016   4.137
10241SOL     OW31621   2.072   0.893   2.251
10241SOL    HW131622   2.158   0.843   2.251
10241SOL    HW231623   2.087   0.985   2.288
10242SOL     OW31624   6.978   6.988   5.995
10242SOL    HW131625   6.955   6.920   6.064
10242SOL    HW231626   6.922   6.972   5.913
10243SOL     OW31627   1.425   5.735   1.539
10243SOL    HW131628   1.393   5.673   1.468
10243SOL    HW231629   1.484   5.686   1.603
10244SOL     OW31630   1.963   6.140   0.294
10244SOL    HW131631   1.871   6.120   0.259
10244SOL    HW231632   2.017   6.185   0.223
10245SOL     OW31633   2.497   2.455   0.079
10245SOL    HW131634   2.586   2.440   0.037
10245SOL    HW231635   2.429   2.395   0.037
10246SOL     OW31636   3.324   4.009   4.439
10246SOL    HW131637   3.414   4.038   4.469
10246SOL    HW231638   3.255   4.038   4.505
10247SOL     OW31639   0.704   4.321   5.256
10247SOL    HW131640   0.755   4.345   5.338
10247SOL    HW231641   0.635   4.252   5.277
10248SOL     OW31642   3.589   0.217   1.951
10248SOL    HW131643   3.511   0.195   1.893
10248SOL    HW231644   3.673   0.183   1.909
10249SOL     OW31645   5.265   1.204   5.872
10249SOL    HW131646   5.337   1.245   5.927
10249SOL    HW231647   5.178   1.252   5.889
10250SOL     OW31648   6.440   0.381   7.007
10250SOL    HW131649   6.385   0.411   6.928
10250SOL    HW231650   6.491   0.458   0.025
10251SOL     OW31651   2.655   3.749   6.909
10251SOL    HW131652   2.567   3.725   6.949
10251SOL    HW231653   2.712   3.667   6.904
10252SOL     OW31654   6.633   4.938   2.091
10252SOL    HW131655   6.563   4.989   2.142
10252SOL    HW231656   6.724   4.965   2.123
10253SOL     OW31657   3.843   5.544   6.957
10253SOL    HW131658   3.771   5.542   6.888
10253SOL    HW231659   3.839   5.461   7.013
10254SOL     OW31660   2.079   2.441   5.059
10254SOL    HW131661   2.110   2.516   5.118
10254SOL    HW231662   2.157   2.403   5.009
10255SOL     OW31663   3.196   6.057   2.507
10255SOL    HW131664   3.181   6.139   2.452
10255SOL    HW231665   3.131   6.057   2.583
10256SOL     OW31666   6.124   6.950   6.661
10256SOL    HW131667   6.131   0.018   6.612
10256SOL    HW231668   6.029   6.935   6.689
10257SOL     OW31669   1.069   5.943   5.745
10257SOL    HW131670   0.976   5.944   5.710
10257SOL    HW231671   1.113   6.031   5.727
10258SOL     OW31672   4.066   0.086   3.138
10258SOL    HW131673   4.001   0.150   3.095
10258SOL    HW231674   4.149   0.135   3.163
10259SOL     OW31675   6.963   4.053   3.336
10259SOL    HW131676   6.980   4.120   3.408
10259SOL    HW231677   6.868   4.058   3.307
10260SOL     OW31678   1.240   7.010   1.990
10260SOL    HW131679   1.274   6.959   2.069
10260SOL    HW231680   1.197   0.076   2.021
10261SOL     OW31681   1.016   5.599   2.591
10261SOL    HW131682   1.101   5.588   2.538
10261SOL    HW231683   1.038   5.641   2.679
10262SOL     OW31684   1.689   4.445   4.942
10262SOL    HW131685   1.615   4.470   5.005
10262SOL    HW231686   1.777   4.464   4.986
10263SOL     OW31687   6.228   1.602   5.637
10263SOL    HW131688   6.159   1.666   5.671
10263SOL    HW231689   6.231   1.522   5.696
10264SOL     OW31690   0.104   0.698   5.830
10264SOL    HW131691   0.169   0.633   5.870
10264SOL    HW231692   0.078   0.766   5.898
10265SOL     OW31693   3.801   1.438   2.198
10265SOL    HW131694   3.844   1.520   2.161
10265SOL    HW231695   3.730   1.464   2.264
10266SOL     OW31696   3.068   4.283   6.317
10266SOL    HW131697   3.006   4.361   6.320
10266SOL    HW231698   3.161   4.314   6.338
10267SOL     OW31699   6.962   2.278   6.162
10267SOL    HW131700   6.972   2.349   6.232
10267SOL    HW231701   0.016   2.287   6.094
10268SOL     OW31702   5.677   5.769   1.654
10268SOL    HW131703   5.613   5.781   1.578
10268SOL    HW231704   5.761   5.820   1.636
10269SOL     OW31705   2.501   2.410   6.341
10269SOL    HW131706   2.555   2.349   6.399
10269SOL    HW231707   2.404   2.403   6.367
10270SOL     OW31708   1.608   5.749   0.565
10270SOL    HW131709   1.510   5.750   0.586
10270SOL    HW231710   1.659   5.736   0.650
10271SOL     OW31711   4.710   4.483   1.534
10271SOL    HW131712   4.682   4.432   1.453
10271SOL    HW231713   4.650   4.561   1.548
10272SOL     OW31714   0.980   1.076   5.970
10272SOL    HW131715   1.030   1.163   5.969
10272SOL    HW231716   0.899   1.085   6.027
10273SOL     OW31717   3.901   5.520   4.883
10273SOL    HW131718   3.991   5.494   4.918
10273SOL    HW231719   3.830   5.473   4.935
10274SOL     OW31720   0.858   5.139   5.788
10274SOL    HW131721   0.834   5.190   5.870
10274SOL    HW231722   0.919   5.194   5.731
10275SOL     OW31723   1.121   6.739   2.821
10275SOL    HW131724   1.205   6.779   2.857
10275SOL    HW231725   1.049   6.744   2.891
10276SOL     OW31726   6.085   5.576   5.769
10276SOL    HW131727   6.149   5.504   5.742
10276SOL    HW231728   6.125   5.665   5.753
10277SOL     OW31729   2.587   6.613   4.595
10277SOL    HW131730   2.628   6.600   4.685
10277SOL    HW231731   2.579   6.525   4.549
10278SOL     OW31732   6.389   0.542   5.934
10278SOL    HW131733   6.358   0.622   5.987
10278SOL    HW231734   6.318   0.517   5.868
10279SOL     OW31735   3.506   6.783   4.124
10279SOL    HW131736   3.527   6.721   4.047
10279SOL    HW231737   3.425   6.836   4.102
10280SOL     OW31738   1.519   4.358   0.094
10280SOL    HW131739   1.499   4.355   0.192
10280SOL    HW231740   1.576   4.279   0.069
10281SOL     OW31741   4.484   0.699   3.760
10281SOL    HW131742   4.407   0.701   3.697
10281SOL    HW231743   4.479   0.616   3.816
10282SOL     OW31744   1.143   1.860   4.433
10282SOL    HW131745   1.219   1.814   4.479
10282SOL    HW231746   1.164   1.871   4.336
10283SOL     OW31747   1.173   3.838   0.411
10283SOL    HW131748   1.265   3.813   0.442
10283SOL    HW231749   1.128   3.756   0.376
10284SOL     OW31750   5.851   2.980   5.349
10284SOL    HW131751   5.886   2.897   5.393
10284SOL    HW231752   5.754   2.967   5.327
10285SOL     OW31753   6.009   0.003   0.842
10285SOL    HW131754   5.912   7.008   0.819
10285SOL    HW231755   6.049   6.932   0.866
10286SOL     OW31756   4.063   0.409   3.463
10286SOL    HW131757   3.991   0.362   3.412
10286SOL    HW231758   4.144   0.351   3.469
10287SOL     OW31759   1.772   6.547   1.788
10287SOL    HW131760   1.698   6.491   1.825
10287SOL    HW231761   1.733   6.624   1.737
10288SOL     OW31762   5.855   6.191   3.755
10288SOL    HW131763   5.761   6.195   3.720
10288SOL    HW231764   5.889   6.285   3.768
10289SOL     OW31765   3.499   1.174   1.788
10289SOL    HW131766   3.412   1.212   1.758
10289SOL    HW231767   3.573   1.237   1.764
10290SOL     OW31768   4.138   3.544   2.733
10290SOL    HW131769   4.154   3.595   2.818
10290SOL    HW231770   4.166   3.449   2.744
10291SOL     OW31771   3.240   0.727   5.339
10291SOL    HW131772   3.288   0.770   5.263
10291SOL    HW231773   3.147   0.764   5.345
10292SOL     OW31774   0.634   1.074   4.631
10292SOL    HW131775   0.645   1.169   4.659
10292SOL    HW231776   0.691   1.056   4.551
10293SOL     OW31777   2.303   5.965   3.506
10293SOL    HW131778   2.351   6.026   3.443
10293SOL    HW231779   2.206   5.960   3.479
10294SOL     OW31780   5.655   1.294   3.512
10294SOL    HW131781   5.731   1.314   3.451
10294SOL    HW231782   5.570   1.328   3.471
10295SOL     OW31783   0.388   5.785   6.363
10295SOL    HW131784   0.320   5.853   6.332
10295SOL    HW231785   0.453   5.767   6.289
10296SOL     OW31786   6.907   3.068   0.642
10296SOL    HW131787   6.929   3.166   0.641
10296SOL    HW231788   6.816   3.054   0.602
10297SOL     OW31789   1.478   5.281   5.094
10297SOL    HW131790   1.393   5.255   5.139
10297SOL    HW231791   1.519   5.201   5.051
10298SOL     OW31792   4.983   3.431   3.694
10298SOL    HW131793   4.946   3.362   3.632
10298SOL    HW231794   5.071   3.400   3.730
10299SOL     OW31795   5.056   4.214   3.202
10299SOL    HW131796   4.971   4.169   3.177
10299SOL    HW231797   5.123   4.202   3.129
10300SOL     OW31798   1.160   4.649   2.855
10300SOL    HW131799   1.073   4.682   2.819
10300SOL    HW231800   1.191   4.712   2.927
10301SOL     OW31801   5.248   1.407   1.366
10301SOL    HW131802   5.267   1.329   1.426
10301SOL    HW231803   5.229   1.488   1.421
10302SOL     OW31804   1.481   6.039   3.273
10302SOL    HW131805   1.563   6.094   3.256
10302SOL    HW231806   1.471   5.971   3.201
10303SOL     OW31807   3.747   3.873   1.632
10303SOL    HW131808   3.839   3.847   1.603
10303SOL    HW231809   3.746   3.971   1.655
10304SOL     OW31810   6.947   6.775   2.550
10304SOL    HW131811   7.008   6.751   2.474
10304SOL    HW231812   6.863   6.817   2.513
10305SOL     OW31813   1.241   5.392   1.080
10305SOL    HW131814   1.260   5.348   1.168
10305SOL    HW231815   1.143   5.413   1.074
10306SOL     OW31816   4.580   6.441   0.359
10306SOL    HW131817   4.624   6.517   0.407
10306SOL    HW231818   4.627   6.356   0.383
10307SOL     OW31819   1.754   1.517   5.763
10307SOL    HW131820   1.830   1.498   5.825
10307SOL    HW231821   1.670   1.531   5.816
10308SOL     OW31822   3.285   5.928   3.156
10308SOL    HW131823   3.299   5.879   3.242
10308SOL    HW231824   3.264   6.024   3.175
10309SOL     OW31825   0.012   6.283   3.114
10309SOL    HW131826   6.961   6.326   3.057
10309SOL    HW231827   0.097   6.335   3.109
10310SOL     OW31828   3.421   4.067   3.185
10310SOL    HW131829   3.360   4.019   3.121
10310SOL    HW231830   3.510   4.080   3.143
10311SOL     OW31831   6.766   5.556   0.317
10311SOL    HW131832   6.744   5.647   0.281
10311SOL    HW231833   6.683   5.502   0.324
10312SOL     OW31834   2.414   4.509   0.664
10312SOL    HW131835   2.321   4.493   0.695
10312SOL    HW231836   2.470   4.541   0.741
10313SOL     OW31837   5.171   0.070   2.848
10313SOL    HW131838   5.241   0.018   2.800
10313SOL    HW231839   5.141   0.020   2.929
10314SOL     OW31840   6.725   6.055   1.093
10314SOL    HW131841   6.772   6.058   1.005
10314SOL    HW231842   6.781   6.004   1.159
10315SOL     OW31843   6.514   4.991   4.623
10315SOL    HW131844   6.433   5.049   4.633
10315SOL    HW231845   6.547   4.996   4.529
10316SOL     OW31846   0.197   4.269   3.780
10316SOL    HW131847   0.102   4.267   3.747
10316SOL    HW231848   0.229   4.364   3.781
10317SOL     OW31849   3.861   5.067   0.668
10317SOL    HW131850   3.906   5.147   0.708
10317SOL    HW231851   3.918   5.031   0.593
10318SOL     OW31852   5.757   5.081   2.294
10318SOL    HW131853   5.658   5.092   2.303
10318SOL    HW231854   5.777   4.994   2.250
10319SOL     OW31855   5.844   6.192   3.083
10319SOL    HW131856   5.753   6.154   3.102
10319SOL    HW231857   5.839   6.292   3.085
10320SOL     OW31858   0.012   6.391   1.323
10320SOL    HW131859   6.944   6.356   1.360
10320SOL    HW231860   0.067   6.314   1.290
10321SOL     OW31861   4.200   5.418   3.907
10321SOL    HW131862   4.273   5.420   3.976
10321SOL    HW231863   4.160   5.326   3.903
10322SOL     OW31864   6.246   3.523   0.368
10322SOL    HW131865   6.239   3.424   0.385
10322SOL    HW231866   6.228   3.573   0.452
10323SOL     OW31867   5.164   2.706   5.564
10323SOL    HW131868   5.146   2.798   5.527
10323SOL    HW231869   5.256   2.677   5.536
10324SOL     OW31870   3.019   3.095   3.500
10324SOL    HW131871   3.020   3.177   3.557
10324SOL    HW231872   2.938   3.095   3.441
10325SOL     OW31873   0.619   3.047   2.906
10325SOL    HW131874   0.626   2.998   2.993
10325SOL    HW231875   0.523   3.053   2.879
10326SOL     OW31876   5.660   1.935   0.713
10326SOL    HW131877   5.589   1.968   0.651
10326SOL    HW231878   5.713   2.013   0.747
10327SOL     OW31879   0.390   0.866   3.118
10327SOL    HW131880   0.398   0.768   3.102
10327SOL    HW231881   0.348   0.882   3.207
10328SOL     OW31882   5.952   2.434   1.762
10328SOL    HW131883   6.020   2.447   1.833
10328SOL    HW231884   5.978   2.357   1.704
10329SOL     OW31885   3.145   6.800   2.809
10329SOL    HW131886   3.077   6.865   2.846
10329SOL    HW231887   3.116   6.707   2.831
10330SOL     OW31888   3.691   5.208   1.572
10330SOL    HW131889   3.635   5.133   1.537
10330SOL    HW231890   3.633   5.286   1.594
10331SOL     OW31891   6.124   0.712   3.359
10331SOL    HW131892   6.167   0.791   3.316
10331SOL    HW231893   6.173   0.629   3.331
10332SOL     OW31894   6.840   2.696   5.932
10332SOL    HW131895   6.872   2.659   6.019
10332SOL    HW231896   6.916   2.699   5.866
10333SOL     OW31897   5.021   4.790   4.375
10333SOL    HW131898   5.091   4.744   4.431
10333SOL    HW231899   5.055   4.880   4.347
10334SOL     OW31900   1.785   4.785   4.330
10334SOL    HW131901   1.826   4.872   4.300
10334SOL    HW231902   1.741   4.741   4.252
10335SOL     OW31903   1.956   5.316   1.592
10335SOL    HW131904   2.011   5.321   1.675
10335SOL    HW231905   2.015   5.300   1.513
10336SOL     OW31906   3.816   6.683   2.624
10336SOL    HW131907   3.756   6.753   2.585
10336SOL    HW231908   3.889   6.662   2.559
10337SOL     OW31909   0.881   4.823   5.009
10337SOL    HW131910   0.848   4.746   5.065
10337SOL    HW231911   0.897   4.902   5.069
10338SOL     OW31912   2.784   6.025   2.838
10338SOL    HW131913   2.838   5.961   2.892
10338SOL    HW231914   2.845   6.091   2.794
10339SOL     OW31915   2.905   5.890   1.577
10339SOL    HW131916   2.811   5.895   1.609
10339SOL    HW231917   2.915   5.813   1.514
10340SOL     OW31918   2.221   0.160   0.569
10340SOL    HW131919   2.162   0.079   0.563
10340SOL    HW231920   2.212   0.201   0.660
10341SOL     OW31921   2.284   1.481   2.393
10341SOL    HW131922   2.244   1.396   2.360
10341SOL    HW231923   2.225   1.521   2.462
10342SOL     OW31924   2.283   6.670   4.885
10342SOL    HW131925   2.241   6.680   4.976
10342SOL    HW231926   2.376   6.706   4.887
10343SOL     OW31927   2.163   3.352   5.099
10343SOL    HW131928   2.167   3.450   5.115
10343SOL    HW231929   2.117   3.334   5.012
10344SOL     OW31930   3.607   4.962   5.301
10344SOL    HW131931   3.635   4.892   5.367
10344SOL    HW231932   3.684   5.023   5.283
10345SOL     OW31933   2.176   1.235   6.234
10345SOL    HW131934   2.120   1.218   6.315
10345SOL    HW231935   2.138   1.185   6.157
10346SOL     OW31936   5.333   5.777   0.096
10346SOL    HW131937   5.288   5.809   0.013
10346SOL    HW231938   5.288   5.816   0.176
10347SOL     OW31939   5.691   1.433   1.818
10347SOL    HW131940   5.691   1.467   1.724
10347SOL    HW231941   5.727   1.340   1.819
10348SOL     OW31942   0.648   6.169   5.446
10348SOL    HW131943   0.623   6.255   5.491
10348SOL    HW231944   0.635   6.178   5.348
10349SOL     OW31945   6.952   1.680   0.718
10349SOL    HW131946   6.885   1.728   0.775
10349SOL    HW231947   6.947   1.582   0.736
10350SOL     OW31948   2.221   5.078   4.837
10350SOL    HW131949   2.278   5.069   4.919
10350SOL    HW231950   2.249   5.159   4.785
10351SOL     OW31951   5.057   4.377   4.885
10351SOL    HW131952   5.063   4.283   4.918
10351SOL    HW231953   5.003   4.379   4.800
10352SOL     OW31954   5.739   2.090   0.294
10352SOL    HW131955   5.701   2.135   0.375
10352SOL    HW231956   5.686   2.008   0.274
10353SOL     OW31957   6.669   2.737   3.790
10353SOL    HW131958   6.637   2.665   3.728
10353SOL    HW231959   6.735   2.795   3.742
10354SOL     OW31960   0.518   3.455   0.722
10354SOL    HW131961   0.509   3.445   0.623
10354SOL    HW231962   0.604   3.502   0.743
10355SOL     OW31963   1.372   1.594   0.926
10355SOL    HW131964   1.345   1.499   0.910
10355SOL    HW231965   1.341   1.651   0.850
10356SOL     OW31966   6.280   3.616   6.406
10356SOL    HW131967   6.343   3.539   6.391
10356SOL    HW231968   6.322   3.700   6.375
10357SOL     OW31969   1.113   2.683   6.034
10357SOL    HW131970   1.032   2.663   5.978
10357SOL    HW231971   1.132   2.781   6.031
10358SOL     OW31972   0.697   2.585   2.377
10358SOL    HW131973   0.644   2.544   2.451
10358SOL    HW231974   0.785   2.538   2.369
10359SOL     OW31975   6.067   1.772   2.502
10359SOL    HW131976   6.048   1.683   2.459
10359SOL    HW231977   6.010   1.782   2.583
10360SOL     OW31978   6.057   3.876   1.747
10360SOL    HW131979   6.123   3.912   1.813
10360SOL    HW231980   6.000   3.807   1.792
10361SOL     OW31981   0.820   1.542   1.634
10361SOL    HW131982   0.750   1.490   1.585
10361SOL    HW231983   0.910   1.502   1.616
10362SOL     OW31984   1.394   5.195   1.890
10362SOL    HW131985   1.333   5.178   1.967
10362SOL    HW231986   1.366   5.279   1.842
10363SOL     OW31987   4.776   4.718   0.019
10363SOL    HW131988   4.831   4.732   0.101
10363SOL    HW231989   4.813   4.774   6.963
10364SOL     OW31990   6.237   4.213   2.556
10364SOL    HW131991   6.253   4.121   2.520
10364SOL    HW231992   6.267   4.281   2.488
10365SOL     OW31993   6.331   6.048   0.588
10365SOL    HW131994   6.242   6.041   0.634
10365SOL    HW231995   6.374   5.958   0.584
10366SOL     OW31996   2.622   6.081   3.481
10366SOL    HW131997   2.570   6.070   3.396
10366SOL    HW231998   2.568   6.137   3.545
10367SOL     OW31999   5.688   1.640   1.265
10367SOL    HW132000   5.668   1.738   1.259
10367SOL    HW232001   5.603   1.588   1.253
10368SOL     OW32002   1.827   5.912   2.356
10368SOL    HW132003   1.757   5.891   2.424
10368SOL    HW232004   1.834   6.011   2.345
10369SOL     OW32005   3.438   0.227   6.136
10369SOL    HW132006   3.477   0.213   6.045
10369SOL    HW232007   3.491   0.175   6.204
10370SOL     OW32008   1.269   1.008   5.403
10370SOL    HW132009   1.203   0.933   5.411
10370SOL    HW232010   1.230   1.091   5.443
10371SOL     OW32011   3.525   5.608   2.713
10371SOL    HW132012   3.446   5.616   2.774
10371SOL    HW232013   3.605   5.647   2.758
10372SOL     OW32014   3.036   6.640   1.807
10372SOL    HW132015   3.024   6.544   1.779
10372SOL    HW232016   3.132   6.666   1.794
10373SOL     OW32017   0.549   1.993   5.449
10373SOL    HW132018   0.597   1.999   5.361
10373SOL    HW232019   0.596   2.051   5.516
10374SOL     OW32020   3.450   6.054   4.777
10374SOL    HW132021   3.546   6.043   4.804
10374SOL    HW232022   3.395   5.982   4.821
10375SOL     OW32023   2.382   3.763   0.268
10375SOL    HW132024   2.366   3.690   0.201
10375SOL    HW232025   2.414   3.723   0.354
10376SOL     OW32026   1.889   4.756   3.080
10376SOL    HW132027   1.940   4.840   3.100
10376SOL    HW232028   1.935   4.705   3.008
10377SOL     OW32029   1.214   0.818   2.985
10377SOL    HW132030   1.216   0.779   3.077
10377SOL    HW232031   1.298   0.870   2.968
10378SOL     OW32032   0.174   4.514   4.042
10378SOL    HW132033   0.109   4.485   4.113
10378SOL    HW232034   0.171   4.613   4.034
10379SOL     OW32035   1.734   6.262   4.718
10379SOL    HW132036   1.745   6.191   4.649
10379SOL    HW232037   1.636   6.276   4.735
10380SOL     OW32038   2.263   2.958   4.569
10380SOL    HW132039   2.321   2.877   4.570
10380SOL    HW232040   2.224   2.970   4.478
10381SOL     OW32041   4.566   4.692   2.323
10381SOL    HW132042   4.591   4.781   2.285
10381SOL    HW232043   4.597   4.620   2.262
10382SOL     OW32044   3.336   5.607   1.733
10382SOL    HW132045   3.424   5.651   1.750
10382SOL    HW232046   3.325   5.530   1.796
10383SOL     OW32047   2.154   4.421   0.711
10383SOL    HW132048   2.068   4.418   0.659
10383SOL    HW232049   2.199   4.332   0.705
10384SOL     OW32050   6.036   6.380   1.534
10384SOL    HW132051   5.959   6.411   1.477
10384SOL    HW232052   6.094   6.318   1.482
10385SOL     OW32053   4.311   4.755   6.701
10385SOL    HW132054   4.336   4.688   6.771
10385SOL    HW232055   4.220   4.733   6.664
10386SOL     OW32056   6.917   1.130   0.368
10386SOL    HW132057   6.839   1.083   0.325
10386SOL    HW232058   6.928   1.220   0.327
10387SOL     OW32059   4.863   2.893   2.185
10387SOL    HW132060   4.802   2.958   2.140
10387SOL    HW232061   4.846   2.801   2.150
10388SOL     OW32062   2.940   0.628   5.943
10388SOL    HW132063   3.030   0.673   5.948
10388SOL    HW232064   2.878   0.671   6.008
10389SOL     OW32065   0.949   3.090   0.943
10389SOL    HW132066   1.037   3.130   0.968
10389SOL    HW232067   0.909   3.044   1.023
10390SOL     OW32068   3.081   2.352   1.315
10390SOL    HW132069   3.055   2.355   1.219
10390SOL    HW232070   3.025   2.285   1.363
10391SOL     OW32071   5.685   6.511   4.247
10391SOL    HW132072   5.741   6.557   4.178
10391SOL    HW232073   5.712   6.415   4.252
10392SOL     OW32074   6.729   4.939   3.881
10392SOL    HW132075   6.638   4.920   3.919
10392SOL    HW232076   6.790   4.971   3.954
10393SOL     OW32077   1.683   4.301   3.778
10393SOL    HW132078   1.737   4.269   3.856
10393SOL    HW232079   1.648   4.393   3.798
10394SOL     OW32080   2.807   5.858   4.230
10394SOL    HW132081   2.902   5.843   4.258
10394SOL    HW232082   2.751   5.782   4.262
10395SOL     OW32083   0.240   6.853   0.464
10395SOL    HW132084   0.163   6.914   0.444
10395SOL    HW232085   0.216   6.760   0.440
10396SOL     OW32086   2.696   1.721   4.527
10396SOL    HW132087   2.670   1.694   4.435
10396SOL    HW232088   2.774   1.666   4.558
10397SOL     OW32089   3.055   2.178   2.714
10397SOL    HW132090   3.124   2.232   2.665
10397SOL    HW232091   2.972   2.173   2.660
10398SOL     OW32092   0.214   3.110   2.002
10398SOL    HW132093   0.212   3.012   2.025
10398SOL    HW232094   0.176   3.124   1.911
10399SOL     OW32095   6.534   3.191   1.954
10399SOL    HW132096   6.528   3.175   2.053
10399SOL    HW232097   6.629   3.206   1.929
10400SOL     OW32098   4.093   6.716   0.327
10400SOL    HW132099   4.103   6.617   0.338
10400SOL    HW232100   4.044   6.735   0.242
10401SOL     OW32101   6.504   0.828   4.265
10401SOL    HW132102   6.534   0.781   4.348
10401SOL    HW232103   6.502   0.926   4.281
10402SOL     OW32104   6.680   2.551   4.511
10402SOL    HW132105   6.660   2.462   4.469
10402SOL    HW232106   6.601   2.611   4.502
10403SOL     OW32107   2.784   0.806   3.710
10403SOL    HW132108   2.816   0.733   3.649
10403SOL    HW232109   2.693   0.783   3.745
10404SOL     OW32110   0.170   0.114   5.894
10404SOL    HW132111   0.087   0.064   5.918
10404SOL    HW232112   0.145   0.206   5.864
10405SOL     OW32113   0.791   1.520   5.648
10405SOL    HW132114   0.843   1.603   5.668
10405SOL    HW232115   0.693   1.538   5.659
10406SOL     OW32116   3.003   4.958   1.647
10406SOL    HW132117   3.040   4.985   1.736
10406SOL    HW232118   2.916   4.911   1.660
10407SOL     OW32119   3.331   6.443   6.442
10407SOL    HW132120   3.336   6.485   6.533
10407SOL    HW232121   3.385   6.359   6.441
10408SOL     OW32122   5.015   1.078   0.405
10408SOL    HW132123   5.077   1.021   0.351
10408SOL    HW232124   5.046   1.080   0.500
10409SOL     OW32125   6.658   5.094   0.467
10409SOL    HW132126   6.564   5.122   0.448
10409SOL    HW232127   6.707   5.080   0.382
10410SOL     OW32128   5.545   1.884   0.257
10410SOL    HW132129   5.495   1.846   0.180
10410SOL    HW232130   5.500   1.859   0.342
10411SOL     OW32131   2.761   5.434   3.048
10411SOL    HW132132   2.749   5.489   3.131
10411SOL    HW232133   2.775   5.338   3.073
10412SOL     OW32134   6.324   1.054   0.399
10412SOL    HW132135   6.373   1.003   0.469
10412SOL    HW232136   6.378   1.053   0.314
10413SOL     OW32137   0.301   1.898   1.160
10413SOL    HW132138   0.363   1.972   1.132
10413SOL    HW232139   0.267   1.851   1.079
10414SOL     OW32140   4.894   3.513   5.606
10414SOL    HW132141   4.820   3.490   5.670
10414SOL    HW232142   4.940   3.596   5.636
10415SOL     OW32143   0.492   5.654   6.153
10415SOL    HW132144   0.435   5.729   6.122
10415SOL    HW232145   0.511   5.593   6.075
10416SOL     OW32146   5.961   2.326   4.068
10416SOL    HW132147   6.004   2.357   4.152
10416SOL    HW232148   5.868   2.293   4.088
10417SOL     OW32149   3.342   5.056   4.580
10417SOL    HW132150   3.277   5.075   4.507
10417SOL    HW232151   3.315   4.973   4.629
10418SOL     OW32152   0.103   4.646   5.734
10418SOL    HW132153   0.090   4.614   5.828
10418SOL    HW232154   0.022   4.695   5.703
10419SOL     OW32155   1.159   0.499   6.761
10419SOL    HW132156   1.185   0.579   6.815
10419SOL    HW232157   1.201   0.417   6.800
10420SOL     OW32158   0.358   3.260   2.528
10420SOL    HW132159   0.296   3.331   2.493
10420SOL    HW232160   0.379   3.196   2.454
10421SOL     OW32161   1.653   1.073   3.222
10421SOL    HW132162   1.554   1.082   3.229
10421SOL    HW232163   1.692   1.158   3.185
10422SOL     OW32164   6.621   2.231   5.324
10422SOL    HW132165   6.703   2.273   5.362
10422SOL    HW232166   6.643   2.140   5.289
10423SOL     OW32167   4.742   4.804   4.435
10423SOL    HW132168   4.697   4.786   4.348
10423SOL    HW232169   4.842   4.799   4.423
10424SOL     OW32170   5.192   1.830   6.883
10424SOL    HW132171   5.109   1.885   6.870
10424SOL    HW232172   5.271   1.890   6.892
10425SOL     OW32173   1.501   0.294   2.730
10425SOL    HW132174   1.582   0.348   2.708
10425SOL    HW232175   1.522   0.197   2.717
10426SOL     OW32176   6.833   4.012   0.815
10426SOL    HW132177   6.820   4.035   0.718
10426SOL    HW232178   6.757   3.954   0.846
10427SOL     OW32179   4.487   1.832   0.125
10427SOL    HW132180   4.563   1.801   0.181
10427SOL    HW232181   4.420   1.880   0.182
10428SOL     OW32182   3.790   0.811   4.588
10428SOL    HW132183   3.874   0.862   4.573
10428SOL    HW232184   3.714   0.874   4.605
10429SOL     OW32185   6.919   5.394   1.461
10429SOL    HW132186   6.840   5.359   1.411
10429SOL    HW232187   6.941   5.331   1.536
10430SOL     OW32188   4.601   0.486   3.119
10430SOL    HW132189   4.694   0.458   3.095
10430SOL    HW232190   4.556   0.521   3.037
10431SOL     OW32191   3.167   0.117   5.685
10431SOL    HW132192   3.074   0.134   5.716
10431SOL    HW232193   3.167   0.060   5.604
10432SOL     OW32194   6.176   0.877   3.741
10432SOL    HW132195   6.180   0.971   3.707
10432SOL    HW232196   6.252   0.825   3.702
10433SOL     OW32197   2.039   6.592   1.768
10433SOL    HW132198   2.087   6.595   1.856
10433SOL    HW232199   1.942   6.573   1.784
10434SOL     OW32200   3.381   0.217   3.534
10434SOL    HW132201   3.428   0.226   3.446
10434SOL    HW232202   3.367   0.120   3.555
10435SOL     OW32203   6.304   6.824   5.083
10435SOL    HW132204   6.382   6.887   5.077
10435SOL    HW232205   6.317   6.762   5.160
10436SOL     OW32206   0.758   5.048   4.659
10436SOL    HW132207   0.804   5.036   4.571
10436SOL    HW232208   0.809   5.001   4.731
10437SOL     OW32209   6.291   5.023   5.549
10437SOL    HW132210   6.306   4.981   5.638
10437SOL    HW232211   6.272   4.951   5.481
10438SOL     OW32212   5.363   6.402   0.105
10438SOL    HW132213   5.300   6.476   0.126
10438SOL    HW232214   5.320   6.314   0.129
10439SOL     OW32215   3.565   0.910   5.543
10439SOL    HW132216   3.610   0.990   5.583
10439SOL    HW232217   3.598   0.895   5.450
10440SOL     OW32218   0.610   6.768   1.063
10440SOL    HW132219   0.575   6.752   0.971
10440SOL    HW232220   0.582   6.693   1.122
10441SOL     OW32221   5.389   1.693   6.704
10441SOL    HW132222   5.354   1.694   6.610
10441SOL    HW232223   5.333   1.754   6.761
10442SOL     OW32224   3.379   5.349   5.923
10442SOL    HW132225   3.412   5.268   5.972
10442SOL    HW232226   3.292   5.378   5.962
10443SOL     OW32227   5.714   3.575   4.639
10443SOL    HW132228   5.619   3.565   4.610
10443SOL    HW232229   5.743   3.670   4.631
10444SOL     OW32230   3.721   5.326   5.016
10444SOL    HW132231   3.725   5.321   5.116
10444SOL    HW232232   3.659   5.256   4.981
10445SOL     OW32233   0.206   5.049   4.573
10445SOL    HW132234   0.201   5.146   4.549
10445SOL    HW232235   0.293   5.030   4.618
10446SOL     OW32236   0.500   4.121   6.697
10446SOL    HW132237   0.459   4.212   6.692
10446SOL    HW232238   0.577   4.124   6.761
10447SOL     OW32239   6.935   1.803   1.419
10447SOL    HW132240   0.012   1.833   1.430
10447SOL    HW232241   6.876   1.854   1.482
10448SOL     OW32242   3.964   3.734   1.258
10448SOL    HW132243   3.987   3.666   1.188
10448SOL    HW232244   3.935   3.687   1.342
10449SOL     OW32245   2.715   5.416   4.631
10449SOL    HW132246   2.802   5.393   4.587
10449SOL    HW232247   2.641   5.362   4.590
10450SOL     OW32248   6.960   2.686   6.849
10450SOL    HW132249   6.923   2.631   6.923
10450SOL    HW232250   6.895   2.758   6.824
10451SOL     OW32251   2.671   4.647   2.960
10451SOL    HW132252   2.762   4.668   2.996
10451SOL    HW232253   2.611   4.622   3.035
10452SOL     OW32254   0.500   3.518   3.502
10452SOL    HW132255   0.593   3.496   3.471
10452SOL    HW232256   0.498   3.610   3.540
10453SOL     OW32257   5.885   5.959   1.615
10453SOL    HW132258   5.874   6.037   1.677
10453SOL    HW232259   5.938   5.987   1.535
10454SOL     OW32260   5.303   3.256   1.820
10454SOL    HW132261   5.371   3.191   1.786
10454SOL    HW232262   5.214   3.235   1.781
10455SOL     OW32263   0.458   5.505   3.780
10455SOL    HW132264   0.546   5.531   3.820
10455SOL    HW232265   0.468   5.495   3.681
10456SOL     OW32266   3.086   6.097   1.487
10456SOL    HW132267   3.077   6.093   1.387
10456SOL    HW232268   3.038   6.021   1.529
10457SOL     OW32269   3.933   3.890   3.654
10457SOL    HW132270   3.851   3.949   3.656
10457SOL    HW232271   3.916   3.808   3.707
10458SOL     OW32272   0.769   0.456   0.299
10458SOL    HW132273   0.713   0.375   0.312
10458SOL    HW232274   0.718   0.525   0.247
10459SOL     OW32275   5.850   5.563   2.041
10459SOL    HW132276   5.843   5.464   2.054
10459SOL    HW232277   5.768   5.607   2.077
10460SOL     OW32278   2.713   5.705   1.831
10460SOL    HW132279   2.766   5.621   1.837
10460SOL    HW232280   2.666   5.721   1.918
10461SOL     OW32281   1.977   6.699   6.843
10461SOL    HW132282   1.982   6.724   6.746
10461SOL    HW232283   2.057   6.644   6.867
10462SOL     OW32284   5.940   0.315   0.534
10462SOL    HW132285   5.945   0.216   0.517
10462SOL    HW232286   5.902   0.331   0.625
10463SOL     OW32287   2.874   4.680   6.480
10463SOL    HW132288   2.831   4.766   6.452
10463SOL    HW232289   2.819   4.637   6.551
10464SOL     OW32290   4.533   0.516   1.298
10464SOL    HW132291   4.503   0.462   1.376
10464SOL    HW232292   4.493   0.479   1.214
10465SOL     OW32293   0.322   5.796   5.841
10465SOL    HW132294   0.343   5.874   5.901
10465SOL    HW232295   0.406   5.763   5.799
10466SOL     OW32296   4.741   5.479   4.973
10466SOL    HW132297   4.694   5.554   5.020
10466SOL    HW232298   4.679   5.437   4.906
10467SOL     OW32299   2.085   1.688   5.737
10467SOL    HW132300   2.001   1.738   5.755
10467SOL    HW232301   2.064   1.605   5.685
10468SOL     OW32302   3.498   6.388   4.421
10468SOL    HW132303   3.499   6.471   4.364
10468SOL    HW232304   3.511   6.308   4.363
10469SOL     OW32305   2.266   4.144   0.581
10469SOL    HW132306   2.254   4.082   0.658
10469SOL    HW232307   2.248   4.095   0.495
10470SOL     OW32308   2.281   1.665   4.043
10470SOL    HW132309   2.221   1.688   4.119
10470SOL    HW232310   2.227   1.635   3.965
10471SOL     OW32311   2.843   3.829   1.529
10471SOL    HW132312   2.846   3.768   1.449
10471SOL    HW232313   2.937   3.844   1.562
10472SOL     OW32314   3.872   6.906   2.414
10472SOL    HW132315   3.952   6.873   2.464
10472SOL    HW232316   3.862   6.854   2.329
10473SOL     OW32317   5.794   6.170   6.886
10473SOL    HW132318   5.854   6.162   6.966
10473SOL    HW232319   5.723   6.238   6.905
10474SOL     OW32320   4.044   0.834   4.379
10474SOL    HW132321   3.964   0.805   4.325
10474SOL    HW232322   4.122   0.776   4.357
10475SOL     OW32323   4.153   6.885   1.611
10475SOL    HW132324   4.203   6.815   1.560
10475SOL    HW232325   4.156   6.971   1.561
10476SOL     OW32326   6.395   4.874   6.260
10476SOL    HW132327   6.439   4.940   6.321
10476SOL    HW232328   6.382   4.915   6.170
10477SOL     OW32329   5.313   4.004   4.800
10477SOL    HW132330   5.302   4.007   4.700
10477SOL    HW232331   5.407   4.026   4.824
10478SOL     OW32332   0.580   6.478   0.655
10478SOL    HW132333   0.586   6.564   0.603
10478SOL    HW232334   0.672   6.447   0.677
10479SOL     OW32335   1.883   3.690   2.331
10479SOL    HW132336   1.863   3.788   2.327
10479SOL    HW232337   1.851   3.654   2.419
10480SOL     OW32338   5.476   0.042   2.045
10480SOL    HW132339   5.436   7.017   2.126
10480SOL    HW232340   5.576   0.035   2.051
10481SOL     OW32341   2.424   0.870   5.268
10481SOL    HW132342   2.362   0.924   5.324
10481SOL    HW232343   2.518   0.886   5.297
10482SOL     OW32344   0.541   5.940   4.869
10482SOL    HW132345   0.585   6.018   4.823
10482SOL    HW232346   0.443   5.943   4.853
10483SOL     OW32347   6.360   5.971   6.660
10483SOL    HW132348   6.370   6.015   6.750
10483SOL    HW232349   6.415   6.019   6.593
10484SOL     OW32350   0.502   0.938   1.404
10484SOL    HW132351   0.455   0.923   1.317
10484SOL    HW232352   0.534   0.850   1.440
10485SOL     OW32353   3.283   3.341   3.102
10485SOL    HW132354   3.348   3.405   3.142
10485SOL    HW232355   3.253   3.375   3.013
10486SOL     OW32356   6.587   6.472   5.174
10486SOL    HW132357   6.536   6.549   5.211
10486SOL    HW232358   6.618   6.414   5.249
10487SOL     OW32359   4.585   2.033   1.951
10487SOL    HW132360   4.498   2.074   1.979
10487SOL    HW232361   4.655   2.103   1.949
10488SOL     OW32362   0.096   2.035   5.536
10488SOL    HW132363   0.058   1.950   5.572
10488SOL    HW232364   0.124   2.094   5.611
10489SOL     OW32365   5.489   4.801   3.741
10489SOL    HW132366   5.509   4.807   3.839
10489SOL    HW232367   5.481   4.893   3.703
10490SOL     OW32368   6.219   0.064   0.305
10490SOL    HW132369   6.271   6.998   0.290
10490SOL    HW232370   6.232   0.127   0.228
10491SOL     OW32371   0.997   2.960   6.502
10491SOL    HW132372   0.944   2.957   6.587
10491SOL    HW232373   1.075   3.023   6.514
10492SOL     OW32374   4.611   0.671   0.740
10492SOL    HW132375   4.667   0.617   0.677
10492SOL    HW232376   4.670   0.731   0.793
10493SOL     OW32377   4.373   5.465   0.902
10493SOL    HW132378   4.468   5.447   0.874
10493SOL    HW232379   4.311   5.430   0.833
10494SOL     OW32380   0.672   4.419   5.943
10494SOL    HW132381   0.737   4.347   5.966
10494SOL    HW232382   0.661   4.423   5.844
10495SOL     OW32383   0.993   6.113   6.068
10495SOL    HW132384   1.069   6.157   6.021
10495SOL    HW232385   0.939   6.181   6.117
10496SOL     OW32386   0.145   3.487   5.389
10496SOL    HW132387   0.139   3.396   5.429
10496SOL    HW232388   0.124   3.482   5.292
10497SOL     OW32389   2.443   0.040   1.424
10497SOL    HW132390   2.495   0.123   1.402
10497SOL    HW232391   2.351   0.066   1.455
10498SOL     OW32392   4.605   5.494   0.789
10498SOL    HW132393   4.699   5.525   0.801
10498SOL    HW232394   4.577   5.507   0.694
10499SOL     OW32395   5.510   5.309   2.043
10499SOL    HW132396   5.500   5.227   2.099
10499SOL    HW232397   5.561   5.378   2.094
10500SOL     OW32398   6.910   4.205   5.408
10500SOL    HW132399   6.960   4.292   5.411
10500SOL    HW232400   6.880   4.182   5.500
10501SOL     OW32401   2.565   5.585   2.660
10501SOL    HW132402   2.636   5.531   2.704
10501SOL    HW232403   2.606   5.662   2.611
10502SOL     OW32404   2.988   3.866   2.578
10502SOL    HW132405   2.956   3.777   2.546
10502SOL    HW232406   2.911   3.930   2.579
10503SOL     OW32407   6.501   2.870   6.376
10503SOL    HW132408   6.418   2.926   6.382
10503SOL    HW232409   6.492   2.791   6.436
10504SOL     OW32410   1.605   2.676   6.336
10504SOL    HW132411   1.627   2.765   6.297
10504SOL    HW232412   1.537   2.630   6.279
10505SOL     OW32413   6.342   6.245   1.654
10505SOL    HW132414   6.342   6.145   1.654
10505SOL    HW232415   6.383   6.278   1.569
10506SOL     OW32416   1.049   2.350   0.389
10506SOL    HW132417   0.958   2.390   0.373
10506SOL    HW232418   1.112   2.422   0.415
10507SOL     OW32419   1.820   4.789   6.801
10507SOL    HW132420   1.871   4.716   6.756
10507SOL    HW232421   1.727   4.793   6.764
10508SOL     OW32422   1.086   5.224   4.870
10508SOL    HW132423   1.056   5.297   4.809
10508SOL    HW232424   1.041   5.138   4.843
10509SOL     OW32425   5.319   2.840   3.256
10509SOL    HW132426   5.226   2.875   3.255
10509SOL    HW232427   5.375   2.892   3.192
10510SOL     OW32428   4.569   5.208   4.652
10510SOL    HW132429   4.627   5.127   4.661
10510SOL    HW232430   4.592   5.256   4.567
10511SOL     OW32431   3.343   1.987   2.329
10511SOL    HW132432   3.310   1.908   2.382
10511SOL    HW232433   3.417   1.958   2.269
10512SOL     OW32434   4.607   0.929   5.012
10512SOL    HW132435   4.665   0.893   4.939
10512SOL    HW232436   4.593   0.858   5.081
10513SOL     OW32437   5.275   3.491   1.676
10513SOL    HW132438   5.232   3.573   1.711
10513SOL    HW232439   5.320   3.442   1.751
10514SOL     OW32440   0.941   3.137   1.617
10514SOL    HW132441   0.961   3.040   1.623
10514SOL    HW232442   1.010   3.189   1.669
10515SOL     OW32443   2.136   3.218   4.607
10515SOL    HW132444   2.175   3.127   4.593
10515SOL    HW232445   2.052   3.227   4.552
10516SOL     OW32446   3.709   2.730   0.515
10516SOL    HW132447   3.742   2.701   0.605
10516SOL    HW232448   3.645   2.662   0.479
10517SOL     OW32449   0.776   3.456   3.465
10517SOL    HW132450   0.756   3.381   3.401
10517SOL    HW232451   0.875   3.461   3.478
10518SOL     OW32452   0.634   5.171   2.604
10518SOL    HW132453   0.718   5.224   2.612
10518SOL    HW232454   0.572   5.216   2.540
10519SOL     OW32455   2.439   6.512   1.071
10519SOL    HW132456   2.365   6.466   1.021
10519SOL    HW232457   2.400   6.563   1.147
10520SOL     OW32458   0.217   1.610   5.499
10520SOL    HW132459   0.288   1.555   5.543
10520SOL    HW232460   0.249   1.704   5.489
10521SOL     OW32461   6.128   3.301   0.994
10521SOL    HW132462   6.090   3.213   0.965
10521SOL    HW232463   6.073   3.375   0.955
10522SOL     OW32464   5.223   2.564   3.343
10522SOL    HW132465   5.199   2.582   3.248
10522SOL    HW232466   5.315   2.601   3.362
10523SOL     OW32467   0.089   4.667   3.777
10523SOL    HW132468   0.063   4.622   3.862
10523SOL    HW232469   0.102   4.765   3.793
10524SOL     OW32470   6.321   6.442   3.757
10524SOL    HW132471   6.418   6.466   3.764
10524SOL    HW232472   6.303   6.405   3.666
10525SOL     OW32473   4.666   1.442   5.045
10525SOL    HW132474   4.639   1.461   5.139
10525SOL    HW232475   4.676   1.343   5.032
10526SOL     OW32476   1.127   5.118   0.595
10526SOL    HW132477   1.082   5.078   0.515
10526SOL    HW232478   1.134   5.217   0.584
10527SOL     OW32479   0.643   0.960   4.874
10527SOL    HW132480   0.653   1.008   4.786
10527SOL    HW232481   0.734   0.938   4.909
10528SOL     OW32482   0.966   4.329   6.154
10528SOL    HW132483   0.951   4.300   6.249
10528SOL    HW232484   1.063   4.323   6.132
10529SOL     OW32485   1.176   6.529   6.620
10529SOL    HW132486   1.256   6.573   6.662
10529SOL    HW232487   1.107   6.510   6.689
10530SOL     OW32488   0.804   6.487   0.364
10530SOL    HW132489   0.847   6.577   0.364
10530SOL    HW232490   0.812   6.446   0.454
10531SOL     OW32491   2.776   2.877   5.414
10531SOL    HW132492   2.711   2.953   5.415
10531SOL    HW232493   2.796   2.848   5.507
10532SOL     OW32494   5.770   6.083   6.583
10532SOL    HW132495   5.814   6.169   6.608
10532SOL    HW232496   5.805   6.010   6.643
10533SOL     OW32497   2.756   5.614   3.259
10533SOL    HW132498   2.817   5.583   3.332
10533SOL    HW232499   2.803   5.681   3.202
10534SOL     OW32500   1.479   5.967   2.750
10534SOL    HW132501   1.435   5.913   2.822
10534SOL    HW232502   1.523   6.047   2.791
10535SOL     OW32503   3.076   1.939   3.299
10535SOL    HW132504   3.063   1.852   3.251
10535SOL    HW232505   3.076   1.923   3.397
10536SOL     OW32506   5.295   1.474   4.033
10536SOL    HW132507   5.315   1.376   4.030
10536SOL    HW232508   5.212   1.493   3.980
10537SOL     OW32509   4.613   6.861   2.895
10537SOL    HW132510   4.526   6.910   2.891
10537SOL    HW232511   4.654   6.872   2.985
10538SOL     OW32512   6.348   2.869   2.555
10538SOL    HW132513   6.298   2.860   2.469
10538SOL    HW232514   6.330   2.788   2.612
10539SOL     OW32515   6.442   7.015   3.032
10539SOL    HW132516   6.420   0.072   3.095
10539SOL    HW232517   6.478   6.938   3.084
10540SOL     OW32518   2.746   3.654   5.992
10540SOL    HW132519   2.743   3.574   5.933
10540SOL    HW232520   2.703   3.732   5.946
10541SOL     OW32521   2.970   3.311   4.946
10541SOL    HW132522   3.001   3.290   5.039
10541SOL    HW232523   2.873   3.290   4.937
10542SOL     OW32524   5.979   6.991   4.321
10542SOL    HW132525   6.078   6.979   4.325
10542SOL    HW232526   5.946   6.971   4.229
10543SOL     OW32527   0.112   2.944   5.126
10543SOL    HW132528   0.160   2.904   5.204
10543SOL    HW232529   0.106   3.043   5.137
10544SOL     OW32530   1.227   1.068   3.887
10544SOL    HW132531   1.261   1.007   3.816
10544SOL    HW232532   1.174   1.142   3.846
10545SOL     OW32533   2.013   2.241   2.882
10545SOL    HW132534   1.963   2.171   2.831
10545SOL    HW232535   2.064   2.298   2.818
10546SOL     OW32536   3.303   6.789   1.055
10546SOL    HW132537   3.330   6.698   1.089
10546SOL    HW232538   3.208   6.807   1.082
10547SOL     OW32539   4.313   6.842   4.910
10547SOL    HW132540   4.253   6.918   4.884
10547SOL    HW232541   4.407   6.874   4.915
10548SOL     OW32542   1.258   4.591   4.381
10548SOL    HW132543   1.193   4.621   4.311
10548SOL    HW232544   1.332   4.657   4.388
10549SOL     OW32545   0.154   1.401   0.747
10549SOL    HW132546   0.194   1.363   0.830
10549SOL    HW232547   0.059   1.370   0.738
10550SOL     OW32548   3.570   6.145   3.219
10550SOL    HW132549   3.637   6.207   3.179
10550SOL    HW232550   3.508   6.196   3.279
10551SOL     OW32551   2.947   2.127   5.937
10551SOL    HW132552   3.012   2.168   6.002
10551SOL    HW232553   2.982   2.137   5.844
10552SOL     OW32554   3.372   0.841   4.527
10552SOL    HW132555   3.347   0.923   4.475
10552SOL    HW232556   3.407   0.869   4.617
10553SOL     OW32557   0.186   5.114   0.648
10553SOL    HW132558   0.280   5.133   0.674
10553SOL    HW232559   0.173   5.138   0.552
10554SOL     OW32560   5.920   4.966   2.829
10554SOL    HW132561   5.987   4.894   2.811
10554SOL    HW232562   5.830   4.937   2.800
10555SOL     OW32563   3.407   2.162   0.648
10555SOL    HW132564   3.468   2.137   0.722
10555SOL    HW232565   3.317   2.186   0.685
10556SOL     OW32566   2.061   2.044   3.072
10556SOL    HW132567   2.068   2.130   3.023
10556SOL    HW232568   2.067   2.061   3.171
10557SOL     OW32569   2.287   4.506   3.657
10557SOL    HW132570   2.331   4.572   3.717
10557SOL    HW232571   2.231   4.554   3.590
10558SOL     OW32572   2.773   5.703   5.802
10558SOL    HW132573   2.715   5.779   5.773
10558SOL    HW232574   2.723   5.646   5.868
10559SOL     OW32575   3.884   0.018   6.205
10559SOL    HW132576   3.819   7.003   6.137
10559SOL    HW232577   3.908   6.961   6.266
10560SOL     OW32578   5.094   6.613   1.759
10560SOL    HW132579   5.005   6.651   1.733
10560SOL    HW232580   5.085   6.515   1.777
10561SOL     OW32581   5.806   4.201   0.203
10561SOL    HW132582   5.731   4.177   0.264
10561SOL    HW232583   5.775   4.195   0.108
10562SOL     OW32584   3.403   6.249   1.483
10562SOL    HW132585   3.404   6.329   1.542
10562SOL    HW232586   3.318   6.249   1.429
10563SOL     OW32587   0.409   0.636   0.644
10563SOL    HW132588   0.386   0.732   0.659
10563SOL    HW232589   0.506   0.628   0.620
10564SOL     OW32590   5.688   5.730   3.737
10564SOL    HW132591   5.733   5.657   3.788
10564SOL    HW232592   5.755   5.779   3.682
10565SOL     OW32593   0.091   6.972   5.244
10565SOL    HW132594   0.182   6.930   5.240
10565SOL    HW232595   0.025   6.912   5.198
10566SOL     OW32596   2.778   2.643   0.223
10566SOL    HW132597   2.825   2.731   0.233
10566SOL    HW232598   2.735   2.619   0.310
10567SOL     OW32599   1.212   1.969   6.329
10567SOL    HW132600   1.306   2.001   6.335
10567SOL    HW232601   1.167   2.014   6.251
10568SOL     OW32602   5.364   2.366   5.962
10568SOL    HW132603   5.436   2.325   6.017
10568SOL    HW232604   5.275   2.349   6.005
10569SOL     OW32605   5.462   6.803   1.353
10569SOL    HW132606   5.437   6.756   1.268
10569SOL    HW232607   5.381   6.845   1.393
10570SOL     OW32608   0.749   5.248   4.295
10570SOL    HW132609   0.789   5.192   4.367
10570SOL    HW232610   0.744   5.194   4.211
10571SOL     OW32611   0.382   4.123   5.714
10571SOL    HW132612   0.444   4.074   5.775
10571SOL    HW232613   0.366   4.069   5.632
10572SOL     OW32614   6.493   4.168   1.296
10572SOL    HW132615   6.446   4.082   1.276
10572SOL    HW232616   6.427   4.242   1.301
10573SOL     OW32617   5.518   0.933   3.366
10573SOL    HW132618   5.436   0.885   3.396
10573SOL    HW232619   5.529   0.922   3.267
10574SOL     OW32620   0.569   1.790   3.805
10574SOL    HW132621   0.524   1.783   3.716
10574SOL    HW232622   0.548   1.878   3.847
10575SOL     OW32623   6.000   0.791   1.383
10575SOL    HW132624   5.982   0.693   1.375
10575SOL    HW232625   5.996   0.833   1.292
10576SOL     OW32626   2.392   4.752   3.797
10576SOL    HW132627   2.335   4.790   3.869
10576SOL    HW232628   2.475   4.712   3.838
10577SOL     OW32629   4.326   6.326   0.584
10577SOL    HW132630   4.410   6.363   0.544
10577SOL    HW232631   4.348   6.246   0.639
10578SOL     OW32632   6.886   2.739   3.973
10578SOL    HW132633   6.797   2.727   3.928
10578SOL    HW232634   6.914   2.652   4.014
10579SOL     OW32635   1.727   3.645   1.322
10579SOL    HW132636   1.745   3.703   1.401
10579SOL    HW232637   1.790   3.668   1.247
10580SOL     OW32638   6.644   6.686   6.208
10580SOL    HW132639   6.678   6.665   6.300
10580SOL    HW232640   6.569   6.752   6.215
10581SOL     OW32641   5.660   0.159   2.704
10581SOL    HW132642   5.609   0.243   2.727
10581SOL    HW232643   5.677   0.157   2.605
10582SOL     OW32644   5.689   4.278   6.485
10582SOL    HW132645   5.779   4.310   6.517
10582SOL    HW232646   5.665   4.193   6.533
10583SOL     OW32647   2.676   0.862   4.606
10583SOL    HW132648   2.694   0.810   4.689
10583SOL    HW232649   2.664   0.799   4.529
10584SOL     OW32650   0.340   6.971   5.438
10584SOL    HW132651   0.361   0.051   5.440
10584SOL    HW232652   0.275   6.950   5.512
10585SOL     OW32653   0.794   0.615   5.638
10585SOL    HW132654   0.749   0.602   5.550
10585SOL    HW232655   0.729   0.653   5.703
10586SOL     OW32656   4.487   4.624   5.369
10586SOL    HW132657   4.572   4.632   5.422
10586SOL    HW232658   4.412   4.600   5.430
10587SOL     OW32659   1.026   5.739   5.524
10587SOL    HW132660   1.046   5.817   5.465
10587SOL    HW232661   1.062   5.756   5.615
10588SOL     OW32662   1.498   4.440   4.296
10588SOL    HW132663   1.564   4.415   4.367
10588SOL    HW232664   1.416   4.479   4.339
10589SOL     OW32665   5.429   6.512   3.407
10589SOL    HW132666   5.404   6.426   3.361
10589SOL    HW232667   5.478   6.491   3.492
10590SOL     OW32668   0.422   5.514   2.848
10590SOL    HW132669   0.486   5.530   2.772
10590SOL    HW232670   0.384   5.601   2.878
10591SOL     OW32671   1.275   1.657   1.942
10591SOL    HW132672   1.183   1.693   1.959
10591SOL    HW232673   1.326   1.722   1.885
10592SOL     OW32674   5.901   2.287   5.601
10592SOL    HW132675   5.831   2.293   5.672
10592SOL    HW232676   5.861   2.311   5.513
10593SOL     OW32677   3.011   6.365   1.912
10593SOL    HW132678   2.914   6.342   1.909
10593SOL    HW232679   3.031   6.413   1.997
10594SOL     OW32680   3.046   0.267   3.758
10594SOL    HW132681   2.971   0.201   3.760
10594SOL    HW232682   3.061   0.296   3.663
10595SOL     OW32683   6.548   6.872   1.009
10595SOL    HW132684   6.471   6.810   1.001
10595SOL    HW232685   6.516   6.961   1.042
10596SOL     OW32686   4.826   1.735   6.756
10596SOL    HW132687   4.823   1.725   6.656
10596SOL    HW232688   4.861   1.826   6.779
10597SOL     OW32689   2.545   0.470   6.387
10597SOL    HW132690   2.463   0.415   6.401
10597SOL    HW232691   2.526   0.543   6.321
10598SOL     OW32692   2.529   1.644   6.036
10598SOL    HW132693   2.502   1.738   6.018
10598SOL    HW232694   2.566   1.637   6.129
10599SOL     OW32695   6.849   3.669   6.154
10599SOL    HW132696   6.944   3.640   6.166
10599SOL    HW232697   6.825   3.665   6.057
10600SOL     OW32698   2.853   2.011   1.066
10600SOL    HW132699   2.843   1.988   0.970
10600SOL    HW232700   2.920   1.949   1.109
10601SOL     OW32701   0.357   6.402   5.760
10601SOL    HW132702   0.297   6.359   5.827
10601SOL    HW232703   0.362   6.500   5.777
10602SOL     OW32704   0.621   0.325   0.522
10602SOL    HW132705   0.529   0.287   0.524
10602SOL    HW232706   0.641   0.372   0.608
10603SOL     OW32707   4.891   6.830   2.062
10603SOL    HW132708   4.971   6.881   2.094
10603SOL    HW232709   4.849   6.782   2.139
10604SOL     OW32710   6.711   0.121   4.508
10604SOL    HW132711   6.803   0.088   4.487
10604SOL    HW232712   6.714   0.175   4.592
10605SOL     OW32713   2.223   1.394   1.174
10605SOL    HW132714   2.196   1.480   1.132
10605SOL    HW232715   2.298   1.410   1.238
10606SOL     OW32716   6.687   1.035   0.998
10606SOL    HW132717   6.631   1.019   1.079
10606SOL    HW232718   6.636   1.006   0.917
10607SOL     OW32719   3.991   4.333   6.149
10607SOL    HW132720   4.081   4.373   6.128
10607SOL    HW232721   4.002   4.259   6.216
10608SOL     OW32722   6.118   3.499   2.853
10608SOL    HW132723   6.021   3.475   2.845
10608SOL    HW232724   6.134   3.589   2.813
10609SOL     OW32725   4.576   1.212   6.833
10609SOL    HW132726   4.533   1.124   6.815
10609SOL    HW232727   4.675   1.203   6.825
10610SOL     OW32728   0.766   1.293   4.155
10610SOL    HW132729   0.854   1.327   4.121
10610SOL    HW232730   0.744   1.206   4.112
10611SOL     OW32731   3.085   5.393   5.095
10611SOL    HW132732   3.100   5.311   5.150
10611SOL    HW232733   2.987   5.411   5.087
10612SOL     OW32734   5.661   1.506   3.808
10612SOL    HW132735   5.589   1.570   3.835
10612SOL    HW232736   5.728   1.553   3.752
10613SOL     OW32737   6.337   6.789   4.565
10613SOL    HW132738   6.274   6.711   4.560
10613SOL    HW232739   6.377   6.794   4.656
10614SOL     OW32740   4.970   0.555   6.433
10614SOL    HW132741   4.888   0.597   6.393
10614SOL    HW232742   4.957   0.456   6.439
10615SOL     OW32743   2.221   2.316   6.307
10615SOL    HW132744   2.146   2.349   6.364
10615SOL    HW232745   2.183   2.273   6.225
10616SOL     OW32746   2.634   6.495   6.492
10616SOL    HW132747   2.703   6.554   6.535
10616SOL    HW232748   2.677   6.413   6.456
10617SOL     OW32749   2.743   3.082   1.316
10617SOL    HW132750   2.746   2.986   1.345
10617SOL    HW232751   2.708   3.138   1.390
10618SOL     OW32752   0.575   5.256   4.976
10618SOL    HW132753   0.482   5.294   4.972
10618SOL    HW232754   0.642   5.331   4.977
10619SOL     OW32755   1.081   1.914   3.070
10619SOL    HW132756   1.178   1.934   3.085
10619SOL    HW232757   1.040   1.882   3.156
10620SOL     OW32758   2.914   0.377   6.848
10620SOL    HW132759   2.840   0.322   6.809
10620SOL    HW232760   2.932   0.455   6.788
10621SOL     OW32761   0.971   3.756   3.205
10621SOL    HW132762   0.883   3.720   3.176
10621SOL    HW232763   0.980   3.852   3.175
10622SOL     OW32764   4.233   3.476   0.251
10622SOL    HW132765   4.295   3.554   0.262
10622SOL    HW232766   4.279   3.392   0.281
10623SOL     OW32767   5.590   6.008   6.950
10623SOL    HW132768   5.619   5.912   6.943
10623SOL    HW232769   5.664   6.067   6.918
10624SOL     OW32770   0.235   2.299   5.099
10624SOL    HW132771   0.203   2.251   5.181
10624SOL    HW232772   0.312   2.250   5.059
10625SOL     OW32773   6.455   3.907   6.629
10625SOL    HW132774   6.517   3.983   6.649
10625SOL    HW232775   6.389   3.936   6.559
10626SOL     OW32776   4.576   3.459   1.141
10626SOL    HW132777   4.554   3.399   1.064
10626SOL    HW232778   4.498   3.465   1.203
10627SOL     OW32779   5.220   6.230   5.823
10627SOL    HW132780   5.155   6.198   5.754
10627SOL    HW232781   5.294   6.163   5.833
10628SOL     OW32782   4.811   0.770   0.924
10628SOL    HW132783   4.905   0.757   0.956
10628SOL    HW232784   4.800   0.862   0.889
10629SOL     OW32785   3.422   5.245   4.982
10629SOL    HW132786   3.423   5.146   4.994
10629SOL    HW232787   3.437   5.290   5.070
10630SOL     OW32788   4.255   0.189   2.893
10630SOL    HW132789   4.242   0.285   2.868
10630SOL    HW232790   4.269   0.182   2.992
10631SOL     OW32791   4.592   6.006   0.185
10631SOL    HW132792   4.574   5.940   0.112
10631SOL    HW232793   4.666   5.971   0.243
10632SOL     OW32794   4.663   5.309   3.111
10632SOL    HW132795   4.640   5.267   3.024
10632SOL    HW232796   4.763   5.312   3.122
10633SOL     OW32797   1.899   2.657   2.071
10633SOL    HW132798   1.929   2.606   2.152
10633SOL    HW232799   1.957   2.737   2.059
10634SOL     OW32800   0.438   4.412   6.714
10634SOL    HW132801   0.432   4.470   6.796
10634SOL    HW232802   0.348   4.406   6.671
10635SOL     OW32803   2.453   3.630   0.030
10635SOL    HW132804   2.378   3.627   6.983
10635SOL    HW232805   2.457   3.544   0.080
10636SOL     OW32806   6.780   2.071   6.116
10636SOL    HW132807   6.751   2.092   6.023
10636SOL    HW232808   6.854   2.134   6.142
10637SOL     OW32809   3.365   7.007   6.751
10637SOL    HW132810   3.426   6.931   6.770
10637SOL    HW232811   3.272   6.973   6.736
10638SOL     OW32812   0.181   4.869   1.887
10638SOL    HW132813   0.237   4.817   1.822
10638SOL    HW232814   0.101   4.905   1.839
10639SOL     OW32815   1.923   4.048   1.217
10639SOL    HW132816   1.911   3.954   1.187
10639SOL    HW232817   1.878   4.110   1.153
10640SOL     OW32818   4.445   6.972   3.162
10640SOL    HW132819   4.453   7.001   3.067
10640SOL    HW232820   4.402   6.881   3.166
10641SOL     OW32821   0.898   0.381   3.409
10641SOL    HW132822   0.965   0.335   3.350
10641SOL    HW232823   0.847   0.312   3.461
10642SOL     OW32824   5.533   1.999   6.644
10642SOL    HW132825   5.586   2.061   6.702
10642SOL    HW232826   5.476   2.052   6.581
10643SOL     OW32827   1.929   4.963   5.600
10643SOL    HW132828   1.942   5.004   5.691
10643SOL    HW232829   1.880   4.876   5.610
10644SOL     OW32830   0.306   2.491   2.598
10644SOL    HW132831   0.299   2.590   2.597
10644SOL    HW232832   0.289   2.456   2.690
10645SOL     OW32833   2.203   3.050   3.097
10645SOL    HW132834   2.242   2.960   3.080
10645SOL    HW232835   2.196   3.066   3.196
10646SOL     OW32836   5.341   0.959   4.086
10646SOL    HW132837   5.432   0.917   4.092
10646SOL    HW232838   5.303   0.968   4.178
10647SOL     OW32839   3.924   4.949   5.081
10647SOL    HW132840   4.019   4.933   5.055
10647SOL    HW232841   3.884   5.018   5.021
10648SOL     OW32842   5.723   5.181   4.986
10648SOL    HW132843   5.739   5.264   4.933
10648SOL    HW232844   5.715   5.103   4.924
10649SOL     OW32845   0.204   3.407   2.946
10649SOL    HW132846   0.264   3.377   2.871
10649SOL    HW232847   0.238   3.494   2.982
10650SOL     OW32848   6.542   0.595   4.440
10650SOL    HW132849   6.638   0.586   4.465
10650SOL    HW232850   6.491   0.517   4.476
10651SOL     OW32851   4.944   6.088   5.784
10651SOL    HW132852   5.016   6.090   5.715
10651SOL    HW232853   4.936   5.995   5.821
10652SOL     OW32854   1.758   6.686   6.413
10652SOL    HW132855   1.670   6.646   6.441
10652SOL    HW232856   1.763   6.686   6.313
10653SOL     OW32857   3.703   6.164   4.628
10653SOL    HW132858   3.789   6.210   4.607
10653SOL    HW232859   3.640   6.229   4.670
10654SOL     OW32860   5.658   1.042   4.573
10654SOL    HW132861   5.567   1.069   4.603
10654SOL    HW232862   5.727   1.085   4.631
10655SOL     OW32863   1.293   4.451   1.509
10655SOL    HW132864   1.292   4.543   1.547
10655SOL    HW232865   1.291   4.456   1.409
10656SOL     OW32866   6.555   1.577   1.594
10656SOL    HW132867   6.530   1.618   1.506
10656SOL    HW232868   6.479   1.522   1.628
10657SOL     OW32869   5.923   0.489   3.931
10657SOL    HW132870   5.872   0.529   3.854
10657SOL    HW232871   5.858   0.460   4.002
10658SOL     OW32872   6.142   3.816   4.550
10658SOL    HW132873   6.216   3.832   4.485
10658SOL    HW232874   6.118   3.901   4.596
10659SOL     OW32875   0.790   5.159   1.217
10659SOL    HW132876   0.836   5.077   1.181
10659SOL    HW232877   0.713   5.183   1.158
10660SOL     OW32878   6.364   3.484   5.326
10660SOL    HW132879   6.343   3.393   5.288
10660SOL    HW232880   6.405   3.473   5.416
10661SOL     OW32881   1.501   3.918   6.918
10661SOL    HW132882   1.477   3.896   7.012
10661SOL    HW232883   1.445   3.994   6.886
10662SOL     OW32884   2.890   1.398   3.354
10662SOL    HW132885   2.822   1.469   3.339
10662SOL    HW232886   2.949   1.423   3.431
10663SOL     OW32887   1.802   1.437   3.835
10663SOL    HW132888   1.732   1.384   3.884
10663SOL    HW232889   1.838   1.382   3.760
10664SOL     OW32890   1.136   5.517   4.457
10664SOL    HW132891   1.075   5.501   4.535
10664SOL    HW232892   1.082   5.539   4.376
10665SOL     OW32893   2.079   3.104   6.205
10665SOL    HW132894   2.005   3.094   6.138
10665SOL    HW232895   2.160   3.055   6.173
10666SOL     OW32896   3.874   3.501   2.243
10666SOL    HW132897   3.963   3.498   2.289
10666SOL    HW232898   3.881   3.556   2.160
10667SOL     OW32899   5.771   2.060   2.927
10667SOL    HW132900   5.783   2.011   3.014
10667SOL    HW232901   5.770   2.158   2.945
10668SOL     OW32902   3.083   2.078   5.211
10668SOL    HW132903   3.040   2.079   5.301
10668SOL    HW232904   3.142   2.158   5.201
10669SOL     OW32905   5.523   1.194   1.261
10669SOL    HW132906   5.525   1.287   1.297
10669SOL    HW232907   5.602   1.180   1.201
10670SOL     OW32908   4.940   3.500   4.217
10670SOL    HW132909   4.913   3.459   4.130
10670SOL    HW232910   4.924   3.435   4.291
10671SOL     OW32911   1.234   1.799   3.923
10671SOL    HW132912   1.253   1.861   3.847
10671SOL    HW232913   1.162   1.838   3.981
10672SOL     OW32914   6.102   3.740   1.374
10672SOL    HW132915   6.095   3.651   1.419
10672SOL    HW232916   6.030   3.801   1.407
10673SOL     OW32917   1.820   0.824   1.215
10673SOL    HW132918   1.848   0.901   1.273
10673SOL    HW232919   1.740   0.850   1.161
10674SOL     OW32920   3.967   3.098   4.447
10674SOL    HW132921   3.945   3.196   4.449
10674SOL    HW232922   3.994   3.072   4.354
10675SOL     OW32923   3.844   0.711   5.908
10675SOL    HW132924   3.773   0.701   5.838
10675SOL    HW232925   3.913   0.776   5.875
10676SOL     OW32926   1.092   6.200   5.548
10676SOL    HW132927   1.026   6.240   5.612
10676SOL    HW232928   1.177   6.180   5.597
10677SOL     OW32929   0.560   2.273   0.554
10677SOL    HW132930   0.626   2.349   0.552
10677SOL    HW232931   0.470   2.307   0.526
10678SOL     OW32932   4.035   5.260   3.571
10678SOL    HW132933   3.978   5.247   3.652
10678SOL    HW232934   4.087   5.346   3.579
10679SOL     OW32935   4.151   4.839   0.155
10679SOL    HW132936   4.145   4.871   0.060
10679SOL    HW232937   4.247   4.836   0.182
10680SOL     OW32938   3.707   1.839   3.940
10680SOL    HW132939   3.663   1.926   3.920
10680SOL    HW232940   3.670   1.802   4.025
10681SOL     OW32941   6.319   3.412   6.059
10681SOL    HW132942   6.389   3.399   6.129
10681SOL    HW232943   6.244   3.347   6.074
10682SOL     OW32944   6.103   3.157   4.947
10682SOL    HW132945   6.013   3.123   4.972
10682SOL    HW232946   6.153   3.085   4.898
10683SOL     OW32947   4.241   0.194   3.520
10683SOL    HW132948   4.158   0.153   3.558
10683SOL    HW232949   4.296   0.122   3.476
10684SOL     OW32950   5.320   4.631   1.007
10684SOL    HW132951   5.414   4.622   0.973
10684SOL    HW232952   5.256   4.596   0.937
10685SOL     OW32953   0.232   5.121   2.202
10685SOL    HW132954   0.233   5.035   2.153
10685SOL    HW232955   0.181   5.111   2.288
10686SOL     OW32956   2.473   4.080   0.015
10686SOL    HW132957   2.402   4.020   0.051
10686SOL    HW232958   2.452   4.106   6.939
10687SOL     OW32959   6.577   4.389   3.101
10687SOL    HW132960   6.670   4.376   3.068
10687SOL    HW232961   6.514   4.392   3.023
10688SOL     OW32962   5.625   1.144   2.027
10688SOL    HW132963   5.624   1.063   1.967
10688SOL    HW232964   5.719   1.164   2.054
10689SOL     OW32965   0.502   0.361   1.857
10689SOL    HW132966   0.539   0.453   1.875
10689SOL    HW232967   0.455   0.328   1.938
10690SOL     OW32968   6.773   5.512   3.605
10690SOL    HW132969   6.766   5.477   3.511
10690SOL    HW232970   6.843   5.583   3.609
10691SOL     OW32971   3.022   1.883   2.397
10691SOL    HW132972   3.017   1.818   2.472
10691SOL    HW232973   3.088   1.851   2.329
10692SOL     OW32974   2.723   0.720   4.847
10692SOL    HW132975   2.805   0.744   4.901
10692SOL    HW232976   2.725   0.623   4.825
10693SOL     OW32977   0.888   6.046   1.532
10693SOL    HW132978   0.963   6.002   1.483
10693SOL    HW232979   0.820   5.978   1.558
10694SOL     OW32980   5.020   5.972   6.220
10694SOL    HW132981   4.989   6.042   6.285
10694SOL    HW232982   5.109   5.999   6.183
10695SOL     OW32983   1.137   3.188   1.112
10695SOL    HW132984   1.102   3.207   1.203
10695SOL    HW232985   1.186   3.268   1.078
10696SOL     OW32986   6.109   3.975   4.929
10696SOL    HW132987   6.057   3.990   4.845
10696SOL    HW232988   6.207   3.976   4.909
10697SOL     OW32989   0.671   6.233   5.180
10697SOL    HW132990   0.697   6.281   5.096
10697SOL    HW232991   0.711   6.141   5.180
10698SOL     OW32992   4.551   4.286   6.842
10698SOL    HW132993   4.554   4.218   6.768
10698SOL    HW232994   4.640   4.331   6.849
10699SOL     OW32995   3.515   4.729   0.592
10699SOL    HW132996   3.445   4.712   0.661
10699SOL    HW232997   3.584   4.657   0.596
10700SOL     OW32998   6.323   6.720   0.568
10700SOL    HW132999   6.378   6.642   0.595
10700SOL    HW233000   6.362   6.804   0.605
10701SOL     OW33001   3.037   0.148   6.641
10701SOL    HW133002   3.054   0.122   6.736
10701SOL    HW233003   3.065   0.243   6.627
10702SOL     OW33004   5.155   3.113   2.787
10702SOL    HW133005   5.073   3.167   2.806
10702SOL    HW233006   5.141   3.059   2.705
10703SOL     OW33007   2.277   2.903   5.553
10703SOL    HW133008   2.214   2.981   5.556
10703SOL    HW233009   2.277   2.865   5.460
10704SOL     OW33010   6.509   5.525   2.732
10704SOL    HW133011   6.438   5.455   2.727
10704SOL    HW233012   6.583   5.502   2.669
10705SOL     OW33013   5.970   4.601   0.846
10705SOL    HW133014   5.935   4.670   0.782
10705SOL    HW233015   6.025   4.534   0.795
10706SOL     OW33016   4.781   0.048   1.883
10706SOL    HW133017   4.877   0.038   1.859
10706SOL    HW233018   4.741   6.975   1.897
10707SOL     OW33019   6.684   6.737   4.212
10707SOL    HW133020   6.622   6.787   4.152
10707SOL    HW233021   6.671   6.767   4.306
10708SOL     OW33022   4.914   1.436   2.284
10708SOL    HW133023   4.826   1.391   2.297
10708SOL    HW233024   4.978   1.373   2.241
10709SOL     OW33025   5.749   5.344   3.639
10709SOL    HW133026   5.834   5.396   3.645
10709SOL    HW233027   5.693   5.380   3.564
10710SOL     OW33028   5.588   0.394   3.626
10710SOL    HW133029   5.622   0.363   3.538
10710SOL    HW233030   5.596   0.319   3.693
10711SOL     OW33031   2.450   0.057   3.513
10711SOL    HW133032   2.384   0.062   3.588
10711SOL    HW233033   2.538   0.092   3.543
10712SOL     OW33034   3.982   0.563   3.082
10712SOL    HW133035   3.974   0.625   3.004
10712SOL    HW233036   4.078   0.560   3.112
10713SOL     OW33037   1.212   2.586   0.420
10713SOL    HW133038   1.261   2.653   0.364
10713SOL    HW233039   1.159   2.634   0.490
10714SOL     OW33040   4.371   3.109   5.296
10714SOL    HW133041   4.295   3.044   5.304
10714SOL    HW233042   4.367   3.174   5.371
10715SOL     OW33043   4.642   6.965   2.302
10715SOL    HW133044   4.581   6.917   2.365
10715SOL    HW233045   4.736   6.958   2.336
10716SOL     OW33046   6.485   2.577   3.150
10716SOL    HW133047   6.554   2.581   3.223
10716SOL    HW233048   6.445   2.486   3.147
10717SOL     OW33049   1.705   2.979   0.893
10717SOL    HW133050   1.635   2.914   0.862
10717SOL    HW233051   1.784   2.973   0.832
10718SOL     OW33052   1.070   4.520   6.466
10718SOL    HW133053   0.984   4.482   6.430
10718SOL    HW233054   1.135   4.446   6.481
10719SOL     OW33055   5.979   6.039   3.281
10719SOL    HW133056   5.955   6.079   3.193
10719SOL    HW233057   5.901   6.047   3.343
10720SOL     OW33058   6.072   5.164   3.876
10720SOL    HW133059   6.072   5.132   3.781
10720SOL    HW233060   6.158   5.213   3.894
10721SOL     OW33061   5.175   4.025   5.186
10721SOL    HW133062   5.272   4.028   5.164
10721SOL    HW233063   5.146   4.115   5.219
10722SOL     OW33064   6.047   4.001   0.198
10722SOL    HW133065   6.096   4.057   0.131
10722SOL    HW233066   5.949   4.022   0.195
10723SOL     OW33067   6.733   1.947   6.634
10723SOL    HW133068   6.830   1.920   6.636
10723SOL    HW233069   6.724   2.041   6.667
10724SOL     OW33070   0.279   6.718   6.297
10724SOL    HW133071   0.290   6.684   6.204
10724SOL    HW233072   0.277   6.641   6.360
10725SOL     OW33073   2.362   6.093   5.402
10725SOL    HW133074   2.355   6.189   5.428
10725SOL    HW233075   2.318   6.078   5.313
10726SOL     OW33076   4.905   0.236   3.953
10726SOL    HW133077   4.850   0.319   3.947
10726SOL    HW233078   4.928   0.217   4.048
10727SOL     OW33079   0.572   5.412   5.962
10727SOL    HW133080   0.670   5.426   5.947
10727SOL    HW233081   0.557   5.322   6.004
10728SOL     OW33082   0.849   5.227   6.945
10728SOL    HW133083   0.852   5.127   6.937
10728SOL    HW233084   0.808   5.252   0.015
10729SOL     OW33085   6.501   1.426   1.922
10729SOL    HW133086   6.411   1.464   1.898
10729SOL    HW233087   6.489   1.331   1.952
10730SOL     OW33088   3.253   6.761   0.784
10730SOL    HW133089   3.280   6.755   0.880
10730SOL    HW233090   3.331   6.738   0.726
10731SOL     OW33091   3.563   0.545   0.948
10731SOL    HW133092   3.522   0.530   0.859
10731SOL    HW233093   3.491   0.560   1.016
10732SOL     OW33094   0.702   4.881   5.906
10732SOL    HW133095   0.754   4.939   5.969
10732SOL    HW233096   0.764   4.817   5.861
10733SOL     OW33097   6.006   1.501   6.599
10733SOL    HW133098   6.024   1.598   6.584
10733SOL    HW233099   6.091   1.456   6.627
10734SOL     OW33100   1.603   1.024   0.416
10734SOL    HW133101   1.553   1.103   0.453
10734SOL    HW233102   1.547   0.980   0.346
10735SOL     OW33103   0.872   3.036   2.404
10735SOL    HW133104   0.972   3.039   2.406
10735SOL    HW233105   0.836   3.105   2.468
10736SOL     OW33106   1.581   0.562   3.554
10736SOL    HW133107   1.484   0.577   3.570
10736SOL    HW233108   1.605   0.598   3.464
10737SOL     OW33109   1.029   2.076   0.996
10737SOL    HW133110   1.082   2.150   0.953
10737SOL    HW233111   0.941   2.067   0.950
10738SOL     OW33112   3.139   6.292   2.376
10738SOL    HW133113   3.089   6.314   2.292
10738SOL    HW233114   3.139   6.371   2.436
10739SOL     OW33115   1.808   1.307   1.580
10739SOL    HW133116   1.889   1.353   1.543
10739SOL    HW233117   1.726   1.356   1.550
10740SOL     OW33118   0.088   4.724   5.410
10740SOL    HW133119   0.073   4.634   5.450
10740SOL    HW233120   0.180   4.728   5.371
10741SOL     OW33121   4.191   0.846   1.583
10741SOL    HW133122   4.160   0.759   1.621
10741SOL    HW233123   4.195   0.915   1.655
10742SOL     OW33124   6.365   7.006   1.290
10742SOL    HW133125   6.397   0.020   1.201
10742SOL    HW233126   6.340   0.067   1.347
10743SOL     OW33127   1.615   2.297   5.731
10743SOL    HW133128   1.680   2.353   5.679
10743SOL    HW233129   1.635   2.306   5.829
10744SOL     OW33130   3.719   1.506   0.569
10744SOL    HW133131   3.752   1.433   0.629
10744SOL    HW233132   3.728   1.594   0.615
10745SOL     OW33133   6.782   5.963   5.915
10745SOL    HW133134   6.749   6.057   5.904
10745SOL    HW233135   6.851   5.943   5.845
10746SOL     OW33136   1.406   4.178   0.575
10746SOL    HW133137   1.432   4.093   0.621
10746SOL    HW233138   1.347   4.231   0.636
10747SOL     OW33139   3.601   1.484   4.801
10747SOL    HW133140   3.672   1.515   4.864
10747SOL    HW233141   3.626   1.508   4.708
10748SOL     OW33142   5.579   0.623   1.424
10748SOL    HW133143   5.568   0.709   1.373
10748SOL    HW233144   5.515   0.622   1.501
10749SOL     OW33145   7.002   5.980   3.923
10749SOL    HW133146   6.912   5.999   3.884
10749SOL    HW233147   0.012   5.887   3.899
10750SOL     OW33148   3.952   6.909   4.786
10750SOL    HW133149   3.970   6.815   4.813
10750SOL    HW233150   3.860   6.916   4.748
10751SOL     OW33151   1.969   4.607   4.093
10751SOL    HW133152   1.878   4.615   4.134
10751SOL    HW233153   1.961   4.560   4.005
10752SOL     OW33154   6.185   4.550   4.909
10752SOL    HW133155   6.093   4.517   4.891
10752SOL    HW233156   6.184   4.611   4.988
10753SOL     OW33157   6.487   4.272   4.154
10753SOL    HW133158   6.439   4.187   4.131
10753SOL    HW233159   6.456   4.344   4.092
10754SOL     OW33160   0.809   0.121   3.262
10754SOL    HW133161   0.883   0.075   3.213
10754SOL    HW233162   0.792   0.076   3.349
10755SOL     OW33163   6.989   0.356   0.610
10755SOL    HW133164   0.054   0.410   0.604
10755SOL    HW233165   7.000   0.285   0.679
10756SOL     OW33166   6.792   5.462   5.882
10756SOL    HW133167   6.845   5.537   5.922
10756SOL    HW233168   6.772   5.394   5.953
10757SOL     OW33169   1.764   2.319   7.013
10757SOL    HW133170   1.709   2.235   7.014
10757SOL    HW233171   1.856   2.298   0.028
10758SOL     OW33172   0.713   6.140   4.233
10758SOL    HW133173   0.800   6.092   4.245
10758SOL    HW233174   0.728   6.221   4.177
10759SOL     OW33175   2.021   3.808   0.593
10759SOL    HW133176   2.079   3.734   0.628
10759SOL    HW233177   2.025   3.810   0.493
10760SOL     OW33178   5.983   0.700   3.617
10760SOL    HW133179   6.024   0.687   3.527
10760SOL    HW233180   6.054   0.730   3.681
10761SOL     OW33181   0.525   5.860   5.594
10761SOL    HW133182   0.588   5.796   5.637
10761SOL    HW233183   0.453   5.809   5.547
10762SOL     OW33184   2.933   1.335   4.903
10762SOL    HW133185   2.990   1.280   4.842
10762SOL    HW233186   2.841   1.344   4.864
10763SOL     OW33187   3.475   6.612   2.729
10763SOL    HW133188   3.457   6.680   2.800
10763SOL    HW233189   3.464   6.654   2.639
10764SOL     OW33190   5.137   1.934   5.392
10764SOL    HW133191   5.147   1.836   5.405
10764SOL    HW233192   5.195   1.964   5.316
10765SOL     OW33193   4.339   3.078   0.492
10765SOL    HW133194   4.356   2.988   0.532
10765SOL    HW233195   4.346   3.147   0.564
10766SOL     OW33196   4.194   4.695   1.038
10766SOL    HW133197   4.266   4.693   0.968
10766SOL    HW233198   4.137   4.775   1.025
10767SOL     OW33199   2.656   0.716   1.296
10767SOL    HW133200   2.639   0.787   1.228
10767SOL    HW233201   2.575   0.704   1.353
10768SOL     OW33202   5.423   5.070   1.347
10768SOL    HW133203   5.456   4.984   1.387
10768SOL    HW233204   5.458   5.079   1.254
10769SOL     OW33205   1.948   3.819   6.082
10769SOL    HW133206   1.973   3.795   6.176
10769SOL    HW233207   1.848   3.822   6.074
10770SOL     OW33208   4.722   6.263   3.773
10770SOL    HW133209   4.641   6.278   3.716
10770SOL    HW233210   4.773   6.184   3.739
10771SOL     OW33211   4.221   0.407   3.991
10771SOL    HW133212   4.295   0.359   3.944
10771SOL    HW233213   4.240   0.505   3.992
10772SOL     OW33214   5.988   6.372   4.689
10772SOL    HW133215   5.951   6.377   4.782
10772SOL    HW233216   5.934   6.307   4.635
10773SOL     OW33217   5.856   4.781   6.411
10773SOL    HW133218   5.760   4.757   6.424
10773SOL    HW233219   5.913   4.723   6.469
10774SOL     OW33220   1.999   1.095   5.337
10774SOL    HW133221   1.948   1.067   5.419
10774SOL    HW233222   1.938   1.143   5.275
10775SOL     OW33223   0.637   4.716   2.843
10775SOL    HW133224   0.614   4.807   2.808
10775SOL    HW233225   0.630   4.649   2.768
10776SOL     OW33226   0.824   1.289   0.078
10776SOL    HW133227   0.728   1.282   0.108
10776SOL    HW233228   0.881   1.230   0.135
10777SOL     OW33229   3.861   5.439   1.165
10777SOL    HW133230   3.953   5.446   1.127
10777SOL    HW233231   3.800   5.504   1.118
10778SOL     OW33232   5.041   6.950   3.995
10778SOL    HW133233   5.076   6.970   3.903
10778SOL    HW233234   4.971   6.879   3.988
10779SOL     OW33235   5.673   2.989   2.816
10779SOL    HW133236   5.679   2.924   2.741
10779SOL    HW233237   5.579   2.994   2.849
10780SOL     OW33238   1.530   0.729   4.234
10780SOL    HW133239   1.614   0.768   4.273
10780SOL    HW233240   1.550   0.639   4.197
10781SOL     OW33241   3.793   1.322   3.435
10781SOL    HW133242   3.867   1.389   3.426
10781SOL    HW233243   3.762   1.295   3.344
10782SOL     OW33244   0.097   1.017   3.374
10782SOL    HW133245   0.098   1.100   3.430
10782SOL    HW233246   0.091   1.043   3.278
10783SOL     OW33247   0.354   2.634   3.044
10783SOL    HW133248   0.291   2.611   3.118
10783SOL    HW233249   0.412   2.711   3.073
10784SOL     OW33250   3.518   1.135   4.187
10784SOL    HW133251   3.457   1.205   4.151
10784SOL    HW233252   3.595   1.122   4.125
10785SOL     OW33253   1.002   3.680   0.813
10785SOL    HW133254   0.964   3.621   0.741
10785SOL    HW233255   1.081   3.635   0.854
10786SOL     OW33256   5.647   4.900   2.744
10786SOL    HW133257   5.598   4.942   2.821
10786SOL    HW233258   5.604   4.813   2.721
10787SOL     OW33259   1.070   0.602   5.651
10787SOL    HW133260   1.095   0.512   5.615
10787SOL    HW233261   0.973   0.603   5.672
10788SOL     OW33262   0.734   3.838   0.677
10788SOL    HW133263   0.668   3.859   0.750
10788SOL    HW233264   0.769   3.922   0.637
10789SOL     OW33265   6.694   3.575   6.577
10789SOL    HW133266   6.707   3.609   6.484
10789SOL    HW233267   6.617   3.511   6.579
10790SOL     OW33268   0.551   6.917   1.872
10790SOL    HW133269   0.651   6.914   1.878
10790SOL    HW233270   0.520   6.850   1.804
10791SOL     OW33271   0.174   5.916   2.442
10791SOL    HW133272   0.192   5.878   2.351
10791SOL    HW233273   0.083   5.956   2.445
10792SOL     OW33274   3.085   3.184   5.187
10792SOL    HW133275   3.181   3.162   5.205
10792SOL    HW233276   3.027   3.109   5.219
10793SOL     OW33277   6.141   3.991   5.995
10793SOL    HW133278   6.069   4.035   5.942
10793SOL    HW233279   6.111   3.900   6.023
10794SOL     OW33280   4.075   3.753   4.349
10794SOL    HW133281   4.107   3.670   4.394
10794SOL    HW233282   4.112   3.756   4.256
10795SOL     OW33283   0.108   5.241   2.971
10795SOL    HW133284   0.123   5.248   3.070
10795SOL    HW233285   0.172   5.302   2.924
10796SOL     OW33286   6.692   0.323   5.071
10796SOL    HW133287   6.620   0.390   5.055
10796SOL    HW233288   6.766   0.337   5.006
10797SOL     OW33289   3.508   3.275   1.628
10797SOL    HW133290   3.544   3.276   1.534
10797SOL    HW233291   3.436   3.206   1.635
10798SOL     OW33292   2.545   1.401   0.326
10798SOL    HW133293   2.600   1.395   0.243
10798SOL    HW233294   2.594   1.455   0.395
10799SOL     OW33295   4.298   0.547   2.243
10799SOL    HW133296   4.324   0.635   2.203
10799SOL    HW233297   4.199   0.541   2.247
10800SOL     OW33298   1.106   5.914   6.193
10800SOL    HW133299   1.049   5.982   6.145
10800SOL    HW233300   1.093   5.923   6.292
10801SOL     OW33301   1.031   0.060   0.266
10801SOL    HW133302   1.011   6.993   0.218
10801SOL    HW233303   0.991   0.056   0.358
10802SOL     OW33304   0.188   6.744   2.844
10802SOL    HW133305   0.264   6.704   2.794
10802SOL    HW233306   0.167   6.835   2.807
10803SOL     OW33307   1.721   5.477   6.302
10803SOL    HW133308   1.625   5.449   6.298
10803SOL    HW233309   1.779   5.405   6.264
10804SOL     OW33310   6.745   2.559   3.400
10804SOL    HW133311   6.756   2.649   3.358
10804SOL    HW233312   6.673   2.564   3.470
10805SOL     OW33313   5.737   0.749   5.222
10805SOL    HW133314   5.644   0.756   5.257
10805SOL    HW233315   5.737   0.700   5.135
10806SOL     OW33316   3.766   4.939   6.576
10806SOL    HW133317   3.842   4.944   6.640
10806SOL    HW233318   3.790   4.879   6.499
10807SOL     OW33319   1.167   5.886   3.751
10807SOL    HW133320   1.176   5.908   3.848
10807SOL    HW233321   1.117   5.800   3.741
10808SOL     OW33322   0.389   2.888   6.144
10808SOL    HW133323   0.466   2.911   6.083
10808SOL    HW233324   0.419   2.819   6.210
10809SOL     OW33325   2.215   4.522   4.206
10809SOL    HW133326   2.130   4.537   4.157
10809SOL    HW233327   2.264   4.445   4.165
10810SOL     OW33328   6.995   0.098   3.661
10810SOL    HW133329   6.972   0.019   3.605
10810SOL    HW233330   6.994   0.180   3.603
10811SOL     OW33331   4.562   5.047   5.310
10811SOL    HW133332   4.608   5.019   5.225
10811SOL    HW233333   4.583   5.143   5.329
10812SOL     OW33334   6.601   3.931   6.376
10812SOL    HW133335   6.508   3.942   6.341
10812SOL    HW233336   6.648   4.020   6.375
10813SOL     OW33337   0.671   3.488   6.349
10813SOL    HW133338   0.736   3.444   6.287
10813SOL    HW233339   0.702   3.580   6.370
10814SOL     OW33340   2.455   7.017   0.256
10814SOL    HW133341   2.485   0.029   0.165
10814SOL    HW233342   2.449   0.078   0.317
10815SOL     OW33343   5.231   2.243   3.027
10815SOL    HW133344   5.159   2.281   3.084
10815SOL    HW233345   5.309   2.218   3.084
10816SOL     OW33346   3.531   3.031   2.968
10816SOL    HW133347   3.596   3.107   2.960
10816SOL    HW233348   3.460   3.056   3.033
10817SOL     OW33349   3.177   0.647   3.561
10817SOL    HW133350   3.248   0.605   3.618
10817SOL    HW233351   3.204   0.741   3.538
10818SOL     OW33352   4.706   4.668   5.574
10818SOL    HW133353   4.705   4.660   5.674
10818SOL    HW233354   4.708   4.765   5.549
10819SOL     OW33355   5.782   5.294   5.958
10819SOL    HW133356   5.850   5.261   6.023
10819SOL    HW233357   5.790   5.242   5.873
10820SOL     OW33358   0.393   5.666   4.548
10820SOL    HW133359   0.417   5.607   4.625
10820SOL    HW233360   0.377   5.611   4.466
10821SOL     OW33361   4.379   6.377   2.985
10821SOL    HW133362   4.423   6.360   3.073
10821SOL    HW233363   4.280   6.367   2.995
10822SOL     OW33364   5.692   1.986   1.107
10822SOL    HW133365   5.644   1.920   1.050
10822SOL    HW233366   5.659   1.979   1.201
10823SOL     OW33367   0.488   0.523   3.664
10823SOL    HW133368   0.537   0.506   3.579
10823SOL    HW233369   0.503   0.618   3.693
10824SOL     OW33370   1.065   1.783   2.427
10824SOL    HW133371   1.111   1.843   2.362
10824SOL    HW233372   0.969   1.773   2.401
10825SOL     OW33373   1.505   2.085   0.441
10825SOL    HW133374   1.523   2.082   0.539
10825SOL    HW233375   1.582   2.128   0.394
10826SOL     OW33376   0.933   2.395   2.390
10826SOL    HW133377   0.911   2.328   2.319
10826SOL    HW233378   1.027   2.380   2.422
10827SOL     OW33379   6.289   2.949   4.706
10827SOL    HW133380   6.372   2.906   4.741
10827SOL    HW233381   6.313   3.038   4.667
10828SOL     OW33382   6.978   4.198   6.976
10828SOL    HW133383   6.923   4.123   6.938
10828SOL    HW233384   0.049   4.162   7.003
10829SOL     OW33385   4.160   3.937   0.314
10829SOL    HW133386   4.152   4.036   0.320
10829SOL    HW233387   4.071   3.895   0.328
10830SOL     OW33388   4.703   1.740   3.776
10830SOL    HW133389   4.656   1.665   3.729
10830SOL    HW233390   4.792   1.755   3.733
10831SOL     OW33391   3.365   0.184   1.792
10831SOL    HW133392   3.316   0.269   1.809
10831SOL    HW233393   3.334   0.144   1.705
10832SOL     OW33394   6.487   3.426   6.336
10832SOL    HW133395   6.527   3.517   6.330
10832SOL    HW233396   6.552   3.358   6.303
10833SOL     OW33397   0.305   2.632   0.959
10833SOL    HW133398   0.211   2.644   0.927
10833SOL    HW233399   0.352   2.566   0.901
10834SOL     OW33400   6.668   0.980   0.296
10834SOL    HW133401   6.619   1.025   0.221
10834SOL    HW233402   6.625   1.002   0.383
10835SOL     OW33403   5.102   3.436   0.063
10835SOL    HW133404   5.024   3.377   0.084
10835SOL    HW233405   5.113   3.442   6.982
10836SOL     OW33406   1.235   1.182   2.970
10836SOL    HW133407   1.314   1.241   2.990
10836SOL    HW233408   1.261   1.116   2.900
10837SOL     OW33409   6.349   4.442   2.435
10837SOL    HW133410   6.356   4.519   2.499
10837SOL    HW233411   6.439   4.401   2.423
10838SOL     OW33412   5.329   6.309   3.627
10838SOL    HW133413   5.276   6.385   3.665
10838SOL    HW233414   5.272   6.227   3.625
10839SOL     OW33415   4.568   3.411   0.837
10839SOL    HW133416   4.578   3.481   0.767
10839SOL    HW233417   4.639   3.341   0.826
10840SOL     OW33418   3.569   0.583   2.831
10840SOL    HW133419   3.634   0.507   2.826
10840SOL    HW233420   3.496   0.560   2.896
10841SOL     OW33421   6.397   4.873   4.897
10841SOL    HW133422   6.438   4.883   4.987
10841SOL    HW233423   6.367   4.962   4.863
10842SOL     OW33424   4.472   2.826   1.261
10842SOL    HW133425   4.476   2.879   1.177
10842SOL    HW233426   4.464   2.888   1.340
10843SOL     OW33427   1.806   1.422   1.172
10843SOL    HW133428   1.789   1.492   1.241
10843SOL    HW233429   1.817   1.465   1.083
10844SOL     OW33430   0.103   4.948   3.806
10844SOL    HW133431   0.050   4.983   3.883
10844SOL    HW233432   0.199   4.975   3.816
10845SOL     OW33433   4.446   6.027   4.845
10845SOL    HW133434   4.514   6.073   4.901
10845SOL    HW233435   4.356   6.033   4.889
10846SOL     OW33436   5.967   6.668   6.891
10846SOL    HW133437   6.023   6.681   6.809
10846SOL    HW233438   6.007   6.721   6.967
10847SOL     OW33439   2.720   2.299   6.997
10847SOL    HW133440   2.805   2.310   6.946
10847SOL    HW233441   2.664   2.227   6.954
10848SOL     OW33442   0.538   3.884   0.855
10848SOL    HW133443   0.570   3.897   0.949
10848SOL    HW233444   0.449   3.838   0.856
10849SOL     OW33445   2.939   4.901   4.237
10849SOL    HW133446   2.870   4.863   4.175
10849SOL    HW233447   2.917   4.875   4.331
10850SOL     OW33448   4.261   6.334   0.215
10850SOL    HW133449   4.331   6.403   0.199
10850SOL    HW233450   4.192   6.369   0.279
10851SOL     OW33451   3.022   4.189   1.336
10851SOL    HW133452   3.013   4.283   1.369
10851SOL    HW233453   3.101   4.146   1.379
10852SOL     OW33454   2.112   1.365   6.944
10852SOL    HW133455   2.175   1.301   6.901
10852SOL    HW233456   2.158   1.411   0.002
10853SOL     OW33457   2.691   3.230   6.202
10853SOL    HW133458   2.613   3.182   6.162
10853SOL    HW233459   2.768   3.167   6.210
10854SOL     OW33460   4.960   5.114   5.052
10854SOL    HW133461   4.995   5.208   5.059
10854SOL    HW233462   4.863   5.117   5.030
10855SOL     OW33463   3.786   0.576   0.760
10855SOL    HW133464   3.734   0.566   0.844
10855SOL    HW233465   3.734   0.631   0.695
10856SOL     OW33466   0.083   0.948   6.429
10856SOL    HW133467   0.069   1.042   6.398
10856SOL    HW233468   0.178   0.921   6.411
10857SOL     OW33469   0.498   1.678   2.494
10857SOL    HW133470   0.507   1.771   2.459
10857SOL    HW233471   0.436   1.626   2.436
10858SOL     OW33472   1.988   6.793   0.930
10858SOL    HW133473   1.913   6.857   0.946
10858SOL    HW233474   2.066   6.818   0.986
10859SOL     OW33475   6.928   4.738   4.336
10859SOL    HW133476   6.873   4.660   4.366
10859SOL    HW233477   6.991   4.763   4.409
10860SOL     OW33478   0.080   3.638   3.801
10860SOL    HW133479   0.125   3.693   3.730
10860SOL    HW233480   0.116   3.545   3.798
10861SOL     OW33481   2.958   3.393   3.355
10861SOL    HW133482   2.983   3.450   3.277
10861SOL    HW233483   2.960   3.448   3.439
10862SOL     OW33484   2.421   1.081   5.643
10862SOL    HW133485   2.516   1.083   5.675
10862SOL    HW233486   2.418   1.110   5.547
10863SOL     OW33487   2.209   0.501   4.724
10863SOL    HW133488   2.299   0.488   4.764
10863SOL    HW233489   2.150   0.424   4.748
10864SOL     OW33490   2.500   6.354   1.294
10864SOL    HW133491   2.438   6.364   1.372
10864SOL    HW233492   2.454   6.381   1.210
10865SOL     OW33493   6.537   1.133   0.099
10865SOL    HW133494   6.564   1.225   0.070
10865SOL    HW233495   6.439   1.122   0.085
10866SOL     OW33496   5.456   5.078   0.125
10866SOL    HW133497   5.528   5.027   0.077
10866SOL    HW233498   5.381   5.097   0.062
10867SOL     OW33499   3.034   4.259   0.414
10867SOL    HW133500   3.099   4.212   0.474
10867SOL    HW233501   2.964   4.304   0.470
10868SOL     OW33502   4.921   1.767   3.613
10868SOL    HW133503   4.967   1.680   3.596
10868SOL    HW233504   4.984   1.842   3.596
10869NA      NA33505   6.595   2.691   5.304
10870NA      NA33506   4.462   4.630   5.140
10871NA      NA33507   1.818   3.113   1.666
10872NA      NA33508   5.088   3.796   5.255
10873NA      NA33509   4.249   2.332   4.835
10874NA      NA33510   3.777   4.896   1.842
10875NA      NA33511   6.627   5.330   5.723
10876NA      NA33512   3.352   3.378   4.644
10877NA      NA33513   4.834   6.192   0.037
10878NA      NA33514   3.593   6.575   5.397
10879NA      NA33515   6.399   5.128   2.792
10880NA      NA33516   2.476   0.511   3.801
10881NA      NA33517   3.811   5.302   1.361
10882NA      NA33518   3.696   3.449   2.396
   7.01805   7.01805   7.01805
